 *******************************************************************************
 **                                                                           **
 **                              MOPAC v23.1.2                                **
 **                                                                           **
 *******************************************************************************
 **          Digital Object Identifier (DOI): 10.5281/zenodo.6511958          **
 **    Visit the DOI location for information on how to cite this program.    **
 *******************************************************************************

                              PM3 CALCULATION RESULTS

 *******************************************************************************
 *  CALCULATION DONE: (MAX THREADS = 1)              Tue Jun  3 16:28:32 2025  *
 *  PM3        - The PM3 Hamiltonian to be used
 *  NONR       - DO NOT USE NEWTON-RAPHSON STEP IN EF
 *  PRECISE    - TIGHTER CRITERIA TO BE USED
 *  NOSYM      - POINT-GROUP SYMMETRY SET TO C1
 *  THREADS=1  - MULTI-THREADING NOT USED
 *  T=         - A TIME OF 172800.0 SECONDS REQUESTED
 *  DUMP=N     - RESTART FILE WRITTEN EVERY 7200.0 SECONDS REQUESTED
 *  GNORM      - EXIT WHEN GRADIENT NORM DROPS BELOW 0.000
 *******************************************************************************
pm3  precise nosym gnorm=0.0 nonr THREADS=1
 InChI=1S/C7H8/c1-2-7-5-3-4-6-7/h2-6H,1H3

   ATOM   CHEMICAL          X               Y               Z
  NUMBER   SYMBOL      (ANGSTROMS)     (ANGSTROMS)     (ANGSTROMS)

     1       C         -2.34920000  *   0.22010000  *   0.31710000  *
     2       C          0.03530000  *  -0.29860000  *  -0.13150000  *
     3       C         -1.24770000  *  -0.66870000  *  -0.16890000  *
     4       C          0.58790000  *   0.96120000  *   0.35700000  *
     5       C          1.16670000  *  -1.09740000  *  -0.58170000  *
     6       C          1.90370000  *   0.90480000  *   0.20810000  *
     7       C          2.26660000  *  -0.38580000  *  -0.38040000  *
     8       H         -2.20440000  *   0.45090000  *   1.39360000  *
     9       H         -2.36180000  *   1.16410000  *  -0.26750000  *
    10       H         -3.32620000  *  -0.29140000  *   0.19010000  *
    11       H         -1.50610000  *  -1.64420000  *  -0.56320000  *
    12       H          0.04090000  *   1.79940000  *   0.76870000  *
    13       H          2.59300000  *   1.69270000  *   0.48100000  *
    14       H          3.26990000  *  -0.71450000  *  -0.61660000  *
    15       H          1.13150000  *  -2.09270000  *  -1.00570000  *



          CARTESIAN COORDINATES 

    NO.       ATOM           X           Y           Z

     1         C         -2.3492      0.2201      0.3171
     2         C          0.0353     -0.2986     -0.1315
     3         C         -1.2477     -0.6687     -0.1689
     4         C          0.5879      0.9612      0.3570
     5         C          1.1667     -1.0974     -0.5817
     6         C          1.9037      0.9048      0.2081
     7         C          2.2666     -0.3858     -0.3804
     8         H         -2.2044      0.4509      1.3936
     9         H         -2.3618      1.1641     -0.2675
    10         H         -3.3262     -0.2914      0.1901
    11         H         -1.5061     -1.6442     -0.5632
    12         H          0.0409      1.7994      0.7687
    13         H          2.5930      1.6927      0.4810
    14         H          3.2699     -0.7145     -0.6166
    15         H          1.1315     -2.0927     -1.0057

  H: (PM3): J. J. P. STEWART, J. COMP. CHEM. 10, 209 (1989).
  C: (PM3): J. J. P. STEWART, J. COMP. CHEM. 10, 209 (1989).

           Empirical Formula: C7 H8  =    15 atoms



      MOLECULAR POINT GROUP   :   C1  


      RHF CALCULATION, NO. OF DOUBLY OCCUPIED LEVELS = 18


          Geometry optimization using EF

  GNORM HAS BEEN SET TOO LOW, RESET TO 0.01

  SPECIFY LET AS KEYWORD TO ALLOW GNORM LESS THAN 0.01

          DIAGONAL MATRIX USED AS START HESSIAN

 CYCLE:     1 TIME:   0.004 TIME LEFT:  2.00D  GRAD.:   107.614 HEAT:  50.43960
 CYCLE:     2 TIME:   0.012 TIME LEFT:  2.00D  GRAD.:    57.281 HEAT:  48.65591
 CYCLE:     3 TIME:   0.004 TIME LEFT:  2.00D  GRAD.:    30.694 HEAT:  47.74297
 CYCLE:     4 TIME:   0.008 TIME LEFT:  2.00D  GRAD.:    27.916 HEAT:  47.45512
 CYCLE:     5 TIME:   0.004 TIME LEFT:  2.00D  GRAD.:    35.966 HEAT:  47.33883
 CYCLE:     6 TIME:   0.008 TIME LEFT:  2.00D  GRAD.:    30.227 HEAT:  47.07449
 CYCLE:     7 TIME:   0.004 TIME LEFT:  2.00D  GRAD.:    29.595 HEAT:  46.94504
 CYCLE:     8 TIME:   0.023 TIME LEFT:  2.00D  GRAD.:    14.758 HEAT:  46.76559
 CYCLE:     9 TIME:   0.020 TIME LEFT:  2.00D  GRAD.:    10.612 HEAT:  46.71041
 CYCLE:    10 TIME:   0.012 TIME LEFT:  2.00D  GRAD.:     8.575 HEAT:  46.67622
 CYCLE:    11 TIME:   0.004 TIME LEFT:  2.00D  GRAD.:    11.967 HEAT:  46.67211
 CYCLE:    12 TIME:   0.008 TIME LEFT:  2.00D  GRAD.:     5.775 HEAT:  46.64233
 CYCLE:    13 TIME:   0.008 TIME LEFT:  2.00D  GRAD.:     4.650 HEAT:  46.63661
 CYCLE:    14 TIME:   0.004 TIME LEFT:  2.00D  GRAD.:     4.056 HEAT:  46.63293
 CYCLE:    15 TIME:   0.004 TIME LEFT:  2.00D  GRAD.:     4.635 HEAT:  46.63200
 CYCLE:    16 TIME:   0.004 TIME LEFT:  2.00D  GRAD.:     2.088 HEAT:  46.62676
 CYCLE:    17 TIME:   0.004 TIME LEFT:  2.00D  GRAD.:     2.128 HEAT:  46.62474
 CYCLE:    18 TIME:   0.008 TIME LEFT:  2.00D  GRAD.:     1.416 HEAT:  46.62142
 CYCLE:    19 TIME:   0.004 TIME LEFT:  2.00D  GRAD.:     0.951 HEAT:  46.61883
 CYCLE:    20 TIME:   0.004 TIME LEFT:  2.00D  GRAD.:     1.282 HEAT:  46.61528
 CYCLE:    21 TIME:   0.004 TIME LEFT:  2.00D  GRAD.:     2.967 HEAT:  46.61313
 CYCLE:    22 TIME:   0.004 TIME LEFT:  2.00D  GRAD.:     1.466 HEAT:  46.61025
 CYCLE:    23 TIME:   0.004 TIME LEFT:  2.00D  GRAD.:     1.373 HEAT:  46.60823
 CYCLE:    24 TIME:   0.008 TIME LEFT:  2.00D  GRAD.:     1.344 HEAT:  46.60598
 CYCLE:    25 TIME:   0.004 TIME LEFT:  2.00D  GRAD.:     1.107 HEAT:  46.60176
 CYCLE:    26 TIME:   0.004 TIME LEFT:  2.00D  GRAD.:     1.957 HEAT:  46.60297
 CYCLE:    27 TIME:   0.004 TIME LEFT:  2.00D  GRAD.:     0.742 HEAT:  46.59811
 CYCLE:    28 TIME:   0.008 TIME LEFT:  2.00D  GRAD.:     0.574 HEAT:  46.59770
 CYCLE:    29 TIME:   0.004 TIME LEFT:  2.00D  GRAD.:     0.442 HEAT:  46.59721
 CYCLE:    30 TIME:   0.004 TIME LEFT:  2.00D  GRAD.:     0.348 HEAT:  46.59661
 CYCLE:    31 TIME:   0.004 TIME LEFT:  2.00D  GRAD.:     0.773 HEAT:  46.59685
 CYCLE:    32 TIME:   0.004 TIME LEFT:  2.00D  GRAD.:     0.224 HEAT:  46.59596
 CYCLE:    33 TIME:   0.004 TIME LEFT:  2.00D  GRAD.:     0.181 HEAT:  46.59589
 CYCLE:    34 TIME:   0.008 TIME LEFT:  2.00D  GRAD.:     0.130 HEAT:  46.59578
 CYCLE:    35 TIME:   0.004 TIME LEFT:  2.00D  GRAD.:     0.092 HEAT:  46.59573
 CYCLE:    36 TIME:   0.004 TIME LEFT:  2.00D  GRAD.:     0.056 HEAT:  46.59572
 CYCLE:    37 TIME:   0.004 TIME LEFT:  2.00D  GRAD.:     0.043 HEAT:  46.59572
 CYCLE:    38 TIME:   0.008 TIME LEFT:  2.00D  GRAD.:     0.044 HEAT:  46.59571
 CYCLE:    39 TIME:   0.004 TIME LEFT:  2.00D  GRAD.:     0.047 HEAT:  46.59570
 CYCLE:    40 TIME:   0.004 TIME LEFT:  2.00D  GRAD.:     0.048 HEAT:  46.59570
 CYCLE:    41 TIME:   0.004 TIME LEFT:  2.00D  GRAD.:     0.062 HEAT:  46.59568
 CYCLE:    42 TIME:   0.004 TIME LEFT:  2.00D  GRAD.:     0.043 HEAT:  46.59568
 CYCLE:    43 TIME:   0.004 TIME LEFT:  2.00D  GRAD.:     0.037 HEAT:  46.59567
 CYCLE:    44 TIME:   0.008 TIME LEFT:  2.00D  GRAD.:     0.028 HEAT:  46.59567
 CYCLE:    45 TIME:   0.004 TIME LEFT:  2.00D  GRAD.:     0.033 HEAT:  46.59566
 CYCLE:    46 TIME:   0.004 TIME LEFT:  2.00D  GRAD.:     0.026 HEAT:  46.59566
 CYCLE:    47 TIME:   0.012 TIME LEFT:  2.00D  GRAD.:     0.100 HEAT:  46.59566
 CYCLE:    48 TIME:   0.008 TIME LEFT:  2.00D  GRAD.:     0.090 HEAT:  46.59566
 CYCLE:    49 TIME:   0.004 TIME LEFT:  2.00D  GRAD.:     0.052 HEAT:  46.59565
 CYCLE:    50 TIME:   0.004 TIME LEFT:  2.00D  GRAD.:     0.021 HEAT:  46.59565
 CYCLE:    51 TIME:   0.004 TIME LEFT:  2.00D  GRAD.:     0.018 HEAT:  46.59565
 CYCLE:    52 TIME:   0.004 TIME LEFT:  2.00D  GRAD.:     0.022 HEAT:  46.59565
 CYCLE:    53 TIME:   0.004 TIME LEFT:  2.00D  GRAD.:     0.027 HEAT:  46.59564
 CYCLE:    54 TIME:   0.008 TIME LEFT:  2.00D  GRAD.:     0.024 HEAT:  46.59564
 CYCLE:    55 TIME:   0.004 TIME LEFT:  2.00D  GRAD.:     0.023 HEAT:  46.59563
 CYCLE:    56 TIME:   0.004 TIME LEFT:  2.00D  GRAD.:     0.028 HEAT:  46.59563
 CYCLE:    57 TIME:   0.008 TIME LEFT:  2.00D  GRAD.:     0.036 HEAT:  46.59562
 CYCLE:    58 TIME:   0.008 TIME LEFT:  2.00D  GRAD.:     0.043 HEAT:  46.59560
 CYCLE:    59 TIME:   0.004 TIME LEFT:  2.00D  GRAD.:     0.047 HEAT:  46.59560
 CYCLE:    60 TIME:   0.012 TIME LEFT:  2.00D  GRAD.:     0.050 HEAT:  46.59558
 CYCLE:    61 TIME:   0.004 TIME LEFT:  2.00D  GRAD.:     0.045 HEAT:  46.59553
 CYCLE:    62 TIME:   0.008 TIME LEFT:  2.00D  GRAD.:     0.049 HEAT:  46.59551
 CYCLE:    63 TIME:   0.008 TIME LEFT:  2.00D  GRAD.:     0.064 HEAT:  46.59543
 CYCLE:    64 TIME:   0.008 TIME LEFT:  2.00D  GRAD.:     0.187 HEAT:  46.59514
 CYCLE:    65 TIME:   0.008 TIME LEFT:  2.00D  GRAD.:     0.407 HEAT:  46.59488
 CYCLE:    66 TIME:   0.004 TIME LEFT:  2.00D  GRAD.:     0.760 HEAT:  46.59409
 CYCLE:    67 TIME:   0.008 TIME LEFT:  2.00D  GRAD.:     1.179 HEAT:  46.58904
 CYCLE:    68 TIME:   0.004 TIME LEFT:  2.00D  GRAD.:     2.014 HEAT:  46.57301
 CYCLE:    69 TIME:   0.031 TIME LEFT:  2.00D  GRAD.:     1.705 HEAT:  46.57169
 CYCLE:    70 TIME:   0.004 TIME LEFT:  2.00D  GRAD.:     1.736 HEAT:  46.57102
 CYCLE:    71 TIME:   0.004 TIME LEFT:  2.00D  GRAD.:     1.532 HEAT:  46.56862
 CYCLE:    72 TIME:   0.008 TIME LEFT:  2.00D  GRAD.:     1.938 HEAT:  46.56195
 CYCLE:    73 TIME:   0.004 TIME LEFT:  2.00D  GRAD.:     1.971 HEAT:  46.53788
 CYCLE:    74 TIME:   0.008 TIME LEFT:  2.00D  GRAD.:     3.937 HEAT:  46.52686
 CYCLE:    75 TIME:   0.008 TIME LEFT:  2.00D  GRAD.:     6.225 HEAT:  46.50672
 CYCLE:    76 TIME:   0.008 TIME LEFT:  2.00D  GRAD.:     6.384 HEAT:  46.47679
 CYCLE:    77 TIME:   0.004 TIME LEFT:  2.00D  GRAD.:    10.247 HEAT:  46.44544
 CYCLE:    78 TIME:   0.008 TIME LEFT:  2.00D  GRAD.:     4.597 HEAT:  46.35642
 CYCLE:    79 TIME:   0.008 TIME LEFT:  2.00D  GRAD.:     5.848 HEAT:  46.33220
 CYCLE:    80 TIME:   0.004 TIME LEFT:  2.00D  GRAD.:     9.652 HEAT:  46.32047
 CYCLE:    81 TIME:   0.008 TIME LEFT:  2.00D  GRAD.:    10.844 HEAT:  46.28161
 CYCLE:    82 TIME:   0.008 TIME LEFT:  2.00D  GRAD.:     4.510 HEAT:  46.26351
 CYCLE:    83 TIME:   0.004 TIME LEFT:  2.00D  GRAD.:     1.864 HEAT:  46.23243
 CYCLE:    84 TIME:   0.008 TIME LEFT:  2.00D  GRAD.:     4.083 HEAT:  46.21528
 CYCLE:    85 TIME:   0.008 TIME LEFT:  2.00D  GRAD.:     6.835 HEAT:  46.19364
 CYCLE:    86 TIME:   0.004 TIME LEFT:  2.00D  GRAD.:     6.310 HEAT:  46.14591
 CYCLE:    87 TIME:   0.008 TIME LEFT:  2.00D  GRAD.:     9.071 HEAT:  46.14307
 CYCLE:    88 TIME:   0.004 TIME LEFT:  2.00D  GRAD.:     6.554 HEAT:  46.11243
 CYCLE:    89 TIME:   0.008 TIME LEFT:  2.00D  GRAD.:     6.731 HEAT:  46.09286
 CYCLE:    90 TIME:   0.008 TIME LEFT:  2.00D  GRAD.:     4.156 HEAT:  46.07458
 CYCLE:    91 TIME:   0.004 TIME LEFT:  2.00D  GRAD.:     3.847 HEAT:  46.06308
 CYCLE:    92 TIME:   0.008 TIME LEFT:  2.00D  GRAD.:     3.778 HEAT:  46.04354
 CYCLE:    93 TIME:   0.004 TIME LEFT:  2.00D  GRAD.:     3.950 HEAT:  46.03165
 CYCLE:    94 TIME:   0.012 TIME LEFT:  2.00D  GRAD.:     4.355 HEAT:  46.03056
 CYCLE:    95 TIME:   0.004 TIME LEFT:  2.00D  GRAD.:     0.508 HEAT:  46.01602
 CYCLE:    96 TIME:   0.008 TIME LEFT:  2.00D  GRAD.:     0.798 HEAT:  46.01280
 CYCLE:    97 TIME:   0.008 TIME LEFT:  2.00D  GRAD.:     1.569 HEAT:  46.00837
 CYCLE:    98 TIME:   0.004 TIME LEFT:  2.00D  GRAD.:     2.171 HEAT:  46.00537
 CYCLE:    99 TIME:   0.004 TIME LEFT:  2.00D  GRAD.:     0.894 HEAT:  46.00308
 CYCLE:   100 TIME:   0.008 TIME LEFT:  2.00D  GRAD.:     0.811 HEAT:  46.00272
 CYCLE:   101 TIME:   0.004 TIME LEFT:  2.00D  GRAD.:     0.433 HEAT:  46.00098
 CYCLE:   102 TIME:   0.008 TIME LEFT:  2.00D  GRAD.:     0.506 HEAT:  45.99939
 CYCLE:   103 TIME:   0.004 TIME LEFT:  2.00D  GRAD.:     0.876 HEAT:  45.99709
 CYCLE:   104 TIME:   0.008 TIME LEFT:  2.00D  GRAD.:     1.342 HEAT:  45.99528
 CYCLE:   105 TIME:   0.004 TIME LEFT:  2.00D  GRAD.:     0.725 HEAT:  45.99373
 CYCLE:   106 TIME:   0.004 TIME LEFT:  2.00D  GRAD.:     0.864 HEAT:  45.99312
 CYCLE:   107 TIME:   0.008 TIME LEFT:  2.00D  GRAD.:     0.276 HEAT:  45.99265
 CYCLE:   108 TIME:   0.004 TIME LEFT:  2.00D  GRAD.:     0.208 HEAT:  45.99245
 CYCLE:   109 TIME:   0.008 TIME LEFT:  2.00D  GRAD.:     0.194 HEAT:  45.99235
 CYCLE:   110 TIME:   0.004 TIME LEFT:  2.00D  GRAD.:     0.217 HEAT:  45.99238
 CYCLE:   111 TIME:   0.008 TIME LEFT:  2.00D  GRAD.:     0.071 HEAT:  45.99219
 CYCLE:   112 TIME:   0.004 TIME LEFT:  2.00D  GRAD.:     0.066 HEAT:  45.99217
 CYCLE:   113 TIME:   0.008 TIME LEFT:  2.00D  GRAD.:     0.051 HEAT:  45.99216
 CYCLE:   114 TIME:   0.004 TIME LEFT:  2.00D  GRAD.:     0.037 HEAT:  45.99216
 CYCLE:   115 TIME:   0.008 TIME LEFT:  2.00D  GRAD.:     0.027 HEAT:  45.99216
 CYCLE:   116 TIME:   0.008 TIME LEFT:  2.00D  GRAD.:     0.020 HEAT:  45.99216
 CYCLE:   117 TIME:   0.004 TIME LEFT:  2.00D  GRAD.:     0.018 HEAT:  45.99215
 CYCLE:   118 TIME:   0.008 TIME LEFT:  2.00D  GRAD.:     0.016 HEAT:  45.99215
 CYCLE:   119 TIME:   0.008 TIME LEFT:  2.00D  GRAD.:     0.009 HEAT:  45.99215

     GRADIENT =  0.00901 IS LESS THAN CUTOFF =  0.01000



 -------------------------------------------------------------------------------
 pm3  precise nosym gnorm=0.0 nonr THREADS=1
 InChI=1S/C7H8/c1-2-7-5-3-4-6-7/h2-6H,1H3



     GEOMETRY OPTIMISED USING EIGENVECTOR FOLLOWING (EF).     
     SCF FIELD WAS ACHIEVED                                   


                              PM3 CALCULATION
                                                       MOPAC v23.1.2 MacOS
                                                       Tue Jun  3 16:28:33 2025




          FINAL HEAT OF FORMATION =         45.99215 KCAL/MOL =     192.43116 KJ/MOL


          COSMO AREA              =        141.85 SQUARE ANGSTROMS
          COSMO VOLUME            =        132.15 CUBIC ANGSTROMS

          GRADIENT NORM           =          0.00901          =       0.00233 PER ATOM
          IONIZATION POTENTIAL    =          9.093011 EV
          HOMO LUMO ENERGIES (EV) =         -9.093 -0.603
          NO. OF FILLED LEVELS    =         18
          MOLECULAR WEIGHT        =         92.1402         POINT GROUP:  C1  

          MOLECULAR DIMENSIONS (Angstroms)

            Atom       Atom       Distance
            H    14    H    10     6.50402
            H    15    H    13     4.24660
            H     8    H    10     1.75462


          SCF CALCULATIONS        =        137

          WALL-CLOCK TIME         =      0.766 SECONDS
          COMPUTATION TIME        =      0.405 SECONDS




   ATOM   CHEMICAL          X               Y               Z
  NUMBER   SYMBOL      (ANGSTROMS)     (ANGSTROMS)     (ANGSTROMS)

     1       C         -2.38419053  *   0.18042188  *   0.33454343  *
     2       C          0.02423037  *  -0.28892760  *  -0.10080199  *
     3       C         -1.25741226  *  -0.67471076  *  -0.08704891  *
     4       C          0.60528058  *   1.01311658  *   0.27939994  *
     5       C          1.17011398  *  -1.12331719  *  -0.51736851  *
     6       C          1.94831011  *   0.94855260  *   0.10432659  *
     7       C          2.30167035  *  -0.38707443  *  -0.39382817  *
     8       H         -2.91473202  *  -0.27674014  *   1.18109609  *
     9       H         -2.06941073  *   1.18710088  *   0.64255498  *
    10       H         -3.10613634  *   0.29311727  *  -0.48594683  *
    11       H         -1.51291677  *  -1.69342591  *  -0.40715329  *
    12       H          0.01524920  *   1.85566241  *   0.63543772  *
    13       H          2.67941115  *   1.73220282  *   0.28973942  *
    14       H          3.32117835  *  -0.69439277  *  -0.61531577  *
    15       H          1.06984021  *  -2.15128287  *  -0.85836351  *

                             CARTESIAN COORDINATES

   1    C       -2.384190527     0.180421883     0.334543431
   2    C        0.024230366    -0.288927601    -0.100801990
   3    C       -1.257412262    -0.674710756    -0.087048911
   4    C        0.605280579     1.013116578     0.279399940
   5    C        1.170113981    -1.123317185    -0.517368514
   6    C        1.948310112     0.948552604     0.104326586
   7    C        2.301670352    -0.387074429    -0.393828171
   8    H       -2.914732021    -0.276740141     1.181096091
   9    H       -2.069410731     1.187100881     0.642554979
  10    H       -3.106136344     0.293117273    -0.485946832
  11    H       -1.512916766    -1.693425906    -0.407153290
  12    H        0.015249197     1.855662412     0.635437723
  13    H        2.679411152     1.732202820     0.289739424
  14    H        3.321178348    -0.694392766    -0.615315772
  15    H        1.069840206    -2.151282867    -0.858363511


           Empirical Formula: C7 H8  =    15 atoms



      MOLECULAR POINT GROUP   :   C1  


                  EIGENVALUES  
 -39.65646 -33.61916 -27.46418 -26.21241 -21.62727 -19.01450 -18.35139 -17.28721
 -15.05871 -14.61801 -14.38830 -13.85022 -13.31287 -12.76727 -12.75847 -12.24951
  -9.52276  -9.09301  -0.60325   2.07856   2.22098   3.08271   3.38975   3.48179
   3.57227   3.97925   4.08350   4.18799   4.22771   4.43671   4.65727   5.00366
   5.19222   6.05692   6.24327   6.25894


              NET ATOMIC CHARGES AND DIPOLE CONTRIBUTIONS

  ATOM NO.   TYPE          CHARGE      No. of ELECS.   s-Pop       p-Pop       
    1          C          -0.091278        4.0913     1.12571     2.96557
    2          C          -0.095381        4.0954     1.18498     2.91040
    3          C          -0.038065        4.0381     1.18846     2.84960
    4          C          -0.125094        4.1251     1.18999     2.93511
    5          C          -0.126805        4.1268     1.19266     2.93415
    6          C          -0.115338        4.1153     1.19362     2.92172
    7          C          -0.118197        4.1182     1.19353     2.92467
    8          H           0.052450        0.9475     0.94755
    9          H           0.051847        0.9482     0.94815
   10          H           0.052430        0.9476     0.94757
   11          H           0.095130        0.9049     0.90487
   12          H           0.117079        0.8829     0.88292
   13          H           0.112868        0.8871     0.88713
   14          H           0.113195        0.8868     0.88680
   15          H           0.115159        0.8848     0.88484
 DIPOLE           X         Y         Z       TOTAL
 POINT-CHG.    -1.063    -0.113     0.083     1.072
 HYBRID        -0.064    -0.046    -0.008     0.079
 SUM           -1.127    -0.158     0.074     1.140


          ATOMIC ORBITAL ELECTRON POPULATIONS

     Atom    s        px        py        pz   
    1  C   1.12571   0.96796   0.99393   1.00367
    2  C   1.18498   0.94024   0.95420   1.01596
    3  C   1.18846   0.94002   0.97959   0.92999
    4  C   1.18999   0.95631   0.95583   1.02296
    5  C   1.19266   0.93807   0.97541   1.02067
    6  C   1.19362   0.95794   0.96319   1.00059
    7  C   1.19353   0.97300   0.94866   1.00301
    8  H   0.94755
    9  H   0.94815
   10  H   0.94757
   11  H   0.90487
   12  H   0.88292
   13  H   0.88713
   14  H   0.88680
   15  H   0.88484
 *******************************************************************************
 **                                                                           **
 **                              MOPAC v23.1.2                                **
 **                                                                           **
 *******************************************************************************
 **          Digital Object Identifier (DOI): 10.5281/zenodo.6511958          **
 **    Visit the DOI location for information on how to cite this program.    **
 *******************************************************************************

                              PM3 CALCULATION RESULTS

 *******************************************************************************
 *  CALCULATION DONE: (MAX THREADS = 1)              Tue Jun  3 16:28:33 2025  *
 *  PM3        - The PM3 Hamiltonian to be used
 *  OLDGEO     - PREVIOUS GEOMETRY TO BE USED
 *  PRECISE    - TIGHTER CRITERIA TO BE USED
 *  NOSYM      - POINT-GROUP SYMMETRY SET TO C1
 *  THREADS=1  - MULTI-THREADING NOT USED
 *  T=         - A TIME OF 172800.0 SECONDS REQUESTED
 *  DUMP=N     - RESTART FILE WRITTEN EVERY 7200.0 SECONDS REQUESTED
 *  THERMO     - THERMODYNAMIC QUANTITIES TO BE CALCULATED
 *******************************************************************************
oldgeo thermo nosym precise THREADS=1  pm3
 InChI=1S/C7H8/c1-2-7-5-3-4-6-7/h2-6H,1H3

   ATOM   CHEMICAL          X               Y               Z
  NUMBER   SYMBOL      (ANGSTROMS)     (ANGSTROMS)     (ANGSTROMS)

     1       C         -2.38419053  *   0.18042188  *   0.33454343  *
     2       C          0.02423037  *  -0.28892760  *  -0.10080199  *
     3       C         -1.25741226  *  -0.67471076  *  -0.08704891  *
     4       C          0.60528058  *   1.01311658  *   0.27939994  *
     5       C          1.17011398  *  -1.12331719  *  -0.51736851  *
     6       C          1.94831011  *   0.94855260  *   0.10432659  *
     7       C          2.30167035  *  -0.38707443  *  -0.39382817  *
     8       H         -2.91473202  *  -0.27674014  *   1.18109609  *
     9       H         -2.06941073  *   1.18710088  *   0.64255498  *
    10       H         -3.10613634  *   0.29311727  *  -0.48594683  *
    11       H         -1.51291677  *  -1.69342591  *  -0.40715329  *
    12       H          0.01524920  *   1.85566241  *   0.63543772  *
    13       H          2.67941115  *   1.73220282  *   0.28973942  *
    14       H          3.32117835  *  -0.69439277  *  -0.61531577  *
    15       H          1.06984021  *  -2.15128287  *  -0.85836351  *



          CARTESIAN COORDINATES 

    NO.       ATOM           X           Y           Z

     1         C         -2.3842      0.1804      0.3345
     2         C          0.0242     -0.2889     -0.1008
     3         C         -1.2574     -0.6747     -0.0870
     4         C          0.6053      1.0131      0.2794
     5         C          1.1701     -1.1233     -0.5174
     6         C          1.9483      0.9486      0.1043
     7         C          2.3017     -0.3871     -0.3938
     8         H         -2.9147     -0.2767      1.1811
     9         H         -2.0694      1.1871      0.6426
    10         H         -3.1061      0.2931     -0.4859
    11         H         -1.5129     -1.6934     -0.4072
    12         H          0.0152      1.8557      0.6354
    13         H          2.6794      1.7322      0.2897
    14         H          3.3212     -0.6944     -0.6153
    15         H          1.0698     -2.1513     -0.8584

  H: (PM3): J. J. P. STEWART, J. COMP. CHEM. 10, 209 (1989).
  C: (PM3): J. J. P. STEWART, J. COMP. CHEM. 10, 209 (1989).

           Empirical Formula: C7 H8  =    15 atoms



      MOLECULAR POINT GROUP   :   C1  


      RHF CALCULATION, NO. OF DOUBLY OCCUPIED LEVELS = 18



          HEAT OF FORMATION =      45.992152 KCALS/MOLE


          CARTESIAN COORDINATE DERIVATIVES

   NUMBER  ATOM         X            Y            Z

     1       C      0.003732    -0.001172     0.003662
     2       C      0.000881    -0.000407    -0.000303
     3       C      0.000314     0.000457     0.000951
     4       C      0.000941    -0.000305    -0.000182
     5       C      0.001145     0.001303     0.000453
     6       C      0.001382     0.000908    -0.001173
     7       C      0.000256     0.001660    -0.000022
     8       H     -0.001045    -0.001513    -0.002265
     9       H     -0.000397     0.000403    -0.001243
    10       H     -0.004253     0.001917     0.000856
    11       H      0.000750    -0.000826    -0.000366
    12       H     -0.000419     0.000218    -0.000176
    13       H     -0.001798    -0.001697    -0.000216
    14       H     -0.000877    -0.000416     0.000706
    15       H     -0.000613    -0.000530    -0.000682



          GRADIENT NORM =   0.00924

          MOLECULAR WEIGHT =   92.14



          ROTATIONAL CONSTANTS IN CM(-1)

          A =    0.23629026   B =    0.06515787   C =    0.05156856



           PRINCIPAL MOMENTS OF INERTIA IN UNITS OF 10**(-40)*GRAM-CM**2

          A =      118.4677   B =      429.6143   C =      542.8260


          ORIENTATION OF MOLECULE IN FORCE CALCULATION

    NO.       ATOM         X         Y         Z

     1          C      -2.6889    0.3078    0.0000
     2          C      -0.1969    0.3078    0.0000
     3          C      -1.3653    0.9609    0.0000
     4          C       0.0530   -1.1465    0.0001
     5          C       1.1405    0.9357   -0.0001
     6          C       1.3937   -1.3492   -0.0000
     7          C       2.0738   -0.0475   -0.0001
     8          H      -3.2634    0.6090   -0.8867
     9          H      -2.6281   -0.7893    0.0012
    10          H      -3.2645    0.6109    0.8854
    11          H      -1.3644    2.0588   -0.0000
    12          H      -0.7381   -1.8942    0.0001
    13          H       1.9203   -2.3009   -0.0000
    14          H       3.1557    0.0641   -0.0001
    15          H       1.2967    2.0121   -0.0001


    FIRST DERIVATIVES WILL BE USED IN THE CALCULATION OF SECOND DERIVATIVES

          ESTIMATED TIME TO COMPLETE CALCULATION =        2.11 SECONDS

    FOR POINT-GROUP C1   THERE ARE   1 UNIQUE SYMMETRY FUNCTIONS.

 STEP:   1 TIME =     0.02 SECS, INTEGRAL =      0.02 TIME LEFT: 172799.97
 STEP:   2 TIME =     0.02 SECS, INTEGRAL =      0.03 TIME LEFT: 172799.96
 STEP:   3 TIME =     0.01 SECS, INTEGRAL =      0.04 TIME LEFT: 172799.95
 STEP:   4 TIME =     0.01 SECS, INTEGRAL =      0.05 TIME LEFT: 172799.93
 STEP:   5 TIME =     0.01 SECS, INTEGRAL =      0.07 TIME LEFT: 172799.92
 STEP:   6 TIME =     0.01 SECS, INTEGRAL =      0.08 TIME LEFT: 172799.91
 STEP:   7 TIME =     0.01 SECS, INTEGRAL =      0.09 TIME LEFT: 172799.90
 STEP:   8 TIME =     0.01 SECS, INTEGRAL =      0.10 TIME LEFT: 172799.89
 STEP:   9 TIME =     0.01 SECS, INTEGRAL =      0.11 TIME LEFT: 172799.88
 STEP:  10 TIME =     0.01 SECS, INTEGRAL =      0.12 TIME LEFT: 172799.86
 STEP:  11 TIME =     0.01 SECS, INTEGRAL =      0.14 TIME LEFT: 172799.85
 STEP:  12 TIME =     0.01 SECS, INTEGRAL =      0.15 TIME LEFT: 172799.84
 STEP:  13 TIME =     0.01 SECS, INTEGRAL =      0.16 TIME LEFT: 172799.83
 STEP:  14 TIME =     0.01 SECS, INTEGRAL =      0.17 TIME LEFT: 172799.82
 STEP:  15 TIME =     0.01 SECS, INTEGRAL =      0.18 TIME LEFT: 172799.81
 STEP:  16 TIME =     0.01 SECS, INTEGRAL =      0.19 TIME LEFT: 172799.80
 STEP:  17 TIME =     0.01 SECS, INTEGRAL =      0.20 TIME LEFT: 172799.79
 STEP:  18 TIME =     0.01 SECS, INTEGRAL =      0.21 TIME LEFT: 172799.78
 STEP:  19 TIME =     0.01 SECS, INTEGRAL =      0.22 TIME LEFT: 172799.77
 STEP:  20 TIME =     0.02 SECS, INTEGRAL =      0.24 TIME LEFT: 172799.75
 STEP:  21 TIME =     0.01 SECS, INTEGRAL =      0.25 TIME LEFT: 172799.74
 STEP:  22 TIME =     0.01 SECS, INTEGRAL =      0.26 TIME LEFT: 172799.73
 STEP:  23 TIME =     0.01 SECS, INTEGRAL =      0.27 TIME LEFT: 172799.71
 STEP:  24 TIME =     0.01 SECS, INTEGRAL =      0.28 TIME LEFT: 172799.71
 STEP:  25 TIME =     0.01 SECS, INTEGRAL =      0.29 TIME LEFT: 172799.70
 STEP:  26 TIME =     0.01 SECS, INTEGRAL =      0.30 TIME LEFT: 172799.68
 STEP:  27 TIME =     0.01 SECS, INTEGRAL =      0.32 TIME LEFT: 172799.67
 STEP:  28 TIME =     0.01 SECS, INTEGRAL =      0.32 TIME LEFT: 172799.66
 STEP:  29 TIME =     0.01 SECS, INTEGRAL =      0.33 TIME LEFT: 172799.66
 STEP:  30 TIME =     0.01 SECS, INTEGRAL =      0.34 TIME LEFT: 172799.64
 STEP:  31 TIME =     0.01 SECS, INTEGRAL =      0.36 TIME LEFT: 172799.63
 STEP:  32 TIME =     0.01 SECS, INTEGRAL =      0.37 TIME LEFT: 172799.62
 STEP:  33 TIME =     0.02 SECS, INTEGRAL =      0.38 TIME LEFT: 172799.61
 STEP:  34 TIME =     0.01 SECS, INTEGRAL =      0.39 TIME LEFT: 172799.59
 STEP:  35 TIME =     0.01 SECS, INTEGRAL =      0.41 TIME LEFT: 172799.58
 STEP:  36 TIME =     0.01 SECS, INTEGRAL =      0.42 TIME LEFT: 172799.57
 STEP:  37 TIME =     0.01 SECS, INTEGRAL =      0.43 TIME LEFT: 172799.56
 STEP:  38 TIME =     0.01 SECS, INTEGRAL =      0.44 TIME LEFT: 172799.55
 STEP:  39 TIME =     0.01 SECS, INTEGRAL =      0.45 TIME LEFT: 172799.54
 STEP:  40 TIME =     0.01 SECS, INTEGRAL =      0.46 TIME LEFT: 172799.53
 STEP:  41 TIME =     0.01 SECS, INTEGRAL =      0.47 TIME LEFT: 172799.52
 STEP:  42 TIME =     0.01 SECS, INTEGRAL =      0.48 TIME LEFT: 172799.50
 STEP:  43 TIME =     0.02 SECS, INTEGRAL =      0.50 TIME LEFT: 172799.49
 STEP:  44 TIME =     0.01 SECS, INTEGRAL =      0.51 TIME LEFT: 172799.48
 STEP:  45 TIME =     0.01 SECS, INTEGRAL =      0.52 TIME LEFT: 172799.47

(To convert to Hartree/Bohr^2, multiply by (10^(-21) x N x a0^2)/(4.184 x 627.51) =  0.0642)


           FORCE MATRIX IN MILLIDYNES/ANGSTROM


                  C  1       C  2       C  3       C  4       C  5       C  6
 ------------------------------------------------------------------------------
     C    1  14.701517
     C    2   0.846973  19.430063
     C    3   5.324627  10.050054  17.977765
     C    4   0.092731   4.745778   0.831880  18.083759
     C    5   0.150570   4.701932   0.914957   1.146367  18.108066
     C    6   0.031365   1.525688   0.156164   9.453348   1.583760  18.099270
     C    7   0.033724   1.507887   0.163006   1.579264   9.474646   4.985648
     H    8   4.696905   0.041839   0.437311   0.013230   0.022143   0.005782
     H    9   4.705978   0.028534   0.483631   0.031567   0.003754   0.002593
     H   10   4.697170   0.041890   0.437409   0.013211   0.022116   0.005769
     H   11   0.427075   0.454162   4.762310   0.120335   0.088414   0.022966
     H   12   0.021788   0.419165   0.014776   5.042644   0.039433   0.445079
     H   13   0.004477   0.111597   0.010044   0.444864   0.049470   5.083695
     H   14   0.010238   0.109547   0.008862   0.049531   0.445706   0.420074
     H   15   0.004903   0.419812   0.021137   0.038679   5.075447   0.099049


                  C  7       H  8       H  9       H 10       H 11       H 12
 ------------------------------------------------------------------------------
     C    7  18.111014
     H    8   0.006331   5.412352
     H    9   0.003241   0.557669   5.398059
     H   10   0.006319   0.573038   0.557567   5.412562
     H   11   0.021312   0.023905   0.042724   0.023983   5.120697
     H   12   0.100171   0.001967   0.056628   0.001966   0.004652   5.435601
     H   13   0.419429   0.000439   0.000527   0.000437   0.008107   0.041404
     H   14   5.084940   0.001489   0.000242   0.001488   0.003765   0.005374
     H   15   0.444282   0.000855   0.000553   0.000853   0.011535   0.009738


                  H 13       H 14       H 15
 ------------------------------------------
     H   13   5.475350
     H   14   0.008785   5.476794
     H   15   0.005392   0.041042   5.478108


          HEAT OF FORMATION =      45.992152 KCALS/MOLE

          ZERO POINT ENERGY      79.083 KCAL/MOL


           NORMAL COORDINATE ANALYSIS (Total motion = 1 Angstrom)


   Root No.       1         2         3         4         5         6         7         8

                 1 A       2 A       3 A       4 A       5 A       6 A       7 A       8 A   

                 114.0     143.2     177.7     261.5     483.3     487.2     579.1     686.0
  
           1   -0.0000    0.0000   -0.0397    0.0000    0.0777   -0.0001    0.0000   -0.0205
           2    0.0000   -0.0001    0.0666   -0.0000    0.0049   -0.0000   -0.0000    0.0039
           3   -0.0146   -0.0562   -0.0000   -0.0269   -0.0000   -0.0045   -0.0034   -0.0000
           4   -0.0000    0.0000   -0.0110   -0.0000   -0.0189    0.0000    0.0000   -0.0496
           5   -0.0000    0.0000   -0.0459    0.0000   -0.0390    0.0000    0.0000    0.0183
           6    0.0239    0.0582    0.0000   -0.0179    0.0000    0.0108    0.1058    0.0000
           7    0.0000   -0.0000    0.0017    0.0000    0.0384   -0.0000    0.0000   -0.0416
           8   -0.0000    0.0000   -0.0227    0.0000    0.0491   -0.0000   -0.0000    0.0789
           9    0.0135    0.0146    0.0000    0.0844    0.0000    0.0143   -0.0096   -0.0000
          10    0.0000   -0.0000    0.0331   -0.0000   -0.0140    0.0000   -0.0000    0.0436
          11   -0.0000    0.0000   -0.0379    0.0000   -0.0419    0.0000   -0.0000    0.0106
          12    0.0119    0.0644    0.0000   -0.0235    0.0000    0.0386   -0.0381   -0.0000
          13   -0.0000    0.0000   -0.0262   -0.0000   -0.0573    0.0000   -0.0000   -0.0122
          14   -0.0000    0.0000   -0.0080   -0.0000    0.0004   -0.0000    0.0000   -0.0537
          15    0.0148    0.0142   -0.0000   -0.0501   -0.0000   -0.0538   -0.0256    0.0000
          16    0.0000   -0.0000    0.0409   -0.0000   -0.0062    0.0000   -0.0000    0.0474
          17    0.0000   -0.0000    0.0035   -0.0000    0.0021   -0.0000    0.0000   -0.0194
          18   -0.0210   -0.0176    0.0000    0.0398   -0.0001   -0.0580    0.0230   -0.0000
          19   -0.0000   -0.0000    0.0039   -0.0000   -0.0401    0.0000   -0.0000    0.0257
          20    0.0000   -0.0000    0.0221   -0.0000    0.0236   -0.0000    0.0000   -0.0247
          21   -0.0194   -0.0571   -0.0000   -0.0022    0.0001    0.0630    0.0094    0.0000
          22    0.1156   -0.0013   -0.0178    0.0829    0.0624    0.0217   -0.0146   -0.0649
          23   -0.1779    0.1021    0.1117    0.0337   -0.0362    0.0143   -0.0061   -0.0812
          24   -0.1506   -0.0206    0.0004   -0.0702   -0.0024   -0.0143    0.0044    0.0006
          25   -0.0002    0.0001   -0.1269   -0.0001    0.1588   -0.0002   -0.0000    0.1216
          26    0.0003   -0.0002    0.0641   -0.0001    0.0069   -0.0000    0.0000    0.0091
          27    0.2114   -0.1826   -0.0002   -0.0654   -0.0000   -0.0220    0.0047   -0.0000
          28   -0.1154    0.0014   -0.0175   -0.0827    0.0622   -0.0218    0.0146   -0.0651
          29    0.1776   -0.1021    0.1114   -0.0337   -0.0363   -0.0142    0.0061   -0.0813
          30   -0.1511   -0.0204   -0.0003   -0.0702    0.0023   -0.0143    0.0044   -0.0006
          31    0.0000   -0.0000    0.0527    0.0000    0.0758   -0.0001   -0.0000   -0.0588
          32   -0.0000    0.0000   -0.0211    0.0000    0.0475   -0.0000   -0.0000    0.0786
          33    0.0108    0.0117    0.0000    0.2104   -0.0000   -0.0164   -0.1466    0.0000
          34    0.0000   -0.0001    0.0676   -0.0000   -0.0006    0.0000   -0.0000    0.0805
          35   -0.0000    0.0001   -0.0725    0.0000   -0.0566    0.0001   -0.0000   -0.0281
          36    0.0260    0.1214    0.0001   -0.0369    0.0001    0.0862   -0.2753   -0.0000
          37    0.0000   -0.0001    0.0696    0.0000    0.0306   -0.0000   -0.0000    0.0355
          38    0.0000   -0.0000    0.0192   -0.0000    0.0225   -0.0000    0.0000   -0.0273
          39   -0.0428   -0.0464   -0.0000    0.1023   -0.0002   -0.2135   -0.0371   -0.0000
          40   -0.0000   -0.0000    0.0004   -0.0000   -0.0441    0.0000   -0.0000    0.0213
          41    0.0000   -0.0000    0.0554   -0.0000    0.0556   -0.0000   -0.0000    0.0236
          42   -0.0406   -0.1277   -0.0001   -0.0042    0.0002    0.2152   -0.0818   -0.0000
          43   -0.0000    0.0000   -0.0597   -0.0000   -0.1033    0.0001   -0.0000    0.0161
          44   -0.0000    0.0000   -0.0029   -0.0000    0.0074   -0.0000   -0.0000   -0.0580
          45    0.0288    0.0197   -0.0000   -0.1088   -0.0001   -0.1445   -0.2067   -0.0000


   Root No.       9        10        11        12        13        14        15        16

                 9 A      10 A      11 A      12 A      13 A      14 A      15 A      16 A   

                 788.2     804.5     831.7     863.2     948.7     956.8     981.2     991.4
  
           1    0.0000   -0.0000   -0.0021   -0.0000    0.0334    0.0000    0.0000   -0.0168
           2   -0.0000    0.0000   -0.0014    0.0000   -0.0183   -0.0000   -0.0000    0.0193
           3    0.0053   -0.0036   -0.0000   -0.0248    0.0000   -0.0134   -0.0063    0.0000
           4   -0.0000    0.0000   -0.0269    0.0000   -0.0115   -0.0000   -0.0000    0.0116
           5    0.0000   -0.0000   -0.0450   -0.0000    0.0067    0.0000    0.0000   -0.0124
           6    0.0212    0.0387    0.0000    0.0267   -0.0000    0.0221    0.0002   -0.0000
           7   -0.0000    0.0000   -0.0001    0.0000   -0.0035    0.0000    0.0000    0.0092
           8    0.0000   -0.0000    0.0047   -0.0000   -0.0069   -0.0000    0.0000   -0.0211
           9    0.0148   -0.0028   -0.0000   -0.0254   -0.0000    0.0084    0.0016    0.0000
          10    0.0000   -0.0000   -0.0692    0.0000    0.0098    0.0000    0.0000    0.0050
          11    0.0000   -0.0000   -0.0140   -0.0000    0.0441    0.0001    0.0000    0.0225
          12    0.0008   -0.0496    0.0000    0.0090    0.0000   -0.0437    0.0377    0.0000
          13   -0.0000   -0.0000    0.0260    0.0000   -0.0327   -0.0000   -0.0000   -0.0110
          14   -0.0000    0.0000   -0.0682    0.0000   -0.0393   -0.0001   -0.0000   -0.0092
          15   -0.0366    0.0099   -0.0000   -0.0135    0.0000   -0.0431   -0.0381    0.0000
          16    0.0000   -0.0000   -0.0434   -0.0000    0.0079    0.0000   -0.0000    0.0034
          17   -0.0000   -0.0000    0.1094   -0.0000   -0.0031   -0.0000   -0.0000   -0.0137
          18    0.0007   -0.0390   -0.0000    0.0017   -0.0000    0.0300   -0.0582   -0.0000
          19   -0.0000    0.0000    0.1149   -0.0000    0.0112    0.0000    0.0000    0.0119
          20   -0.0000    0.0000    0.0254    0.0000   -0.0043    0.0000   -0.0000    0.0084
          21   -0.0299    0.0046   -0.0000   -0.0189   -0.0000    0.0271    0.0583   -0.0000
          22    0.0442   -0.0221   -0.0124   -0.1379    0.0983   -0.0564   -0.0257   -0.0575
          23    0.0236   -0.0103   -0.0236   -0.0700    0.0972   -0.0271   -0.0125   -0.0614
          24   -0.0167    0.0079   -0.0003    0.0445   -0.0034    0.0154    0.0066    0.0004
          25   -0.0001    0.0000    0.0290    0.0002   -0.1392   -0.0001   -0.0000    0.1269
          26   -0.0000    0.0000   -0.0008    0.0001   -0.0231    0.0000    0.0000    0.0221
          27   -0.0243    0.0086    0.0000    0.0629    0.0000    0.0202    0.0096   -0.0000
          28   -0.0441    0.0220   -0.0124    0.1376    0.0985    0.0564    0.0257   -0.0578
          29   -0.0235    0.0103   -0.0236    0.0698    0.0974    0.0272    0.0126   -0.0615
          30   -0.0167    0.0079    0.0004    0.0445    0.0034    0.0154    0.0066   -0.0004
          31   -0.0000    0.0000    0.0396    0.0001   -0.0537   -0.0000   -0.0000    0.1102
          32   -0.0000   -0.0000    0.0034    0.0000   -0.0056   -0.0000    0.0000   -0.0229
          33   -0.1420   -0.0327    0.0000    0.2625    0.0002   -0.0159    0.0309   -0.0001
          34    0.0000    0.0000    0.0094   -0.0000   -0.0150   -0.0001    0.0000   -0.1255
          35   -0.0000    0.0000   -0.0986    0.0000    0.0722    0.0002   -0.0000    0.1577
          36   -0.0681    0.2674   -0.0000   -0.0549   -0.0002    0.1915   -0.1305   -0.0001
          37    0.0000    0.0000   -0.0879    0.0000   -0.0768   -0.0001   -0.0000   -0.0572
          38   -0.0000    0.0000    0.0870    0.0000   -0.0490   -0.0001   -0.0000   -0.0466
          39    0.0940    0.2910    0.0000    0.0111    0.0001   -0.1397    0.2185    0.0001
          40    0.0000    0.0000    0.1215   -0.0000    0.0002   -0.0000   -0.0000    0.0039
          41    0.0000    0.0000   -0.0194   -0.0000    0.0947    0.0001    0.0000    0.0838
          42    0.2228    0.0741    0.0000    0.1345    0.0002   -0.1270   -0.2181    0.0000
          43    0.0000   -0.0000   -0.0760    0.0000   -0.0866   -0.0001   -0.0000   -0.0992
          44    0.0000   -0.0000   -0.0546    0.0000   -0.0325   -0.0000    0.0000    0.0039
          45    0.2342   -0.1269    0.0000    0.0325   -0.0002    0.1891    0.1331   -0.0000


   Root No.      17        18        19        20        21        22        23        24

                17 A      18 A      19 A      20 A      21 A      22 A      23 A      24 A   

                1021.4    1069.7    1087.2    1114.9    1163.8    1195.4    1270.8    1382.1
  
           1    0.0000    0.0006   -0.0020    0.0091   -0.0288    0.0051   -0.0013   -0.0473
           2   -0.0000   -0.0049    0.0010    0.0050   -0.0562   -0.0059    0.0045    0.0157
           3   -0.0493    0.0000    0.0000   -0.0000    0.0000    0.0000    0.0000   -0.0001
           4   -0.0000    0.0009    0.0023   -0.0177   -0.0014   -0.0272    0.0341    0.0174
           5    0.0000    0.0047    0.0017   -0.0068   -0.0021   -0.0274   -0.0125    0.0089
           6   -0.0315    0.0000    0.0000   -0.0000    0.0000    0.0000   -0.0000   -0.0000
           7    0.0000   -0.0029    0.0030   -0.0068    0.0248   -0.0126    0.0544    0.0129
           8    0.0000    0.0093   -0.0050   -0.0301    0.0593    0.0133    0.0111    0.0099
           9    0.0744   -0.0000   -0.0000    0.0000   -0.0000   -0.0000   -0.0000   -0.0000
          10    0.0000   -0.0163   -0.0141    0.0100   -0.0012    0.0169    0.0071    0.0052
          11   -0.0000   -0.0254   -0.0120    0.0471   -0.0025   -0.0285    0.0113   -0.0160
          12    0.0109    0.0000    0.0000   -0.0000   -0.0000    0.0000   -0.0000    0.0000
          13   -0.0000    0.0012    0.0035   -0.0243    0.0086   -0.0073   -0.0323   -0.0012
          14   -0.0000   -0.0211   -0.0057   -0.0214    0.0074    0.0194   -0.0230   -0.0070
          15    0.0164   -0.0000   -0.0000    0.0000   -0.0000   -0.0000    0.0000    0.0000
          16   -0.0000    0.0044   -0.0081    0.0062   -0.0002    0.0190    0.0078    0.0120
          17   -0.0000    0.0020   -0.0011    0.0363   -0.0115    0.0043    0.0343    0.0296
          18   -0.0027   -0.0000    0.0000   -0.0000    0.0000   -0.0000   -0.0000   -0.0000
          19    0.0000    0.0058   -0.0032   -0.0271    0.0020    0.0111   -0.0229   -0.0165
          20    0.0000    0.0008    0.0066   -0.0209    0.0040    0.0305   -0.0084   -0.0202
          21   -0.0075    0.0000    0.0000    0.0000   -0.0000   -0.0000    0.0000    0.0000
          22   -0.1840    0.0139   -0.0080    0.0239   -0.0460    0.0304   -0.1290    0.2002
          23   -0.0870    0.0239   -0.0101    0.0012   -0.0097    0.0266   -0.0742   -0.1432
          24    0.0444    0.0008    0.0002   -0.0080    0.0221   -0.0041    0.0444   -0.1925
          25    0.0001   -0.0368    0.0102    0.0616   -0.2617   -0.0148   -0.1242   -0.0570
          26    0.0001   -0.0073    0.0016    0.0074   -0.0711   -0.0068   -0.0082    0.0008
          27    0.0590    0.0000   -0.0000   -0.0000   -0.0001    0.0000   -0.0001    0.0005
          28    0.1838    0.0139   -0.0080    0.0239   -0.0459    0.0305   -0.1291    0.1999
          29    0.0869    0.0239   -0.0101    0.0012   -0.0097    0.0267   -0.0743   -0.1434
          30    0.0444   -0.0008   -0.0002    0.0080   -0.0221    0.0041   -0.0444    0.1932
          31    0.0000   -0.0741    0.0380    0.2069    0.3522   -0.0156   -0.1543   -0.0087
          32    0.0000    0.0102   -0.0061   -0.0329    0.0594    0.0138    0.0114    0.0118
          33   -0.2131    0.0000   -0.0000   -0.0000    0.0000    0.0000   -0.0000   -0.0000
          34    0.0000   -0.2052    0.0398    0.0495   -0.0202   -0.1349   -0.0012   -0.0256
          35   -0.0000    0.1699   -0.0700    0.0099    0.0182    0.1277    0.0248    0.0176
          36   -0.0372   -0.0000    0.0000   -0.0000    0.0000   -0.0000    0.0000    0.0000
          37   -0.0000    0.2774   -0.1062    0.0779    0.0177   -0.1653   -0.0553   -0.0487
          38   -0.0000    0.1521   -0.0544    0.0783   -0.0024   -0.0980    0.0028   -0.0019
          39    0.0069   -0.0000    0.0000   -0.0000   -0.0000    0.0000    0.0000    0.0000
          40   -0.0000   -0.0011   -0.0416   -0.0185    0.0006    0.0316   -0.0217   -0.0220
          41    0.0000    0.0748    0.3702   -0.1191    0.0196   -0.1509   -0.0487    0.0131
          42    0.0211   -0.0000   -0.0000    0.0000    0.0000    0.0000    0.0000    0.0000
          43   -0.0000    0.0864    0.2974    0.1766   -0.0402    0.1787    0.0549   -0.0297
          44   -0.0000   -0.0347   -0.0492   -0.0540    0.0159   -0.0071   -0.0394   -0.0040
          45   -0.0536   -0.0000   -0.0000   -0.0000    0.0000   -0.0000   -0.0000    0.0000


   Root No.      25        26        27        28        29        30        31        32

                25 A      26 A      27 A      28 A      29 A      30 A      31 A      32 A   

                1389.1    1390.7    1400.0    1441.3    1706.1    1769.3    1924.4    3030.5
  
           1   -0.0251    0.0001   -0.0196    0.0669    0.0021    0.0016    0.0336   -0.0039
           2   -0.0299   -0.0001   -0.0027    0.0370    0.0010    0.0012    0.0092    0.0094
           3    0.0000   -0.0437    0.0000   -0.0000    0.0000    0.0000   -0.0000   -0.0000
           4    0.0267   -0.0000    0.0587   -0.0098   -0.0185   -0.0020    0.2414   -0.0045
           5    0.0340   -0.0000    0.0956    0.0555    0.0094    0.0059   -0.1323    0.0022
           6   -0.0000   -0.0003   -0.0000   -0.0000    0.0000   -0.0000   -0.0000    0.0000
           7   -0.0010    0.0000    0.0096   -0.0496   -0.0016   -0.0020   -0.2226    0.0037
           8    0.0070   -0.0000   -0.0137   -0.0277   -0.0010   -0.0067    0.0792   -0.0626
           9    0.0000   -0.0005    0.0000   -0.0000   -0.0000    0.0000    0.0000    0.0000
          10    0.0086   -0.0000   -0.0123    0.0040    0.1415   -0.1216   -0.0017    0.0002
          11   -0.0422    0.0000   -0.0344   -0.0470   -0.0270    0.0308    0.0296    0.0007
          12    0.0000   -0.0000    0.0000    0.0000   -0.0000    0.0000   -0.0000   -0.0000
          13   -0.0017   -0.0000   -0.0864    0.0046    0.1013    0.0983   -0.0180    0.0005
          14   -0.0120   -0.0000   -0.0466   -0.0023   -0.0986   -0.0832   -0.0174   -0.0004
          15    0.0000   -0.0001    0.0000   -0.0000   -0.0000   -0.0000    0.0000    0.0000
          16    0.0232   -0.0000   -0.0201    0.0172   -0.1301    0.1345   -0.0199    0.0000
          17    0.0527   -0.0001   -0.0466    0.0243    0.0105   -0.0173    0.0064   -0.0001
          18   -0.0000   -0.0000    0.0000   -0.0000    0.0000   -0.0000    0.0000    0.0000
          19   -0.0252    0.0000    0.0394   -0.0027   -0.0810   -0.0923   -0.0193    0.0000
          20   -0.0368    0.0001    0.0765   -0.0210    0.0983    0.1015    0.0156    0.0001
          21    0.0000    0.0000   -0.0000    0.0000    0.0000    0.0000    0.0000   -0.0000
          22   -0.0074    0.0313    0.0211   -0.0652   -0.0003   -0.0011    0.0200    0.0202
          23    0.1458    0.2539    0.0063   -0.1123    0.0008   -0.0011    0.0038   -0.0119
          24    0.0502    0.0518   -0.0193    0.0222    0.0019    0.0009   -0.0019    0.0406
          25    0.1512   -0.0000    0.0417   -0.1627   -0.0026    0.0033   -0.0427    0.0088
          26   -0.0045    0.0005    0.0031    0.0096    0.0010    0.0011    0.0047   -0.0913
          27    0.0001    0.4304   -0.0001    0.0001   -0.0000   -0.0000    0.0000    0.0001
          28   -0.0073   -0.0319    0.0211   -0.0652   -0.0003   -0.0011    0.0201    0.0203
          29    0.1457   -0.2532    0.0065   -0.1126    0.0008   -0.0011    0.0038   -0.0120
          30   -0.0505    0.0517    0.0192   -0.0220   -0.0019   -0.0009    0.0019   -0.0406
          31    0.0390    0.0000    0.0756    0.0957   -0.0021    0.0042    0.0561    0.0025
          32    0.0086   -0.0000   -0.0138   -0.0291   -0.0024   -0.0093    0.1192    0.7216
          33    0.0000   -0.0021   -0.0000   -0.0000    0.0000    0.0000   -0.0000   -0.0000
          34   -0.0495    0.0001    0.0364   -0.0556    0.0482   -0.0413    0.0394   -0.0060
          35    0.0182   -0.0000   -0.0881    0.0138    0.1044   -0.0844    0.0016   -0.0067
          36   -0.0000    0.0008    0.0000    0.0000   -0.0000    0.0000   -0.0000    0.0000
          37   -0.0932    0.0001    0.0205   -0.0514   -0.0520   -0.0166   -0.0101    0.0002
          38   -0.0086    0.0000   -0.0277   -0.0139    0.0819   -0.1235    0.0245   -0.0003
          39    0.0000    0.0001   -0.0000    0.0000    0.0000    0.0000    0.0000   -0.0000
          40   -0.0343    0.0001    0.0652   -0.0060   -0.0952   -0.0934   -0.0287    0.0003
          41    0.0235   -0.0001   -0.1475    0.0141   -0.0015   -0.0834   -0.0070    0.0000
          42    0.0000    0.0002    0.0000   -0.0000    0.0000    0.0000    0.0000   -0.0000
          43   -0.0651    0.0001    0.0844   -0.0540   -0.0594   -0.0497    0.0235    0.0016
          44   -0.0042   -0.0000   -0.0727    0.0074   -0.0977   -0.0830   -0.0347    0.0032
          45    0.0000    0.0001   -0.0000    0.0000    0.0000    0.0000    0.0000   -0.0000


   Root No.      33        34        35        36        37        38        39

                33 A      34 A      35 A      36 A      37 A      38 A      39 A   

                3067.1    3067.1    3129.6    3136.3    3145.4    3156.7    3162.7
  
           1    0.0160    0.0101   -0.0039   -0.0006   -0.0020    0.0032   -0.0189
           2   -0.0380   -0.0240    0.0025    0.0002    0.0004    0.0006   -0.0074
           3    0.0274   -0.0398   -0.0000   -0.0000   -0.0000    0.0000    0.0000
           4   -0.0010   -0.0007   -0.0001    0.0000   -0.0000    0.0014    0.0007
           5    0.0002    0.0001    0.0002    0.0000    0.0005   -0.0007   -0.0004
           6    0.0001   -0.0002   -0.0000    0.0000    0.0000    0.0000    0.0000
           7    0.0008    0.0005   -0.0001    0.0001   -0.0000   -0.0004   -0.0005
           8   -0.0063   -0.0040   -0.0001   -0.0001   -0.0000    0.0003    0.0003
           9    0.0000   -0.0001    0.0000   -0.0000    0.0000   -0.0000   -0.0000
          10   -0.0026   -0.0016   -0.0316   -0.0038   -0.0135    0.0095    0.0053
          11   -0.0022   -0.0014   -0.0289   -0.0035   -0.0095    0.0070    0.0044
          12   -0.0000    0.0000    0.0000    0.0000    0.0000   -0.0000   -0.0000
          13    0.0001    0.0001    0.0000    0.0053   -0.0011   -0.0010   -0.0003
          14   -0.0001   -0.0000   -0.0028    0.0332   -0.0189   -0.0228   -0.0027
          15    0.0000   -0.0000    0.0000   -0.0000    0.0000    0.0000    0.0000
          16    0.0001    0.0001   -0.0100    0.0018    0.0165   -0.0101   -0.0023
          17    0.0002    0.0002    0.0206   -0.0026   -0.0249    0.0163    0.0034
          18    0.0000   -0.0000    0.0000    0.0000   -0.0000    0.0000    0.0000
          19   -0.0000   -0.0000    0.0016   -0.0356   -0.0138   -0.0244   -0.0029
          20    0.0000    0.0000    0.0005   -0.0038    0.0006   -0.0006   -0.0002
          21   -0.0000    0.0000   -0.0000    0.0000    0.0000    0.0000    0.0000
          22   -0.1983    0.1132    0.0238    0.0036    0.0128   -0.0211    0.1276
          23    0.0996   -0.0739   -0.0134   -0.0021   -0.0077    0.0132   -0.0809
          24   -0.3218    0.1544    0.0417    0.0062    0.0224   -0.0368    0.2216
          25   -0.0209   -0.0132    0.0009   -0.0001   -0.0008    0.0033   -0.0273
          26    0.3832    0.2416   -0.0039    0.0018    0.0107   -0.0331    0.2513
          27    0.0132   -0.0202    0.0000   -0.0000   -0.0000    0.0000   -0.0003
          28    0.0302   -0.2195    0.0239    0.0036    0.0129   -0.0212    0.1279
          29   -0.0316    0.1175   -0.0135   -0.0021   -0.0077    0.0133   -0.0814
          30   -0.0208    0.3434   -0.0417   -0.0062   -0.0224    0.0368   -0.2213
          31    0.0032    0.0020   -0.0002    0.0006   -0.0004   -0.0003   -0.0005
          32    0.0723    0.0456   -0.0014    0.0018   -0.0012   -0.0008   -0.0034
          33    0.0007   -0.0010   -0.0000   -0.0000   -0.0000   -0.0000    0.0000
          34    0.0243    0.0153    0.3527    0.0420    0.1226   -0.0802   -0.0541
          35    0.0276    0.0174    0.3396    0.0398    0.1166   -0.0766   -0.0494
          36    0.0001   -0.0001   -0.0000   -0.0000   -0.0000    0.0000    0.0000
          37    0.0020    0.0012    0.1339   -0.0164   -0.1579    0.0951    0.0197
          38   -0.0037   -0.0024   -0.2454    0.0267    0.2847   -0.1737   -0.0356
          39    0.0000   -0.0000   -0.0000   -0.0000    0.0000   -0.0000   -0.0000
          40    0.0010    0.0006   -0.0163    0.4170    0.1471    0.2500    0.0282
          41    0.0001    0.0001   -0.0009    0.0445    0.0138    0.0262    0.0030
          42   -0.0000    0.0000    0.0000   -0.0000   -0.0000   -0.0000   -0.0000
          43    0.0004    0.0002    0.0053   -0.0590    0.0304    0.0336    0.0038
          44    0.0016    0.0010    0.0338   -0.3899    0.2078    0.2306    0.0263
          45   -0.0000    0.0000   -0.0000    0.0000   -0.0000   -0.0000   -0.0000


           MASS-WEIGHTED COORDINATE ANALYSIS (NORMAL COORDINATES)


   Root No.       1         2         3         4         5         6         7         8

                 1 A       2 A       3 A       4 A       5 A       6 A       7 A       8 A   

                 114.0     143.2     177.7     261.5     483.3     487.2     579.1     686.0
  
           1   -0.0001    0.0002   -0.2797    0.0000    0.4950   -0.0004    0.0001   -0.1294
           2    0.0002   -0.0004    0.4691   -0.0000    0.0311   -0.0000   -0.0000    0.0244
           3   -0.1102   -0.3781   -0.0003   -0.1852   -0.0000   -0.0298   -0.0211   -0.0000
           4   -0.0000    0.0001   -0.0778   -0.0000   -0.1202    0.0001    0.0001   -0.3128
           5   -0.0001    0.0003   -0.3232    0.0000   -0.2486    0.0002    0.0000    0.1155
           6    0.1796    0.3912    0.0003   -0.1237    0.0000    0.0720    0.6501    0.0001
           7    0.0000   -0.0000    0.0120    0.0000    0.2448   -0.0002    0.0000   -0.2622
           8   -0.0000    0.0001   -0.1597    0.0001    0.3125   -0.0003   -0.0000    0.4973
           9    0.1015    0.0980    0.0001    0.5817    0.0000    0.0959   -0.0589   -0.0001
          10    0.0001   -0.0002    0.2330   -0.0000   -0.0891    0.0001   -0.0001    0.2748
          11   -0.0001    0.0002   -0.2669    0.0000   -0.2669    0.0002   -0.0000    0.0665
          12    0.0898    0.4329    0.0003   -0.1621    0.0002    0.2579   -0.2338   -0.0000
          13   -0.0001    0.0001   -0.1845   -0.0000   -0.3650    0.0003   -0.0000   -0.0771
          14   -0.0000    0.0001   -0.0563   -0.0000    0.0026   -0.0000    0.0000   -0.3382
          15    0.1114    0.0957   -0.0000   -0.3451   -0.0003   -0.3600   -0.1570    0.0000
          16    0.0001   -0.0002    0.2884   -0.0000   -0.0394    0.0000   -0.0000    0.2991
          17    0.0000   -0.0000    0.0244   -0.0000    0.0133   -0.0000    0.0000   -0.1226
          18   -0.1579   -0.1180    0.0000    0.2746   -0.0003   -0.3881    0.1414   -0.0000
          19   -0.0000   -0.0001    0.0273   -0.0000   -0.2555    0.0002   -0.0000    0.1619
          20    0.0001   -0.0001    0.1557   -0.0000    0.1502   -0.0001    0.0000   -0.1558
          21   -0.1462   -0.3837   -0.0003   -0.0155    0.0004    0.4213    0.0578    0.0000
          22    0.2518   -0.0026   -0.0362    0.1655    0.1151    0.0421   -0.0260   -0.1185
          23   -0.3874    0.1989    0.2279    0.0673   -0.0667    0.0276   -0.0109   -0.1483
          24   -0.3279   -0.0402    0.0009   -0.1401   -0.0043   -0.0277    0.0078    0.0011
          25   -0.0004    0.0002   -0.2588   -0.0001    0.2930   -0.0003   -0.0000    0.2220
          26    0.0006   -0.0004    0.1308   -0.0001    0.0128   -0.0000    0.0000    0.0166
          27    0.4605   -0.3556   -0.0005   -0.1306   -0.0001   -0.0426    0.0083   -0.0000
          28   -0.2514    0.0027   -0.0358   -0.1653    0.1148   -0.0422    0.0260   -0.1188
          29    0.3869   -0.1989    0.2274   -0.0673   -0.0669   -0.0274    0.0109   -0.1485
          30   -0.3291   -0.0397   -0.0007   -0.1402    0.0043   -0.0277    0.0078   -0.0011
          31    0.0001   -0.0001    0.1075    0.0000    0.1399   -0.0001   -0.0000   -0.1074
          32   -0.0000    0.0000   -0.0430    0.0000    0.0877   -0.0001   -0.0000    0.1435
          33    0.0235    0.0228    0.0000    0.4202   -0.0000   -0.0317   -0.2610    0.0000
          34    0.0001   -0.0001    0.1380   -0.0000   -0.0011    0.0000   -0.0000    0.1470
          35   -0.0001    0.0001   -0.1480    0.0000   -0.1045    0.0001   -0.0000   -0.0513
          36    0.0566    0.2364    0.0001   -0.0736    0.0002    0.1670   -0.4899   -0.0001
          37    0.0001   -0.0001    0.1421    0.0000    0.0565   -0.0001   -0.0000    0.0648
          38    0.0000   -0.0000    0.0392   -0.0000    0.0415   -0.0000    0.0000   -0.0498
          39   -0.0932   -0.0903   -0.0000    0.2043   -0.0004   -0.4136   -0.0661   -0.0000
          40   -0.0000   -0.0000    0.0008   -0.0000   -0.0814    0.0001   -0.0000    0.0389
          41    0.0000   -0.0001    0.1130   -0.0000    0.1026   -0.0001   -0.0000    0.0430
          42   -0.0885   -0.2486   -0.0002   -0.0083    0.0004    0.4169   -0.1456   -0.0000
          43   -0.0001    0.0001   -0.1219   -0.0000   -0.1906    0.0001   -0.0000    0.0293
          44   -0.0000    0.0000   -0.0059   -0.0000    0.0137   -0.0000   -0.0000   -0.1060
          45    0.0628    0.0383   -0.0000   -0.2173   -0.0002   -0.2799   -0.3679   -0.0001


   Root No.       9        10        11        12        13        14        15        16

                 9 A      10 A      11 A      12 A      13 A      14 A      15 A      16 A   

                 788.2     804.5     831.7     863.2     948.7     956.8     981.2     991.4
  
           1    0.0000   -0.0000   -0.0100   -0.0002    0.2793    0.0002    0.0001   -0.1564
           2   -0.0000    0.0000   -0.0067    0.0001   -0.1525   -0.0001   -0.0001    0.1792
           3    0.0429   -0.0247   -0.0000   -0.2033    0.0001   -0.1060   -0.0439    0.0000
           4   -0.0000    0.0000   -0.1266    0.0001   -0.0959   -0.0001   -0.0000    0.1075
           5    0.0000   -0.0000   -0.2116   -0.0000    0.0562    0.0000    0.0000   -0.1154
           6    0.1727    0.2685    0.0001    0.2185   -0.0001    0.1753    0.0014   -0.0001
           7   -0.0000    0.0000   -0.0006    0.0001   -0.0294    0.0000    0.0000    0.0852
           8    0.0000   -0.0000    0.0223   -0.0000   -0.0577   -0.0001    0.0000   -0.1965
           9    0.1205   -0.0191   -0.0000   -0.2076   -0.0003    0.0662    0.0114    0.0001
          10    0.0000   -0.0000   -0.3252    0.0000    0.0817    0.0001    0.0000    0.0461
          11    0.0000   -0.0000   -0.0658   -0.0001    0.3687    0.0005    0.0001    0.2096
          12    0.0065   -0.3447    0.0000    0.0737    0.0003   -0.3458    0.2612    0.0002
          13   -0.0000   -0.0000    0.1221    0.0001   -0.2735   -0.0004   -0.0000   -0.1026
          14   -0.0001    0.0000   -0.3208    0.0002   -0.3284   -0.0004   -0.0000   -0.0857
          15   -0.2982    0.0686   -0.0000   -0.1102    0.0004   -0.3408   -0.2637    0.0001
          16    0.0000   -0.0000   -0.2043   -0.0000    0.0661    0.0001   -0.0000    0.0312
          17   -0.0000   -0.0000    0.5144   -0.0001   -0.0263   -0.0001   -0.0000   -0.1277
          18    0.0055   -0.2705   -0.0000    0.0142   -0.0002    0.2374   -0.4033   -0.0001
          19   -0.0000    0.0000    0.5403   -0.0001    0.0938    0.0002    0.0000    0.1110
          20   -0.0000    0.0000    0.1196    0.0000   -0.0361    0.0000   -0.0000    0.0778
          21   -0.2437    0.0321   -0.0001   -0.1547   -0.0003    0.2147    0.4038   -0.0000
          22    0.1045   -0.0444   -0.0169   -0.3271    0.2379   -0.1292   -0.0515   -0.1550
          23    0.0557   -0.0207   -0.0321   -0.1661    0.2354   -0.0621   -0.0252   -0.1654
          24   -0.0394    0.0160   -0.0004    0.1056   -0.0082    0.0353    0.0133    0.0011
          25   -0.0002    0.0001    0.0395    0.0006   -0.3370   -0.0001   -0.0000    0.3421
          26   -0.0001    0.0000   -0.0011    0.0003   -0.0560    0.0000    0.0000    0.0595
          27   -0.0574    0.0173    0.0000    0.1493    0.0001    0.0462    0.0193   -0.0001
          28   -0.1042    0.0443   -0.0169    0.3263    0.2386    0.1294    0.0515   -0.1557
          29   -0.0556    0.0207   -0.0321    0.1655    0.2358    0.0624    0.0252   -0.1657
          30   -0.0394    0.0160    0.0005    0.1057    0.0082    0.0353    0.0133   -0.0011
          31   -0.0001    0.0000    0.0539    0.0002   -0.1301   -0.0000   -0.0000    0.2970
          32   -0.0000   -0.0000    0.0046    0.0000   -0.0136   -0.0000    0.0000   -0.0616
          33   -0.3356   -0.0659    0.0001    0.6227    0.0005   -0.0365    0.0620   -0.0003
          34    0.0000    0.0000    0.0129   -0.0000   -0.0363   -0.0002    0.0000   -0.3383
          35   -0.0000    0.0001   -0.1343    0.0000    0.1749    0.0004   -0.0000    0.4250
          36   -0.1608    0.5378   -0.0000   -0.1302   -0.0005    0.4392   -0.2618   -0.0002
          37    0.0000    0.0000   -0.1197    0.0001   -0.1860   -0.0003   -0.0000   -0.1543
          38   -0.0000    0.0000    0.1185    0.0000   -0.1187   -0.0002   -0.0000   -0.1257
          39    0.2221    0.5854    0.0000    0.0264    0.0003   -0.3203    0.4384    0.0002
          40    0.0000    0.0000    0.1655   -0.0000    0.0005   -0.0000   -0.0000    0.0104
          41    0.0000    0.0000   -0.0264   -0.0000    0.2292    0.0003    0.0000    0.2258
          42    0.5263    0.1490    0.0001    0.3190    0.0005   -0.2911   -0.4374    0.0000
          43    0.0000   -0.0000   -0.1035    0.0001   -0.2097   -0.0003   -0.0000   -0.2674
          44    0.0000   -0.0000   -0.0743    0.0001   -0.0787   -0.0001    0.0000    0.0106
          45    0.5534   -0.2552    0.0000    0.0771   -0.0005    0.4337    0.2671   -0.0001


   Root No.      17        18        19        20        21        22        23        24

                17 A      18 A      19 A      20 A      21 A      22 A      23 A      24 A   

                1021.4    1069.7    1087.2    1114.9    1163.8    1195.4    1270.8    1382.1
  
           1    0.0001    0.0041   -0.0138    0.0704   -0.1788    0.0407   -0.0104   -0.3169
           2   -0.0002   -0.0369    0.0070    0.0383   -0.3485   -0.0469    0.0355    0.1050
           3   -0.3386    0.0000    0.0000   -0.0000    0.0002    0.0000    0.0001   -0.0007
           4   -0.0000    0.0070    0.0159   -0.1367   -0.0089   -0.2161    0.2668    0.1169
           5    0.0000    0.0351    0.0116   -0.0529   -0.0130   -0.2177   -0.0979    0.0599
           6   -0.2163    0.0000    0.0000   -0.0000    0.0000    0.0000   -0.0000   -0.0000
           7    0.0001   -0.0217    0.0206   -0.0523    0.1535   -0.1001    0.4265    0.0861
           8    0.0002    0.0698   -0.0336   -0.2325    0.3678    0.1059    0.0866    0.0666
           9    0.5112   -0.0000   -0.0000    0.0000   -0.0001   -0.0000   -0.0000   -0.0000
          10    0.0000   -0.1224   -0.0955    0.0776   -0.0075    0.1342    0.0559    0.0349
          11   -0.0000   -0.1905   -0.0815    0.3642   -0.0154   -0.2265    0.0884   -0.1074
          12    0.0747    0.0000    0.0000   -0.0000   -0.0000    0.0000   -0.0000    0.0000
          13   -0.0000    0.0090    0.0235   -0.1881    0.0533   -0.0581   -0.2531   -0.0080
          14   -0.0000   -0.1577   -0.0386   -0.1656    0.0456    0.1538   -0.1805   -0.0467
          15    0.1128   -0.0000   -0.0000    0.0000   -0.0000   -0.0000    0.0000    0.0000
          16   -0.0000    0.0333   -0.0552    0.0480   -0.0012    0.1507    0.0613    0.0807
          17   -0.0000    0.0150   -0.0073    0.2803   -0.0714    0.0345    0.2687    0.1985
          18   -0.0183   -0.0000    0.0000   -0.0000    0.0000   -0.0000   -0.0000   -0.0000
          19    0.0000    0.0438   -0.0217   -0.2092    0.0122    0.0883   -0.1792   -0.1109
          20    0.0000    0.0057    0.0444   -0.1617    0.0245    0.2421   -0.0656   -0.1356
          21   -0.0516    0.0000    0.0000    0.0000   -0.0000   -0.0000    0.0000    0.0000
          22   -0.3663    0.0301   -0.0156    0.0535   -0.0826    0.0699   -0.2927    0.3885
          23   -0.1731    0.0518   -0.0198    0.0026   -0.0175    0.0613   -0.1683   -0.2779
          24    0.0884    0.0017    0.0004   -0.0179    0.0396   -0.0094    0.1008   -0.3737
          25    0.0001   -0.0799    0.0200    0.1378   -0.4698   -0.0341   -0.2818   -0.1106
          26    0.0002   -0.0159    0.0031    0.0165   -0.1276   -0.0156   -0.0186    0.0015
          27    0.1174    0.0000   -0.0000   -0.0000   -0.0002    0.0000   -0.0002    0.0010
          28    0.3658    0.0303   -0.0157    0.0535   -0.0824    0.0701   -0.2928    0.3879
          29    0.1730    0.0519   -0.0198    0.0027   -0.0175    0.0615   -0.1687   -0.2784
          30    0.0884   -0.0017   -0.0004    0.0179   -0.0397    0.0094   -0.1008    0.3751
          31    0.0000   -0.1609    0.0747    0.4632    0.6324   -0.0358   -0.3500   -0.0170
          32    0.0000    0.0222   -0.0119   -0.0737    0.1066    0.0318    0.0260    0.0229
          33   -0.4242    0.0001   -0.0000   -0.0001    0.0000    0.0000   -0.0000   -0.0000
          34    0.0000   -0.4452    0.0783    0.1107   -0.0362   -0.3102   -0.0027   -0.0496
          35   -0.0000    0.3687   -0.1375    0.0222    0.0326    0.2937    0.0562    0.0342
          36   -0.0740   -0.0000    0.0000   -0.0000    0.0000   -0.0000    0.0000    0.0000
          37   -0.0000    0.6018   -0.2087    0.1744    0.0317   -0.3803   -0.1254   -0.0945
          38   -0.0000    0.3300   -0.1068    0.1752   -0.0044   -0.2255    0.0064   -0.0037
          39    0.0138   -0.0000    0.0000   -0.0000   -0.0000    0.0000    0.0000    0.0000
          40   -0.0000   -0.0023   -0.0818   -0.0414    0.0011    0.0728   -0.0492   -0.0426
          41    0.0001    0.1622    0.7276   -0.2665    0.0352   -0.3470   -0.1104    0.0254
          42    0.0419   -0.0000   -0.0000    0.0000    0.0000    0.0000    0.0000    0.0000
          43   -0.0000    0.1875    0.5845    0.3953   -0.0722    0.4112    0.1246   -0.0577
          44   -0.0000   -0.0752   -0.0967   -0.1209    0.0285   -0.0162   -0.0893   -0.0077
          45   -0.1067   -0.0000   -0.0000   -0.0000    0.0000   -0.0000   -0.0000    0.0000


   Root No.      25        26        27        28        29        30        31        32

                25 A      26 A      27 A      28 A      29 A      30 A      31 A      32 A   

                1389.1    1390.7    1400.0    1441.3    1706.1    1769.3    1924.4    3030.5
  
           1   -0.1855    0.0003   -0.0993    0.4449    0.0076    0.0059    0.0907   -0.0178
           2   -0.2209   -0.0006   -0.0136    0.2462    0.0034    0.0044    0.0248    0.0426
           3    0.0001   -0.2575    0.0001   -0.0001    0.0000    0.0000   -0.0000   -0.0000
           4    0.1977   -0.0001    0.2968   -0.0650   -0.0660   -0.0075    0.6511   -0.0204
           5    0.2515   -0.0001    0.4835    0.3691    0.0337    0.0219   -0.3569    0.0100
           6   -0.0000   -0.0018   -0.0000   -0.0000    0.0000   -0.0000   -0.0000    0.0000
           7   -0.0072    0.0001    0.0488   -0.3302   -0.0056   -0.0073   -0.6003    0.0167
           8    0.0515   -0.0000   -0.0693   -0.1843   -0.0036   -0.0246    0.2135   -0.2831
           9    0.0000   -0.0031    0.0000   -0.0000   -0.0000    0.0000    0.0000    0.0000
          10    0.0637   -0.0001   -0.0621    0.0268    0.5061   -0.4477   -0.0046    0.0010
          11   -0.3124    0.0003   -0.1740   -0.3128   -0.0964    0.1132    0.0798    0.0031
          12    0.0000   -0.0003    0.0000    0.0000   -0.0000    0.0000   -0.0000   -0.0000
          13   -0.0126   -0.0001   -0.4372    0.0308    0.3621    0.3618   -0.0487    0.0021
          14   -0.0889   -0.0000   -0.2359   -0.0155   -0.3525   -0.3064   -0.0468   -0.0017
          15    0.0000   -0.0004    0.0000   -0.0000   -0.0000   -0.0000    0.0000    0.0000
          16    0.1714   -0.0002   -0.1018    0.1144   -0.4654    0.4951   -0.0537    0.0001
          17    0.3901   -0.0004   -0.2358    0.1613    0.0377   -0.0636    0.0174   -0.0004
          18   -0.0000   -0.0002    0.0000   -0.0000    0.0000   -0.0000    0.0000    0.0000
          19   -0.1863    0.0002    0.1995   -0.0183   -0.2897   -0.3398   -0.0521    0.0002
          20   -0.2724    0.0004    0.3867   -0.1395    0.3516    0.3738    0.0420    0.0007
          21    0.0000    0.0000   -0.0000    0.0000    0.0000    0.0000    0.0000   -0.0000
          22   -0.0158    0.0533    0.0310   -0.1256   -0.0003   -0.0012    0.0157    0.0265
          23    0.3124    0.4329    0.0092   -0.2164    0.0008   -0.0012    0.0030   -0.0156
          24    0.1075    0.0883   -0.0282    0.0427    0.0020    0.0009   -0.0015    0.0532
          25    0.3240   -0.0000    0.0611   -0.3135   -0.0027    0.0035   -0.0334    0.0116
          26   -0.0096    0.0008    0.0045    0.0185    0.0011    0.0012    0.0037   -0.1197
          27    0.0002    0.7338   -0.0002    0.0001   -0.0000   -0.0000    0.0000    0.0001
          28   -0.0156   -0.0545    0.0309   -0.1256   -0.0003   -0.0012    0.0157    0.0266
          29    0.3122   -0.4317    0.0095   -0.2169    0.0008   -0.0012    0.0030   -0.0158
          30   -0.1082    0.0882    0.0282   -0.0423   -0.0020   -0.0009    0.0015   -0.0533
          31    0.0836    0.0001    0.1108    0.1844   -0.0022    0.0045    0.0439    0.0033
          32    0.0183   -0.0000   -0.0202   -0.0561   -0.0025   -0.0099    0.0931    0.9459
          33    0.0000   -0.0036   -0.0000   -0.0000    0.0000    0.0000   -0.0000   -0.0001
          34   -0.1060    0.0001    0.0533   -0.1071    0.0499   -0.0441    0.0308   -0.0079
          35    0.0390   -0.0000   -0.1291    0.0265    0.1082   -0.0900    0.0012   -0.0087
          36   -0.0000    0.0013    0.0000    0.0000   -0.0000    0.0000   -0.0000    0.0000
          37   -0.1997    0.0002    0.0300   -0.0991   -0.0539   -0.0177   -0.0079    0.0002
          38   -0.0183    0.0000   -0.0406   -0.0267    0.0848   -0.1317    0.0192   -0.0003
          39    0.0000    0.0001   -0.0000    0.0000    0.0000    0.0000    0.0000   -0.0000
          40   -0.0735    0.0001    0.0956   -0.0115   -0.0986   -0.0997   -0.0224    0.0004
          41    0.0504   -0.0001   -0.2161    0.0271   -0.0016   -0.0889   -0.0055    0.0000
          42    0.0000    0.0003    0.0000   -0.0000    0.0000    0.0000    0.0000   -0.0000
          43   -0.1394    0.0002    0.1237   -0.1040   -0.0615   -0.0531    0.0184    0.0021
          44   -0.0089   -0.0000   -0.1065    0.0142   -0.1012   -0.0885   -0.0271    0.0043
          45    0.0000    0.0002   -0.0000    0.0000    0.0000    0.0000    0.0000   -0.0000


   Root No.      33        34        35        36        37        38        39

                33 A      34 A      35 A      36 A      37 A      38 A      39 A   

                3067.1    3067.1    3129.6    3136.3    3145.4    3156.7    3162.7
  
           1    0.0949    0.0626   -0.0224   -0.0032   -0.0146    0.0252   -0.1384
           2   -0.2253   -0.1487    0.0145    0.0010    0.0027    0.0046   -0.0540
           3    0.1626   -0.2464   -0.0000   -0.0000   -0.0000    0.0000    0.0000
           4   -0.0062   -0.0041   -0.0005    0.0001   -0.0003    0.0112    0.0050
           5    0.0013    0.0009    0.0013    0.0001    0.0036   -0.0052   -0.0027
           6    0.0006   -0.0010   -0.0000    0.0000    0.0000    0.0000    0.0000
           7    0.0045    0.0029   -0.0006    0.0004   -0.0002   -0.0028   -0.0038
           8   -0.0373   -0.0246   -0.0003   -0.0005   -0.0001    0.0020    0.0024
           9    0.0002   -0.0003    0.0000   -0.0000    0.0000   -0.0000   -0.0000
          10   -0.0153   -0.0101   -0.1834   -0.0218   -0.0987    0.0745    0.0387
          11   -0.0131   -0.0086   -0.1681   -0.0203   -0.0693    0.0553    0.0323
          12   -0.0002    0.0003    0.0000    0.0000    0.0000   -0.0000   -0.0000
          13    0.0006    0.0004    0.0001    0.0301   -0.0081   -0.0082   -0.0019
          14   -0.0005   -0.0003   -0.0164    0.1897   -0.1381   -0.1791   -0.0200
          15    0.0002   -0.0003    0.0000   -0.0000    0.0000    0.0000    0.0000
          16    0.0005    0.0003   -0.0581    0.0104    0.1210   -0.0792   -0.0171
          17    0.0014    0.0009    0.1197   -0.0147   -0.1819    0.1281    0.0250
          18    0.0000   -0.0000    0.0000    0.0000   -0.0000    0.0000    0.0000
          19   -0.0002   -0.0001    0.0093   -0.2035   -0.1012   -0.1915   -0.0209
          20    0.0003    0.0002    0.0030   -0.0215    0.0043   -0.0049   -0.0015
          21   -0.0000    0.0001   -0.0000    0.0000    0.0000    0.0000    0.0000
          22   -0.3406    0.2030    0.0400    0.0059    0.0272   -0.0480    0.2707
          23    0.1710   -0.1326   -0.0225   -0.0034   -0.0162    0.0299   -0.1716
          24   -0.5526    0.2769    0.0702    0.0103    0.0475   -0.0837    0.4701
          25   -0.0360   -0.0237    0.0015   -0.0002   -0.0018    0.0074   -0.0579
          26    0.6581    0.4333   -0.0065    0.0030    0.0227   -0.0753    0.5331
          27    0.0227   -0.0362    0.0000   -0.0000   -0.0000    0.0001   -0.0006
          28    0.0519   -0.3938    0.0402    0.0059    0.0273   -0.0482    0.2714
          29   -0.0542    0.2108   -0.0227   -0.0035   -0.0163    0.0301   -0.1727
          30   -0.0357    0.6160   -0.0702   -0.0103   -0.0475    0.0836   -0.4695
          31    0.0055    0.0036   -0.0004    0.0010   -0.0008   -0.0007   -0.0010
          32    0.1242    0.0818   -0.0024    0.0030   -0.0025   -0.0019   -0.0073
          33    0.0011   -0.0017   -0.0000   -0.0000   -0.0000   -0.0000    0.0000
          34    0.0417    0.0275    0.5939    0.0695    0.2598   -0.1822   -0.1148
          35    0.0473    0.0312    0.5718    0.0659    0.2473   -0.1741   -0.1047
          36    0.0001   -0.0002   -0.0001   -0.0000   -0.0000    0.0000    0.0000
          37    0.0034    0.0022    0.2254   -0.0272   -0.3348    0.2162    0.0418
          38   -0.0064   -0.0042   -0.4132    0.0442    0.6035   -0.3948   -0.0755
          39    0.0000   -0.0001   -0.0000   -0.0000    0.0000   -0.0000   -0.0000
          40    0.0017    0.0011   -0.0275    0.6902    0.3118    0.5681    0.0599
          41    0.0002    0.0001   -0.0015    0.0737    0.0293    0.0596    0.0064
          42   -0.0000    0.0001    0.0000   -0.0000   -0.0000   -0.0000   -0.0000
          43    0.0006    0.0004    0.0089   -0.0977    0.0645    0.0765    0.0082
          44    0.0027    0.0018    0.0568   -0.6454    0.4404    0.5240    0.0559
          45   -0.0000    0.0000   -0.0000    0.0000   -0.0000   -0.0000   -0.0000


          DESCRIPTION OF VIBRATIONS


 VIBRATION          1    1A           ATOM PAIR      ENERGY CONTRIBUTION    RADIAL
 FREQUENCY           113.95         C  1 -- H 10         +30.6% (508.2%)      1.5%
 TRANSITION DIPOLE   0.0836         C  1 -- H  8         +30.6% (508.1%)      1.5%
 TRAVEL (Ang.)       0.0000         C  1 -- H  9         +25.5% (463.5%)      0.0%
 REDUCED MASS        0.2845         C  1 -- C  3          +1.9% (126.2%)      0.0%
 EFFECTIVE MASS     17.0706
 FORCE CONSTANT      0.0022

 VIBRATION          2    2A           ATOM PAIR      ENERGY CONTRIBUTION    RADIAL
 FREQUENCY           143.25         C  1 -- H  9         +16.5% (323.4%)      0.0%
 TRANSITION DIPOLE   0.1291         C  1 -- C  3         +13.5% (291.9%)      0.0%
 TRAVEL (Ang.)       0.6161         C  1 -- H  8         +11.8% (274.0%)     30.5%
 REDUCED MASS        1.2401         C  1 -- H 10         +11.8% (274.0%)     30.5%
 EFFECTIVE MASS     78.0751
 FORCE CONSTANT      0.0150

 VIBRATION          3    3A           ATOM PAIR      ENERGY CONTRIBUTION    RADIAL
 FREQUENCY           177.72         C  1 -- C  3         +11.7% (363.3%)      0.1%
 TRANSITION DIPOLE   0.0596         C  1 -- H  8          +8.6% (311.5%)     32.2%
 TRAVEL (Ang.)       0.4969         C  1 -- H 10          +8.6% (311.3%)     32.2%
 REDUCED MASS        1.5366         C  2 -- C  6          +7.9% (297.1%)      0.0%
 EFFECTIVE MASS    103.0716
 FORCE CONSTANT      0.0286

 VIBRATION          4    4A           ATOM PAIR      ENERGY CONTRIBUTION    RADIAL
 FREQUENCY           261.54         C  1 -- C  3         +22.4% (166.3%)      0.0%
 TRANSITION DIPOLE   0.0761         C  2 -- C  3         +16.9% (144.3%)      0.0%
 TRAVEL (Ang.)       0.3917         C  1 -- H  8          +8.4% (102.0%)     32.2%
 REDUCED MASS        1.6803         C  1 -- H 10          +8.4% (102.0%)     32.1%
 EFFECTIVE MASS     27.5440
 FORCE CONSTANT      0.0677

 VIBRATION          5    5A           ATOM PAIR      ENERGY CONTRIBUTION    RADIAL
 FREQUENCY           483.31         C  2 -- C  3          +9.1% (122.1%)      0.4%
 TRANSITION DIPOLE   0.0943         C  1 -- H  9          +8.5% (118.0%)      0.1%
 TRAVEL (Ang.)       0.3063         C  1 -- C  3          +7.9% (114.2%)      7.0%
 REDUCED MASS        1.4868         C  4 -- C  7          +7.7% (112.5%)      1.4%
 EFFECTIVE MASS     19.9595
 FORCE CONSTANT      0.2046

 VIBRATION          6    6A           ATOM PAIR      ENERGY CONTRIBUTION    RADIAL
 FREQUENCY           487.25         C  6 -- C  7         +16.9% ( 79.4%)      0.0%
 TRANSITION DIPOLE   0.0714         C  5 -- C  7         +15.9% ( 76.9%)      0.0%
 TRAVEL (Ang.)       0.3769         C  4 -- C  6         +11.0% ( 64.0%)      0.0%
 REDUCED MASS        0.9740         C  5 -- C  6         +10.6% ( 62.7%)      0.0%
 EFFECTIVE MASS     11.4871
 FORCE CONSTANT      0.1362

 VIBRATION          7    7A           ATOM PAIR      ENERGY CONTRIBUTION    RADIAL
 FREQUENCY           579.14         C  2 -- C  4         +18.5% ( 77.8%)      0.0%
 TRANSITION DIPOLE   0.5538         C  2 -- C  5         +16.1% ( 72.6%)      0.0%
 TRAVEL (Ang.)       0.2262         C  2 -- C  3         +13.7% ( 66.8%)      0.0%
 REDUCED MASS        2.2757         C  2 -- C  6         +13.4% ( 66.2%)      0.0%
 EFFECTIVE MASS      8.6158         C  2 -- C  7         +12.8% ( 64.6%)      0.0%
 FORCE CONSTANT      0.4497

 VIBRATION          8    8A           ATOM PAIR      ENERGY CONTRIBUTION    RADIAL
 FREQUENCY           685.98         C  1 -- C  3         +11.0% (112.2%)      3.4%
 TRANSITION DIPOLE   0.0148         C  2 -- C  6          +9.7% (105.8%)     82.3%
 TRAVEL (Ang.)       0.2356         C  2 -- C  4          +8.3% ( 97.9%)      6.3%
 REDUCED MASS        1.7709         C  2 -- C  5          +8.3% ( 97.5%)      0.2%
 EFFECTIVE MASS     15.4221
 FORCE CONSTANT      0.4910

 VIBRATION          9    9A           ATOM PAIR      ENERGY CONTRIBUTION    RADIAL
 FREQUENCY           788.25         C  5 -- H 15         +31.4% ( 68.6%)      0.0%
 TRANSITION DIPOLE   0.3814         C  7 -- H 14         +27.4% ( 64.1%)      0.0%
 TRAVEL (Ang.)       0.5024         C  3 -- H 11         +10.5% ( 39.7%)      0.0%
 REDUCED MASS        0.3389         C  2 -- C  5          +5.6% ( 29.0%)      0.0%
 EFFECTIVE MASS      2.4023
 FORCE CONSTANT      0.1241

 VIBRATION         10   10A           ATOM PAIR      ENERGY CONTRIBUTION    RADIAL
 FREQUENCY           804.46         C  6 -- H 13         +31.6% ( 69.9%)      0.0%
[...]
 FREQUENCY          1163.79         C  3 -- H 11         +26.7% ( 65.6%)     22.9%
 TRANSITION DIPOLE   0.0834         C  1 -- C  3         +26.0% ( 64.8%)     60.6%
 TRAVEL (Ang.)       0.2668         C  1 -- H  9         +15.8% ( 50.5%)     42.0%
 REDUCED MASS        0.8139         C  2 -- C  3          +9.8% ( 39.8%)      1.1%
 EFFECTIVE MASS      5.2490
 FORCE CONSTANT      0.6494

 VIBRATION         22   22A           ATOM PAIR      ENERGY CONTRIBUTION    RADIAL
 FREQUENCY          1195.38         C  4 -- H 12         +13.0% ( 50.4%)      0.2%
 TRANSITION DIPOLE   0.1121         C  6 -- H 13         +11.1% ( 46.6%)      0.3%
 TRAVEL (Ang.)       0.3985         C  7 -- H 14         +10.0% ( 44.4%)      1.7%
 REDUCED MASS        0.3553         C  5 -- H 15          +9.3% ( 42.8%)      4.1%
 EFFECTIVE MASS      3.6759
 FORCE CONSTANT      0.2991

 VIBRATION         23   23A           ATOM PAIR      ENERGY CONTRIBUTION    RADIAL
 FREQUENCY          1270.76         C  3 -- H 11         +14.6% ( 60.4%)      0.6%
 TRANSITION DIPOLE   0.3567         C  2 -- C  5         +10.0% ( 49.9%)     92.3%
 TRAVEL (Ang.)       0.2639         C  1 -- C  3          +8.6% ( 46.3%)     88.8%
 REDUCED MASS        0.7618         C  2 -- C  6          +7.9% ( 44.5%)     93.7%
 EFFECTIVE MASS      6.4178
 FORCE CONSTANT      0.7248

 VIBRATION         24   24A           ATOM PAIR      ENERGY CONTRIBUTION    RADIAL
 FREQUENCY          1382.12         C  1 -- H 10         +25.2% ( 56.2%)      3.8%
 TRANSITION DIPOLE   0.0532         C  1 -- H  8         +25.2% ( 56.2%)      3.8%
 TRAVEL (Ang.)       0.3233         C  1 -- C  3          +7.9% ( 31.4%)     72.4%
 REDUCED MASS        0.4666         C  6 -- C  7          +6.6% ( 28.8%)     99.8%
 EFFECTIVE MASS      3.4649
 FORCE CONSTANT      0.5252

 VIBRATION         25   25A           ATOM PAIR      ENERGY CONTRIBUTION    RADIAL
 FREQUENCY          1389.09         C  6 -- C  7         +12.9% ( 55.6%)    100.0%
 TRANSITION DIPOLE   0.4936         C  4 -- C  6          +9.2% ( 46.8%)      0.0%
 TRAVEL (Ang.)       0.2310         C  2 -- C  6          +8.5% ( 45.2%)     70.2%
 REDUCED MASS        0.9096         C  2 -- C  4          +7.8% ( 43.2%)     84.6%
 EFFECTIVE MASS      7.5014
 FORCE CONSTANT      1.0341

 VIBRATION         26   26A           ATOM PAIR      ENERGY CONTRIBUTION    RADIAL
 FREQUENCY          1390.70         C  1 -- H  9         +54.3% ( 63.7%)      0.0%
 TRANSITION DIPOLE   0.1013         C  1 -- H  8         +20.3% ( 39.0%)     11.4%
 TRAVEL (Ang.)       0.3383         C  1 -- H 10         +20.3% ( 38.9%)     11.5%
 REDUCED MASS        0.4238         C  1 -- C  3          +5.1% ( 19.5%)      0.0%
 EFFECTIVE MASS      1.5673
 FORCE CONSTANT      0.4829

 VIBRATION         27   27A           ATOM PAIR      ENERGY CONTRIBUTION    RADIAL
 FREQUENCY          1400.03         C  2 -- C  5         +17.1% ( 73.2%)     89.1%
 TRANSITION DIPOLE   0.5947         C  2 -- C  7         +11.0% ( 58.6%)     35.0%
 TRAVEL (Ang.)       0.1394         C  5 -- C  7         +10.6% ( 57.6%)      0.0%
 REDUCED MASS        2.4792         C  2 -- C  4          +9.1% ( 53.4%)     61.4%
 EFFECTIVE MASS     10.7995
 FORCE CONSTANT      2.8631

 VIBRATION         28   28A           ATOM PAIR      ENERGY CONTRIBUTION    RADIAL
 FREQUENCY          1441.33         C  1 -- C  3         +16.5% ( 63.5%)     99.8%
 TRANSITION DIPOLE   0.2580         C  2 -- C  4         +10.4% ( 50.3%)     99.9%
 TRAVEL (Ang.)       0.1799         C  1 -- H  9         +10.0% ( 49.5%)      5.5%
 REDUCED MASS        1.4451         C  1 -- H 10          +9.1% ( 47.0%)      3.5%
 EFFECTIVE MASS      8.5762
 FORCE CONSTANT      1.7688

 VIBRATION         29   29A           ATOM PAIR      ENERGY CONTRIBUTION    RADIAL
 FREQUENCY          1706.11         C  4 -- C  6         +16.8% ( 73.6%)    100.0%
 TRANSITION DIPOLE   1.5620         C  5 -- C  7         +16.1% ( 72.1%)    100.0%
 TRAVEL (Ang.)       0.1206         C  5 -- C  6          +9.8% ( 56.1%)     27.4%
 REDUCED MASS        2.7185         C  4 -- C  7          +9.8% ( 56.1%)     28.2%
 EFFECTIVE MASS     12.0359
 FORCE CONSTANT      4.6622

 VIBRATION         30   30A           ATOM PAIR      ENERGY CONTRIBUTION    RADIAL
 FREQUENCY          1769.28         C  5 -- C  7         +16.2% ( 70.7%)     99.8%
 TRANSITION DIPOLE   0.1620         C  4 -- C  6         +15.6% ( 69.4%)     99.9%
 TRAVEL (Ang.)       0.1192         C  6 -- C  7         +11.0% ( 58.3%)      0.0%
 REDUCED MASS        2.6820         C  5 -- C  6          +9.8% ( 55.0%)     66.9%
 EFFECTIVE MASS     11.8111
 FORCE CONSTANT      4.9465

 VIBRATION         31   31A           ATOM PAIR      ENERGY CONTRIBUTION    RADIAL
 FREQUENCY          1924.42         C  2 -- C  3         +32.0% ( 97.3%)     99.3%
 TRANSITION DIPOLE   2.6697         C  2 -- C  4         +12.7% ( 61.3%)     47.2%
 TRAVEL (Ang.)       0.0789         C  2 -- C  5         +12.6% ( 61.0%)     43.0%
 REDUCED MASS        5.6327         C  2 -- C  7         +12.5% ( 60.8%)     87.5%
 EFFECTIVE MASS     11.9136         C  2 -- C  6         +12.5% ( 60.7%)     90.2%
 FORCE CONSTANT     12.2905

 VIBRATION         32   32A           ATOM PAIR      ENERGY CONTRIBUTION    RADIAL
 FREQUENCY          3030.48         C  3 -- H 11         +94.6% ( 98.8%)    100.0%
 TRANSITION DIPOLE   0.2544         C  1 -- H  9          +1.6% ( 13.0%)     98.5%
 TRAVEL (Ang.)       0.1586         C  2 -- C  3          +1.4% ( 12.1%)     35.2%
 REDUCED MASS        0.8848         C  1 -- C  3          +1.4% ( 11.9%)     11.9%
 EFFECTIVE MASS      1.5118
 FORCE CONSTANT      4.7877

 VIBRATION         33   33A           ATOM PAIR      ENERGY CONTRIBUTION    RADIAL
 FREQUENCY          3067.08         C  1 -- H  8         +48.8% ( 72.0%)     97.3%
 TRANSITION DIPOLE   0.1354         C  1 -- H  9         +46.7% ( 70.5%)     96.8%
 TRAVEL (Ang.)       0.2129         C  3 -- H 11          +1.5% ( 12.8%)    100.0%
 REDUCED MASS        0.4849         C  1 -- H 10          +1.5% ( 12.5%)     11.5%
 EFFECTIVE MASS      1.5082
 FORCE CONSTANT      2.6876

 VIBRATION         34   34A           ATOM PAIR      ENERGY CONTRIBUTION    RADIAL
 FREQUENCY          3067.14         C  1 -- H 10         +62.3% ( 81.4%)     98.7%
 TRANSITION DIPOLE   0.1095         C  1 -- H  9         +20.8% ( 47.0%)     87.9%
 TRAVEL (Ang.)       0.2134         C  1 -- H  8         +15.0% ( 40.0%)     82.2%
 REDUCED MASS        0.4829         C  1 -- C  3          +1.0% ( 10.2%)      0.0%
 EFFECTIVE MASS      1.5043
 FORCE CONSTANT      2.6766

 VIBRATION         35   35A           ATOM PAIR      ENERGY CONTRIBUTION    RADIAL
 FREQUENCY          3129.63         C  4 -- H 12         +70.6% ( 86.2%)    100.0%
 TRANSITION DIPOLE   0.3892         C  6 -- H 13         +22.9% ( 49.1%)    100.0%
 TRAVEL (Ang.)       0.1953         C  4 -- C  6          +1.3% ( 11.5%)      6.7%
 REDUCED MASS        0.5649         C  4 -- C  7          +1.2% ( 11.2%)     94.9%
 EFFECTIVE MASS      1.4882
 FORCE CONSTANT      3.2598

 VIBRATION         36   36A           ATOM PAIR      ENERGY CONTRIBUTION    RADIAL
 FREQUENCY          3136.35         C  7 -- H 14         +49.7% ( 72.5%)    100.0%
 TRANSITION DIPOLE   0.3588         C  5 -- H 15         +44.0% ( 68.2%)    100.0%
 TRAVEL (Ang.)       0.2175         C  5 -- C  7          +1.2% ( 11.2%)      0.1%
 REDUCED MASS        0.4544         C  4 -- H 12          +0.9% ( 10.0%)    100.0%
 EFFECTIVE MASS      1.4804
 FORCE CONSTANT      2.6336

 VIBRATION         37   37A           ATOM PAIR      ENERGY CONTRIBUTION    RADIAL
 FREQUENCY          3145.42         C  6 -- H 13         +49.0% ( 72.3%)    100.0%
 TRANSITION DIPOLE   0.4963         C  5 -- H 15         +20.3% ( 46.6%)    100.0%
 TRAVEL (Ang.)       0.2548         C  4 -- H 12         +13.3% ( 37.7%)     99.9%
 REDUCED MASS        0.3301         C  7 -- H 14         +10.1% ( 32.9%)     99.8%
 EFFECTIVE MASS      1.5936
 FORCE CONSTANT      1.9243

 VIBRATION         38   38A           ATOM PAIR      ENERGY CONTRIBUTION    RADIAL
 FREQUENCY          3156.67         C  7 -- H 14         +33.7% ( 60.0%)    100.0%
 TRANSITION DIPOLE   0.3191         C  5 -- H 15         +29.0% ( 55.7%)     99.9%
 TRAVEL (Ang.)       0.2823         C  6 -- H 13         +20.9% ( 47.3%)    100.0%
 REDUCED MASS        0.2679         C  4 -- H 12          +6.6% ( 26.6%)     99.9%
 EFFECTIVE MASS      1.6793
 FORCE CONSTANT      1.5731

 VIBRATION         39   39A           ATOM PAIR      ENERGY CONTRIBUTION    RADIAL
 FREQUENCY          3162.66         C  1 -- H 10         +33.0% ( 55.4%)     97.3%
 TRANSITION DIPOLE   0.1696         C  1 -- H  8         +32.9% ( 55.4%)     97.3%
 TRAVEL (Ang.)       0.2660         C  1 -- H  9         +29.0% ( 52.0%)     96.4%
 REDUCED MASS        0.3013         C  4 -- H 12          +2.8% ( 16.2%)     99.9%
 EFFECTIVE MASS      1.1628
 FORCE CONSTANT      1.7754

      SYMMETRY NUMBER FOR POINT-GROUP C1  =  1


          SYSTEM IS A GROUND STATE



 InChI=1S/C7H8/c1-2-7-5-3-4-6-7/h2-6H,1H3


          MOLECULE IS NOT LINEAR

          THERE ARE 39 GENUINE VIBRATIONS IN THIS SYSTEM
          THIS THERMODYNAMICS CALCULATION IS LIMITED TO
          MOLECULES WHICH HAVE NO INTERNAL ROTATIONS




                    CALCULATED THERMODYNAMIC PROPERTIES
                                          *
   TEMP. (K)   PARTITION FUNCTION   H.O.F.    ENTHALPY  HEAT CAPACITY ENTROPY
                                   KCAL/MOL   CAL/MOLE    CAL/K/MOL  CAL/K/MOL


 298.00  VIB.     0.1806D+02                  2413.3413    18.4918    13.8485
         ROT.     0.1875D+06                   888.2803     2.9808    27.1086
         INT.     0.3386D+07                  3301.6216    21.4726    40.9570
         TRA.     0.8551D+27                  1480.4672     4.9680    39.4718
         TOT.                       45.992    4782.0888    26.4406    80.4288

 200.00  VIB.     0.5033D+01                   986.3265    10.8659     8.1428
         ROT.     0.1031D+06                   596.1613     2.9808    25.9199
         INT.     0.5188D+06                  1582.4878    13.8467    34.0627
         TRA.     0.4701D+27                   993.6021     4.9680    37.4906
         TOT.                       43.786    2576.0899    18.8147    71.5533

 210.00  VIB.     0.5701D+01                  1098.4595    11.5649     8.6898
         ROT.     0.1109D+06                   625.9693     2.9808    26.0653
         INT.     0.6324D+06                  1724.4288    14.5457    34.7551
         TRA.     0.5058D+27                  1043.2822     4.9680    37.7330
         TOT.                       43.978    2767.7111    19.5137    72.4881

 220.00  VIB.     0.6466D+01                  1217.7059    12.2882     9.2444
         ROT.     0.1189D+06                   655.7774     2.9808    26.2040
         INT.     0.7691D+06                  1873.4833    15.2690    35.4484
         TRA.     0.5424D+27                  1092.9623     4.9680    37.9641
         TOT.                       44.177    2966.4456    20.2370    73.4125

 230.00  VIB.     0.7344D+01                  1344.2979    13.0337     9.8070
         ROT.     0.1271D+06                   685.5855     2.9808    26.3365
         INT.     0.9337D+06                  2029.8833    16.0145    36.1435
         TRA.     0.5798D+27                  1142.6424     4.9680    38.1850
         TOT.                       44.383    3172.5258    20.9825    74.3285

 240.00  VIB.     0.8351D+01                  1478.4455    13.7989    10.3778
         ROT.     0.1355D+06                   715.3935     2.9808    26.4633
         INT.     0.1132D+07                  2193.8390    16.7797    36.8412
         TRA.     0.6180D+27                  1192.3226     4.9680    38.3964
         TOT.                       44.596    3386.1616    21.7477    75.2376

 250.00  VIB.     0.9509D+01                  1620.3338    14.5814    10.9569
         ROT.     0.1441D+06                   745.2016     2.9808    26.5850
         INT.     0.1370D+07                  2365.5354    17.5622    37.5419
         TRA.     0.6570D+27                  1242.0027     4.9680    38.5992
         TOT.                       44.818    3607.5380    22.5302    76.1412

 260.00  VIB.     0.1084D+02                  1770.1212    15.3783    11.5443
         ROT.     0.1528D+06                   775.0097     2.9808    26.7019
         INT.     0.1657D+07                  2545.1309    18.3591    38.2462
         TRA.     0.6968D+27                  1291.6828     4.9680    38.7941
         TOT.                       45.047    3836.8136    23.3271    77.0403

 270.00  VIB.     0.1238D+02                  1927.9392    16.1870    12.1398
         ROT.     0.1617D+06                   804.8177     2.9808    26.8144
         INT.     0.2001D+07                  2732.7569    19.1678    38.9542
         TRA.     0.7374D+27                  1341.3629     4.9680    38.9816
         TOT.                       45.284    4074.1198    24.1358    77.9358

 280.00  VIB.     0.1415D+02                  2093.8922    17.0049    12.7433
         ROT.     0.1708D+06                   834.6258     2.9808    26.9228
         INT.     0.2416D+07                  2928.5180    19.9857    39.6661
         TRA.     0.7788D+27                  1391.0430     4.9680    39.1622
         TOT.                       45.530    4319.5610    24.9537    78.8283

 290.00  VIB.     0.1619D+02                  2268.0584    17.8293    13.3543
         ROT.     0.1800D+06                   864.4339     2.9808    27.0274
         INT.     0.2915D+07                  3132.4923    20.8101    40.3818
         TRA.     0.8209D+27                  1440.7231     4.9680    39.3366
         TOT.                       45.783    4573.2153    25.7781    79.7183

 300.00  VIB.     0.1856D+02                  2450.4908    18.6577    13.9727
         ROT.     0.1894D+06                   894.2419     2.9808    27.1285
         INT.     0.3515D+07                  3344.7328    21.6385    41.1012
         TRA.     0.8637D+27                  1490.4032     4.9680    39.5050
         TOT.                       46.045    4835.1360    26.6065    80.6062

 310.00  VIB.     0.2130D+02                  2641.2189    19.4880    14.5981
         ROT.     0.1989D+06                   924.0500     2.9808    27.2262
         INT.     0.4237D+07                  3565.2689    22.4688    41.8243
         TRA.     0.9072D+27                  1540.0833     4.9680    39.6679
         TOT.                       46.315    5105.3522    27.4368    81.4922

 320.00  VIB.     0.2447D+02                  2840.2499    20.3180    15.2299
         ROT.     0.2086D+06                   953.8580     2.9808    27.3209
         INT.     0.5106D+07                  3794.1079    23.2988    42.5508
         TRA.     0.9515D+27                  1589.7634     4.9680    39.8256
         TOT.                       46.594    5383.8713    28.2668    82.3764

 330.00  VIB.     0.2815D+02                  3047.5710    21.1457    15.8678
         ROT.     0.2185D+06                   983.6661     2.9808    27.4126
         INT.     0.6152D+07                  4031.2371    24.1265    43.2804
         TRA.     0.9964D+27                  1639.4435     4.9680    39.9785
         TOT.                       46.881    5670.6807    29.0945    83.2589

 340.00  VIB.     0.3243D+02                  3263.1511    21.9695    16.5113
         ROT.     0.2285D+06                  1013.4742     2.9808    27.5016
         INT.     0.7411D+07                  4276.6253    24.9503    44.0129
         TRA.     0.1042D+28                  1689.1236     4.9680    40.1268
         TOT.                       47.176    5965.7489    29.9183    84.1397

 350.00  VIB.     0.3740D+02                  3486.9426    22.7877    17.1599
         ROT.     0.2387D+06                  1043.2822     2.9808    27.5880
         INT.     0.8927D+07                  4530.2248    25.7686    44.7479
         TRA.     0.1088D+28                  1738.8037     4.9680    40.2708
         TOT.                       47.479    6269.0285    30.7366    85.0188

 360.00  VIB.     0.4319D+02                  3718.8831    23.5991    17.8133
         ROT.     0.2490D+06                  1073.0903     2.9808    27.6720
         INT.     0.1075D+08                  4791.9734    26.5799    45.4852
         TRA.     0.1135D+28                  1788.4838     4.9680    40.4108
         TOT.                       47.791    6580.4573    31.5479    85.8960

 370.00  VIB.     0.4993D+02                  3958.8978    24.4024    18.4709
         ROT.     0.2594D+06                  1102.8984     2.9808    27.7536
         INT.     0.1295D+08                  5061.7962    27.3832    46.2245
         TRA.     0.1183D+28                  1838.1639     4.9680    40.5469
         TOT.                       48.110    6899.9601    32.3512    86.7714

 380.00  VIB.     0.5778D+02                  4206.9004    25.1965    19.1322
         ROT.     0.2700D+06                  1132.7064     2.9808    27.8331
         INT.     0.1560D+08                  5339.6068    28.1773    46.9653
         TRA.     0.1231D+28                  1887.8440     4.9680    40.6794
         TOT.                       48.438    7227.4509    33.1454    87.6447

 390.00  VIB.     0.6694D+02                  4462.7952    25.9807    19.7968
         ROT.     0.2807D+06                  1162.5145     2.9808    27.9106
         INT.     0.1879D+08                  5625.3097    28.9615    47.7074
         TRA.     0.1280D+28                  1937.5242     4.9680    40.8084
         TOT.                       48.773    7562.8339    33.9295    88.5158

 400.00  VIB.     0.7763D+02                  4726.4787    26.7541    20.4644
         ROT.     0.2916D+06                  1192.3226     2.9808    27.9860
         INT.     0.2264D+08                  5918.8013    29.7350    48.4504
         TRA.     0.1330D+28                  1987.2043     4.9680    40.9342
         TOT.                       49.116    7906.0055    34.7030    89.3846

   *: NOTE: HEATS OF FORMATION ARE RELATIVE TO THE
            ELEMENTS IN THEIR STANDARD STATE AT 298K
              (=  Standard Enthalpy of Formation).

            Hvib:  Zero-point energy is not included.
                   frequencies of less than zero cm-1 are not included.
            Hrot = (3/2)RT
            Htra = (3/2)RT + pV = (5/2)RT

            Heat capacity is Cp, not Cv

          For more information, see: HTTP://OpenMOPAC.net/Manual/thermochemistry.html


           FORCE CONSTANT IN CARTESIAN COORDINATES (Millidynes/A)

    ATOM   CHEMICAL       X               Y               Z
   NUMBER   SYMBOL  FORCE CONSTANT  FORCE CONSTANT  FORCE CONSTANT

      1       C        8.939354        8.568823        7.910552
      2       C       15.268714       10.667612        2.302862
      3       C       14.025873       10.516602        2.440568
      4       C       14.741412       10.085254        2.134046
      5       C       10.382587       14.469522        2.129390
      6       C       13.405784       11.462691        2.152857
      7       C       14.396837       10.481230        2.151764
      8       H        1.833307        1.043088        3.754280
      9       H        0.723446        5.290433        0.653897
     10       H        1.838177        1.048066        3.744877
     11       H        0.757179        5.052216        0.349853
     12       H        3.112819        2.922781        0.328364
     13       H        1.798087        4.320495        0.342948
     14       H        5.370078        0.748812        0.341913
     15       H        0.802104        5.320823        0.330938

 **********************
 *                    *
 * JOB ENDED NORMALLY *
 *                    *
 **********************



 TOTAL JOB TIME:             2.17 SECONDS

 == MOPAC DONE ==
