 *******************************************************************************
 **                                                                           **
 **                              MOPAC v23.1.2                                **
 **                                                                           **
 *******************************************************************************
 **          Digital Object Identifier (DOI): 10.5281/zenodo.6511958          **
 **    Visit the DOI location for information on how to cite this program.    **
 *******************************************************************************

                              PM3 CALCULATION RESULTS

 *******************************************************************************
 *  CALCULATION DONE: (MAX THREADS = 1)              Tue Jun  3 16:30:36 2025  *
 *  PM3        - The PM3 Hamiltonian to be used
 *  PRECISE    - TIGHTER CRITERIA TO BE USED
 *  NOSYM      - POINT-GROUP SYMMETRY SET TO C1
 *  THREADS=1  - MULTI-THREADING NOT USED
 *  T=         - A TIME OF 172800.0 SECONDS REQUESTED
 *  DUMP=N     - RESTART FILE WRITTEN EVERY 7200.0 SECONDS REQUESTED
 *******************************************************************************
pm3  precise nosym THREADS=1
 InChI=1S/C9H12/c1-7-6-8-4-2-3-5-9(7)8/h2-5,7-9H,6H2,1H3

   ATOM   CHEMICAL          X               Y               Z
  NUMBER   SYMBOL      (ANGSTROMS)     (ANGSTROMS)     (ANGSTROMS)

     1       C          1.16480000  *   0.40970000  *   0.27350000  *
     2       C         -0.02790000  *   0.46830000  *  -0.68900000  *
     3       C         -0.25600000  *  -1.04060000  *  -0.48340000  *
     4       C          0.93640000  *  -1.09070000  *   0.47290000  *
     5       C          2.50310000  *   0.73970000  *  -0.39350000  *
     6       C         -1.55280000  *  -1.43230000  *   0.18060000  *
     7       C         -1.12600000  *   1.37650000  *  -0.19300000  *
     8       C         -2.45040000  *  -0.53050000  *   0.57950000  *
     9       C         -2.23130000  *   0.90920000  *   0.38870000  *
    10       H          1.01290000  *   0.98250000  *   1.21670000  *
    11       H         -0.07280000  *  -1.62170000  *  -1.41390000  *
    12       H          0.25300000  *   0.70390000  *  -1.73980000  *
    13       H          1.75940000  *  -1.72960000  *   0.08260000  *
    14       H          0.66160000  *  -1.33210000  *   1.52410000  *
    15       H          2.53330000  *   1.81940000  *  -0.65020000  *
    16       H          3.33360000  *   0.51770000  *   0.30900000  *
    17       H          2.64830000  *   0.14510000  *  -1.32150000  *
    18       H         -1.74580000  *  -2.48280000  *   0.35780000  *
    19       H         -0.99710000  *   2.44640000  *  -0.29740000  *
    20       H         -3.36120000  *  -0.86270000  *   1.06110000  *
    21       H         -2.98520000  *   1.60440000  *   0.73520000  *



          CARTESIAN COORDINATES 

    NO.       ATOM           X           Y           Z

     1         C          1.1648      0.4097      0.2735
     2         C         -0.0279      0.4683     -0.6890
     3         C         -0.2560     -1.0406     -0.4834
     4         C          0.9364     -1.0907      0.4729
     5         C          2.5031      0.7397     -0.3935
     6         C         -1.5528     -1.4323      0.1806
     7         C         -1.1260      1.3765     -0.1930
     8         C         -2.4504     -0.5305      0.5795
     9         C         -2.2313      0.9092      0.3887
    10         H          1.0129      0.9825      1.2167
    11         H         -0.0728     -1.6217     -1.4139
    12         H          0.2530      0.7039     -1.7398
    13         H          1.7594     -1.7296      0.0826
    14         H          0.6616     -1.3321      1.5241
    15         H          2.5333      1.8194     -0.6502
    16         H          3.3336      0.5177      0.3090
    17         H          2.6483      0.1451     -1.3215
    18         H         -1.7458     -2.4828      0.3578
    19         H         -0.9971      2.4464     -0.2974
    20         H         -3.3612     -0.8627      1.0611
    21         H         -2.9852      1.6044      0.7352

  H: (PM3): J. J. P. STEWART, J. COMP. CHEM. 10, 209 (1989).
  C: (PM3): J. J. P. STEWART, J. COMP. CHEM. 10, 209 (1989).

           Empirical Formula: C9 H12  =    21 atoms



      MOLECULAR POINT GROUP   :   C1  


      RHF CALCULATION, NO. OF DOUBLY OCCUPIED LEVELS = 24


          Geometry optimization using EF

          DIAGONAL MATRIX USED AS START HESSIAN

 CYCLE:     1 TIME:   0.004 TIME LEFT:  2.00D  GRAD.:    90.918 HEAT:  28.92083
 CYCLE:     2 TIME:   0.016 TIME LEFT:  2.00D  GRAD.:    35.476 HEAT:  26.85050
 CYCLE:     3 TIME:   0.008 TIME LEFT:  2.00D  GRAD.:    66.198 HEAT:  26.77767
 CYCLE:     4 TIME:   0.008 TIME LEFT:  2.00D  GRAD.:    63.384 HEAT:  26.63942
 CYCLE:     5 TIME:   0.004 TIME LEFT:  2.00D  GRAD.:    44.935 HEAT:  25.88068
 CYCLE:     6 TIME:   0.012 TIME LEFT:  2.00D  GRAD.:    48.836 HEAT:  25.75607
 CYCLE:     7 TIME:   0.008 TIME LEFT:  2.00D  GRAD.:    27.224 HEAT:  25.40166
 CYCLE:     8 TIME:   0.012 TIME LEFT:  2.00D  GRAD.:    15.720 HEAT:  25.24330
 CYCLE:     9 TIME:   0.008 TIME LEFT:  2.00D  GRAD.:    10.516 HEAT:  25.18453
 CYCLE:    10 TIME:   0.008 TIME LEFT:  2.00D  GRAD.:    12.134 HEAT:  25.16207
 CYCLE:    11 TIME:   0.008 TIME LEFT:  2.00D  GRAD.:     8.662 HEAT:  25.12027
 CYCLE:    12 TIME:   0.012 TIME LEFT:  2.00D  GRAD.:     7.494 HEAT:  25.10080
 CYCLE:    13 TIME:   0.008 TIME LEFT:  2.00D  GRAD.:     6.847 HEAT:  25.08521
 CYCLE:    14 TIME:   0.008 TIME LEFT:  2.00D  GRAD.:     8.567 HEAT:  25.07680
 CYCLE:    15 TIME:   0.008 TIME LEFT:  2.00D  GRAD.:     5.805 HEAT:  25.05995
 CYCLE:    16 TIME:   0.012 TIME LEFT:  2.00D  GRAD.:     3.661 HEAT:  25.05208
 CYCLE:    17 TIME:   0.004 TIME LEFT:  2.00D  GRAD.:     2.581 HEAT:  25.04492
 CYCLE:    18 TIME:   0.008 TIME LEFT:  2.00D  GRAD.:     3.995 HEAT:  25.03110
 CYCLE:    19 TIME:   0.008 TIME LEFT:  2.00D  GRAD.:     8.458 HEAT:  25.03021
 CYCLE:    20 TIME:   0.008 TIME LEFT:  2.00D  GRAD.:     7.581 HEAT:  25.01932
 CYCLE:    21 TIME:   0.008 TIME LEFT:  2.00D  GRAD.:     5.588 HEAT:  25.00615
 CYCLE:    22 TIME:   0.008 TIME LEFT:  2.00D  GRAD.:     3.590 HEAT:  24.99567
 CYCLE:    23 TIME:   0.004 TIME LEFT:  2.00D  GRAD.:     4.774 HEAT:  24.99153
 CYCLE:    24 TIME:   0.008 TIME LEFT:  2.00D  GRAD.:     3.197 HEAT:  24.98256
 CYCLE:    25 TIME:   0.008 TIME LEFT:  2.00D  GRAD.:     5.463 HEAT:  24.98162
 CYCLE:    26 TIME:   0.004 TIME LEFT:  2.00D  GRAD.:     2.593 HEAT:  24.97148
 CYCLE:    27 TIME:   0.008 TIME LEFT:  2.00D  GRAD.:     2.082 HEAT:  24.96831
 CYCLE:    28 TIME:   0.008 TIME LEFT:  2.00D  GRAD.:     1.411 HEAT:  24.96527
 CYCLE:    29 TIME:   0.004 TIME LEFT:  2.00D  GRAD.:     1.751 HEAT:  24.96263
 CYCLE:    30 TIME:   0.008 TIME LEFT:  2.00D  GRAD.:     1.431 HEAT:  24.96048
 CYCLE:    31 TIME:   0.008 TIME LEFT:  2.00D  GRAD.:     1.227 HEAT:  24.95862
 CYCLE:    32 TIME:   0.004 TIME LEFT:  2.00D  GRAD.:     1.317 HEAT:  24.95734
 CYCLE:    33 TIME:   0.008 TIME LEFT:  2.00D  GRAD.:     0.937 HEAT:  24.95608
 CYCLE:    34 TIME:   0.008 TIME LEFT:  2.00D  GRAD.:     0.957 HEAT:  24.95456
 CYCLE:    35 TIME:   0.008 TIME LEFT:  2.00D  GRAD.:     0.797 HEAT:  24.95314
 CYCLE:    36 TIME:   0.004 TIME LEFT:  2.00D  GRAD.:     0.490 HEAT:  24.95270
 CYCLE:    37 TIME:   0.008 TIME LEFT:  2.00D  GRAD.:     0.410 HEAT:  24.95237
 CYCLE:    38 TIME:   0.008 TIME LEFT:  2.00D  GRAD.:     0.460 HEAT:  24.95193
 CYCLE:    39 TIME:   0.004 TIME LEFT:  2.00D  GRAD.:     0.396 HEAT:  24.95162
 CYCLE:    40 TIME:   0.008 TIME LEFT:  2.00D  GRAD.:     0.380 HEAT:  24.95121
 CYCLE:    41 TIME:   0.004 TIME LEFT:  2.00D  GRAD.:     0.386 HEAT:  24.95088
 CYCLE:    42 TIME:   0.008 TIME LEFT:  2.00D  GRAD.:     0.419 HEAT:  24.95054
 CYCLE:    43 TIME:   0.008 TIME LEFT:  2.00D  GRAD.:     0.427 HEAT:  24.95006
 CYCLE:    44 TIME:   0.008 TIME LEFT:  2.00D  GRAD.:     0.435 HEAT:  24.94955
 CYCLE:    45 TIME:   0.008 TIME LEFT:  2.00D  GRAD.:     0.416 HEAT:  24.94911
 CYCLE:    46 TIME:   0.004 TIME LEFT:  2.00D  GRAD.:     0.370 HEAT:  24.94875
 CYCLE:    47 TIME:   0.008 TIME LEFT:  2.00D  GRAD.:     0.372 HEAT:  24.94837
 CYCLE:    48 TIME:   0.008 TIME LEFT:  2.00D  GRAD.:     0.369 HEAT:  24.94806
 CYCLE:    49 TIME:   0.008 TIME LEFT:  2.00D  GRAD.:     0.357 HEAT:  24.94777
 CYCLE:    50 TIME:   0.008 TIME LEFT:  2.00D  GRAD.:     0.332 HEAT:  24.94751
 CYCLE:    51 TIME:   0.004 TIME LEFT:  2.00D  GRAD.:     0.304 HEAT:  24.94725
 CYCLE:    52 TIME:   0.008 TIME LEFT:  2.00D  GRAD.:     0.282 HEAT:  24.94698
 CYCLE:    53 TIME:   0.008 TIME LEFT:  2.00D  GRAD.:     0.260 HEAT:  24.94678
 CYCLE:    54 TIME:   0.008 TIME LEFT:  2.00D  GRAD.:     0.226 HEAT:  24.94662
 CYCLE:    55 TIME:   0.004 TIME LEFT:  2.00D  GRAD.:     0.175 HEAT:  24.94649
 CYCLE:    56 TIME:   0.008 TIME LEFT:  2.00D  GRAD.:     0.120 HEAT:  24.94642
 CYCLE:    57 TIME:   0.004 TIME LEFT:  2.00D  GRAD.:     0.072 HEAT:  24.94640
 CYCLE:    58 TIME:   0.008 TIME LEFT:  2.00D  GRAD.:     0.053 HEAT:  24.94639
 CYCLE:    59 TIME:   0.004 TIME LEFT:  2.00D  GRAD.:     0.051 HEAT:  24.94639
 CYCLE:    60 TIME:   0.008 TIME LEFT:  2.00D  GRAD.:     0.034 HEAT:  24.94638

     GRADIENT =  0.03393 IS LESS THAN CUTOFF =  0.05000



 -------------------------------------------------------------------------------
 pm3  precise nosym THREADS=1
 InChI=1S/C9H12/c1-7-6-8-4-2-3-5-9(7)8/h2-5,7-9H,6H2,1H3



     GEOMETRY OPTIMISED USING EIGENVECTOR FOLLOWING (EF).     
     SCF FIELD WAS ACHIEVED                                   


                              PM3 CALCULATION
                                                       MOPAC v23.1.2 MacOS
                                                       Tue Jun  3 16:30:36 2025




          FINAL HEAT OF FORMATION =         24.94638 KCAL/MOL =     104.37567 KJ/MOL


          COSMO AREA              =        165.72 SQUARE ANGSTROMS
          COSMO VOLUME            =        168.03 CUBIC ANGSTROMS

          GRADIENT NORM           =          0.03393          =       0.00741 PER ATOM
          IONIZATION POTENTIAL    =          8.956225 EV
          HOMO LUMO ENERGIES (EV) =         -8.956  0.244
          NO. OF FILLED LEVELS    =         24
          MOLECULAR WEIGHT        =        120.1938         POINT GROUP:  C1  

          MOLECULAR DIMENSIONS (Angstroms)

            Atom       Atom       Distance
            H    20    H    16     6.92805
            H    19    H    18     4.71595
            H    10    H    11     3.01081


          SCF CALCULATIONS        =         70

          WALL-CLOCK TIME         =      0.453 SECONDS
          COMPUTATION TIME        =      0.286 SECONDS




   ATOM   CHEMICAL          X               Y               Z
  NUMBER   SYMBOL      (ANGSTROMS)     (ANGSTROMS)     (ANGSTROMS)

     1       C          1.19505992  *   0.40056410  *   0.26895576  *
     2       C         -0.04330737  *   0.46913885  *  -0.67240123  *
     3       C         -0.28268724  *  -1.05300261  *  -0.46189520  *
     4       C          0.96009478  *  -1.11800569  *   0.45822256  *
     5       C          2.50367966  *   0.76782787  *  -0.37787190  *
     6       C         -1.55590827  *  -1.42532976  *   0.19896213  *
     7       C         -1.12079466  *   1.36924201  *  -0.19894991  *
     8       C         -2.46275631  *  -0.51353645  *   0.57148864  *
     9       C         -2.24236136  *   0.90693723  *   0.36766686  *
    10       H          1.05572670  *   0.98109724  *   1.20534248  *
    11       H         -0.17506420  *  -1.64375044  *  -1.39593574  *
    12       H          0.21445332  *   0.72908672  *  -1.72148037  *
    13       H          1.77311577  *  -1.75888001  *   0.08406155  *
    14       H          0.75025165  *  -1.42404198  *   1.49400108  *
    15       H          2.53682258  *   1.83723502  *  -0.62267969  *
    16       H          3.34723590  *   0.55168181  *   0.29028824  *
    17       H          2.67265514  *   0.21175648  *  -1.31012994  *
    18       H         -1.71875907  *  -2.49518699  *   0.36838100  *
    19       H         -0.95085331  *   2.44253778  *  -0.33697600  *
    20       H         -3.40311736  *  -0.81135348  *   1.04710200  *
    21       H         -3.03180970  *   1.58918155  *   0.70001016  *

                             CARTESIAN COORDINATES

   1    C        1.195059922     0.400564102     0.268955760
   2    C       -0.043307375     0.469138849    -0.672401225
   3    C       -0.282687244    -1.053002612    -0.461895200
   4    C        0.960094784    -1.118005690     0.458222555
   5    C        2.503679657     0.767827874    -0.377871901
   6    C       -1.555908272    -1.425329758     0.198962125
   7    C       -1.120794659     1.369242009    -0.198949914
   8    C       -2.462756309    -0.513536450     0.571488639
   9    C       -2.242361359     0.906937234     0.367666859
  10    H        1.055726697     0.981097241     1.205342481
  11    H       -0.175064197    -1.643750440    -1.395935740
  12    H        0.214453316     0.729086717    -1.721480374
  13    H        1.773115767    -1.758880013     0.084061545
  14    H        0.750251651    -1.424041977     1.494001084
  15    H        2.536822581     1.837235017    -0.622679689
  16    H        3.347235899     0.551681807     0.290288242
  17    H        2.672655143     0.211756478    -1.310129944
  18    H       -1.718759075    -2.495186986     0.368381000
  19    H       -0.950853307     2.442537778    -0.336976002
  20    H       -3.403117358    -0.811353475     1.047101996
  21    H       -3.031809696     1.589181549     0.700010163


           Empirical Formula: C9 H12  =    21 atoms



      MOLECULAR POINT GROUP   :   C1  


                  EIGENVALUES  
 -41.98106 -34.70249 -30.74222 -28.62154 -24.99871 -22.60853 -20.97708 -19.15414
 -17.88464 -16.75788 -16.00412 -15.52343 -14.68159 -14.52419 -14.47172 -13.25371
 -13.14798 -12.82786 -12.39958 -11.84048 -11.52517 -11.40973 -11.11375  -8.95623
   0.24383   2.07434   3.24500   3.29925   3.38774   3.46806   3.57608   3.77868
   3.83603   3.88295   3.97829   4.20652   4.28014   4.36910   4.51328   4.57728
   4.64827   4.78265   5.10060   5.27125   5.41262   5.49422   6.04005   6.27791


              NET ATOMIC CHARGES AND DIPOLE CONTRIBUTIONS

  ATOM NO.   TYPE          CHARGE      No. of ELECS.   s-Pop       p-Pop       
    1          C          -0.084388        4.0844     1.19035     2.89403
    2          C          -0.058621        4.0586     1.18077     2.87785
    3          C          -0.055518        4.0555     1.17622     2.87930
    4          C          -0.102779        4.1028     1.17734     2.92544
    5          C          -0.102862        4.1029     1.13738     2.96548
    6          C          -0.123286        4.1233     1.19288     2.93041
    7          C          -0.122988        4.1230     1.19275     2.93024
    8          C          -0.108446        4.1084     1.17829     2.93015
    9          C          -0.108499        4.1085     1.17836     2.93014
   10          H           0.075893        0.9241     0.92411
   11          H           0.074265        0.9257     0.92573
   12          H           0.078166        0.9218     0.92183
   13          H           0.057837        0.9422     0.94216
   14          H           0.061302        0.9387     0.93870
   15          H           0.040169        0.9598     0.95983
   16          H           0.040514        0.9595     0.95949
   17          H           0.040380        0.9596     0.95962
   18          H           0.099674        0.9003     0.90033
   19          H           0.099869        0.9001     0.90013
   20          H           0.099659        0.9003     0.90034
   21          H           0.099658        0.9003     0.90034
 DIPOLE           X         Y         Z       TOTAL
 POINT-CHG.     0.343    -0.022    -0.034     0.346
 HYBRID        -0.010    -0.004    -0.015     0.018
 SUM            0.333    -0.025    -0.049     0.338


          ATOMIC ORBITAL ELECTRON POPULATIONS

     Atom    s        px        py        pz   
    1  C   1.19035   0.94190   0.96431   0.98782
    2  C   1.18077   0.94808   0.94201   0.98776
    3  C   1.17622   0.93708   0.96013   0.98209
    4  C   1.17734   0.96988   0.95798   0.99758
    5  C   1.13738   0.96172   1.00537   0.99839
    6  C   1.19288   0.95964   0.98176   0.98901
    7  C   1.19275   0.95904   0.98233   0.98887
    8  C   1.17829   0.98491   0.93998   1.00526
    9  C   1.17836   0.97640   0.95293   1.00082
   10  H   0.92411
   11  H   0.92573
   12  H   0.92183
   13  H   0.94216
   14  H   0.93870
   15  H   0.95983
   16  H   0.95949
   17  H   0.95962
   18  H   0.90033
   19  H   0.90013
   20  H   0.90034
   21  H   0.90034
 *******************************************************************************
 **                                                                           **
 **                              MOPAC v23.1.2                                **
 **                                                                           **
 *******************************************************************************
 **          Digital Object Identifier (DOI): 10.5281/zenodo.6511958          **
 **    Visit the DOI location for information on how to cite this program.    **
 *******************************************************************************

                              PM3 CALCULATION RESULTS

 *******************************************************************************
 *  CALCULATION DONE: (MAX THREADS = 1)              Tue Jun  3 16:30:36 2025  *
 *  PM3        - The PM3 Hamiltonian to be used
 *  OLDGEO     - PREVIOUS GEOMETRY TO BE USED
 *  PRECISE    - TIGHTER CRITERIA TO BE USED
 *  NOSYM      - POINT-GROUP SYMMETRY SET TO C1
 *  THREADS=1  - MULTI-THREADING NOT USED
 *  T=         - A TIME OF 172800.0 SECONDS REQUESTED
 *  DUMP=N     - RESTART FILE WRITTEN EVERY 7200.0 SECONDS REQUESTED
 *  THERMO     - THERMODYNAMIC QUANTITIES TO BE CALCULATED
 *******************************************************************************
oldgeo thermo nosym precise THREADS=1  pm3
 InChI=1S/C9H12/c1-7-6-8-4-2-3-5-9(7)8/h2-5,7-9H,6H2,1H3

   ATOM   CHEMICAL          X               Y               Z
  NUMBER   SYMBOL      (ANGSTROMS)     (ANGSTROMS)     (ANGSTROMS)

     1       C          1.19505992  *   0.40056410  *   0.26895576  *
     2       C         -0.04330737  *   0.46913885  *  -0.67240123  *
     3       C         -0.28268724  *  -1.05300261  *  -0.46189520  *
     4       C          0.96009478  *  -1.11800569  *   0.45822256  *
     5       C          2.50367966  *   0.76782787  *  -0.37787190  *
     6       C         -1.55590827  *  -1.42532976  *   0.19896213  *
     7       C         -1.12079466  *   1.36924201  *  -0.19894991  *
     8       C         -2.46275631  *  -0.51353645  *   0.57148864  *
     9       C         -2.24236136  *   0.90693723  *   0.36766686  *
    10       H          1.05572670  *   0.98109724  *   1.20534248  *
    11       H         -0.17506420  *  -1.64375044  *  -1.39593574  *
    12       H          0.21445332  *   0.72908672  *  -1.72148037  *
    13       H          1.77311577  *  -1.75888001  *   0.08406155  *
    14       H          0.75025165  *  -1.42404198  *   1.49400108  *
    15       H          2.53682258  *   1.83723502  *  -0.62267969  *
    16       H          3.34723590  *   0.55168181  *   0.29028824  *
    17       H          2.67265514  *   0.21175648  *  -1.31012994  *
    18       H         -1.71875907  *  -2.49518699  *   0.36838100  *
    19       H         -0.95085331  *   2.44253778  *  -0.33697600  *
    20       H         -3.40311736  *  -0.81135348  *   1.04710200  *
    21       H         -3.03180970  *   1.58918155  *   0.70001016  *



          CARTESIAN COORDINATES 

    NO.       ATOM           X           Y           Z

     1         C          1.1951      0.4006      0.2690
     2         C         -0.0433      0.4691     -0.6724
     3         C         -0.2827     -1.0530     -0.4619
     4         C          0.9601     -1.1180      0.4582
     5         C          2.5037      0.7678     -0.3779
     6         C         -1.5559     -1.4253      0.1990
     7         C         -1.1208      1.3692     -0.1989
     8         C         -2.4628     -0.5135      0.5715
     9         C         -2.2424      0.9069      0.3677
    10         H          1.0557      0.9811      1.2053
    11         H         -0.1751     -1.6438     -1.3959
    12         H          0.2145      0.7291     -1.7215
    13         H          1.7731     -1.7589      0.0841
    14         H          0.7503     -1.4240      1.4940
    15         H          2.5368      1.8372     -0.6227
    16         H          3.3472      0.5517      0.2903
    17         H          2.6727      0.2118     -1.3101
    18         H         -1.7188     -2.4952      0.3684
    19         H         -0.9509      2.4425     -0.3370
    20         H         -3.4031     -0.8114      1.0471
    21         H         -3.0318      1.5892      0.7000

  H: (PM3): J. J. P. STEWART, J. COMP. CHEM. 10, 209 (1989).
  C: (PM3): J. J. P. STEWART, J. COMP. CHEM. 10, 209 (1989).

           Empirical Formula: C9 H12  =    21 atoms



      MOLECULAR POINT GROUP   :   C1  


      RHF CALCULATION, NO. OF DOUBLY OCCUPIED LEVELS = 24



          HEAT OF FORMATION =      24.946384 KCALS/MOLE


          CARTESIAN COORDINATE DERIVATIVES

   NUMBER  ATOM         X            Y            Z

     1       C      0.001864     0.006677     0.000366
     2       C      0.000334     0.000399    -0.005455
     3       C      0.000821    -0.000020     0.000646
     4       C     -0.005865    -0.003927    -0.004657
     5       C      0.000097    -0.001363     0.001946
     6       C     -0.004008     0.000618    -0.003064
     7       C     -0.006166    -0.005330    -0.001056
     8       C     -0.002014    -0.004098     0.001760
     9       C     -0.000224     0.003788     0.001369
    10       H      0.003260     0.000179     0.000824
    11       H     -0.002852    -0.000639    -0.003557
    12       H      0.011077     0.005055     0.004228
    13       H     -0.007757     0.004535    -0.002196
    14       H      0.006546     0.002851     0.003543
    15       H     -0.000225    -0.003730     0.005639
    16       H     -0.005581     0.002812    -0.005803
    17       H      0.005170     0.002448     0.001667
    18       H     -0.006384    -0.005866    -0.003468
    19       H      0.003336    -0.003108     0.004364
    20       H      0.011344    -0.003854     0.006527
    21       H     -0.002771     0.002570    -0.003621



          GRADIENT NORM =   0.03365

          MOLECULAR WEIGHT =  120.19



          ROTATIONAL CONSTANTS IN CM(-1)

          A =    0.10950627   B =    0.04673206   C =    0.03651793



           PRINCIPAL MOMENTS OF INERTIA IN UNITS OF 10**(-40)*GRAM-CM**2

          A =      255.6269   B =      599.0053   C =      766.5481


          ORIENTATION OF MOLECULE IN FORCE CALCULATION

    NO.       ATOM         X         Y         Z

     1          C      -1.3082   -0.6052   -0.5791
     2          C       0.2489   -0.6052   -0.5791
     3          C       0.2450    0.9500   -0.5791
     4          C      -1.3026    0.9430   -0.5976
     5          C      -1.9417   -1.2552   -1.7798
     6          C       0.8416    1.6014    0.6110
     7          C       0.8592   -1.2547    0.6045
     8          C       1.3778    0.9003    1.6177
     9          C       1.3883   -0.5515    1.6137
    10          H      -1.7379   -1.0263    0.3544
    11          H       0.6980    1.3863   -1.4941
    12          H       0.6896   -1.0402   -1.5016
    13          H      -1.7512    1.3933   -1.4963
    14          H      -1.7754    1.4138    0.2772
    15          H      -1.7730   -2.3397   -1.7768
    16          H      -3.0261   -1.0858   -1.7927
    17          H      -1.5370   -0.8621   -2.7224
    18          H       0.8216    2.6964    0.6246
    19          H       0.8548   -2.3500    0.6120
    20          H       1.8251    1.4020    2.4822
    21          H       1.8453   -1.0516    2.4740


    FIRST DERIVATIVES WILL BE USED IN THE CALCULATION OF SECOND DERIVATIVES

          ESTIMATED TIME TO COMPLETE CALCULATION =        1.97 SECONDS

    FOR POINT-GROUP C1   THERE ARE   1 UNIQUE SYMMETRY FUNCTIONS.

 STEP:   1 TIME =     0.02 SECS, INTEGRAL =      0.02 TIME LEFT: 172799.97
 STEP:   2 TIME =     0.02 SECS, INTEGRAL =      0.04 TIME LEFT: 172799.95
 STEP:   3 TIME =     0.02 SECS, INTEGRAL =      0.06 TIME LEFT: 172799.93
 STEP:   4 TIME =     0.02 SECS, INTEGRAL =      0.08 TIME LEFT: 172799.91
 STEP:   5 TIME =     0.02 SECS, INTEGRAL =      0.09 TIME LEFT: 172799.90
 STEP:   6 TIME =     0.02 SECS, INTEGRAL =      0.11 TIME LEFT: 172799.88
 STEP:   7 TIME =     0.02 SECS, INTEGRAL =      0.13 TIME LEFT: 172799.86
 STEP:   8 TIME =     0.02 SECS, INTEGRAL =      0.15 TIME LEFT: 172799.84
 STEP:   9 TIME =     0.02 SECS, INTEGRAL =      0.17 TIME LEFT: 172799.82
 STEP:  10 TIME =     0.02 SECS, INTEGRAL =      0.18 TIME LEFT: 172799.81
 STEP:  11 TIME =     0.02 SECS, INTEGRAL =      0.20 TIME LEFT: 172799.79
 STEP:  12 TIME =     0.02 SECS, INTEGRAL =      0.22 TIME LEFT: 172799.77
 STEP:  13 TIME =     0.02 SECS, INTEGRAL =      0.24 TIME LEFT: 172799.75
 STEP:  14 TIME =     0.02 SECS, INTEGRAL =      0.25 TIME LEFT: 172799.74
 STEP:  15 TIME =     0.02 SECS, INTEGRAL =      0.27 TIME LEFT: 172799.72
 STEP:  16 TIME =     0.02 SECS, INTEGRAL =      0.29 TIME LEFT: 172799.70
 STEP:  17 TIME =     0.02 SECS, INTEGRAL =      0.31 TIME LEFT: 172799.68
 STEP:  18 TIME =     0.02 SECS, INTEGRAL =      0.33 TIME LEFT: 172799.66
 STEP:  19 TIME =     0.02 SECS, INTEGRAL =      0.35 TIME LEFT: 172799.64
 STEP:  20 TIME =     0.02 SECS, INTEGRAL =      0.37 TIME LEFT: 172799.62
 STEP:  21 TIME =     0.02 SECS, INTEGRAL =      0.39 TIME LEFT: 172799.61
 STEP:  22 TIME =     0.02 SECS, INTEGRAL =      0.41 TIME LEFT: 172799.59
 STEP:  23 TIME =     0.02 SECS, INTEGRAL =      0.43 TIME LEFT: 172799.57
 STEP:  24 TIME =     0.02 SECS, INTEGRAL =      0.45 TIME LEFT: 172799.55
 STEP:  25 TIME =     0.02 SECS, INTEGRAL =      0.47 TIME LEFT: 172799.52
 STEP:  26 TIME =     0.02 SECS, INTEGRAL =      0.49 TIME LEFT: 172799.50
 STEP:  27 TIME =     0.02 SECS, INTEGRAL =      0.51 TIME LEFT: 172799.48
 STEP:  28 TIME =     0.02 SECS, INTEGRAL =      0.53 TIME LEFT: 172799.46
 STEP:  29 TIME =     0.02 SECS, INTEGRAL =      0.55 TIME LEFT: 172799.45
 STEP:  30 TIME =     0.02 SECS, INTEGRAL =      0.57 TIME LEFT: 172799.43
 STEP:  31 TIME =     0.02 SECS, INTEGRAL =      0.59 TIME LEFT: 172799.41
 STEP:  32 TIME =     0.02 SECS, INTEGRAL =      0.61 TIME LEFT: 172799.39
 STEP:  33 TIME =     0.02 SECS, INTEGRAL =      0.62 TIME LEFT: 172799.37
 STEP:  34 TIME =     0.02 SECS, INTEGRAL =      0.64 TIME LEFT: 172799.35
 STEP:  35 TIME =     0.02 SECS, INTEGRAL =      0.66 TIME LEFT: 172799.33
 STEP:  36 TIME =     0.02 SECS, INTEGRAL =      0.68 TIME LEFT: 172799.31
 STEP:  37 TIME =     0.02 SECS, INTEGRAL =      0.70 TIME LEFT: 172799.29
 STEP:  38 TIME =     0.02 SECS, INTEGRAL =      0.72 TIME LEFT: 172799.27
 STEP:  39 TIME =     0.02 SECS, INTEGRAL =      0.74 TIME LEFT: 172799.25
 STEP:  40 TIME =     0.02 SECS, INTEGRAL =      0.76 TIME LEFT: 172799.23
 STEP:  41 TIME =     0.02 SECS, INTEGRAL =      0.78 TIME LEFT: 172799.21
 STEP:  42 TIME =     0.02 SECS, INTEGRAL =      0.80 TIME LEFT: 172799.20
 STEP:  43 TIME =     0.02 SECS, INTEGRAL =      0.82 TIME LEFT: 172799.18
 STEP:  44 TIME =     0.02 SECS, INTEGRAL =      0.84 TIME LEFT: 172799.16
 STEP:  45 TIME =     0.02 SECS, INTEGRAL =      0.86 TIME LEFT: 172799.13
 STEP:  46 TIME =     0.02 SECS, INTEGRAL =      0.88 TIME LEFT: 172799.12
 STEP:  47 TIME =     0.02 SECS, INTEGRAL =      0.89 TIME LEFT: 172799.10
 STEP:  48 TIME =     0.02 SECS, INTEGRAL =      0.92 TIME LEFT: 172799.07
 STEP:  49 TIME =     0.02 SECS, INTEGRAL =      0.94 TIME LEFT: 172799.05
 STEP:  50 TIME =     0.02 SECS, INTEGRAL =      0.96 TIME LEFT: 172799.04
 STEP:  51 TIME =     0.02 SECS, INTEGRAL =      0.98 TIME LEFT: 172799.02
 STEP:  52 TIME =     0.02 SECS, INTEGRAL =      1.00 TIME LEFT: 172799.00
 STEP:  53 TIME =     0.02 SECS, INTEGRAL =      1.01 TIME LEFT: 172798.98
 STEP:  54 TIME =     0.02 SECS, INTEGRAL =      1.04 TIME LEFT: 172798.96
 STEP:  55 TIME =     0.02 SECS, INTEGRAL =      1.05 TIME LEFT: 172798.94
 STEP:  56 TIME =     0.02 SECS, INTEGRAL =      1.07 TIME LEFT: 172798.92
 STEP:  57 TIME =     0.02 SECS, INTEGRAL =      1.09 TIME LEFT: 172798.90
 STEP:  58 TIME =     0.02 SECS, INTEGRAL =      1.12 TIME LEFT: 172798.88
 STEP:  59 TIME =     0.02 SECS, INTEGRAL =      1.14 TIME LEFT: 172798.86
 STEP:  60 TIME =     0.02 SECS, INTEGRAL =      1.16 TIME LEFT: 172798.84
 STEP:  61 TIME =     0.02 SECS, INTEGRAL =      1.18 TIME LEFT: 172798.82
 STEP:  62 TIME =     0.02 SECS, INTEGRAL =      1.20 TIME LEFT: 172798.80
 STEP:  63 TIME =     0.02 SECS, INTEGRAL =      1.21 TIME LEFT: 172798.78

(To convert to Hartree/Bohr^2, multiply by (10^(-21) x N x a0^2)/(4.184 x 627.51) =  0.0642)


           FORCE MATRIX IN MILLIDYNES/ANGSTROM


                  C  1       C  2       C  3       C  4       C  5       C  6
 ------------------------------------------------------------------------------
     C    1  14.468128
     C    2   3.137308  14.793456
     C    3   1.787624   3.227568  14.889679
     C    4   3.468539   1.800645   3.438049  14.314713
     C    5   4.632454   0.548569   0.041530   0.553308  14.518090
     C    6   0.046520   0.577080   5.102928   0.582458   0.004981  18.118633
     C    7   0.575654   5.109972   0.575321   0.045253   0.034132   0.154852
     C    8   0.022756   0.119471   0.859613   0.040788   0.003114  10.289483
     C    9   0.041297   0.862901   0.119261   0.022822   0.006607   1.112079
     H   10   4.432007   0.438034   0.025795   0.428735   0.422094   0.003285
     H   11   0.028613   0.422124   4.419281   0.434275   0.003786   0.406797
     H   12   0.442961   4.396848   0.421941   0.028128   0.030814   0.033653
     H   13   0.452074   0.029745   0.441543   4.679169   0.026700   0.032797
     H   14   0.442339   0.029132   0.453073   4.704857   0.033626   0.025315
     H   15   0.453098   0.012431   0.003343   0.048763   4.745493   0.001315
     H   16   0.450993   0.047788   0.003791   0.012140   4.744391   0.000944
     H   17   0.469818   0.020333   0.002329   0.019615   4.711147   0.000784
     H   18   0.006046   0.045527   0.431157   0.006863   0.001438   4.835122
     H   19   0.007604   0.431560   0.045257   0.005575   0.001576   0.014124
     H   20   0.001445   0.004036   0.124591   0.017816   0.000505   0.442721
     H   21   0.016897   0.124555   0.004110   0.001417   0.002099   0.047314


                  C  7       C  8       C  9       H 10       H 11       H 12
 ------------------------------------------------------------------------------
     C    7  18.119440
     C    8   1.112083  18.364830
     C    9  10.284412   5.605418  18.362983
     H   10   0.031753   0.001679   0.004782   4.928378
     H   11   0.033477   0.041923   0.012853   0.001252   4.899611
     H   12   0.407177   0.012543   0.041663   0.030167   0.029562   4.885160
     H   13   0.002476   0.005014   0.002347   0.031343   0.025690   0.003038
     H   14   0.003585   0.004633   0.001739   0.027178   0.031896   0.000949
     H   15   0.002223   0.000616   0.001030   0.029583   0.000687   0.005498
     H   16   0.006317   0.000589   0.001378   0.029489   0.000730   0.003145
     H   17   0.001050   0.000377   0.000615   0.045331   0.001031   0.020395
     H   18   0.014287   0.445507   0.129726   0.000805   0.032000   0.005676
     H   19   4.834154   0.129682   0.445405   0.003826   0.005662   0.032296
     H   20   0.047331   4.846937   0.435090   0.000294   0.014651   0.000663
     H   21   0.442695   0.435071   4.847478   0.000901   0.000665   0.014444


                  H 13       H 14       H 15       H 16       H 17       H 18
 ------------------------------------------------------------------------------
     H   13   5.302345
     H   14   0.548920   5.322015
     H   15   0.003230   0.005785   5.471656
     H   16   0.005459   0.001866   0.567774   5.470793
     H   17   0.017606   0.001584   0.572284   0.573251   5.450541
     H   18   0.001167   0.003990   0.000285   0.000301   0.000180   5.208126
     H   19   0.001029   0.000847   0.000940   0.000328   0.000491   0.011636
     H   20   0.002098   0.001029   0.000140   0.000112   0.000127   0.067314
     H   21   0.000239   0.000277   0.000195   0.000453   0.000143   0.007536


                  H 19       H 20       H 21
 ------------------------------------------
     H   19   5.207239
     H   20   0.007521   5.210616
     H   21   0.067259   0.033051   5.211162


          HEAT OF FORMATION =      24.946384 KCALS/MOLE

          ZERO POINT ENERGY     115.549 KCAL/MOL


           NORMAL COORDINATE ANALYSIS (Total motion = 1 Angstrom)


   Root No.       1         2         3         4         5         6         7         8

                 1 A       2 A       3 A       4 A       5 A       6 A       7 A       8 A   

                  86.5     158.0     173.3     233.2     314.8     416.8     426.3     513.6
  
           1    0.0070   -0.0049   -0.0199   -0.0057   -0.0225   -0.0298    0.0101    0.0194
           2    0.0181   -0.0041    0.0120   -0.0065    0.0223   -0.0020   -0.0093   -0.0074
           3    0.0066   -0.0035   -0.0082    0.0038    0.0330   -0.0150    0.0372   -0.0013
           4    0.0072   -0.0047   -0.0211   -0.0031   -0.0251   -0.0228    0.0101    0.0129
           5    0.0094   -0.0026    0.0023   -0.0286   -0.0045    0.0010    0.0039    0.0257
           6   -0.0117    0.0086    0.0222    0.0135    0.0145    0.0142    0.0079    0.0129
           7    0.0155   -0.0071   -0.0099    0.0126   -0.0020   -0.0160   -0.0222   -0.0155
           8    0.0096   -0.0025    0.0013   -0.0280   -0.0057   -0.0013    0.0049    0.0257
           9   -0.0048    0.0078    0.0168   -0.0085   -0.0164    0.0235   -0.0017   -0.0168
          10    0.0159   -0.0060   -0.0089    0.0147   -0.0041   -0.0193   -0.0198   -0.0230
          11    0.0174   -0.0041    0.0128   -0.0074    0.0225    0.0012   -0.0127   -0.0087
          12   -0.0409   -0.0063   -0.0348   -0.0082    0.0148   -0.0169   -0.0308   -0.0142
          13   -0.0178   -0.0021    0.0121   -0.0262    0.0527   -0.0196    0.0178   -0.0019
          14   -0.0223    0.0056   -0.0140    0.0434    0.0012   -0.0151    0.0372    0.0075
          15    0.0424   -0.0108   -0.0117   -0.0140    0.0056   -0.0217    0.0131    0.0043
          16   -0.0177   -0.0135   -0.0167   -0.0244    0.0029    0.0500   -0.0148    0.0258
          17   -0.0031    0.0000   -0.0026   -0.0059   -0.0064   -0.0040   -0.0051   -0.0092
          18    0.0194    0.0097    0.0227   -0.0030   -0.0212   -0.0035   -0.0034   -0.0199
          19    0.0191    0.0045   -0.0179    0.0291    0.0081    0.0462    0.0221   -0.0196
          20   -0.0027    0.0004   -0.0016   -0.0044   -0.0121    0.0135   -0.0096    0.0038
          21   -0.0249    0.0056    0.0180    0.0122   -0.0099   -0.0123   -0.0055    0.0235
          22   -0.0280    0.0106    0.0370   -0.0259   -0.0307    0.0027    0.0158   -0.0292
          23   -0.0124    0.0026   -0.0041    0.0132   -0.0086    0.0042   -0.0097   -0.0196
          24    0.0184   -0.0015   -0.0068    0.0102   -0.0049    0.0290   -0.0221    0.0055
          25    0.0006    0.0241    0.0407    0.0333    0.0061   -0.0039   -0.0224    0.0357
          26   -0.0121    0.0027   -0.0043    0.0137   -0.0085    0.0051   -0.0103   -0.0183
          27   -0.0087   -0.0061   -0.0109   -0.0014   -0.0123    0.0222    0.0171    0.0080
          28    0.0197   -0.0146   -0.0425   -0.0179   -0.0462   -0.0482    0.0183    0.0344
          29    0.0536   -0.0023    0.0320   -0.0067    0.0333    0.0060   -0.0065   -0.0193
          30    0.0288   -0.0074   -0.0100   -0.0030    0.0252   -0.0208    0.0402    0.0009
          31    0.0432    0.0003    0.0205    0.0287   -0.0070   -0.0199   -0.0176   -0.0476
          32    0.0156   -0.0026   -0.0055   -0.0445   -0.0268   -0.0094    0.0116    0.0292
          33    0.0122    0.0113    0.0280   -0.0079   -0.0283    0.0160    0.0032   -0.0310
          34   -0.0084    0.0020   -0.0128   -0.0143   -0.0538   -0.0350   -0.0025    0.0475
          35    0.0146   -0.0003    0.0002   -0.0460   -0.0213    0.0126    0.0140    0.0243
          36   -0.0216    0.0103    0.0263    0.0160    0.0069    0.0016   -0.0030    0.0305
          37    0.0422    0.0016    0.0274    0.0190   -0.0191    0.0185    0.0027   -0.0324
          38   -0.0103   -0.0086   -0.0009   -0.0072    0.0212   -0.0026   -0.0779   -0.0375
          39   -0.0680   -0.0124   -0.0600   -0.0106    0.0222   -0.0384   -0.0774   -0.0250
          40   -0.0045   -0.0154   -0.0369    0.0224    0.0262   -0.0517   -0.0596   -0.0435
          41    0.0495   -0.0022    0.0330    0.0075    0.0390    0.0076    0.0376   -0.0100
          42   -0.0694   -0.0125   -0.0612   -0.0117    0.0227   -0.0393   -0.0813   -0.0259
          43   -0.0271   -0.2068    0.0829   -0.0166    0.0811   -0.0109    0.0041   -0.0213
          44   -0.0237   -0.0255   -0.0032    0.0451    0.0053   -0.0139    0.0360    0.0050
          45    0.0820    0.0994   -0.0231   -0.0778    0.0305   -0.0144   -0.0399   -0.0158
          46   -0.0166    0.0307    0.0012   -0.0282    0.0504   -0.0214    0.0207    0.0004
          47   -0.0137    0.2090   -0.0848    0.0349   -0.0256   -0.0261    0.0554    0.0277
          48    0.0540   -0.1336   -0.0050    0.0232   -0.0693   -0.0309    0.0094    0.0334
          49   -0.0302    0.1653   -0.0180   -0.0546    0.1060   -0.0179    0.0338   -0.0174
          50   -0.0626   -0.1518    0.0213    0.0985   -0.0011   -0.0185    0.0797    0.0153
          51    0.0204   -0.0046   -0.0100   -0.0035    0.0266   -0.0222    0.0363    0.0010
          52   -0.0350   -0.0349   -0.0511   -0.0671    0.0157    0.1543    0.0017    0.0835
          53   -0.0036   -0.0005   -0.0034   -0.0066   -0.0061   -0.0013   -0.0048   -0.0080
          54    0.0383    0.0179    0.0435   -0.0056   -0.0270   -0.0559   -0.0010   -0.0157
          55    0.0420    0.0029   -0.0493    0.0680    0.0438    0.1536    0.0356   -0.0661
          56   -0.0029    0.0004   -0.0014   -0.0046   -0.0123    0.0126   -0.0097    0.0039
          57   -0.0472    0.0096    0.0309    0.0174   -0.0305   -0.0602   -0.0223    0.0150
          58   -0.0557    0.0141    0.0604   -0.0719   -0.0662    0.0202    0.0778   -0.0988
          59   -0.0202    0.0043   -0.0055    0.0272   -0.0057    0.0055   -0.0040   -0.0096
          60    0.0373   -0.0043   -0.0180    0.0257    0.0118    0.0193   -0.0573    0.0362
          61    0.0073    0.0435    0.0728    0.0787    0.0424    0.0068   -0.0770    0.1059
          62   -0.0195    0.0045   -0.0058    0.0280   -0.0020   -0.0035   -0.0032   -0.0148
          63   -0.0167   -0.0154   -0.0288   -0.0170   -0.0279    0.0119    0.0501   -0.0277


   Root No.       9        10        11        12        13        14        15        16

                 9 A      10 A      11 A      12 A      13 A      14 A      15 A      16 A   

                 553.9     587.9     732.3     754.4     824.2     866.2     901.4     925.9
  
           1   -0.0012   -0.0147   -0.0267    0.0032   -0.0143   -0.0079    0.0159    0.0062
           2    0.0249   -0.0172   -0.0257   -0.0123   -0.0034   -0.0012   -0.0162    0.0107
           3   -0.0226    0.0301    0.0206    0.0055    0.0081    0.0034   -0.0030   -0.0128
           4    0.0102   -0.0154   -0.0156   -0.0099    0.0077    0.0126   -0.0202   -0.0220
           5    0.0113    0.0012    0.0280    0.0098    0.0021    0.0079    0.0252   -0.0208
           6   -0.0015   -0.0469    0.0245    0.0037   -0.0062   -0.0173    0.0287   -0.0140
           7   -0.0117    0.0081    0.0264    0.0125    0.0001   -0.0031   -0.0020    0.0064
           8    0.0007   -0.0170    0.0306    0.0109   -0.0001   -0.0194   -0.0227   -0.0046
           9   -0.0416   -0.0190   -0.0223   -0.0169    0.0032    0.0291    0.0169    0.0119
          10   -0.0122   -0.0017    0.0234    0.0199    0.0155    0.0182    0.0029   -0.0038
          11    0.0259   -0.0187   -0.0197   -0.0098    0.0004    0.0087    0.0174   -0.0271
          12    0.0058   -0.0060   -0.0008   -0.0035    0.0033    0.0347   -0.0037   -0.0089
          13   -0.0066    0.0112   -0.0168    0.0012   -0.0094   -0.0098    0.0195    0.0189
          14   -0.0060    0.0070   -0.0158   -0.0029   -0.0049   -0.0026   -0.0128    0.0227
          15   -0.0044    0.0062   -0.0163    0.0007   -0.0055   -0.0066    0.0034    0.0105
          16   -0.0284    0.0133    0.0111   -0.0222   -0.0282   -0.0025   -0.0068   -0.0000
          17   -0.0525   -0.0480    0.0247   -0.0007    0.0077    0.0010   -0.0132    0.0325
          18   -0.0102    0.0101    0.0004    0.0106    0.0093   -0.0192   -0.0098    0.0052
          19    0.0300   -0.0240    0.0090   -0.0272    0.0242   -0.0090   -0.0036   -0.0040
          20    0.0264    0.0658    0.0100    0.0146    0.0084    0.0242    0.0189    0.0361
          21    0.0155   -0.0189   -0.0033    0.0066   -0.0082    0.0035   -0.0149   -0.0025
          22    0.0147    0.0217    0.0063   -0.0115   -0.0331   -0.0108   -0.0020   -0.0065
          23   -0.0183    0.0105   -0.0130   -0.0053   -0.0074   -0.0128   -0.0005   -0.0180
          24   -0.0067    0.0486   -0.0196    0.0025    0.0001   -0.0304   -0.0060   -0.0236
          25    0.0135    0.0086    0.0045   -0.0171    0.0299    0.0011    0.0035    0.0146
          26   -0.0137    0.0179   -0.0147   -0.0030   -0.0070   -0.0119   -0.0012   -0.0154
          27    0.0544   -0.0006    0.0133    0.0111    0.0004    0.0239   -0.0092    0.0204
          28   -0.0031    0.0077   -0.0532    0.0019   -0.0188    0.0245    0.0060   -0.0243
          29    0.0283   -0.0259   -0.0319   -0.0166    0.0039   -0.0294   -0.0218    0.0109
          30   -0.0215    0.0349    0.0038    0.0032    0.0079    0.0042   -0.0094   -0.0240
          31   -0.0201    0.0072    0.0361    0.0407    0.0235   -0.0283    0.0638    0.0258
          32    0.0138    0.0172    0.0206    0.0140    0.0073    0.0018   -0.0912   -0.0284
          33   -0.0385   -0.0025   -0.0214   -0.0006    0.0181    0.0240    0.0154    0.0121
          34    0.0134   -0.0468   -0.0429   -0.0028   -0.0134    0.0409    0.0024   -0.0813
          35   -0.0149   -0.0298    0.0229   -0.0057    0.0066    0.0394    0.0531   -0.0825
          36    0.0128   -0.0472    0.0135    0.0142   -0.0181   -0.0181    0.0238   -0.0147
          37   -0.0660    0.0019   -0.0085   -0.0171    0.0202    0.1599    0.0297   -0.0053
          38    0.0687   -0.0604   -0.0426   -0.0078    0.0040   -0.0278    0.0693    0.0066
          39    0.0563   -0.0298    0.0048    0.0178    0.0031   -0.0590    0.0119    0.0098
          40    0.0442    0.0018    0.0618    0.0605    0.0340   -0.0715    0.0077   -0.0410
          41   -0.0081    0.0248   -0.0013   -0.0158    0.0183    0.0899   -0.0160   -0.1062
          42    0.0573   -0.0295    0.0099    0.0226    0.0042   -0.0622    0.0169    0.0142
          43    0.0049    0.0157   -0.0219   -0.0119    0.0047    0.0168   -0.0692    0.0322
          44   -0.0046    0.0080   -0.0165   -0.0047   -0.0030    0.0006   -0.0250    0.0246
          45    0.0343   -0.0240   -0.0590   -0.0216   -0.0127    0.0112   -0.0744    0.0935
          46   -0.0090    0.0124   -0.0164    0.0031   -0.0110   -0.0133    0.0303    0.0173
          47   -0.0202    0.0070   -0.0146    0.0109   -0.0209   -0.0334    0.0780    0.0170
          48    0.0031   -0.0335   -0.0508    0.0071   -0.0445   -0.0479    0.1108    0.0708
          49   -0.0226    0.0495    0.0122    0.0025    0.0168    0.0129   -0.0349   -0.0342
          50   -0.0364    0.0392    0.0183    0.0114    0.0072   -0.0101    0.0190   -0.0399
          51   -0.0230    0.0345    0.0094    0.0071    0.0101   -0.0003   -0.0058   -0.0363
          52   -0.0744   -0.0196   -0.0814    0.0814    0.1798   -0.0580   -0.0084    0.0288
          53   -0.0532   -0.0482    0.0220    0.0017    0.0128    0.0000   -0.0131    0.0330
          54    0.0214    0.0024    0.0917   -0.0256   -0.0855   -0.0185   -0.0603    0.0255
          55    0.0384   -0.0811   -0.0132    0.1228   -0.1745    0.0193   -0.0305    0.0147
          56    0.0260    0.0656    0.0100    0.0134    0.0100    0.0243    0.0191    0.0361
          57   -0.0056    0.0123   -0.0330   -0.0853    0.0793   -0.0431   -0.0616   -0.0135
          58    0.0300   -0.0204   -0.0667    0.1636    0.0968   -0.0380   -0.0223   -0.0327
          59    0.0304    0.0230   -0.0241   -0.0034    0.0025    0.0200    0.0143   -0.0329
          60   -0.0430    0.0624    0.0251   -0.0891   -0.0730   -0.0369   -0.0054   -0.0017
          61   -0.0340   -0.0138   -0.0619    0.1664   -0.0671    0.0683   -0.0592   -0.0169
          62   -0.0129   -0.0400   -0.0148   -0.0126    0.0009   -0.0025   -0.0264   -0.0320
          63    0.0797   -0.0229    0.0483   -0.0922    0.0565   -0.0065    0.0079    0.0281


   Root No.      17        18        19        20        21        22        23        24

                17 A      18 A      19 A      20 A      21 A      22 A      23 A      24 A   

                 942.5     945.6     967.4     994.5     999.5    1045.3    1045.9    1063.5
  
           1    0.0148   -0.0063    0.0007    0.0003   -0.0068    0.0054   -0.0103    0.0044
           2   -0.0031    0.0119   -0.0016   -0.0003   -0.0017   -0.0013   -0.0019   -0.0173
           3    0.0029   -0.0029    0.0005    0.0058   -0.0010    0.0016    0.0048   -0.0008
           4   -0.0188    0.0056    0.0003    0.0043   -0.0062   -0.0175    0.0048   -0.0123
           5   -0.0124    0.0298   -0.0009    0.0023    0.0024    0.0090   -0.0056   -0.0059
           6    0.0015    0.0289   -0.0010   -0.0013    0.0071   -0.0113   -0.0176    0.0097
           7    0.0001    0.0147   -0.0054   -0.0012   -0.0095    0.0182   -0.0153   -0.0206
           8    0.0183   -0.0105    0.0072   -0.0075    0.0180    0.0101   -0.0087    0.0028
           9   -0.0147   -0.0039   -0.0032    0.0027    0.0011    0.0042    0.0209    0.0091
          10    0.0044   -0.0003    0.0138   -0.0077    0.0304   -0.0151    0.0085    0.0127
          11    0.0160   -0.0311   -0.0027    0.0059   -0.0184    0.0056   -0.0063    0.0083
          12    0.0261    0.0092    0.0048   -0.0012   -0.0010   -0.0006   -0.0140   -0.0105
          13    0.0146   -0.0025   -0.0040    0.0017    0.0103   -0.0035    0.0124   -0.0033
          14   -0.0065    0.0270    0.0037    0.0016    0.0028    0.0025    0.0019    0.0124
          15   -0.0180   -0.0059   -0.0006   -0.0100    0.0050   -0.0007   -0.0038    0.0039
          16   -0.0004   -0.0016   -0.0315   -0.0175   -0.0088    0.0049    0.0152    0.0092
          17   -0.0031   -0.0164   -0.0118    0.0055   -0.0257   -0.0159    0.0030   -0.0163
          18    0.0031   -0.0065    0.0125    0.0109   -0.0057   -0.0078   -0.0087   -0.0053
          19    0.0027    0.0005   -0.0302    0.0184    0.0112   -0.0023   -0.0104    0.0073
          20   -0.0042   -0.0049   -0.0016   -0.0009   -0.0083   -0.0198   -0.0037    0.0207
          21    0.0018   -0.0087    0.0158   -0.0088   -0.0044    0.0105    0.0081   -0.0057
          22   -0.0053   -0.0040    0.0231    0.0296    0.0097   -0.0057   -0.0118   -0.0114
          23   -0.0008    0.0088   -0.0003    0.0016    0.0017    0.0006    0.0012   -0.0237
          24    0.0071    0.0122   -0.0128   -0.0159   -0.0056   -0.0033    0.0016   -0.0143
          25    0.0034   -0.0025    0.0208   -0.0278   -0.0166    0.0058    0.0136   -0.0115
          26    0.0043    0.0036    0.0057   -0.0031    0.0091    0.0021   -0.0052    0.0237
          27   -0.0051   -0.0149   -0.0176    0.0189    0.0004    0.0039    0.0050   -0.0158
          28   -0.0009   -0.0392    0.0080    0.0047   -0.0934    0.0963   -0.0709    0.0287
          29   -0.0566   -0.0355   -0.0122   -0.0291    0.0548   -0.0890    0.0495   -0.0700
          30   -0.0290   -0.0384   -0.0010   -0.0061   -0.0146    0.0047   -0.0007   -0.0129
          31   -0.0393    0.0227   -0.0013    0.0593   -0.0674    0.1612   -0.0115    0.0294
          32    0.0353   -0.0339    0.0429   -0.0335    0.1192    0.0407    0.0653   -0.0089
          33   -0.0253   -0.0119    0.0159    0.0212    0.0193    0.0912    0.0587    0.0292
          34   -0.0773    0.0320    0.0335   -0.0196   -0.0445   -0.1143    0.0110    0.0789
          35   -0.0665    0.0527    0.0059    0.0126    0.0301    0.0587    0.1038    0.0210
          36   -0.0010    0.0303    0.0128   -0.0184   -0.0234   -0.0826   -0.0667    0.0424
          37    0.0269   -0.0030    0.0117   -0.0755    0.1049   -0.0086   -0.0861   -0.0022
          38   -0.0874   -0.0864   -0.0245   -0.0526    0.0582    0.0137   -0.0429    0.0238
          39   -0.0408   -0.0180   -0.0057    0.0039    0.0004    0.0021    0.0160    0.0060
          40   -0.0225   -0.0101    0.0285    0.0663   -0.0334   -0.0536    0.1356    0.0653
          41    0.1126   -0.0061    0.0271    0.0711   -0.0959   -0.0481    0.0648    0.0205
          42   -0.0444   -0.0115   -0.0035    0.0043    0.0066    0.0066    0.0191    0.0118
          43   -0.0388    0.0647    0.0167   -0.0014   -0.0093    0.0152   -0.0145    0.0371
          44   -0.0153    0.0355    0.0064    0.0005    0.0004    0.0047   -0.0017    0.0176
          45   -0.0041    0.1440    0.0218    0.0183    0.0057    0.0145    0.0061    0.0596
          46    0.0179   -0.0136   -0.0066    0.0002    0.0126   -0.0052    0.0145   -0.0078
          47    0.0358   -0.0455   -0.0178   -0.0023    0.0264   -0.0167    0.0283   -0.0249
          48    0.0944    0.0022   -0.0200    0.0174    0.0474   -0.0274    0.0597   -0.0157
          49   -0.0774   -0.0432    0.0049   -0.0304   -0.0169    0.0105   -0.0362    0.0076
          50   -0.0556   -0.0816   -0.0084   -0.0322    0.0003   -0.0066   -0.0178   -0.0178
          51   -0.0759   -0.0655   -0.0017   -0.0369   -0.0067    0.0008   -0.0316   -0.0029
          52    0.0056   -0.0322    0.1520    0.0732    0.0236   -0.0074   -0.0518    0.0269
          53   -0.0033   -0.0170   -0.0076    0.0080   -0.0251   -0.0158    0.0024   -0.0196
          54    0.0334   -0.0421   -0.0650   -0.0464   -0.0061   -0.0022   -0.0045    0.1230
          55    0.0072   -0.0351    0.1542   -0.0800   -0.0423    0.0192    0.0256    0.0292
          56   -0.0042   -0.0049   -0.0028   -0.0003   -0.0075   -0.0193   -0.0037    0.0234
          57    0.0365   -0.0497   -0.0583    0.0257    0.0403    0.0265   -0.0140    0.1152
          58    0.0404    0.0441   -0.1281   -0.1183   -0.0520   -0.0115    0.0138    0.0103
          59   -0.0047    0.0187    0.0077   -0.0020    0.0436    0.0727    0.0340   -0.0761
          60   -0.0139   -0.0188    0.0606    0.0628    0.0015   -0.0426   -0.0309    0.0039
          61   -0.0253   -0.0308   -0.1256    0.1197    0.0545    0.0164   -0.0093    0.0018
          62    0.0083   -0.0121    0.0106   -0.0000    0.0343    0.0912    0.0213    0.0545
          63    0.0128   -0.0102    0.0627   -0.0575   -0.0232    0.0509    0.0333   -0.0061


   Root No.      25        26        27        28        29        30        31        32

                25 A      26 A      27 A      28 A      29 A      30 A      31 A      32 A   

                1080.0    1114.7    1137.9    1138.4    1143.7    1155.8    1178.2    1186.9
  
           1   -0.0102   -0.0194    0.0324    0.0004    0.0093   -0.0083   -0.0128   -0.0308
           2    0.0214   -0.0049    0.0082   -0.0044    0.0004   -0.0142    0.0213    0.0187
           3    0.0004    0.0077   -0.0061   -0.0138    0.0041    0.0412   -0.0099   -0.0018
           4    0.0195    0.0076   -0.0149   -0.0169   -0.0070    0.0270    0.0153   -0.0411
           5    0.0088    0.0103    0.0025   -0.0198    0.0008   -0.0020    0.0191   -0.0079
           6   -0.0023   -0.0155    0.0122   -0.0103    0.0040   -0.0035    0.0102   -0.0037
           7    0.0238    0.0066   -0.0094   -0.0033    0.0002   -0.0085    0.0185    0.0230
           8   -0.0080   -0.0109   -0.0004    0.0176    0.0100    0.0025   -0.0199   -0.0052
           9    0.0001   -0.0172    0.0131   -0.0109   -0.0023   -0.0033    0.0131   -0.0079
          10   -0.0215   -0.0055    0.0195    0.0042    0.0053   -0.0087   -0.0093   -0.0031
          11   -0.0128    0.0001   -0.0092    0.0039    0.0006    0.0060   -0.0130   -0.0180
          12    0.0186   -0.0037    0.0041    0.0128    0.0039   -0.0065   -0.0088    0.0006
          13    0.0047    0.0094   -0.0113    0.0024   -0.0034    0.0011    0.0025    0.0134
          14   -0.0136    0.0027   -0.0022    0.0010   -0.0003    0.0043   -0.0059   -0.0025
          15   -0.0030   -0.0002   -0.0119    0.0150   -0.0067   -0.0315    0.0081   -0.0123
          16   -0.0012   -0.0057   -0.0018   -0.0016   -0.0043    0.0022   -0.0023   -0.0021
          17   -0.0114    0.0088   -0.0102    0.0027    0.0024    0.0008   -0.0009    0.0071
          18    0.0002    0.0114    0.0019    0.0019   -0.0071   -0.0032    0.0020    0.0071
          19   -0.0018   -0.0042   -0.0030    0.0023    0.0015   -0.0066   -0.0023    0.0096
          20    0.0097   -0.0085    0.0052   -0.0055    0.0055   -0.0011    0.0010   -0.0030
          21    0.0008    0.0109   -0.0023   -0.0043    0.0063    0.0031   -0.0001   -0.0089
          22   -0.0061    0.0047   -0.0011    0.0036    0.0001   -0.0016   -0.0032    0.0032
          23   -0.0161   -0.0023   -0.0059    0.0077   -0.0027    0.0049   -0.0051    0.0002
          24   -0.0132    0.0052   -0.0024    0.0053   -0.0004    0.0008   -0.0072    0.0007
          25   -0.0054    0.0039   -0.0017    0.0022    0.0001    0.0007   -0.0034   -0.0009
          26    0.0153    0.0029    0.0069   -0.0079   -0.0030    0.0013    0.0032   -0.0085
          27   -0.0115    0.0048   -0.0025    0.0071    0.0008   -0.0040   -0.0067    0.0058
          28   -0.0873   -0.0153    0.0858   -0.0778    0.0158    0.0198    0.0444    0.2091
          29    0.1126   -0.0529    0.1559   -0.0026    0.0460    0.0658   -0.0869    0.0327
          30    0.0055   -0.0123    0.0859   -0.0492    0.0281    0.0916   -0.0335    0.1202
          31    0.0872   -0.0656   -0.0693    0.0609    0.0254    0.0560   -0.0961   -0.0485
          32   -0.0031   -0.1138   -0.1088   -0.0973    0.0028   -0.0337    0.0179    0.0715
          33    0.0356   -0.1058   -0.0692   -0.0346    0.0054    0.0118   -0.0255   -0.0067
          34    0.0373   -0.0227   -0.1004    0.0983   -0.0284    0.0085   -0.0822    0.1738
          35   -0.0077    0.1352    0.0519    0.1002    0.0954   -0.0279   -0.0163    0.0562
          36    0.0148   -0.0914   -0.0545   -0.0125   -0.0506    0.0008   -0.0199    0.0733
          37   -0.0290    0.0571   -0.0414   -0.0040   -0.0066    0.0399   -0.0042    0.0173
          38   -0.0675    0.0662   -0.0807   -0.0505   -0.0209    0.0990    0.0094   -0.0070
          39   -0.0059   -0.0023   -0.0009   -0.0117   -0.0005    0.0175   -0.0005   -0.0036
          40   -0.0663   -0.0177    0.0137   -0.0425   -0.0278   -0.0225    0.0561    0.0078
          41   -0.0025   -0.0118   -0.0129    0.0011   -0.0268   -0.0307    0.0303   -0.0138
          42   -0.0110   -0.0050    0.0034   -0.0121    0.0010    0.0084    0.0026    0.0034
          43   -0.0451   -0.0054    0.0074    0.0077    0.0006   -0.0111   -0.0130   -0.0143
          44   -0.0198    0.0005    0.0010    0.0024    0.0001    0.0009   -0.0076   -0.0049
          45   -0.0669    0.0149   -0.0140    0.0019   -0.0022    0.0241   -0.0261   -0.0069
          46    0.0097    0.0104   -0.0132    0.0044   -0.0049   -0.0048    0.0058    0.0192
          47    0.0324    0.0172   -0.0254    0.0110   -0.0111   -0.0205    0.0172    0.0356
          48    0.0299    0.0402   -0.0566    0.0105   -0.0174    0.0086    0.0085    0.0656
          49   -0.0129   -0.0214    0.0084    0.0250   -0.0059   -0.0712    0.0128   -0.0208
          50    0.0213   -0.0140   -0.0012    0.0269   -0.0094   -0.0738    0.0231   -0.0099
          51    0.0034   -0.0192   -0.0057    0.0357   -0.0122   -0.0937    0.0239   -0.0289
          52    0.0358    0.0315    0.0260    0.0425   -0.0648    0.0411    0.0434    0.0029
          53   -0.0128    0.0081   -0.0119    0.0031    0.0038    0.0002   -0.0017    0.0083
          54    0.0475    0.0279    0.0618    0.0814   -0.1372    0.0969    0.0776   -0.0195
          55    0.0387    0.0279   -0.0165    0.0059    0.0900    0.0159    0.0489   -0.0083
          56    0.0116   -0.0073    0.0060   -0.0062    0.0076   -0.0019    0.0023   -0.0031
          57    0.0537    0.0248   -0.0212    0.0319    0.1897   -0.0052    0.0907    0.0343
          58    0.0030    0.0278   -0.0111   -0.0286    0.0190   -0.0164   -0.0290   -0.0074
          59   -0.0518   -0.0913    0.0335    0.1382   -0.0869    0.0795    0.1007    0.0317
          60    0.0018    0.0468   -0.0201   -0.0533    0.0372   -0.0350   -0.0568   -0.0118
          61    0.0070    0.0250    0.0079   -0.0095   -0.0349   -0.0222   -0.0237    0.0102
          62    0.0675    0.0839    0.0523   -0.0710   -0.1627   -0.0850   -0.0873    0.0296
          63    0.0114    0.0425    0.0182   -0.0232   -0.0724   -0.0431   -0.0500    0.0231


   Root No.      33        34        35        36        37        38        39        40

                33 A      34 A      35 A      36 A      37 A      38 A      39 A      40 A   

                1220.0    1227.9    1252.0    1326.0    1359.9    1399.1    1408.8    1414.5
  
           1    0.0049    0.0203   -0.0328    0.0249   -0.0199    0.0070   -0.0009   -0.0013
           2    0.0052   -0.0171    0.0378    0.0425   -0.0090    0.0073   -0.0031    0.0111
           3   -0.0137    0.0235    0.0129    0.0244   -0.0072    0.0099    0.0010   -0.0040
           4   -0.0065   -0.0101    0.0185   -0.0055    0.0177   -0.0008   -0.0033    0.0185
           5   -0.0154   -0.0149   -0.0088   -0.0342   -0.0296   -0.0015    0.0037   -0.0162
           6    0.0115    0.0082   -0.0039    0.0076    0.0105    0.0001   -0.0092    0.0324
           7    0.0017    0.0445   -0.0263    0.0032    0.0156   -0.0012    0.0075   -0.0242
           8   -0.0162   -0.0263    0.0075    0.0214    0.0320   -0.0020    0.0058   -0.0182
           9   -0.0139    0.0059    0.0106    0.0036    0.0085   -0.0008    0.0077   -0.0282
          10   -0.0101   -0.0012    0.0453   -0.0189   -0.0048   -0.0043   -0.0099    0.0213
          11   -0.0072    0.0424    0.0138   -0.0267   -0.0028    0.0018    0.0064   -0.0144
          12    0.0086   -0.0124   -0.0069   -0.0063   -0.0006   -0.0013   -0.0018    0.0058
          13   -0.0004   -0.0072    0.0072    0.0021   -0.0047   -0.0281   -0.0203   -0.0072
          14   -0.0008    0.0033   -0.0098   -0.0007   -0.0076   -0.0252    0.0224    0.0032
          15    0.0037   -0.0059   -0.0020    0.0078   -0.0126    0.0142   -0.0026   -0.0001
          16   -0.0071   -0.0050   -0.0009    0.0029    0.0058   -0.0002   -0.0008    0.0052
          17    0.0000    0.0017   -0.0086   -0.0046   -0.0102    0.0010   -0.0045    0.0160
          18   -0.0165    0.0063   -0.0104    0.0053    0.0141   -0.0006    0.0000    0.0056
          19    0.0083   -0.0008    0.0018   -0.0004    0.0054   -0.0011    0.0041   -0.0127
          20   -0.0024    0.0110   -0.0013    0.0123    0.0101    0.0009   -0.0050    0.0182
          21    0.0162   -0.0026    0.0086   -0.0016    0.0139   -0.0019    0.0077   -0.0213
          22   -0.0028   -0.0024   -0.0026   -0.0007   -0.0042    0.0004   -0.0019    0.0057
          23    0.0172   -0.0073    0.0053   -0.0124   -0.0298    0.0016   -0.0026   -0.0000
          24   -0.0049   -0.0090   -0.0019   -0.0019   -0.0090    0.0009   -0.0039    0.0118
          25    0.0034   -0.0020    0.0016   -0.0021   -0.0048    0.0001    0.0006   -0.0032
          26    0.0151    0.0044    0.0094    0.0072    0.0296   -0.0028    0.0092   -0.0233
          27    0.0068   -0.0017    0.0008   -0.0036   -0.0093    0.0001    0.0015   -0.0073
          28    0.0345   -0.0706    0.0649   -0.0253    0.0310   -0.0126   -0.0132    0.0265
          29    0.0184   -0.0276   -0.1196   -0.0686   -0.0029   -0.0110    0.0108   -0.0146
          30    0.0061   -0.0235   -0.0139   -0.0493    0.0203   -0.0068    0.0017   -0.0034
          31    0.0297   -0.1271    0.0159    0.0004   -0.0068   -0.0008   -0.0116    0.0371
          32    0.0877    0.1085   -0.0471   -0.0190   -0.0303    0.0029   -0.0138    0.0459
          33    0.0513   -0.0147    0.0049   -0.0161   -0.0331    0.0020   -0.0114    0.0337
          34   -0.0271    0.0452    0.0067    0.0365   -0.0216    0.0111    0.0032   -0.0321
          35    0.0892    0.0787   -0.0080    0.0576    0.0276    0.0042   -0.0125    0.0476
          36   -0.0495   -0.0110   -0.0083   -0.0157   -0.0358    0.0031    0.0010   -0.0224
          37    0.0332   -0.1286   -0.0863    0.0625   -0.0395    0.0244    0.0342   -0.0665
          38    0.0113   -0.0206   -0.1160    0.0588    0.0434   -0.0091   -0.0323    0.0738
          39   -0.0043    0.0191   -0.0068   -0.0034    0.0352   -0.0186   -0.0379    0.0828
          40    0.0075   -0.1148   -0.0699    0.0617   -0.0247    0.0194    0.0419   -0.0968
          41    0.0373   -0.0743   -0.1412    0.0198    0.0536   -0.0228   -0.0327    0.0690
          42   -0.0061   -0.0107    0.0143    0.0127   -0.0370    0.0228    0.0426   -0.0922
          43    0.0057   -0.0010   -0.0389   -0.0744    0.0494    0.3216    0.0574    0.0219
          44    0.0009    0.0016   -0.0178   -0.0197    0.0075    0.0410    0.0167    0.0032
          45    0.0001    0.0013   -0.0553   -0.1076    0.0724   -0.1069   -0.1569   -0.0527
          46    0.0016   -0.0144    0.0082   -0.0142    0.0101    0.0399   -0.0217   -0.0052
          47    0.0063   -0.0373    0.0124   -0.0660    0.0582    0.3118   -0.0815   -0.0125
          48   -0.0005   -0.0398    0.0164   -0.0956    0.0709   -0.0899    0.1809    0.0455
          49    0.0144   -0.0173   -0.0216   -0.0568    0.0381   -0.0741    0.2204    0.0605
          50    0.0151   -0.0315   -0.0078   -0.0536    0.0486   -0.1000   -0.2040   -0.0561
          51    0.0163   -0.0251   -0.0147   -0.0464    0.0350   -0.0634    0.0083    0.0042
          52    0.0606    0.0225    0.0011   -0.0241   -0.0380    0.0015   -0.0019   -0.0008
          53   -0.0010    0.0017   -0.0097   -0.0044   -0.0106    0.0011   -0.0050    0.0176
          54    0.1171    0.0094    0.0232   -0.0452   -0.0793    0.0037   -0.0054    0.0035
          55   -0.0587   -0.0148   -0.0209   -0.0226   -0.0370    0.0022   -0.0074    0.0186
          56   -0.0038    0.0117   -0.0022    0.0126    0.0105    0.0009   -0.0055    0.0198
          57   -0.1075   -0.0234   -0.0538   -0.0386   -0.0762    0.0039   -0.0148    0.0347
          58    0.0271   -0.0093    0.0095   -0.0069   -0.0170    0.0008   -0.0008   -0.0022
          59   -0.1033    0.0211   -0.0473    0.0109    0.0208    0.0003   -0.0070    0.0326
          60    0.0503   -0.0232    0.0222   -0.0133   -0.0354    0.0017   -0.0028   -0.0006
          61   -0.0245   -0.0018   -0.0091   -0.0015   -0.0166    0.0018   -0.0056    0.0150
          62   -0.1037    0.0012   -0.0350    0.0136   -0.0198    0.0043   -0.0181    0.0552
          63   -0.0477   -0.0047   -0.0198   -0.0015   -0.0354    0.0035   -0.0113    0.0285


   Root No.      41        42        43        44        45        46        47        48

                41 A      42 A      43 A      44 A      45 A      46 A      47 A      48 A   

                1419.6    1432.9    1486.3    1848.3    1862.8    2939.0    2949.7    2954.2
  
           1    0.0082   -0.0273    0.0313    0.0000    0.0016   -0.0033   -0.0047    0.0181
           2    0.0120   -0.0296    0.0262   -0.0013    0.0004   -0.0041   -0.0050    0.0175
           3    0.0092   -0.0335    0.0225    0.0004   -0.0001    0.0087    0.0093   -0.0385
           4    0.0160    0.0120   -0.0364    0.0098    0.0119    0.0156    0.0072    0.0067
           5   -0.0185    0.0001    0.0432   -0.0050   -0.0063   -0.0162   -0.0068   -0.0057
           6    0.0220    0.0094   -0.0358    0.0174    0.0228   -0.0332   -0.0151   -0.0127
           7   -0.0151   -0.0108   -0.0354    0.0097   -0.0122   -0.0083    0.0168    0.0019
           8   -0.0156   -0.0126   -0.0443    0.0049   -0.0065   -0.0088    0.0161    0.0016
           9   -0.0242   -0.0239   -0.0321    0.0170   -0.0232    0.0172   -0.0333   -0.0050
          10   -0.0174   -0.0017    0.0211   -0.0003   -0.0012   -0.0006    0.0004    0.0001
          11    0.0203    0.0179   -0.0178    0.0014    0.0001    0.0001    0.0001    0.0007
          12    0.0019    0.0079    0.0009    0.0002    0.0006   -0.0018    0.0021    0.0039
          13   -0.0100    0.0232   -0.0115   -0.0003   -0.0006    0.0004    0.0004   -0.0014
          14   -0.0129    0.0233   -0.0121   -0.0000   -0.0001    0.0004    0.0004   -0.0014
          15   -0.0238    0.0425   -0.0186   -0.0002   -0.0002   -0.0003   -0.0003    0.0012
          16    0.0072    0.0123    0.0205   -0.0612    0.0611    0.0001   -0.0000   -0.0000
          17    0.0145    0.0129    0.0225    0.0573   -0.0494    0.0007   -0.0014   -0.0002
          18    0.0124    0.0235    0.0359   -0.1156    0.1150    0.0001   -0.0001    0.0000
          19   -0.0068    0.0055    0.0207   -0.0623   -0.0595   -0.0001   -0.0001    0.0004
          20    0.0142    0.0023   -0.0229   -0.0588   -0.0485    0.0013    0.0006    0.0005
          21   -0.0093    0.0114    0.0365   -0.1185   -0.1128   -0.0002   -0.0000    0.0001
          22    0.0035    0.0005   -0.0008    0.0492   -0.0515   -0.0001    0.0002    0.0000
          23   -0.0115   -0.0298   -0.0453   -0.1200    0.0698   -0.0000   -0.0001   -0.0000
          24    0.0072    0.0007   -0.0016    0.0908   -0.0962   -0.0000    0.0001    0.0000
          25   -0.0037   -0.0044   -0.0012    0.0491    0.0498    0.0002    0.0000    0.0001
          26   -0.0074    0.0194    0.0457    0.1219    0.0676    0.0001    0.0001   -0.0000
          27   -0.0078   -0.0083   -0.0010    0.0938    0.0947    0.0001    0.0001    0.0000
          28   -0.0002    0.0422   -0.0432    0.0022    0.0041    0.0485    0.0533   -0.2206
          29   -0.0125    0.0449   -0.0164   -0.0019   -0.0009    0.0490    0.0528   -0.2130
          30   -0.0065    0.0321   -0.0329    0.0026    0.0009   -0.1079   -0.1153    0.4654
          31    0.0153    0.0177    0.0230    0.0054   -0.0013    0.1056   -0.2031   -0.0290
          32    0.0402    0.0260    0.0146    0.0164   -0.0004    0.0985   -0.1971   -0.0294
          33    0.0185    0.0080    0.0255    0.0177   -0.0128   -0.2084    0.4015    0.0579
          34   -0.0161   -0.0322    0.0353    0.0062    0.0018   -0.1969   -0.0888   -0.0775
          35    0.0435    0.0116   -0.0152   -0.0165    0.0000    0.1912    0.0906    0.0737
          36   -0.0239   -0.0178    0.0264    0.0186    0.0131    0.4000    0.1816    0.1514
          37    0.1070    0.0258   -0.0116   -0.0028    0.0050    0.0033   -0.0055   -0.0123
          38   -0.0931   -0.0569    0.0384   -0.0012    0.0017   -0.0045    0.0095    0.0103
          39   -0.1060   -0.0401    0.0407    0.0010   -0.0029    0.0093   -0.0165   -0.0246
          40    0.0754    0.0060   -0.0445    0.0017   -0.0036   -0.0055    0.0038    0.0133
          41   -0.1035   -0.0245    0.0086    0.0022   -0.0014    0.0057   -0.0069   -0.0096
          42    0.1067    0.0299   -0.0447    0.0023   -0.0006    0.0119   -0.0107   -0.0236
          43    0.0027   -0.0322    0.0087    0.0005    0.0004    0.0012    0.0011   -0.0033
          44   -0.0045    0.0060   -0.0057    0.0001    0.0001   -0.0026   -0.0030    0.0107
          45    0.0779   -0.0890    0.0214    0.0004    0.0002    0.0005    0.0006   -0.0022
          46   -0.0033    0.0072   -0.0053   -0.0004   -0.0007   -0.0006   -0.0018    0.0119
          47    0.0138   -0.0320    0.0088    0.0000   -0.0002    0.0005    0.0007   -0.0036
          48    0.0527   -0.0956    0.0213   -0.0005   -0.0009    0.0005    0.0005   -0.0019
          49    0.0398   -0.0830    0.0274   -0.0005   -0.0000   -0.0016   -0.0021    0.0091
          50    0.0724   -0.0763    0.0272   -0.0003    0.0001   -0.0024   -0.0024    0.0086
          51    0.0420   -0.0582    0.0191   -0.0002    0.0002    0.0045    0.0043   -0.0143
          52   -0.0086   -0.0204   -0.0198    0.0074   -0.0184    0.0005   -0.0005   -0.0000
          53    0.0159    0.0136    0.0229    0.0788   -0.0711   -0.0053    0.0171    0.0033
          54   -0.0139   -0.0404   -0.0334    0.0193   -0.0371    0.0013   -0.0020   -0.0002
          55    0.0048   -0.0124   -0.0196    0.0091    0.0194   -0.0006   -0.0000    0.0002
          56    0.0156    0.0031   -0.0236   -0.0806   -0.0695   -0.0136   -0.0098   -0.0064
          57    0.0062   -0.0260   -0.0347    0.0197    0.0362   -0.0023   -0.0008   -0.0007
          58   -0.0081   -0.0179   -0.0255    0.0225   -0.0210   -0.0006    0.0014    0.0002
          59    0.0368    0.0436    0.0465    0.0278   -0.0912   -0.0003    0.0008    0.0001
          60   -0.0140   -0.0338   -0.0444    0.0465   -0.0443   -0.0007    0.0017    0.0002
          61    0.0056   -0.0109   -0.0248    0.0236    0.0219    0.0013    0.0007    0.0004
          62    0.0332   -0.0060   -0.0479   -0.0301   -0.0906   -0.0007   -0.0004   -0.0003
          63    0.0096   -0.0224   -0.0451    0.0473    0.0428    0.0016    0.0009    0.0006


   Root No.      49        50        51        52        53        54        55        56

                49 A      50 A      51 A      52 A      53 A      54 A      55 A      56 A   

                3038.2    3048.3    3051.7    3065.7    3074.3    3076.7    3084.0    3102.0
  
           1    0.0011   -0.0000   -0.0000    0.0000   -0.0000    0.0009    0.0002    0.0005
           2    0.0011   -0.0000   -0.0000   -0.0000    0.0000    0.0009   -0.0002   -0.0006
           3   -0.0027    0.0000   -0.0000    0.0000   -0.0000   -0.0018    0.0001   -0.0003
           4    0.0003    0.0002    0.0003    0.0002   -0.0001   -0.0001   -0.0002   -0.0009
           5   -0.0002   -0.0001   -0.0004   -0.0002    0.0005   -0.0000   -0.0002    0.0009
           6   -0.0006   -0.0001   -0.0006   -0.0006    0.0008   -0.0001   -0.0003    0.0002
           7    0.0011   -0.0003    0.0003   -0.0002   -0.0001   -0.0000   -0.0000    0.0007
           8    0.0011   -0.0001    0.0005   -0.0002   -0.0005   -0.0000    0.0000   -0.0004
           9   -0.0026    0.0001   -0.0006    0.0006    0.0008   -0.0000    0.0000    0.0001
          10   -0.0006    0.0000   -0.0000   -0.0000   -0.0001   -0.0005    0.0001    0.0297
          11    0.0008   -0.0000    0.0000   -0.0000    0.0000    0.0003    0.0003   -0.0296
          12   -0.0549    0.0001   -0.0003    0.0001    0.0001   -0.0005    0.0008   -0.0023
          13    0.0000    0.0000    0.0000   -0.0000    0.0002    0.0286    0.0394    0.0007
          14   -0.0005   -0.0000   -0.0000   -0.0000    0.0001    0.0265   -0.0410    0.0005
          15    0.0004   -0.0000    0.0000    0.0000   -0.0002   -0.0310    0.0014   -0.0005
          16    0.0004    0.0002   -0.0004    0.0015    0.0015   -0.0000   -0.0000    0.0001
          17   -0.0005   -0.0169    0.0217   -0.0225   -0.0178    0.0001    0.0001   -0.0001
          18    0.0002   -0.0004    0.0001    0.0020    0.0021   -0.0000   -0.0000    0.0000
          19    0.0000    0.0000   -0.0002   -0.0012    0.0012    0.0000   -0.0000    0.0000
          20    0.0002   -0.0172   -0.0219   -0.0223    0.0176   -0.0002    0.0000    0.0001
          21    0.0000    0.0003   -0.0000   -0.0021    0.0022    0.0000    0.0000    0.0001
          22    0.0000    0.0088   -0.0064   -0.0080   -0.0101    0.0001    0.0000   -0.0000
          23    0.0001    0.0098   -0.0079   -0.0059   -0.0091    0.0001    0.0000   -0.0000
          24    0.0000    0.0171   -0.0125   -0.0153   -0.0195    0.0001    0.0000   -0.0001
          25    0.0000   -0.0090   -0.0064    0.0083   -0.0103    0.0001    0.0000   -0.0000
          26   -0.0000    0.0098    0.0077   -0.0061    0.0091   -0.0001   -0.0000    0.0000
          27    0.0000   -0.0169   -0.0120    0.0156   -0.0194    0.0002    0.0000   -0.0001
          28   -0.0141   -0.0000   -0.0002   -0.0000   -0.0000   -0.0078    0.0013   -0.0012
          29   -0.0178   -0.0001   -0.0002   -0.0001    0.0001   -0.0075   -0.0007   -0.0024
          30    0.0295   -0.0000    0.0003    0.0001    0.0001    0.0233   -0.0008    0.0036
          31   -0.0183    0.0015   -0.0033    0.0027    0.0031   -0.0002    0.0001    0.0011
          32   -0.0136    0.0010   -0.0025    0.0020    0.0024   -0.0001    0.0001    0.0004
          33    0.0276   -0.0044    0.0082   -0.0069   -0.0072    0.0001   -0.0001   -0.0015
          34   -0.0027   -0.0014   -0.0030   -0.0024    0.0028   -0.0009   -0.0012    0.0013
          35    0.0027    0.0009    0.0023    0.0018   -0.0023    0.0001    0.0004   -0.0012
          36    0.0051    0.0043    0.0079    0.0066   -0.0070   -0.0007    0.0014   -0.0027
          37    0.1829   -0.0004    0.0011   -0.0004   -0.0001    0.0043   -0.0015   -0.1638
          38   -0.1850    0.0004   -0.0010    0.0003   -0.0000   -0.0049    0.0023    0.1659
          39    0.3524   -0.0007    0.0020   -0.0006    0.0001    0.0081   -0.0031   -0.3697
          40   -0.1762    0.0003   -0.0013    0.0003    0.0009    0.0016    0.0023   -0.1952
          41    0.1744   -0.0004    0.0013   -0.0004   -0.0010   -0.0015   -0.0020    0.1929
          42    0.3070   -0.0006    0.0022   -0.0005   -0.0018   -0.0036   -0.0041    0.3970
          43   -0.0014   -0.0000   -0.0000   -0.0000    0.0002    0.0509   -0.0594    0.0014
          44    0.0088    0.0002    0.0002    0.0004   -0.0008   -0.2010    0.4495   -0.0052
          45    0.0001   -0.0000    0.0000    0.0000   -0.0001   -0.0107   -0.0114   -0.0000
          46   -0.0001   -0.0000    0.0001    0.0000   -0.0015   -0.2202   -0.4378   -0.0072
          47   -0.0001    0.0000   -0.0000   -0.0000    0.0003    0.0535    0.0568    0.0012
          48    0.0000    0.0000    0.0000    0.0000   -0.0001   -0.0136    0.0059   -0.0003
          49    0.0020   -0.0000    0.0000    0.0001   -0.0009   -0.1719    0.0255   -0.0025
          50    0.0023   -0.0000   -0.0000    0.0001   -0.0009   -0.1679   -0.0158   -0.0030
          51   -0.0035    0.0000   -0.0000   -0.0002    0.0020    0.3956   -0.0110    0.0060
          52    0.0001   -0.0026    0.0037   -0.0047   -0.0038    0.0000    0.0000    0.0003
          53    0.0063    0.2006   -0.2572    0.2516    0.1900   -0.0013   -0.0005    0.0012
          54   -0.0000    0.0046   -0.0051    0.0030    0.0019   -0.0000   -0.0000    0.0001
          55    0.0001   -0.0003    0.0001    0.0011   -0.0011    0.0001   -0.0001    0.0000
          56   -0.0027    0.2041    0.2598    0.2485   -0.1871    0.0018   -0.0002   -0.0012
          57    0.0000   -0.0035   -0.0036   -0.0016    0.0008    0.0000   -0.0000    0.0001
          58   -0.0005   -0.1033    0.0782    0.0811    0.1045   -0.0008   -0.0002    0.0004
          59   -0.0006   -0.1161    0.0912    0.0884    0.1185   -0.0009   -0.0002    0.0005
          60   -0.0009   -0.1998    0.1515    0.1567    0.2021   -0.0015   -0.0003    0.0008
          61   -0.0003    0.1054    0.0778   -0.0847    0.1071   -0.0009   -0.0001    0.0004
          62    0.0003   -0.1155   -0.0886    0.0903   -0.1185    0.0010    0.0002   -0.0005
          63   -0.0005    0.1985    0.1466   -0.1596    0.2017   -0.0017   -0.0003    0.0008


   Root No.      57

                57 A   

                3177.6
  
           1   -0.0003
           2   -0.0003
           3   -0.0002
           4    0.0000
           5    0.0001
           6    0.0001
           7    0.0000
           8    0.0000
           9    0.0000
          10    0.0001
          11   -0.0001
          12    0.0002
          13   -0.0114
          14   -0.0116
          15   -0.0185
          16   -0.0000
          17    0.0000
          18   -0.0000
          19   -0.0000
          20    0.0000
          21   -0.0000
          22    0.0000
          23    0.0000
          24    0.0000
          25    0.0000
          26   -0.0000
          27    0.0000
          28    0.0006
          29    0.0006
          30   -0.0032
          31    0.0000
          32    0.0000
          33   -0.0001
          34    0.0001
          35   -0.0007
          36   -0.0016
          37   -0.0014
          38    0.0009
          39   -0.0031
          40   -0.0003
          41    0.0003
          42    0.0008
          43   -0.0601
          44    0.3222
          45   -0.0166
          46    0.3222
          47   -0.0604
          48   -0.0118
          49   -0.1243
          50   -0.1211
          51    0.2548
          52    0.0000
          53   -0.0000
          54    0.0000
          55   -0.0000
          56   -0.0002
          57   -0.0000
          58   -0.0000
          59   -0.0000
          60   -0.0000
          61   -0.0000
          62    0.0000
          63   -0.0000


           MASS-WEIGHTED COORDINATE ANALYSIS (NORMAL COORDINATES)


   Root No.       1         2         3         4         5         6         7         8

                 1 A       2 A       3 A       4 A       5 A       6 A       7 A       8 A   

                  86.5     158.0     173.3     233.2     314.8     416.8     426.3     513.6
  
           1    0.0612   -0.0386   -0.1765   -0.0490   -0.1954   -0.2306    0.0877    0.1697
           2    0.1569   -0.0326    0.1070   -0.0555    0.1936   -0.0156   -0.0803   -0.0648
           3    0.0569   -0.0278   -0.0732    0.0329    0.2866   -0.1158    0.3213   -0.0113
           4    0.0629   -0.0369   -0.1874   -0.0263   -0.2178   -0.1768    0.0876    0.1127
           5    0.0820   -0.0210    0.0208   -0.2451   -0.0393    0.0079    0.0334    0.2254
           6   -0.1014    0.0681    0.1977    0.1152    0.1262    0.1098    0.0686    0.1131
           7    0.1346   -0.0562   -0.0881    0.1077   -0.0176   -0.1238   -0.1917   -0.1356
           8    0.0831   -0.0195    0.0119   -0.2396   -0.0496   -0.0097    0.0424    0.2251
           9   -0.0415    0.0621    0.1494   -0.0731   -0.1427    0.1819   -0.0143   -0.1470
          10    0.1381   -0.0473   -0.0788    0.1257   -0.0354   -0.1495   -0.1713   -0.2015
          11    0.1507   -0.0322    0.1140   -0.0635    0.1955    0.0089   -0.1093   -0.0763
          12   -0.3550   -0.0497   -0.3093   -0.0700    0.1285   -0.1306   -0.2659   -0.1243
          13   -0.1544   -0.0167    0.1073   -0.2242    0.4579   -0.1519    0.1539   -0.0165
          14   -0.1939    0.0442   -0.1245    0.3711    0.0103   -0.1172    0.3213    0.0660
          15    0.3684   -0.0856   -0.1043   -0.1198    0.0483   -0.1679    0.1136    0.0378
          16   -0.1535   -0.1072   -0.1487   -0.2086    0.0250    0.3874   -0.1278    0.2264
          17   -0.0265    0.0002   -0.0227   -0.0501   -0.0553   -0.0309   -0.0443   -0.0806
          18    0.1683    0.0766    0.2015   -0.0253   -0.1845   -0.0271   -0.0295   -0.1747
[...]
 EFFECTIVE MASS      1.9484
 FORCE CONSTANT      0.4082

 VIBRATION         40   40A           ATOM PAIR      ENERGY CONTRIBUTION    RADIAL
 FREQUENCY          1414.50         C  2 -- C  7         +10.7% ( 47.1%)     99.5%
 TRANSITION DIPOLE   0.0740         C  2 -- C  3          +9.6% ( 44.8%)      0.1%
 TRAVEL (Ang.)       0.2668         C  4 -- H 14          +7.6% ( 39.9%)      2.2%
 REDUCED MASS        0.6698         C  3 -- C  4          +7.6% ( 39.7%)     65.1%
 EFFECTIVE MASS      6.5893
 FORCE CONSTANT      0.7896

 VIBRATION         41   41A           ATOM PAIR      ENERGY CONTRIBUTION    RADIAL
 FREQUENCY          1419.59         C  4 -- H 13         +11.0% ( 44.1%)      2.7%
 TRANSITION DIPOLE   0.0467         C  4 -- H 14          +9.6% ( 41.4%)      4.8%
 TRAVEL (Ang.)       0.3428         C  2 -- C  3          +6.8% ( 34.7%)      0.3%
 REDUCED MASS        0.4043         C  3 -- C  6          +6.7% ( 34.4%)     97.0%
 EFFECTIVE MASS      5.2902
 FORCE CONSTANT      0.4800

 VIBRATION         42   42A           ATOM PAIR      ENERGY CONTRIBUTION    RADIAL
 FREQUENCY          1432.87         C  1 -- C  5         +15.4% ( 59.8%)     98.6%
 TRANSITION DIPOLE   0.0983         C  5 -- H 17          +8.9% ( 45.5%)      3.8%
 TRAVEL (Ang.)       0.2054         C  5 -- H 16          +7.6% ( 41.9%)      4.3%
 REDUCED MASS        1.1158         C  5 -- H 15          +7.3% ( 41.2%)      4.2%
 EFFECTIVE MASS      8.1150
 FORCE CONSTANT      1.3498

 VIBRATION         43   43A           ATOM PAIR      ENERGY CONTRIBUTION    RADIAL
 FREQUENCY          1486.28         C  2 -- C  7          +9.6% ( 51.7%)     94.5%
 TRANSITION DIPOLE   0.0538         C  2 -- C  3          +9.2% ( 50.7%)     99.8%
 TRAVEL (Ang.)       0.1829         C  3 -- C  6          +9.1% ( 50.5%)     92.9%
 REDUCED MASS        1.3566         C  1 -- C  2          +7.0% ( 44.1%)     55.4%
 EFFECTIVE MASS     10.7718
 FORCE CONSTANT      1.7657

 VIBRATION         44   44A           ATOM PAIR      ENERGY CONTRIBUTION    RADIAL
 FREQUENCY          1848.30         C  7 -- C  9         +22.2% ( 70.3%)     99.1%
 TRANSITION DIPOLE   0.2589         C  6 -- C  8         +21.3% ( 68.8%)     99.1%
 TRAVEL (Ang.)       0.1128         C  8 -- C  9         +16.6% ( 60.8%)    100.0%
 REDUCED MASS        2.8669         C  9 -- H 21          +7.3% ( 40.3%)      1.7%
 EFFECTIVE MASS     11.9545
 FORCE CONSTANT      5.7703

 VIBRATION         45   45A           ATOM PAIR      ENERGY CONTRIBUTION    RADIAL
 FREQUENCY          1862.82         C  6 -- C  8         +22.6% ( 69.7%)     99.2%
 TRANSITION DIPOLE   0.3442         C  7 -- C  9         +21.6% ( 68.2%)     99.1%
 TRAVEL (Ang.)       0.1162         C  8 -- C  9         +12.1% ( 51.0%)      0.0%
 REDUCED MASS        2.6826         C  3 -- C  6          +8.1% ( 41.7%)     56.2%
 EFFECTIVE MASS     11.7849
 FORCE CONSTANT      5.4847

 VIBRATION         46   46A           ATOM PAIR      ENERGY CONTRIBUTION    RADIAL
 FREQUENCY          2939.04         C  2 -- H 12         +71.0% ( 86.3%)    100.0%
 TRANSITION DIPOLE   0.0877         C  3 -- H 11         +19.5% ( 45.2%)    100.0%
 TRAVEL (Ang.)       0.2034         C  1 -- H 10          +5.0% ( 22.8%)    100.0%
 REDUCED MASS        0.5546         C  2 -- C  3          +1.0% ( 10.5%)      1.8%
 EFFECTIVE MASS      1.4528
 FORCE CONSTANT      2.8227

 VIBRATION         47   47A           ATOM PAIR      ENERGY CONTRIBUTION    RADIAL
 FREQUENCY          2949.67         C  3 -- H 11         +74.5% ( 88.1%)    100.0%
 TRANSITION DIPOLE   0.1024         C  2 -- H 12         +15.1% ( 39.6%)    100.0%
 TRAVEL (Ang.)       0.1970         C  1 -- H 10          +5.9% ( 24.7%)    100.0%
 REDUCED MASS        0.5892         C  2 -- C  3          +1.0% ( 10.0%)     55.2%
 EFFECTIVE MASS      1.4470
 FORCE CONSTANT      3.0202

 VIBRATION         48   48A           ATOM PAIR      ENERGY CONTRIBUTION    RADIAL
 FREQUENCY          2954.24         C  1 -- H 10         +84.5% ( 93.9%)    100.0%
 TRANSITION DIPOLE   0.1336         C  2 -- H 12          +9.3% ( 31.1%)     99.9%
 TRAVEL (Ang.)       0.1767         C  3 -- H 11          +1.4% ( 11.9%)    100.0%
 REDUCED MASS        0.7312         C  1 -- C  2          +0.9% (  9.9%)      9.8%
 EFFECTIVE MASS      1.4423
 FORCE CONSTANT      3.7600

 VIBRATION         49   49A           ATOM PAIR      ENERGY CONTRIBUTION    RADIAL
 FREQUENCY          3038.19         C  4 -- H 13         +52.5% ( 75.5%)     97.4%
 TRANSITION DIPOLE   0.0836         C  4 -- H 14         +43.4% ( 68.6%)     96.3%
 TRAVEL (Ang.)       0.2075         C  2 -- C  4          +1.1% ( 11.1%)      0.1%
 REDUCED MASS        0.5154         C  3 -- C  4          +1.1% ( 11.0%)      0.2%
 EFFECTIVE MASS      1.5434
 FORCE CONSTANT      2.8032

 VIBRATION         50   50A           ATOM PAIR      ENERGY CONTRIBUTION    RADIAL
 FREQUENCY          3048.25         C  8 -- H 20         +29.8% ( 55.5%)    100.0%
 TRANSITION DIPOLE   0.1939         C  9 -- H 21         +29.7% ( 55.4%)    100.0%
 TRAVEL (Ang.)       0.3013         C  7 -- H 19         +19.3% ( 44.7%)    100.0%
 REDUCED MASS        0.2436         C  6 -- H 18         +18.7% ( 43.9%)    100.0%
 EFFECTIVE MASS      1.4730
 FORCE CONSTANT      1.3338

 VIBRATION         51   51A           ATOM PAIR      ENERGY CONTRIBUTION    RADIAL
 FREQUENCY          3051.70         C  7 -- H 19         +31.9% ( 57.3%)    100.0%
 TRANSITION DIPOLE   0.2952         C  6 -- H 18         +31.3% ( 56.7%)    100.0%
 TRAVEL (Ang.)       0.2958         C  8 -- H 20         +17.6% ( 42.6%)    100.0%
 REDUCED MASS        0.2525         C  9 -- H 21         +16.7% ( 41.4%)    100.0%
 EFFECTIVE MASS      1.4561
 FORCE CONSTANT      1.3855

 VIBRATION         52   52A           ATOM PAIR      ENERGY CONTRIBUTION    RADIAL
 FREQUENCY          3065.67         C  6 -- H 18         +29.7% ( 55.4%)     99.9%
 TRANSITION DIPOLE   0.4098         C  7 -- H 19         +29.0% ( 54.7%)     99.9%
 TRAVEL (Ang.)       0.3003         C  9 -- H 21         +19.3% ( 44.6%)     99.8%
 REDUCED MASS        0.2439         C  8 -- H 20         +18.4% ( 43.6%)     99.8%
 EFFECTIVE MASS      1.5731
 FORCE CONSTANT      1.3507

 VIBRATION         53   53A           ATOM PAIR      ENERGY CONTRIBUTION    RADIAL
 FREQUENCY          3074.30         C  9 -- H 21         +31.3% ( 56.7%)    100.0%
 TRANSITION DIPOLE   0.3085         C  8 -- H 20         +31.2% ( 56.6%)    100.0%
 TRAVEL (Ang.)       0.2941         C  6 -- H 18         +17.1% ( 42.0%)     99.9%
 REDUCED MASS        0.2536         C  7 -- H 19         +16.6% ( 41.3%)     99.9%
 EFFECTIVE MASS      1.6066
 FORCE CONSTANT      1.4122

 VIBRATION         54   54A           ATOM PAIR      ENERGY CONTRIBUTION    RADIAL
 FREQUENCY          3076.71         C  5 -- H 17         +67.4% ( 84.7%)     99.0%
 TRANSITION DIPOLE   0.0109         C  5 -- H 16         +17.0% ( 42.5%)     84.9%
 TRAVEL (Ang.)       0.2029         C  5 -- H 15         +14.4% ( 39.1%)     81.8%
 REDUCED MASS        0.5324         C  1 -- C  5          +1.0% ( 10.3%)      0.0%
 EFFECTIVE MASS      1.5041
 FORCE CONSTANT      2.9693

 VIBRATION         55   55A           ATOM PAIR      ENERGY CONTRIBUTION    RADIAL
 FREQUENCY          3084.00         C  5 -- H 15         +50.3% ( 73.2%)     97.2%
 TRANSITION DIPOLE   0.0193         C  5 -- H 16         +47.7% ( 71.2%)     96.8%
 TRAVEL (Ang.)       0.2071         C  1 -- C  5          +1.0% ( 10.4%)      0.0%
 REDUCED MASS        0.5099         C  5 -- H 17          +1.0% ( 10.3%)      1.1%
 EFFECTIVE MASS      1.5077
 FORCE CONSTANT      2.8574

 VIBRATION         56   56A           ATOM PAIR      ENERGY CONTRIBUTION    RADIAL
 FREQUENCY          3101.96         C  4 -- H 14         +54.0% ( 72.9%)     97.7%
 TRANSITION DIPOLE   0.0903         C  4 -- H 13         +43.9% ( 65.7%)     96.4%
 TRAVEL (Ang.)       0.2110         C  2 -- C  4          +0.7% (  8.2%)     99.6%
 REDUCED MASS        0.4882         C  1 -- C  4          +0.7% (  8.2%)     49.1%
 EFFECTIVE MASS      1.2822
 FORCE CONSTANT      2.7679

 VIBRATION         57   57A           ATOM PAIR      ENERGY CONTRIBUTION    RADIAL
 FREQUENCY          3177.55         C  5 -- H 15         +34.7% ( 56.7%)     97.3%
 TRANSITION DIPOLE   0.0351         C  5 -- H 16         +34.7% ( 56.7%)     97.3%
 TRAVEL (Ang.)       0.2543         C  5 -- H 17         +30.3% ( 53.0%)     96.6%
 REDUCED MASS        0.3281         C  1 -- C  5          +0.3% (  5.2%)     99.6%
 EFFECTIVE MASS      1.1368
 FORCE CONSTANT      1.9516

      SYMMETRY NUMBER FOR POINT-GROUP C1  =  1


          SYSTEM IS A GROUND STATE



 InChI=1S/C9H12/c1-7-6-8-4-2-3-5-9(7)8/h2-5,7-9H,6H2,1H3


          MOLECULE IS NOT LINEAR

          THERE ARE 57 GENUINE VIBRATIONS IN THIS SYSTEM
          THIS THERMODYNAMICS CALCULATION IS LIMITED TO
          MOLECULES WHICH HAVE NO INTERNAL ROTATIONS




                    CALCULATED THERMODYNAMIC PROPERTIES
                                          *
   TEMP. (K)   PARTITION FUNCTION   H.O.F.    ENTHALPY  HEAT CAPACITY ENTROPY
                                   KCAL/MOL   CAL/MOLE    CAL/K/MOL  CAL/K/MOL


 298.00  VIB.     0.3807D+02                  3168.4594    25.4651    17.8649
         ROT.     0.3865D+06                   888.2803     2.9808    28.5459
         INT.     0.1471D+08                  4056.7397    28.4459    46.4108
         TRA.     0.1274D+28                  1480.4672     4.9680    40.2640
         TOT.                       24.946    5537.2069    33.4139    86.6748

 200.00  VIB.     0.7359D+01                  1238.5291    14.3428    10.1590
         ROT.     0.2125D+06                   596.1613     2.9808    27.3572
         INT.     0.1564D+07                  1834.6903    17.3236    37.5162
         TRA.     0.7004D+27                   993.6021     4.9680    38.2829
         TOT.                       22.237    2828.2925    22.2917    75.7991

 210.00  VIB.     0.8611D+01                  1386.9269    15.3432    10.8828
         ROT.     0.2286D+06                   625.9693     2.9808    27.5026
         INT.     0.1969D+07                  2012.8963    18.3240    38.3855
         TRA.     0.7536D+27                  1043.2822     4.9680    38.5253
         TOT.                       22.465    3056.1785    23.2920    76.9108

 220.00  VIB.     0.1010D+02                  1545.5187    16.3814    11.6204
         ROT.     0.2452D+06                   655.7774     2.9808    27.6413
         INT.     0.2476D+07                  2201.2961    19.3622    39.2617
         TRA.     0.8081D+27                  1092.9623     4.9680    38.7564
         TOT.                       22.703    3294.2584    24.3302    78.0181

 230.00  VIB.     0.1187D+02                  1714.6748    17.4557    12.3722
         ROT.     0.2621D+06                   685.5855     2.9808    27.7738
         INT.     0.3112D+07                  2400.2603    20.4365    40.1460
         TRA.     0.8638D+27                  1142.6424     4.9680    38.9773
         TOT.                       22.952    3542.9027    25.4045    79.1232

 240.00  VIB.     0.1399D+02                  1894.7435    18.5634    13.1384
         ROT.     0.2793D+06                   715.3935     2.9808    27.9007
         INT.     0.3909D+07                  2610.1370    21.5442    41.0390
         TRA.     0.9207D+27                  1192.3226     4.9680    39.1887
         TOT.                       23.212    3802.4596    26.5122    80.2277

 250.00  VIB.     0.1653D+02                  2086.0438    19.7014    13.9191
         ROT.     0.2970D+06                   745.2016     2.9808    28.0223
         INT.     0.4910D+07                  2831.2454    22.6822    41.9415
         TRA.     0.9789D+27                  1242.0027     4.9680    39.3915
         TOT.                       23.482    4073.2481    27.6502    81.3330

 260.00  VIB.     0.1958D+02                  2288.8604    20.8660    14.7145
         ROT.     0.3150D+06                   775.0097     2.9808    28.1393
         INT.     0.6168D+07                  3063.8701    23.8468    42.8537
         TRA.     0.1038D+28                  1291.6828     4.9680    39.5863
         TOT.                       23.765    4355.5529    28.8149    82.4401

 270.00  VIB.     0.2325D+02                  2503.4405    22.0534    15.5241
         ROT.     0.3333D+06                   804.8177     2.9808    28.2518
         INT.     0.7749D+07                  3308.2582    25.0342    43.7759
         TRA.     0.1099D+28                  1341.3629     4.9680    39.7738
         TOT.                       24.059    4649.6211    30.0023    83.5497

 280.00  VIB.     0.2767D+02                  2729.9916    23.2596    16.3479
         ROT.     0.3520D+06                   834.6258     2.9808    28.3602
         INT.     0.9739D+07                  3564.6174    26.2404    44.7081
         TRA.     0.1160D+28                  1391.0430     4.9680    39.9545
         TOT.                       24.365    4955.6604    31.2084    84.6626

 290.00  VIB.     0.3300D+02                  2968.6811    24.4804    17.1854
         ROT.     0.3710D+06                   864.4339     2.9808    28.4648
         INT.     0.1225D+08                  3833.1150    27.4613    45.6501
         TRA.     0.1223D+28                  1440.7231     4.9680    40.1289
         TOT.                       24.683    5273.8381    32.4293    85.7790

 300.00  VIB.     0.3947D+02                  3219.6366    25.7121    18.0360
         ROT.     0.3904D+06                   894.2419     2.9808    28.5658
         INT.     0.1541D+08                  4113.8785    28.6929    46.6019
         TRA.     0.1287D+28                  1490.4032     4.9680    40.2973
         TOT.                       25.013    5604.2817    33.6609    86.8991

 310.00  VIB.     0.4731D+02                  3482.9470    26.9508    18.8993
         ROT.     0.4101D+06                   924.0500     2.9808    28.6636
         INT.     0.1940D+08                  4406.9969    29.9316    47.5629
         TRA.     0.1352D+28                  1540.0833     4.9680    40.4602
         TOT.                       25.356    5947.0802    34.8996    88.0231

 320.00  VIB.     0.5684D+02                  3758.6644    28.1930    19.7746
         ROT.     0.4301D+06                   953.8580     2.9808    28.7582
         INT.     0.2444D+08                  4712.5225    31.1738    48.5328
         TRA.     0.1418D+28                  1589.7634     4.9680    40.6179
         TOT.                       25.711    6302.2859    36.1418    89.1507

 330.00  VIB.     0.6845D+02                  4046.8069    29.4353    20.6612
         ROT.     0.4504D+06                   983.6661     2.9808    28.8499
         INT.     0.3083D+08                  5030.4730    32.4161    49.5111
         TRA.     0.1485D+28                  1639.4435     4.9680    40.7708
         TOT.                       26.079    6669.9165    37.3841    90.2819

 340.00  VIB.     0.8262D+02                  4347.3603    30.6747    21.5583
         ROT.     0.4710D+06                  1013.4742     2.9808    28.9389
         INT.     0.3891D+08                  5360.8344    33.6555    50.4972
         TRA.     0.1553D+28                  1689.1236     4.9680    40.9191
         TOT.                       26.459    7049.9581    38.6235    91.4163

 350.00  VIB.     0.9994D+02                  4660.2817    31.9084    22.4653
         ROT.     0.4919D+06                  1043.2822     2.9808    29.0253
         INT.     0.4916D+08                  5703.5639    34.8892    51.4906
         TRA.     0.1622D+28                  1738.8037     4.9680    41.0631
         TOT.                       26.852    7442.3676    39.8573    92.5537

 360.00  VIB.     0.1212D+03                  4985.5021    33.1341    23.3814
         ROT.     0.5132D+06                  1073.0903     2.9808    29.1093
         INT.     0.6217D+08                  6058.5924    36.1149    52.4907
         TRA.     0.1692D+28                  1788.4838     4.9680    41.2031
         TOT.                       27.256    7847.0762    41.0829    93.6937

 370.00  VIB.     0.1472D+03                  5322.9292    34.3495    24.3058
         ROT.     0.5347D+06                  1102.8984     2.9808    29.1909
         INT.     0.7870D+08                  6425.8276    37.3303    53.4968
         TRA.     0.1762D+28                  1838.1639     4.9680    41.3392
         TOT.                       27.673    8263.9915    42.2983    94.8360

 380.00  VIB.     0.1792D+03                  5672.4506    35.5526    25.2379
         ROT.     0.5565D+06                  1132.7064     2.9808    29.2704
         INT.     0.9972D+08                  6805.1570    38.5334    54.5083
         TRA.     0.1834D+28                  1887.8440     4.9680    41.4717
         TOT.                       28.102    8693.0010    43.5015    95.9800

 390.00  VIB.     0.2186D+03                  6033.9358    36.7420    26.1768
         ROT.     0.5786D+06                  1162.5145     2.9808    29.3479
         INT.     0.1265D+09                  7196.4503    39.7228    55.5246
         TRA.     0.1907D+28                  1937.5242     4.9680    41.6007
         TOT.                       28.543    9133.9745    44.6908    97.1254

 400.00  VIB.     0.2671D+03                  6407.2396    37.9161    27.1218
         ROT.     0.6010D+06                  1192.3226     2.9808    29.4233
         INT.     0.1605D+09                  7599.5622    40.8969    56.5452
         TRA.     0.1981D+28                  1987.2043     4.9680    41.7265
         TOT.                       28.996    9586.7665    45.8650    98.2717

   *: NOTE: HEATS OF FORMATION ARE RELATIVE TO THE
            ELEMENTS IN THEIR STANDARD STATE AT 298K
              (=  Standard Enthalpy of Formation).

            Hvib:  Zero-point energy is not included.
                   frequencies of less than zero cm-1 are not included.
            Hrot = (3/2)RT
            Htra = (3/2)RT + pV = (5/2)RT

            Heat capacity is Cp, not Cv

          For more information, see: HTTP://OpenMOPAC.net/Manual/thermochemistry.html


           FORCE CONSTANT IN CARTESIAN COORDINATES (Millidynes/A)

    ATOM   CHEMICAL       X               Y               Z
   NUMBER   SYMBOL  FORCE CONSTANT  FORCE CONSTANT  FORCE CONSTANT

      1       C        7.761460        8.031679        8.858321
      2       C        7.697890        8.096856        9.331751
      3       C        7.951662        8.095029        9.269946
      4       C        7.846979        7.839961        8.652392
      5       C        8.391203        8.401616        8.351287
      6       C        4.905035       11.331747       11.008730
      7       C        4.899970       11.346392       11.002852
      8       C        4.724422       11.539022       11.301557
      9       C        4.723627       11.546017       11.292840
     10       H        1.350460        1.309372        3.596391
     11       H        1.375908        1.353066        3.446000
     12       H        1.360527        1.344135        3.472030
     13       H        1.413541        1.441445        3.758304
     14       H        1.511432        1.493118        3.620239
     15       H        0.789568        5.256582        0.703102
     16       H        5.256432        0.790594        0.700242
     17       H        1.372677        1.333675        4.054959
     18       H        0.418446        5.139776        0.674944
     19       H        0.418152        5.140938        0.673070
     20       H        1.163342        1.690524        3.397665
     21       H        1.196639        1.684584        3.370693

 **********************
 *                    *
 * JOB ENDED NORMALLY *
 *                    *
 **********************



 TOTAL JOB TIME:             2.24 SECONDS

 == MOPAC DONE ==
