 *******************************************************************************
 **                                                                           **
 **                              MOPAC v23.1.2                                **
 **                                                                           **
 *******************************************************************************
 **          Digital Object Identifier (DOI): 10.5281/zenodo.6511958          **
 **    Visit the DOI location for information on how to cite this program.    **
 *******************************************************************************

                              PM3 CALCULATION RESULTS

 *******************************************************************************
 *  CALCULATION DONE: (MAX THREADS = 1)              Tue Jun  3 16:35:03 2025  *
 *  PM3        - The PM3 Hamiltonian to be used
 *  PRECISE    - TIGHTER CRITERIA TO BE USED
 *  NOSYM      - POINT-GROUP SYMMETRY SET TO C1
 *  THREADS=1  - MULTI-THREADING NOT USED
 *  T=         - A TIME OF 172800.0 SECONDS REQUESTED
 *  DUMP=N     - RESTART FILE WRITTEN EVERY 7200.0 SECONDS REQUESTED
 *******************************************************************************
pm3  precise nosym THREADS=1
 InChI=1S/C12H20/c1-4-10-8-7-9-11(5-2)12(10)6-3/h4,7,9-12H,1,5-6,8H2,2-3H3

   ATOM   CHEMICAL          X               Y               Z
  NUMBER   SYMBOL      (ANGSTROMS)     (ANGSTROMS)     (ANGSTROMS)

     1       C         -0.30220000  *   0.35950000  *   0.31970000  *
     2       C          1.17400000  *  -0.00840000  *  -0.02840000  *
     3       C         -1.26160000  *  -0.70180000  *  -0.29190000  *
     4       C         -0.64950000  *   1.80470000  *  -0.14320000  *
     5       C          1.70130000  *  -1.15250000  *   0.87160000  *
     6       C         -1.11990000  *  -0.74430000  *  -1.82430000  *
     7       C          3.22100000  *  -1.30960000  *   0.79260000  *
     8       C         -0.12160000  *   2.87280000  *   0.81680000  *
     9       C          1.33710000  *  -0.37240000  *  -1.49320000  *
    10       C          0.31980000  *  -0.78490000  *  -2.26840000  *
    11       C         -2.70410000  *  -0.48010000  *   0.11090000  *
    12       C         -3.11520000  *  -0.65970000  *   1.36990000  *
    13       H         -0.42650000  *   0.32570000  *   1.42510000  *
    14       H          1.81470000  *   0.87740000  *   0.16390000  *
    15       H         -0.97640000  *  -1.70630000  *   0.09090000  *
    16       H          1.23020000  *  -2.11910000  *   0.59230000  *
    17       H          1.44240000  *  -0.94260000  *   1.93210000  *
    18       H         -1.75010000  *   1.93890000  *  -0.20200000  *
    19       H         -0.24250000  *   1.99760000  *  -1.15940000  *
    20       H         -1.64000000  *  -1.64450000  *  -2.21730000  *
    21       H         -1.59720000  *   0.14940000  *  -2.28170000  *
    22       H          3.54950000  *  -2.09010000  *   1.51080000  *
    23       H          3.53180000  *  -1.62320000  *  -0.22560000  *
    24       H          3.72470000  *  -0.35510000  *   1.05530000  *
    25       H          0.98610000  *   2.86320000  *   0.86110000  *
    26       H         -0.53080000  *   2.71180000  *   1.83670000  *
    27       H         -0.44360000  *   3.87560000  *   0.46510000  *
    28       H          0.52710000  *  -1.04960000  *  -3.30080000  *
    29       H          2.33740000  *  -0.37090000  *  -1.91560000  *
    30       H         -3.43680000  *  -0.19110000  *  -0.63790000  *
    31       H         -4.15730000  *  -0.50320000  *   1.62820000  *
    32       H         -2.42190000  *  -0.96740000  *   2.14670000  *



          CARTESIAN COORDINATES 

    NO.       ATOM           X           Y           Z

     1         C         -0.3022      0.3595      0.3197
     2         C          1.1740     -0.0084     -0.0284
     3         C         -1.2616     -0.7018     -0.2919
     4         C         -0.6495      1.8047     -0.1432
     5         C          1.7013     -1.1525      0.8716
     6         C         -1.1199     -0.7443     -1.8243
     7         C          3.2210     -1.3096      0.7926
     8         C         -0.1216      2.8728      0.8168
     9         C          1.3371     -0.3724     -1.4932
    10         C          0.3198     -0.7849     -2.2684
    11         C         -2.7041     -0.4801      0.1109
    12         C         -3.1152     -0.6597      1.3699
    13         H         -0.4265      0.3257      1.4251
    14         H          1.8147      0.8774      0.1639
    15         H         -0.9764     -1.7063      0.0909
    16         H          1.2302     -2.1191      0.5923
    17         H          1.4424     -0.9426      1.9321
    18         H         -1.7501      1.9389     -0.2020
    19         H         -0.2425      1.9976     -1.1594
    20         H         -1.6400     -1.6445     -2.2173
    21         H         -1.5972      0.1494     -2.2817
    22         H          3.5495     -2.0901      1.5108
    23         H          3.5318     -1.6232     -0.2256
    24         H          3.7247     -0.3551      1.0553
    25         H          0.9861      2.8632      0.8611
    26         H         -0.5308      2.7118      1.8367
    27         H         -0.4436      3.8756      0.4651
    28         H          0.5271     -1.0496     -3.3008
    29         H          2.3374     -0.3709     -1.9156
    30         H         -3.4368     -0.1911     -0.6379
    31         H         -4.1573     -0.5032      1.6282
    32         H         -2.4219     -0.9674      2.1467

  H: (PM3): J. J. P. STEWART, J. COMP. CHEM. 10, 209 (1989).
  C: (PM3): J. J. P. STEWART, J. COMP. CHEM. 10, 209 (1989).

           Empirical Formula: C12 H20  =    32 atoms



      MOLECULAR POINT GROUP   :   C1  


      RHF CALCULATION, NO. OF DOUBLY OCCUPIED LEVELS = 34


          Geometry optimization using EF

          DIAGONAL MATRIX USED AS START HESSIAN

 CYCLE:     1 TIME:   0.016 TIME LEFT:  2.00D  GRAD.:    75.635 HEAT:  1.626624
 CYCLE:     2 TIME:   0.023 TIME LEFT:  2.00D  GRAD.:    64.325 HEAT: 0.1009392
 CYCLE:     3 TIME:   0.012 TIME LEFT:  2.00D  GRAD.:    71.094 HEAT:-0.3236106
 CYCLE:     4 TIME:   0.008 TIME LEFT:  2.00D  GRAD.:    53.065 HEAT:-0.9982137
 CYCLE:     5 TIME:   0.020 TIME LEFT:  2.00D  GRAD.:    35.279 HEAT: -1.451036
 CYCLE:     6 TIME:   0.012 TIME LEFT:  2.00D  GRAD.:    41.177 HEAT: -1.482335
 CYCLE:     7 TIME:   0.008 TIME LEFT:  2.00D  GRAD.:    31.649 HEAT: -1.853313
 CYCLE:     8 TIME:   0.020 TIME LEFT:  2.00D  GRAD.:    20.838 HEAT: -2.042609
 CYCLE:     9 TIME:   0.012 TIME LEFT:  2.00D  GRAD.:    28.770 HEAT: -2.067932
 CYCLE:    10 TIME:   0.012 TIME LEFT:  2.00D  GRAD.:    18.440 HEAT: -2.251818
 CYCLE:    11 TIME:   0.016 TIME LEFT:  2.00D  GRAD.:    18.718 HEAT: -2.296732
 CYCLE:    12 TIME:   0.012 TIME LEFT:  2.00D  GRAD.:    17.929 HEAT: -2.348671
 CYCLE:    13 TIME:   0.012 TIME LEFT:  2.00D  GRAD.:    16.192 HEAT: -2.395754
 CYCLE:    14 TIME:   0.008 TIME LEFT:  2.00D  GRAD.:    16.502 HEAT: -2.426918
 CYCLE:    15 TIME:   0.012 TIME LEFT:  2.00D  GRAD.:    17.305 HEAT: -2.444573
 CYCLE:    16 TIME:   0.012 TIME LEFT:  2.00D  GRAD.:    15.883 HEAT: -2.480847
 CYCLE:    17 TIME:   0.020 TIME LEFT:  2.00D  GRAD.:     6.784 HEAT: -2.539844
 CYCLE:    18 TIME:   0.008 TIME LEFT:  2.00D  GRAD.:     8.171 HEAT: -2.555229
 CYCLE:    19 TIME:   0.012 TIME LEFT:  2.00D  GRAD.:    11.105 HEAT: -2.567880
 CYCLE:    20 TIME:   0.016 TIME LEFT:  2.00D  GRAD.:     8.298 HEAT: -2.590421
 CYCLE:    21 TIME:   0.020 TIME LEFT:  2.00D  GRAD.:     5.351 HEAT: -2.603075
 CYCLE:    22 TIME:   0.008 TIME LEFT:  2.00D  GRAD.:     3.175 HEAT: -2.615636
 CYCLE:    23 TIME:   0.012 TIME LEFT:  2.00D  GRAD.:     3.781 HEAT: -2.625293
 CYCLE:    24 TIME:   0.012 TIME LEFT:  2.00D  GRAD.:     3.525 HEAT: -2.638164
 CYCLE:    25 TIME:   0.008 TIME LEFT:  2.00D  GRAD.:     5.003 HEAT: -2.649597
 CYCLE:    26 TIME:   0.020 TIME LEFT:  2.00D  GRAD.:     5.251 HEAT: -2.654548
 CYCLE:    27 TIME:   0.012 TIME LEFT:  2.00D  GRAD.:     4.873 HEAT: -2.660043
 CYCLE:    28 TIME:   0.008 TIME LEFT:  2.00D  GRAD.:     4.225 HEAT: -2.666914
 CYCLE:    29 TIME:   0.012 TIME LEFT:  2.00D  GRAD.:     4.003 HEAT: -2.670526
 CYCLE:    30 TIME:   0.012 TIME LEFT:  2.00D  GRAD.:     3.372 HEAT: -2.675264
 CYCLE:    31 TIME:   0.008 TIME LEFT:  2.00D  GRAD.:     2.973 HEAT: -2.679603
 CYCLE:    32 TIME:   0.012 TIME LEFT:  2.00D  GRAD.:     2.545 HEAT: -2.683266
 CYCLE:    33 TIME:   0.012 TIME LEFT:  2.00D  GRAD.:     1.981 HEAT: -2.686471
 CYCLE:    34 TIME:   0.012 TIME LEFT:  2.00D  GRAD.:     2.414 HEAT: -2.689360
 CYCLE:    35 TIME:   0.012 TIME LEFT:  2.00D  GRAD.:     1.884 HEAT: -2.693775
 CYCLE:    36 TIME:   0.008 TIME LEFT:  2.00D  GRAD.:     2.467 HEAT: -2.700134
 CYCLE:    37 TIME:   0.012 TIME LEFT:  2.00D  GRAD.:     3.058 HEAT: -2.706287
 CYCLE:    38 TIME:   0.012 TIME LEFT:  2.00D  GRAD.:     2.683 HEAT: -2.713373
 CYCLE:    39 TIME:   0.008 TIME LEFT:  2.00D  GRAD.:     2.322 HEAT: -2.720754
 CYCLE:    40 TIME:   0.012 TIME LEFT:  2.00D  GRAD.:     2.604 HEAT: -2.726252
 CYCLE:    41 TIME:   0.012 TIME LEFT:  2.00D  GRAD.:     2.254 HEAT: -2.731910
 CYCLE:    42 TIME:   0.012 TIME LEFT:  2.00D  GRAD.:     2.448 HEAT: -2.737291
 CYCLE:    43 TIME:   0.008 TIME LEFT:  2.00D  GRAD.:     2.803 HEAT: -2.742758
 CYCLE:    44 TIME:   0.012 TIME LEFT:  2.00D  GRAD.:     1.978 HEAT: -2.749211
 CYCLE:    45 TIME:   0.012 TIME LEFT:  2.00D  GRAD.:     1.737 HEAT: -2.755835
 CYCLE:    46 TIME:   0.012 TIME LEFT:  2.00D  GRAD.:     2.188 HEAT: -2.762616
 CYCLE:    47 TIME:   0.012 TIME LEFT:  2.00D  GRAD.:     3.454 HEAT: -2.774210
 CYCLE:    48 TIME:   0.012 TIME LEFT:  2.00D  GRAD.:     4.259 HEAT: -2.788153
 CYCLE:    49 TIME:   0.012 TIME LEFT:  2.00D  GRAD.:     4.117 HEAT: -2.810293
 CYCLE:    50 TIME:   0.008 TIME LEFT:  2.00D  GRAD.:     4.705 HEAT: -2.849702
 CYCLE:    51 TIME:   0.012 TIME LEFT:  2.00D  GRAD.:     5.884 HEAT: -2.897631
 CYCLE:    52 TIME:   0.012 TIME LEFT:  2.00D  GRAD.:     8.963 HEAT: -2.933683
 CYCLE:    53 TIME:   0.020 TIME LEFT:  2.00D  GRAD.:     5.996 HEAT: -2.980836
 CYCLE:    54 TIME:   0.012 TIME LEFT:  2.00D  GRAD.:     6.969 HEAT: -2.998022
 CYCLE:    55 TIME:   0.012 TIME LEFT:  2.00D  GRAD.:     3.573 HEAT: -3.042878
 CYCLE:    56 TIME:   0.012 TIME LEFT:  2.00D  GRAD.:     3.233 HEAT: -3.068294
 CYCLE:    57 TIME:   0.012 TIME LEFT:  2.00D  GRAD.:     3.233 HEAT: -3.094445
 CYCLE:    58 TIME:   0.008 TIME LEFT:  2.00D  GRAD.:     3.886 HEAT: -3.124614
 CYCLE:    59 TIME:   0.012 TIME LEFT:  2.00D  GRAD.:     3.564 HEAT: -3.143822
 CYCLE:    60 TIME:   0.012 TIME LEFT:  2.00D  GRAD.:     3.144 HEAT: -3.167698
 CYCLE:    61 TIME:   0.012 TIME LEFT:  2.00D  GRAD.:     2.875 HEAT: -3.194050
 CYCLE:    62 TIME:   0.012 TIME LEFT:  2.00D  GRAD.:     2.676 HEAT: -3.207743
 CYCLE:    63 TIME:   0.012 TIME LEFT:  2.00D  GRAD.:     2.734 HEAT: -3.226171
 CYCLE:    64 TIME:   0.008 TIME LEFT:  2.00D  GRAD.:     2.777 HEAT: -3.243831
 CYCLE:    65 TIME:   0.012 TIME LEFT:  2.00D  GRAD.:     2.850 HEAT: -3.261641
 CYCLE:    66 TIME:   0.012 TIME LEFT:  2.00D  GRAD.:     2.695 HEAT: -3.280545
 CYCLE:    67 TIME:   0.012 TIME LEFT:  2.00D  GRAD.:     2.451 HEAT: -3.300749
 CYCLE:    68 TIME:   0.012 TIME LEFT:  2.00D  GRAD.:     2.151 HEAT: -3.315857
 CYCLE:    69 TIME:   0.008 TIME LEFT:  2.00D  GRAD.:     1.965 HEAT: -3.326791
 CYCLE:    70 TIME:   0.012 TIME LEFT:  2.00D  GRAD.:     1.979 HEAT: -3.335918
 CYCLE:    71 TIME:   0.012 TIME LEFT:  2.00D  GRAD.:     2.085 HEAT: -3.344800
 CYCLE:    72 TIME:   0.012 TIME LEFT:  2.00D  GRAD.:     1.773 HEAT: -3.352138
 CYCLE:    73 TIME:   0.008 TIME LEFT:  2.00D  GRAD.:     1.591 HEAT: -3.358619
 CYCLE:    74 TIME:   0.012 TIME LEFT:  2.00D  GRAD.:     1.647 HEAT: -3.364411
 CYCLE:    75 TIME:   0.012 TIME LEFT:  2.00D  GRAD.:     1.759 HEAT: -3.371740
 CYCLE:    76 TIME:   0.012 TIME LEFT:  2.00D  GRAD.:     1.800 HEAT: -3.380142
 CYCLE:    77 TIME:   0.008 TIME LEFT:  2.00D  GRAD.:     1.863 HEAT: -3.389625
 CYCLE:    78 TIME:   0.012 TIME LEFT:  2.00D  GRAD.:     1.816 HEAT: -3.399071
 CYCLE:    79 TIME:   0.012 TIME LEFT:  2.00D  GRAD.:     1.656 HEAT: -3.406344
 CYCLE:    80 TIME:   0.012 TIME LEFT:  2.00D  GRAD.:     1.393 HEAT: -3.411996
 CYCLE:    81 TIME:   0.012 TIME LEFT:  2.00D  GRAD.:     0.966 HEAT: -3.415015
 CYCLE:    82 TIME:   0.012 TIME LEFT:  2.00D  GRAD.:     0.790 HEAT: -3.417542
 CYCLE:    83 TIME:   0.008 TIME LEFT:  2.00D  GRAD.:     0.746 HEAT: -3.418869
 CYCLE:    84 TIME:   0.012 TIME LEFT:  2.00D  GRAD.:     0.649 HEAT: -3.420082
 CYCLE:    85 TIME:   0.008 TIME LEFT:  2.00D  GRAD.:     0.572 HEAT: -3.420961
 CYCLE:    86 TIME:   0.016 TIME LEFT:  2.00D  GRAD.:     0.621 HEAT: -3.421883
 CYCLE:    87 TIME:   0.008 TIME LEFT:  2.00D  GRAD.:     0.635 HEAT: -3.422719
 CYCLE:    88 TIME:   0.012 TIME LEFT:  2.00D  GRAD.:     0.659 HEAT: -3.423765
 CYCLE:    89 TIME:   0.012 TIME LEFT:  2.00D  GRAD.:     0.631 HEAT: -3.424828
 CYCLE:    90 TIME:   0.012 TIME LEFT:  2.00D  GRAD.:     0.652 HEAT: -3.426067
 CYCLE:    91 TIME:   0.012 TIME LEFT:  2.00D  GRAD.:     0.748 HEAT: -3.427324
 CYCLE:    92 TIME:   0.008 TIME LEFT:  2.00D  GRAD.:     0.809 HEAT: -3.428639
 CYCLE:    93 TIME:   0.012 TIME LEFT:  2.00D  GRAD.:     0.867 HEAT: -3.430603
 CYCLE:    94 TIME:   0.016 TIME LEFT:  2.00D  GRAD.:     0.842 HEAT: -3.432191
 CYCLE:    95 TIME:   0.012 TIME LEFT:  2.00D  GRAD.:     0.946 HEAT: -3.434966
 CYCLE:    96 TIME:   0.012 TIME LEFT:  2.00D  GRAD.:     0.746 HEAT: -3.435988
 CYCLE:    97 TIME:   0.012 TIME LEFT:  2.00D  GRAD.:     0.882 HEAT: -3.438021
 CYCLE:    98 TIME:   0.012 TIME LEFT:  2.00D  GRAD.:     0.721 HEAT: -3.438894
 CYCLE:    99 TIME:   0.012 TIME LEFT:  2.00D  GRAD.:     1.446 HEAT: -3.440435
 CYCLE:   100 TIME:   0.012 TIME LEFT:  2.00D  GRAD.:     0.836 HEAT: -3.441796
 CYCLE:   101 TIME:   0.012 TIME LEFT:  2.00D  GRAD.:     0.636 HEAT: -3.443092
 CYCLE:   102 TIME:   0.012 TIME LEFT:  2.00D  GRAD.:     0.810 HEAT: -3.445545
 CYCLE:   103 TIME:   0.012 TIME LEFT:  2.00D  GRAD.:     0.774 HEAT: -3.446663
 CYCLE:   104 TIME:   0.012 TIME LEFT:  2.00D  GRAD.:     2.573 HEAT: -3.446023
 CYCLE:   105 TIME:   0.012 TIME LEFT:  2.00D  GRAD.:     0.988 HEAT: -3.449402
 CYCLE:   106 TIME:   0.012 TIME LEFT:  2.00D  GRAD.:     0.488 HEAT: -3.450139
 CYCLE:   107 TIME:   0.012 TIME LEFT:  2.00D  GRAD.:     0.534 HEAT: -3.450946
 CYCLE:   108 TIME:   0.012 TIME LEFT:  2.00D  GRAD.:     1.778 HEAT: -3.450926
 CYCLE:   109 TIME:   0.012 TIME LEFT:  2.00D  GRAD.:     0.583 HEAT: -3.452379
 CYCLE:   110 TIME:   0.012 TIME LEFT:  2.00D  GRAD.:     0.400 HEAT: -3.452804
 CYCLE:   111 TIME:   0.012 TIME LEFT:  2.00D  GRAD.:     0.634 HEAT: -3.453547
 CYCLE:   112 TIME:   0.012 TIME LEFT:  2.00D  GRAD.:     0.721 HEAT: -3.454017
 CYCLE:   113 TIME:   0.008 TIME LEFT:  2.00D  GRAD.:     0.517 HEAT: -3.454487
 CYCLE:   114 TIME:   0.012 TIME LEFT:  2.00D  GRAD.:     0.379 HEAT: -3.454844
 CYCLE:   115 TIME:   0.016 TIME LEFT:  2.00D  GRAD.:     0.373 HEAT: -3.454711
 CYCLE:   116 TIME:   0.012 TIME LEFT:  2.00D  GRAD.:     0.232 HEAT: -3.455640
 CYCLE:   117 TIME:   0.012 TIME LEFT:  2.00D  GRAD.:     0.376 HEAT: -3.455996
 CYCLE:   118 TIME:   0.012 TIME LEFT:  2.00D  GRAD.:     0.557 HEAT: -3.456208
 CYCLE:   119 TIME:   0.012 TIME LEFT:  2.00D  GRAD.:     0.342 HEAT: -3.456609
 CYCLE:   120 TIME:   0.008 TIME LEFT:  2.00D  GRAD.:     0.326 HEAT: -3.456869
 CYCLE:   121 TIME:   0.012 TIME LEFT:  2.00D  GRAD.:     0.414 HEAT: -3.457130
 CYCLE:   122 TIME:   0.012 TIME LEFT:  2.00D  GRAD.:     0.355 HEAT: -3.457445
 CYCLE:   123 TIME:   0.012 TIME LEFT:  2.00D  GRAD.:     0.515 HEAT: -3.457751
 CYCLE:   124 TIME:   0.012 TIME LEFT:  2.00D  GRAD.:     0.466 HEAT: -3.457967
 CYCLE:   125 TIME:   0.012 TIME LEFT:  2.00D  GRAD.:     0.451 HEAT: -3.458258
 CYCLE:   126 TIME:   0.012 TIME LEFT:  2.00D  GRAD.:     0.271 HEAT: -3.458614
 CYCLE:   127 TIME:   0.012 TIME LEFT:  2.00D  GRAD.:     0.530 HEAT: -3.458699
 CYCLE:   128 TIME:   0.012 TIME LEFT:  2.00D  GRAD.:     0.372 HEAT: -3.458877
 CYCLE:   129 TIME:   0.012 TIME LEFT:  2.00D  GRAD.:     1.894 HEAT: -3.457073
 CYCLE:   130 TIME:   0.012 TIME LEFT:  2.00D  GRAD.:     0.276 HEAT: -3.459125
 CYCLE:   131 TIME:   0.008 TIME LEFT:  2.00D  GRAD.:     0.172 HEAT: -3.459183
 CYCLE:   132 TIME:   0.012 TIME LEFT:  2.00D  GRAD.:     0.131 HEAT: -3.459322
 CYCLE:   133 TIME:   0.012 TIME LEFT:  2.00D  GRAD.:     0.215 HEAT: -3.459379
 CYCLE:   134 TIME:   0.012 TIME LEFT:  2.00D  GRAD.:     0.260 HEAT: -3.459398
 CYCLE:   135 TIME:   0.012 TIME LEFT:  2.00D  GRAD.:     0.156 HEAT: -3.459468
 CYCLE:   136 TIME:   0.012 TIME LEFT:  2.00D  GRAD.:     0.127 HEAT: -3.459531
 CYCLE:   137 TIME:   0.012 TIME LEFT:  2.00D  GRAD.:     0.200 HEAT: -3.459571
 CYCLE:   138 TIME:   0.008 TIME LEFT:  2.00D  GRAD.:     0.177 HEAT: -3.459643
 CYCLE:   139 TIME:   0.012 TIME LEFT:  2.00D  GRAD.:     0.244 HEAT: -3.459867
 CYCLE:   140 TIME:   0.012 TIME LEFT:  2.00D  GRAD.:     0.333 HEAT: -3.460016
 CYCLE:   141 TIME:   0.012 TIME LEFT:  2.00D  GRAD.:     0.393 HEAT: -3.460226
 CYCLE:   142 TIME:   0.012 TIME LEFT:  2.00D  GRAD.:     0.373 HEAT: -3.460441
 CYCLE:   143 TIME:   0.012 TIME LEFT:  2.00D  GRAD.:     0.399 HEAT: -3.460983
 CYCLE:   144 TIME:   0.012 TIME LEFT:  2.00D  GRAD.:     0.372 HEAT: -3.461167
 CYCLE:   145 TIME:   0.012 TIME LEFT:  2.00D  GRAD.:     0.344 HEAT: -3.461357
 CYCLE:   146 TIME:   0.012 TIME LEFT:  2.00D  GRAD.:     0.200 HEAT: -3.461581
 CYCLE:   147 TIME:   0.012 TIME LEFT:  2.00D  GRAD.:     0.212 HEAT: -3.461690
 CYCLE:   148 TIME:   0.012 TIME LEFT:  2.00D  GRAD.:     0.186 HEAT: -3.461697
 CYCLE:   149 TIME:   0.012 TIME LEFT:  2.00D  GRAD.:     0.115 HEAT: -3.461733
 CYCLE:   150 TIME:   0.008 TIME LEFT:  2.00D  GRAD.:     0.124 HEAT: -3.461778
 CYCLE:   151 TIME:   0.012 TIME LEFT:  2.00D  GRAD.:     0.136 HEAT: -3.461837
 CYCLE:   152 TIME:   0.016 TIME LEFT:  2.00D  GRAD.:     0.142 HEAT: -3.461841
 CYCLE:   153 TIME:   0.016 TIME LEFT:  2.00D  GRAD.:     0.322 HEAT: -3.461890
 CYCLE:   154 TIME:   0.008 TIME LEFT:  2.00D  GRAD.:     0.217 HEAT: -3.461942
 CYCLE:   155 TIME:   0.016 TIME LEFT:  2.00D  GRAD.:     1.633 HEAT: -3.460574
 CYCLE:   156 TIME:   0.008 TIME LEFT:  2.00D  GRAD.:     0.190 HEAT: -3.462132
 CYCLE:   157 TIME:   0.012 TIME LEFT:  2.00D  GRAD.:     0.122 HEAT: -3.462143
 CYCLE:   158 TIME:   0.012 TIME LEFT:  2.00D  GRAD.:     0.138 HEAT: -3.462218
 CYCLE:   159 TIME:   0.012 TIME LEFT:  2.00D  GRAD.:     0.301 HEAT: -3.462227
 CYCLE:   160 TIME:   0.012 TIME LEFT:  2.00D  GRAD.:     0.152 HEAT: -3.462487
 CYCLE:   161 TIME:   0.008 TIME LEFT:  2.00D  GRAD.:     0.125 HEAT: -3.462536
 CYCLE:   162 TIME:   0.012 TIME LEFT:  2.00D  GRAD.:     0.128 HEAT: -3.462593
 CYCLE:   163 TIME:   0.012 TIME LEFT:  2.00D  GRAD.:     0.101 HEAT: -3.462627
 CYCLE:   164 TIME:   0.008 TIME LEFT:  2.00D  GRAD.:     0.095 HEAT: -3.462658
 CYCLE:   165 TIME:   0.012 TIME LEFT:  2.00D  GRAD.:     0.087 HEAT: -3.462684
 CYCLE:   166 TIME:   0.012 TIME LEFT:  2.00D  GRAD.:     0.112 HEAT: -3.462719
 CYCLE:   167 TIME:   0.008 TIME LEFT:  2.00D  GRAD.:     0.095 HEAT: -3.462735
 CYCLE:   168 TIME:   0.012 TIME LEFT:  2.00D  GRAD.:     0.130 HEAT: -3.462768
 CYCLE:   169 TIME:   0.008 TIME LEFT:  2.00D  GRAD.:     0.105 HEAT: -3.462799
 CYCLE:   170 TIME:   0.012 TIME LEFT:  2.00D  GRAD.:     0.157 HEAT: -3.462876
 CYCLE:   171 TIME:   0.008 TIME LEFT:  2.00D  GRAD.:     0.130 HEAT: -3.462921
 CYCLE:   172 TIME:   0.012 TIME LEFT:  2.00D  GRAD.:     0.117 HEAT: -3.462968
 CYCLE:   173 TIME:   0.012 TIME LEFT:  2.00D  GRAD.:     0.102 HEAT: -3.463014
 CYCLE:   174 TIME:   0.008 TIME LEFT:  2.00D  GRAD.:     0.090 HEAT: -3.463045
 CYCLE:   175 TIME:   0.012 TIME LEFT:  2.00D  GRAD.:     0.271 HEAT: -3.463035
 CYCLE:   176 TIME:   0.012 TIME LEFT:  2.00D  GRAD.:     0.136 HEAT: -3.463110
 CYCLE:   177 TIME:   0.012 TIME LEFT:  2.00D  GRAD.:     0.085 HEAT: -3.463057
 CYCLE:   178 TIME:   0.012 TIME LEFT:  2.00D  GRAD.:     0.057 HEAT: -3.463121
 CYCLE:   179 TIME:   0.012 TIME LEFT:  2.00D  GRAD.:     0.128 HEAT: -3.463106
 CYCLE:   180 TIME:   0.008 TIME LEFT:  2.00D  GRAD.:     0.079 HEAT: -3.463128
 CYCLE:   181 TIME:   0.012 TIME LEFT:  2.00D  GRAD.:     0.037 HEAT: -3.463138

     GRADIENT =  0.03661 IS LESS THAN CUTOFF =  0.05000



 -------------------------------------------------------------------------------
 pm3  precise nosym THREADS=1
 InChI=1S/C12H20/c1-4-10-8-7-9-11(5-2)12(10)6-3/h4,7,9-12H,1,5-6,8H2,2-3H3



     GEOMETRY OPTIMISED USING EIGENVECTOR FOLLOWING (EF).     
     SCF FIELD WAS ACHIEVED                                   


                              PM3 CALCULATION
                                                       MOPAC v23.1.2 MacOS
                                                       Tue Jun  3 16:35:05 2025




          FINAL HEAT OF FORMATION =         -3.46314 KCAL/MOL =     -14.48977 KJ/MOL


          COSMO AREA              =        223.21 SQUARE ANGSTROMS
          COSMO VOLUME            =        244.72 CUBIC ANGSTROMS

          GRADIENT NORM           =          0.03661          =       0.00647 PER ATOM
          IONIZATION POTENTIAL    =          9.673472 EV
          HOMO LUMO ENERGIES (EV) =         -9.673  1.099
          NO. OF FILLED LEVELS    =         34
          MOLECULAR WEIGHT        =        164.2900         POINT GROUP:  C1  

          MOLECULAR DIMENSIONS (Angstroms)

            Atom       Atom       Distance
            H    31    H    23     8.06392
            H    26    H    28     6.12672
            H    22    H    27     5.53958


          SCF CALCULATIONS        =        192

          WALL-CLOCK TIME         =      2.094 SECONDS
          COMPUTATION TIME        =      1.591 SECONDS




   ATOM   CHEMICAL          X               Y               Z
  NUMBER   SYMBOL      (ANGSTROMS)     (ANGSTROMS)     (ANGSTROMS)

     1       C         -0.31205682  *   0.36849836  *   0.33371140  *
     2       C          1.13793637  *   0.00262132  *  -0.04277573  *
     3       C         -1.28430022  *  -0.66445966  *  -0.26194753  *
     4       C         -0.63344344  *   1.80319950  *  -0.09580809  *
     5       C          1.69637669  *  -1.07496950  *   0.89439861  *
     6       C         -1.17983593  *  -0.71530000  *  -1.78555462  *
     7       C          3.20790669  *  -1.12561793  *   0.87991776  *
     8       C          0.18632949  *   2.81625681  *   0.67280210  *
     9       C          1.26648449  *  -0.43607628  *  -1.46554732  *
    10       C          0.23280283  *  -0.75876611  *  -2.24340881  *
    11       C         -2.69435791  *  -0.39742473  *   0.16332238  *
    12       C         -3.25557931  *  -1.00044780  *   1.20477693  *
    13       H         -0.41127234  *   0.32153146  *   1.44831028  *
    14       H          1.75526054  *   0.93620501  *   0.08425239  *
    15       H         -0.97310025  *  -1.66554170  *   0.13465582  *
    16       H          1.28141539  *  -2.06579044  *   0.62155753  *
    17       H          1.34480891  *  -0.87858671  *   1.92806860  *
    18       H         -1.71329869  *   2.00269205  *   0.05398077  *
    19       H         -0.45391378  *   1.91957477  *  -1.18364672  *
    20       H         -1.72480196  *  -1.60071651  *  -2.16793753  *
    21       H         -1.67322269  *   0.16544278  *  -2.24755836  *
    22       H          3.58407854  *  -1.89439469  *   1.56710071  *
    23       H          3.59959995  *  -1.36048456  *  -0.11912228  *
    24       H          3.65009191  *  -0.16781040  *   1.18578453  *
    25       H          1.26288056  *   2.59030029  *   0.58718374  *
    26       H         -0.06317221  *   2.81752689  *   1.74184826  *
    27       H          0.02598894  *   3.83286080  *   0.29404550  *
    28       H          0.39166074  *  -1.06354598  *  -3.28406028  *
    29       H          2.29129476  *  -0.49082467  *  -1.85279973  *
    30       H         -3.25552415  *   0.33235918  *  -0.43437985  *
    31       H         -4.27759978  *  -0.80395017  *   1.51389455  *
    32       H         -2.73775594  *  -1.73037364  *   1.82151132  *

                             CARTESIAN COORDINATES

   1    C       -0.312056818     0.368498363     0.333711404
   2    C        1.137936366     0.002621320    -0.042775726
   3    C       -1.284300218    -0.664459658    -0.261947534
   4    C       -0.633443445     1.803199498    -0.095808089
   5    C        1.696376692    -1.074969497     0.894398610
   6    C       -1.179835928    -0.715300005    -1.785554624
   7    C        3.207906693    -1.125617929     0.879917760
   8    C        0.186329488     2.816256814     0.672802097
   9    C        1.266484489    -0.436076276    -1.465547319
  10    C        0.232802827    -0.758766107    -2.243408812
  11    C       -2.694357911    -0.397424734     0.163322376
  12    C       -3.255579307    -1.000447799     1.204776931
  13    H       -0.411272344     0.321531463     1.448310276
  14    H        1.755260536     0.936205010     0.084252392
  15    H       -0.973100251    -1.665541699     0.134655815
  16    H        1.281415392    -2.065790436     0.621557530
  17    H        1.344808905    -0.878586706     1.928068603
  18    H       -1.713298691     2.002692051     0.053980768
  19    H       -0.453913779     1.919574770    -1.183646715
  20    H       -1.724801958    -1.600716509    -2.167937530
  21    H       -1.673222686     0.165442776    -2.247558359
  22    H        3.584078541    -1.894394687     1.567100710
  23    H        3.599599952    -1.360484565    -0.119122278
  24    H        3.650091911    -0.167810401     1.185784533
  25    H        1.262880561     2.590300295     0.587183741
  26    H       -0.063172206     2.817526888     1.741848265
  27    H        0.025988939     3.832860797     0.294045499
  28    H        0.391660742    -1.063545983    -3.284060281
  29    H        2.291294756    -0.490824668    -1.852799727
  30    H       -3.255524152     0.332359184    -0.434379845
  31    H       -4.277599780    -0.803950174     1.513894546
  32    H       -2.737755942    -1.730373645     1.821511325


           Empirical Formula: C12 H20  =    32 atoms



      MOLECULAR POINT GROUP   :   C1  


                  EIGENVALUES  
 -42.70060 -35.68468 -34.15487 -32.66167 -28.06355 -27.98443 -23.69317 -22.37199
 -21.32694 -20.97010 -19.27269 -17.38410 -16.94451 -16.26125 -15.84770 -15.55579
 -15.24464 -14.95340 -14.72001 -14.35509 -13.68772 -13.47625 -13.39988 -13.09663
 -12.88700 -12.54492 -12.35597 -11.97882 -11.93474 -11.38926 -11.25931 -11.09105
 -10.19164  -9.67347   1.09884   1.17403   3.26173   3.35894   3.42323   3.62795
   3.63516   3.73788   3.78721   3.84154   3.90243   3.95161   4.04516   4.07302
   4.13831   4.16895   4.22463   4.27440   4.33804   4.48270   4.58865   4.64212
   4.68338   4.80145   4.88626   4.93836   5.00441   5.12220   5.17066   5.28438
   5.57817   5.81418   5.86623   6.02738


              NET ATOMIC CHARGES AND DIPOLE CONTRIBUTIONS

  ATOM NO.   TYPE          CHARGE      No. of ELECS.   s-Pop       p-Pop       
    1          C          -0.068509        4.0685     1.18450     2.88401
    2          C          -0.054726        4.0547     1.17256     2.88216
    3          C          -0.048519        4.0485     1.16864     2.87988
    4          C          -0.107139        4.1071     1.16213     2.94501
    5          C          -0.094242        4.0942     1.16195     2.93229
    6          C          -0.058266        4.0583     1.14842     2.90985
    7          C          -0.111354        4.1114     1.13885     2.97251
    8          C          -0.115662        4.1157     1.14050     2.97516
    9          C          -0.143205        4.1432     1.19510     2.94810
   10          C          -0.145593        4.1456     1.19343     2.95216
   11          C          -0.135250        4.1352     1.19746     2.93779
   12          C          -0.163037        4.1630     1.18292     2.98011
   13          H           0.068635        0.9314     0.93137
   14          H           0.080462        0.9195     0.91954
   15          H           0.071424        0.9286     0.92858
   16          H           0.054217        0.9458     0.94578
   17          H           0.050065        0.9499     0.94994
   18          H           0.054709        0.9453     0.94529
   19          H           0.057557        0.9424     0.94244
   20          H           0.056255        0.9437     0.94374
   21          H           0.059925        0.9401     0.94008
   22          H           0.037440        0.9626     0.96256
   23          H           0.039956        0.9600     0.96004
   24          H           0.037314        0.9627     0.96269
   25          H           0.043507        0.9565     0.95649
   26          H           0.038313        0.9617     0.96169
   27          H           0.038866        0.9611     0.96113
   28          H           0.096628        0.9034     0.90337
   29          H           0.099030        0.9010     0.90097
   30          H           0.100249        0.8998     0.89975
   31          H           0.079228        0.9208     0.92077
   32          H           0.081723        0.9183     0.91828
 DIPOLE           X         Y         Z       TOTAL
 POINT-CHG.     0.029     0.112     0.072     0.136
 HYBRID         0.023    -0.014    -0.031     0.041
 SUM            0.052     0.097     0.041     0.117


          ATOMIC ORBITAL ELECTRON POPULATIONS

     Atom    s        px        py        pz   
    1  C   1.18450   0.93989   0.94360   1.00052
    2  C   1.17256   0.96344   0.98596   0.93277
    3  C   1.16864   0.92927   0.99439   0.95622
    4  C   1.16213   0.99959   0.94235   1.00307
    5  C   1.16195   0.95700   0.98925   0.98603
    6  C   1.14842   0.94785   1.01346   0.94854
    7  C   1.13885   0.95408   1.00792   1.01050
    8  C   1.14050   0.99809   0.98141   0.99566
    9  C   1.19510   0.97993   1.00667   0.96150
   10  C   1.19343   0.95463   1.01046   0.98707
   11  C   1.19746   0.96502   0.99250   0.98027
   12  C   1.18292   0.99983   1.00306   0.97722
   13  H   0.93137
   14  H   0.91954
   15  H   0.92858
   16  H   0.94578
   17  H   0.94994
   18  H   0.94529
   19  H   0.94244
   20  H   0.94374
   21  H   0.94008
   22  H   0.96256
   23  H   0.96004
   24  H   0.96269
   25  H   0.95649
   26  H   0.96169
   27  H   0.96113
   28  H   0.90337
   29  H   0.90097
   30  H   0.89975
   31  H   0.92077
   32  H   0.91828
 *******************************************************************************
 **                                                                           **
 **                              MOPAC v23.1.2                                **
 **                                                                           **
 *******************************************************************************
 **          Digital Object Identifier (DOI): 10.5281/zenodo.6511958          **
 **    Visit the DOI location for information on how to cite this program.    **
 *******************************************************************************

                              PM3 CALCULATION RESULTS

 *******************************************************************************
 *  CALCULATION DONE: (MAX THREADS = 1)              Tue Jun  3 16:35:05 2025  *
 *  PM3        - The PM3 Hamiltonian to be used
 *  OLDGEO     - PREVIOUS GEOMETRY TO BE USED
 *  PRECISE    - TIGHTER CRITERIA TO BE USED
 *  NOSYM      - POINT-GROUP SYMMETRY SET TO C1
 *  THREADS=1  - MULTI-THREADING NOT USED
 *  T=         - A TIME OF 172800.0 SECONDS REQUESTED
 *  DUMP=N     - RESTART FILE WRITTEN EVERY 7200.0 SECONDS REQUESTED
 *  THERMO     - THERMODYNAMIC QUANTITIES TO BE CALCULATED
 *******************************************************************************
oldgeo thermo nosym precise THREADS=1  pm3
 InChI=1S/C12H20/c1-4-10-8-7-9-11(5-2)12(10)6-3/h4,7,9-12H,1,5-6,8H2,2-3H3

   ATOM   CHEMICAL          X               Y               Z
  NUMBER   SYMBOL      (ANGSTROMS)     (ANGSTROMS)     (ANGSTROMS)

     1       C         -0.31205682  *   0.36849836  *   0.33371140  *
     2       C          1.13793637  *   0.00262132  *  -0.04277573  *
     3       C         -1.28430022  *  -0.66445966  *  -0.26194753  *
     4       C         -0.63344344  *   1.80319950  *  -0.09580809  *
     5       C          1.69637669  *  -1.07496950  *   0.89439861  *
     6       C         -1.17983593  *  -0.71530000  *  -1.78555462  *
     7       C          3.20790669  *  -1.12561793  *   0.87991776  *
     8       C          0.18632949  *   2.81625681  *   0.67280210  *
     9       C          1.26648449  *  -0.43607628  *  -1.46554732  *
    10       C          0.23280283  *  -0.75876611  *  -2.24340881  *
    11       C         -2.69435791  *  -0.39742473  *   0.16332238  *
    12       C         -3.25557931  *  -1.00044780  *   1.20477693  *
    13       H         -0.41127234  *   0.32153146  *   1.44831028  *
    14       H          1.75526054  *   0.93620501  *   0.08425239  *
    15       H         -0.97310025  *  -1.66554170  *   0.13465582  *
    16       H          1.28141539  *  -2.06579044  *   0.62155753  *
    17       H          1.34480891  *  -0.87858671  *   1.92806860  *
    18       H         -1.71329869  *   2.00269205  *   0.05398077  *
    19       H         -0.45391378  *   1.91957477  *  -1.18364672  *
    20       H         -1.72480196  *  -1.60071651  *  -2.16793753  *
    21       H         -1.67322269  *   0.16544278  *  -2.24755836  *
    22       H          3.58407854  *  -1.89439469  *   1.56710071  *
    23       H          3.59959995  *  -1.36048456  *  -0.11912228  *
    24       H          3.65009191  *  -0.16781040  *   1.18578453  *
    25       H          1.26288056  *   2.59030029  *   0.58718374  *
    26       H         -0.06317221  *   2.81752689  *   1.74184826  *
    27       H          0.02598894  *   3.83286080  *   0.29404550  *
    28       H          0.39166074  *  -1.06354598  *  -3.28406028  *
    29       H          2.29129476  *  -0.49082467  *  -1.85279973  *
    30       H         -3.25552415  *   0.33235918  *  -0.43437985  *
    31       H         -4.27759978  *  -0.80395017  *   1.51389455  *
    32       H         -2.73775594  *  -1.73037364  *   1.82151132  *



          CARTESIAN COORDINATES 

    NO.       ATOM           X           Y           Z

     1         C         -0.3121      0.3685      0.3337
     2         C          1.1379      0.0026     -0.0428
     3         C         -1.2843     -0.6645     -0.2619
     4         C         -0.6334      1.8032     -0.0958
     5         C          1.6964     -1.0750      0.8944
     6         C         -1.1798     -0.7153     -1.7856
     7         C          3.2079     -1.1256      0.8799
     8         C          0.1863      2.8163      0.6728
     9         C          1.2665     -0.4361     -1.4655
    10         C          0.2328     -0.7588     -2.2434
    11         C         -2.6944     -0.3974      0.1633
    12         C         -3.2556     -1.0004      1.2048
    13         H         -0.4113      0.3215      1.4483
    14         H          1.7553      0.9362      0.0843
    15         H         -0.9731     -1.6655      0.1347
    16         H          1.2814     -2.0658      0.6216
    17         H          1.3448     -0.8786      1.9281
    18         H         -1.7133      2.0027      0.0540
    19         H         -0.4539      1.9196     -1.1836
    20         H         -1.7248     -1.6007     -2.1679
    21         H         -1.6732      0.1654     -2.2476
    22         H          3.5841     -1.8944      1.5671
    23         H          3.5996     -1.3605     -0.1191
    24         H          3.6501     -0.1678      1.1858
    25         H          1.2629      2.5903      0.5872
    26         H         -0.0632      2.8175      1.7418
    27         H          0.0260      3.8329      0.2940
    28         H          0.3917     -1.0635     -3.2841
    29         H          2.2913     -0.4908     -1.8528
    30         H         -3.2555      0.3324     -0.4344
    31         H         -4.2776     -0.8040      1.5139
    32         H         -2.7378     -1.7304      1.8215

  H: (PM3): J. J. P. STEWART, J. COMP. CHEM. 10, 209 (1989).
  C: (PM3): J. J. P. STEWART, J. COMP. CHEM. 10, 209 (1989).

           Empirical Formula: C12 H20  =    32 atoms



      MOLECULAR POINT GROUP   :   C1  


      RHF CALCULATION, NO. OF DOUBLY OCCUPIED LEVELS = 34



          HEAT OF FORMATION =      -3.463139 KCALS/MOLE


          CARTESIAN COORDINATE DERIVATIVES

   NUMBER  ATOM         X            Y            Z

     1       C      0.002730    -0.001073     0.000764
     2       C      0.001555    -0.001435    -0.000168
     3       C      0.003306    -0.000648     0.000122
     4       C      0.001436     0.002597     0.000588
     5       C      0.002405     0.000192    -0.001498
     6       C      0.001041    -0.000636     0.000747
     7       C      0.000122    -0.001549     0.000546
     8       C      0.000057    -0.001516     0.004403
     9       C     -0.000412    -0.000136     0.000079
    10       C      0.001378    -0.000904     0.000481
    11       C      0.008752    -0.001817    -0.006301
    12       C     -0.002825     0.000982     0.000979
    13       H     -0.000069    -0.001314     0.001219
    14       H     -0.004966     0.000041    -0.000372
    15       H      0.000676    -0.000216     0.000489
    16       H     -0.001302    -0.000706    -0.001933
    17       H     -0.003885     0.004101     0.001293
    18       H      0.000101    -0.000533    -0.001256
    19       H     -0.002261     0.001681     0.001980
    20       H      0.001816    -0.000184     0.002341
    21       H     -0.000428     0.000156     0.000272
    22       H     -0.003519     0.003421    -0.000719
    23       H     -0.004460     0.001604    -0.004209
    24       H     -0.003579     0.006078    -0.000028
    25       H      0.006392    -0.003639     0.000873
    26       H     -0.003824    -0.002498    -0.003993
    27       H     -0.000944    -0.001845     0.004440
    28       H     -0.001422    -0.000135     0.000712
    29       H     -0.001839    -0.000869     0.001240
    30       H     -0.005760     0.003760     0.009679
    31       H      0.002047    -0.000939    -0.002981
    32       H      0.007679    -0.002017    -0.009789



          GRADIENT NORM =   0.02906

          MOLECULAR WEIGHT =  164.29



          ROTATIONAL CONSTANTS IN CM(-1)

          A =    0.03596617   B =    0.02257909   C =    0.02049796



           PRINCIPAL MOMENTS OF INERTIA IN UNITS OF 10**(-40)*GRAM-CM**2

          A =      778.3079   B =     1239.7641   C =     1365.6359


          ORIENTATION OF MOLECULE IN FORCE CALCULATION

    NO.       ATOM         X         Y         Z

     1          C      -0.4085   -0.5158   -0.1123
     2          C       1.1336   -0.5158   -0.1123
     3          C      -0.9322    0.9309   -0.1123
     4          C      -0.9463   -1.3420    1.0600
     5          C       1.6855   -0.3077   -1.5277
     6          C      -0.4499    1.6989    1.1175
     7          C       3.1223   -0.7613   -1.6594
     8          C      -0.6034   -2.8087    0.9171
     9          C       1.7059    0.5041    0.8181
    10          C       1.0004    1.4941    1.3657
    11          C      -2.4252    0.9723   -0.2104
    12          C      -3.0641    1.1200   -1.3650
    13          H      -0.7628   -1.0027   -1.0566
    14          H       1.4615   -1.5309    0.2495
    15          H      -0.4989    1.4301   -1.0175
    16          H       1.5970    0.7589   -1.8154
    17          H       1.0560   -0.8652   -2.2513
    18          H      -2.0455   -1.2183    1.1283
    19          H      -0.5395   -0.9506    2.0142
    20          H      -0.6589    2.7791    0.9889
    21          H      -1.0100    1.3891    2.0247
    22          H       3.4907   -0.6148   -2.6830
    23          H       3.7902   -0.2038   -0.9889
    24          H       3.2362   -1.8272   -1.4195
    25          H       0.4833   -2.9422    0.7811
    26          H      -1.0993   -3.2616    0.0487
    27          H      -0.9029   -3.3793    1.8044
    28          H       1.4762    2.2056    2.0502
    29          H       2.7770    0.4016    1.0311
    30          H      -2.9801    0.8736    0.7315
    31          H      -4.1472    1.1472   -1.4352
    32          H      -2.5546    1.2236   -2.3195


    FIRST DERIVATIVES WILL BE USED IN THE CALCULATION OF SECOND DERIVATIVES

          ESTIMATED TIME TO COMPLETE CALCULATION =        4.50 SECONDS

    FOR POINT-GROUP C1   THERE ARE   1 UNIQUE SYMMETRY FUNCTIONS.

 STEP:   1 TIME =     0.04 SECS, INTEGRAL =      0.04 TIME LEFT: 172799.95
 STEP:   2 TIME =     0.04 SECS, INTEGRAL =      0.07 TIME LEFT: 172799.91
 STEP:   3 TIME =     0.04 SECS, INTEGRAL =      0.11 TIME LEFT: 172799.88
 STEP:   4 TIME =     0.04 SECS, INTEGRAL =      0.14 TIME LEFT: 172799.84
 STEP:   5 TIME =     0.04 SECS, INTEGRAL =      0.18 TIME LEFT: 172799.81
 STEP:   6 TIME =     0.04 SECS, INTEGRAL =      0.22 TIME LEFT: 172799.77
 STEP:   7 TIME =     0.04 SECS, INTEGRAL =      0.25 TIME LEFT: 172799.73
 STEP:   8 TIME =     0.04 SECS, INTEGRAL =      0.29 TIME LEFT: 172799.70
 STEP:   9 TIME =     0.04 SECS, INTEGRAL =      0.32 TIME LEFT: 172799.66
 STEP:  10 TIME =     0.04 SECS, INTEGRAL =      0.36 TIME LEFT: 172799.63
 STEP:  11 TIME =     0.04 SECS, INTEGRAL =      0.39 TIME LEFT: 172799.59
 STEP:  12 TIME =     0.04 SECS, INTEGRAL =      0.43 TIME LEFT: 172799.56
 STEP:  13 TIME =     0.04 SECS, INTEGRAL =      0.46 TIME LEFT: 172799.52
 STEP:  14 TIME =     0.04 SECS, INTEGRAL =      0.50 TIME LEFT: 172799.48
 STEP:  15 TIME =     0.04 SECS, INTEGRAL =      0.54 TIME LEFT: 172799.45
 STEP:  16 TIME =     0.04 SECS, INTEGRAL =      0.58 TIME LEFT: 172799.41
 STEP:  17 TIME =     0.04 SECS, INTEGRAL =      0.61 TIME LEFT: 172799.38
 STEP:  18 TIME =     0.04 SECS, INTEGRAL =      0.65 TIME LEFT: 172799.34
 STEP:  19 TIME =     0.04 SECS, INTEGRAL =      0.69 TIME LEFT: 172799.30
 STEP:  20 TIME =     0.04 SECS, INTEGRAL =      0.73 TIME LEFT: 172799.26
 STEP:  21 TIME =     0.04 SECS, INTEGRAL =      0.77 TIME LEFT: 172799.22
 STEP:  22 TIME =     0.04 SECS, INTEGRAL =      0.80 TIME LEFT: 172799.18
 STEP:  23 TIME =     0.04 SECS, INTEGRAL =      0.84 TIME LEFT: 172799.15
 STEP:  24 TIME =     0.04 SECS, INTEGRAL =      0.88 TIME LEFT: 172799.11
 STEP:  25 TIME =     0.04 SECS, INTEGRAL =      0.91 TIME LEFT: 172799.07
 STEP:  26 TIME =     0.04 SECS, INTEGRAL =      0.95 TIME LEFT: 172799.04
 STEP:  27 TIME =     0.04 SECS, INTEGRAL =      0.99 TIME LEFT: 172799.00
 STEP:  28 TIME =     0.04 SECS, INTEGRAL =      1.02 TIME LEFT: 172798.96
 STEP:  29 TIME =     0.04 SECS, INTEGRAL =      1.06 TIME LEFT: 172798.93
 STEP:  30 TIME =     0.04 SECS, INTEGRAL =      1.10 TIME LEFT: 172798.89
 STEP:  31 TIME =     0.04 SECS, INTEGRAL =      1.13 TIME LEFT: 172798.86
 STEP:  32 TIME =     0.04 SECS, INTEGRAL =      1.17 TIME LEFT: 172798.82
 STEP:  33 TIME =     0.04 SECS, INTEGRAL =      1.21 TIME LEFT: 172798.78
 STEP:  34 TIME =     0.04 SECS, INTEGRAL =      1.24 TIME LEFT: 172798.75
 STEP:  35 TIME =     0.04 SECS, INTEGRAL =      1.29 TIME LEFT: 172798.70
 STEP:  36 TIME =     0.04 SECS, INTEGRAL =      1.32 TIME LEFT: 172798.66
 STEP:  37 TIME =     0.04 SECS, INTEGRAL =      1.36 TIME LEFT: 172798.62
 STEP:  38 TIME =     0.04 SECS, INTEGRAL =      1.40 TIME LEFT: 172798.59
 STEP:  39 TIME =     0.04 SECS, INTEGRAL =      1.44 TIME LEFT: 172798.55
 STEP:  40 TIME =     0.04 SECS, INTEGRAL =      1.48 TIME LEFT: 172798.51
 STEP:  41 TIME =     0.04 SECS, INTEGRAL =      1.51 TIME LEFT: 172798.48
 STEP:  42 TIME =     0.04 SECS, INTEGRAL =      1.55 TIME LEFT: 172798.44
 STEP:  43 TIME =     0.04 SECS, INTEGRAL =      1.58 TIME LEFT: 172798.41
 STEP:  44 TIME =     0.04 SECS, INTEGRAL =      1.62 TIME LEFT: 172798.37
 STEP:  45 TIME =     0.04 SECS, INTEGRAL =      1.66 TIME LEFT: 172798.33
 STEP:  46 TIME =     0.04 SECS, INTEGRAL =      1.70 TIME LEFT: 172798.29
 STEP:  47 TIME =     0.04 SECS, INTEGRAL =      1.73 TIME LEFT: 172798.26
 STEP:  48 TIME =     0.04 SECS, INTEGRAL =      1.77 TIME LEFT: 172798.22
 STEP:  49 TIME =     0.04 SECS, INTEGRAL =      1.80 TIME LEFT: 172798.18
 STEP:  50 TIME =     0.04 SECS, INTEGRAL =      1.84 TIME LEFT: 172798.15
 STEP:  51 TIME =     0.04 SECS, INTEGRAL =      1.88 TIME LEFT: 172798.11
 STEP:  52 TIME =     0.04 SECS, INTEGRAL =      1.91 TIME LEFT: 172798.08
 STEP:  53 TIME =     0.04 SECS, INTEGRAL =      1.95 TIME LEFT: 172798.04
 STEP:  54 TIME =     0.04 SECS, INTEGRAL =      1.99 TIME LEFT: 172798.00
 STEP:  55 TIME =     0.04 SECS, INTEGRAL =      2.03 TIME LEFT: 172797.96
 STEP:  56 TIME =     0.04 SECS, INTEGRAL =      2.06 TIME LEFT: 172797.93
 STEP:  57 TIME =     0.04 SECS, INTEGRAL =      2.10 TIME LEFT: 172797.89
 STEP:  58 TIME =     0.04 SECS, INTEGRAL =      2.14 TIME LEFT: 172797.85
 STEP:  59 TIME =     0.04 SECS, INTEGRAL =      2.18 TIME LEFT: 172797.81
 STEP:  60 TIME =     0.04 SECS, INTEGRAL =      2.21 TIME LEFT: 172797.77
 STEP:  61 TIME =     0.04 SECS, INTEGRAL =      2.25 TIME LEFT: 172797.73
 STEP:  62 TIME =     0.04 SECS, INTEGRAL =      2.29 TIME LEFT: 172797.70
 STEP:  63 TIME =     0.04 SECS, INTEGRAL =      2.32 TIME LEFT: 172797.66
 STEP:  64 TIME =     0.04 SECS, INTEGRAL =      2.36 TIME LEFT: 172797.63
 STEP:  65 TIME =     0.04 SECS, INTEGRAL =      2.40 TIME LEFT: 172797.59
 STEP:  66 TIME =     0.04 SECS, INTEGRAL =      2.44 TIME LEFT: 172797.55
 STEP:  67 TIME =     0.04 SECS, INTEGRAL =      2.48 TIME LEFT: 172797.51
 STEP:  68 TIME =     0.04 SECS, INTEGRAL =      2.51 TIME LEFT: 172797.48
 STEP:  69 TIME =     0.04 SECS, INTEGRAL =      2.55 TIME LEFT: 172797.44
 STEP:  70 TIME =     0.04 SECS, INTEGRAL =      2.59 TIME LEFT: 172797.40
 STEP:  71 TIME =     0.04 SECS, INTEGRAL =      2.62 TIME LEFT: 172797.37
 STEP:  72 TIME =     0.04 SECS, INTEGRAL =      2.66 TIME LEFT: 172797.33
 STEP:  73 TIME =     0.04 SECS, INTEGRAL =      2.70 TIME LEFT: 172797.29
 STEP:  74 TIME =     0.04 SECS, INTEGRAL =      2.73 TIME LEFT: 172797.25
 STEP:  75 TIME =     0.04 SECS, INTEGRAL =      2.78 TIME LEFT: 172797.21
 STEP:  76 TIME =     0.04 SECS, INTEGRAL =      2.81 TIME LEFT: 172797.18
 STEP:  77 TIME =     0.04 SECS, INTEGRAL =      2.85 TIME LEFT: 172797.14
 STEP:  78 TIME =     0.04 SECS, INTEGRAL =      2.88 TIME LEFT: 172797.11
 STEP:  79 TIME =     0.04 SECS, INTEGRAL =      2.92 TIME LEFT: 172797.07
 STEP:  80 TIME =     0.04 SECS, INTEGRAL =      2.95 TIME LEFT: 172797.04
 STEP:  81 TIME =     0.04 SECS, INTEGRAL =      2.99 TIME LEFT: 172797.00
 STEP:  82 TIME =     0.04 SECS, INTEGRAL =      3.03 TIME LEFT: 172796.96
 STEP:  83 TIME =     0.04 SECS, INTEGRAL =      3.07 TIME LEFT: 172796.92
 STEP:  84 TIME =     0.04 SECS, INTEGRAL =      3.11 TIME LEFT: 172796.88
 STEP:  85 TIME =     0.04 SECS, INTEGRAL =      3.14 TIME LEFT: 172796.84
 STEP:  86 TIME =     0.04 SECS, INTEGRAL =      3.18 TIME LEFT: 172796.80
 STEP:  87 TIME =     0.04 SECS, INTEGRAL =      3.22 TIME LEFT: 172796.77
 STEP:  88 TIME =     0.04 SECS, INTEGRAL =      3.26 TIME LEFT: 172796.73
 STEP:  89 TIME =     0.04 SECS, INTEGRAL =      3.30 TIME LEFT: 172796.69
 STEP:  90 TIME =     0.04 SECS, INTEGRAL =      3.34 TIME LEFT: 172796.65
 STEP:  91 TIME =     0.04 SECS, INTEGRAL =      3.37 TIME LEFT: 172796.62
 STEP:  92 TIME =     0.04 SECS, INTEGRAL =      3.41 TIME LEFT: 172796.57
 STEP:  93 TIME =     0.04 SECS, INTEGRAL =      3.46 TIME LEFT: 172796.53
 STEP:  94 TIME =     0.04 SECS, INTEGRAL =      3.49 TIME LEFT: 172796.50
 STEP:  95 TIME =     0.04 SECS, INTEGRAL =      3.53 TIME LEFT: 172796.46
 STEP:  96 TIME =     0.04 SECS, INTEGRAL =      3.57 TIME LEFT: 172796.42

(To convert to Hartree/Bohr^2, multiply by (10^(-21) x N x a0^2)/(4.184 x 627.51) =  0.0642)


           FORCE MATRIX IN MILLIDYNES/ANGSTROM


                  C  1       C  2       C  3       C  4       C  5       C  6
 ------------------------------------------------------------------------------
     C    1  14.003706
     C    2   3.482507  14.390016
     C    3   3.537971   0.624852  14.611447
     C    4   3.806506   0.611814   0.570585  14.292729
     C    5   0.604477   3.733496   0.040401   0.046815  14.234529
     C    6   0.619133   0.099227   3.918900   0.049554   0.016209  14.716111
     C    7   0.048553   0.619619   0.002516   0.008838   4.457525   0.001000
     C    8   0.637957   0.082792   0.051962   4.435629   0.004672   0.003415
     C    9   0.634887   4.720139   0.064270   0.029423   0.684049   0.839242
     C   10   0.056228   0.794225   0.690769   0.019281   0.037044   5.022363
     C   11   0.637324   0.050125   4.655862   0.063426   0.002974   0.676660
     C   12   0.037979   0.005820   0.813643   0.004260   0.000804   0.046736
     H   13   4.140811   0.427597   0.422510   0.424344   0.072914   0.047841
     H   14   0.424197   3.935963   0.043082   0.081878   0.434002   0.009119
     H   15   0.419935   0.036534   4.120358   0.046524   0.016769   0.419280
     H   16   0.011269   0.448098   0.015641   0.001099   4.451052   0.001582
     H   17   0.067033   0.443823   0.003672   0.002360   4.413516   0.002776
     H   18   0.442349   0.048131   0.033993   4.442628   0.008076   0.004496
     H   19   0.450325   0.025759   0.013844   4.438106   0.001667   0.017922
     H   20   0.048185   0.010094   0.435778   0.003473   0.001264   4.462588
     H   21   0.009103   0.014207   0.455192   0.014475   0.002490   4.366532
     H   22   0.008353   0.050470   0.000664   0.001789   0.448959   0.000186
     H   23   0.001206   0.017357   0.000425   0.000602   0.464875   0.000561
     H   24   0.002117   0.023843   0.000313   0.000560   0.463702   0.000298
     H   25   0.027503   0.084172   0.002116   0.464287   0.002156   0.000439
     H   26   0.020184   0.003302   0.001641   0.463487   0.000691   0.000447
     H   27   0.051233   0.005420   0.009145   0.450583   0.000554   0.000700
     H   28   0.003279   0.124155   0.042168   0.001093   0.019166   0.426630
     H   29   0.042363   0.430083   0.003994   0.001547   0.012622   0.125432
     H   30   0.010515   0.002234   0.436783   0.018731   0.000874   0.037169
     H   31   0.019599   0.003410   0.139422   0.001132   0.000251   0.014771
     H   32   0.015734   0.003415   0.100975   0.001218   0.000456   0.007800


                  C  7       C  8       C  9       C 10       C 11       C 12
 ------------------------------------------------------------------------------
     C    7  14.346383
     C    8   0.000602  14.332762
     C    9   0.051058   0.003691  18.176974
     C   10   0.002397   0.002145  10.709096  18.208145
     C   11   0.001384   0.005568   0.005044   0.054682  18.107537
     C   12   0.000634   0.001521   0.001141   0.009770  11.072490  18.023193
     H   13   0.002293   0.036823   0.045232   0.004186   0.026887   0.004255
     H   14   0.044681   0.114245   0.406476   0.039388   0.008024   0.001356
     H   15   0.001629   0.008583   0.008639   0.016430   0.432340   0.056598
     H   16   0.438356   0.000593   0.032238   0.004636   0.001024   0.000335
     H   17   0.435651   0.000394   0.046383   0.006035   0.000747   0.000338
     H   18   0.001917   0.435576   0.002136   0.001247   0.037321   0.003193
     H   19   0.000797   0.436130   0.006667   0.006421   0.002965   0.000657
     H   20   0.000334   0.000508   0.043549   0.432324   0.015905   0.001423
     H   21   0.000391   0.000978   0.030087   0.414810   0.041186   0.002384
     H   22   4.746455   0.000133   0.002463   0.000616   0.000354   0.000207
     H   23   4.709036   0.000137   0.016073   0.000680   0.000316   0.000177
     H   24   4.715744   0.000468   0.002709   0.000506   0.000301   0.000102
     H   25   0.000698   4.547119   0.001993   0.001036   0.001103   0.000467
     H   26   0.000136   4.735648   0.000726   0.000669   0.000513   0.000385
     H   27   0.000166   4.773715   0.000768   0.000450   0.000896   0.000421
     H   28   0.000684   0.000562   0.443283   4.815398   0.008521   0.001899
     H   29   0.015586   0.000835   4.780346   0.442746   0.001426   0.000346
     H   30   0.000298   0.001274   0.001210   0.002696   4.761905   0.453520
     H   31   0.000238   0.000250   0.000407   0.002974   0.462032   5.105616
     H   32   0.000355   0.000453   0.000562   0.002056   0.491917   5.066554


                  H 13       H 14       H 15       H 16       H 17       H 18
 ------------------------------------------------------------------------------
     H   13   4.613259
     H   14   0.017734   4.500528
     H   15   0.037463   0.002212   4.582464
     H   16   0.001694   0.041703   0.019880   5.064059
     H   17   0.054578   0.016937   0.001481   0.568789   5.017350
     H   18   0.025104   0.002461   0.002124   0.000305   0.000473   5.060181
     H   19   0.043787   0.009099   0.001394   0.000424   0.000518   0.564629
     H   20   0.007866   0.000419   0.036757   0.000364   0.000322   0.000369
     H   21   0.001624   0.000913   0.042637   0.000567   0.000629   0.002256
     H   22   0.000533   0.002634   0.000242   0.030464   0.031553   0.000434
     H   23   0.000513   0.002711   0.000242   0.023821   0.048886   0.000099
     H   24   0.000366   0.027716   0.000445   0.048350   0.025233   0.000104
     H   25   0.002754   0.140179   0.000358   0.000552   0.000381   0.048404
     H   26   0.020784   0.001155   0.000325   0.000146   0.000268   0.027594
     H   27   0.002153   0.002667   0.001766   0.000198   0.000198   0.026202
     H   28   0.000590   0.013932   0.001313   0.001061   0.003056   0.000445
     H   29   0.006592   0.035557   0.000520   0.002962   0.001831   0.000487
     H   30   0.002020   0.000559   0.034911   0.000304   0.000216   0.023500
     H   31   0.000865   0.000600   0.004386   0.000125   0.000159   0.000622
     H   32   0.002909   0.000570   0.029582   0.000193   0.000217   0.000534


                  H 19       H 20       H 21       H 22       H 23       H 24
 ------------------------------------------------------------------------------
     H   19   5.052297
     H   20   0.000675   5.058625
     H   21   0.025840   0.567746   4.979392
     H   22   0.000147   0.000058   0.000082   5.485138
     H   23   0.000218   0.000195   0.000243   0.575650   5.452777
     H   24   0.000125   0.000090   0.000127   0.575177   0.576908   5.459990
     H   25   0.022383   0.000145   0.000231   0.000158   0.000135   0.000729
     H   26   0.047895   0.000184   0.000412   0.000055   0.000098   0.000079
     H   27   0.033132   0.000141   0.000188   0.000061   0.000043   0.000084
     H   28   0.000786   0.034903   0.018945   0.000167   0.000421   0.000201
     H   29   0.000917   0.014665   0.017945   0.000979   0.020538   0.000591
     H   30   0.000535   0.002449   0.030130   0.000081   0.000073   0.000081
     H   31   0.000232   0.000361   0.000554   0.000066   0.000085   0.000046
     H   32   0.000248   0.000470   0.000622   0.000112   0.000123   0.000081


                  H 25       H 26       H 27       H 28       H 29       H 30
 ------------------------------------------------------------------------------
     H   25   5.326893
     H   26   0.565338   5.469864
     H   27   0.553304   0.570745   5.496521
     H   28   0.000316   0.000158   0.000144   5.190518
     H   29   0.000481   0.000295   0.000260   0.071426   5.155860
     H   30   0.000573   0.000266   0.000222   0.000587   0.000520   5.137927
     H   31   0.000070   0.000121   0.000076   0.000568   0.000170   0.082505
     H   32   0.000125   0.000144   0.000127   0.000338   0.000210   0.121744


                  H 31       H 32
 ------------------------------
     H   31   5.494164
     H   32   0.423966   5.462582


          HEAT OF FORMATION =      -3.463139 KCALS/MOLE

          ZERO POINT ENERGY     180.281 KCAL/MOL


           NORMAL COORDINATE ANALYSIS (Total motion = 1 Angstrom)


   Root No.       1         2         3         4         5         6         7         8

                 1 A       2 A       3 A       4 A       5 A       6 A       7 A       8 A   

                  29.7      59.2      71.4     101.7     132.9     176.2     182.1     226.3
  
           1    0.0020   -0.0059    0.0005   -0.0026   -0.0066    0.0026   -0.0039   -0.0131
           2   -0.0157   -0.0081   -0.0035    0.0010    0.0038   -0.0076   -0.0030    0.0005
           3    0.0027    0.0014    0.0038    0.0105   -0.0148    0.0166    0.0007    0.0070
           4    0.0023   -0.0059   -0.0000   -0.0024   -0.0064    0.0024   -0.0035   -0.0139
           5   -0.0045   -0.0173    0.0009    0.0042   -0.0017   -0.0047   -0.0044    0.0001
           6    0.0015   -0.0063   -0.0030    0.0025   -0.0068    0.0258   -0.0027   -0.0060
           7   -0.0056    0.0049    0.0029    0.0007   -0.0007    0.0073   -0.0017   -0.0064
           8   -0.0185   -0.0040   -0.0026    0.0019    0.0072   -0.0064   -0.0018    0.0034
           9   -0.0091   -0.0065   -0.0024    0.0181    0.0006    0.0013    0.0057    0.0024
          10    0.0108   -0.0047    0.0070    0.0020   -0.0285   -0.0178   -0.0058    0.0222
          11   -0.0110    0.0062    0.0051   -0.0039   -0.0034   -0.0205   -0.0025   -0.0142
          12    0.0102    0.0122    0.0128    0.0089   -0.0302   -0.0037    0.0005    0.0128
          13    0.0003   -0.0111   -0.0059   -0.0185   -0.0006   -0.0182   -0.0009   -0.0128
          14   -0.0075   -0.0045    0.0353   -0.0198   -0.0063    0.0017   -0.0114   -0.0086
          15    0.0003   -0.0061   -0.0005   -0.0072   -0.0052    0.0180   -0.0031   -0.0046
          16   -0.0129    0.0126   -0.0026   -0.0106    0.0024    0.0115   -0.0006    0.0028
          17   -0.0072   -0.0002   -0.0032   -0.0184   -0.0048    0.0194   -0.0093    0.0187
          18   -0.0131   -0.0118    0.0002    0.0345    0.0074   -0.0173    0.0098   -0.0114
          19    0.0037    0.0097   -0.0223   -0.0115    0.0014   -0.0198    0.0076   -0.0087
          20    0.0025    0.0599   -0.0078    0.0048   -0.0028    0.0114    0.0101   -0.0044
          21    0.0023   -0.0008   -0.0288   -0.0126    0.0031   -0.0142    0.0120    0.0215
          22    0.0225   -0.0160    0.0111    0.0045    0.0426   -0.0001   -0.0043    0.0375
          23   -0.0094    0.0026    0.0049   -0.0027    0.0076   -0.0163   -0.0026   -0.0103
          24    0.0213    0.0238    0.0256    0.0017    0.0280   -0.0154    0.0062   -0.0186
          25   -0.0052   -0.0003   -0.0044    0.0021   -0.0025    0.0053    0.0023   -0.0108
          26    0.0044   -0.0289   -0.0136    0.0190   -0.0083    0.0040    0.0070   -0.0094
          27   -0.0035    0.0033    0.0161   -0.0159   -0.0029    0.0146   -0.0176    0.0019
          28   -0.0121    0.0078   -0.0068   -0.0014    0.0011    0.0109    0.0063   -0.0035
          29    0.0028   -0.0210   -0.0157    0.0057   -0.0116    0.0227    0.0092   -0.0051
          30   -0.0095   -0.0008    0.0173    0.0043    0.0070   -0.0122   -0.0168    0.0029
          31   -0.0054    0.0051    0.0042    0.0037   -0.0009    0.0081   -0.0010   -0.0053
          32   -0.0233    0.0060   -0.0008    0.0086    0.0177   -0.0040    0.0059    0.0274
          33   -0.0102   -0.0052   -0.0162   -0.0123    0.0048    0.0002    0.0027   -0.0000
          34   -0.0043    0.0051    0.0166    0.0333   -0.0047    0.0132    0.0040    0.0022
          35    0.0836   -0.0010   -0.0025    0.0031    0.0023   -0.0001    0.0019    0.0053
          36    0.0030   -0.0062   -0.0234   -0.0297    0.0050   -0.0022   -0.0007   -0.0074
          37    0.0046   -0.0157   -0.0028   -0.0068   -0.0008    0.0164   -0.0071   -0.0273
          38   -0.0261   -0.0135   -0.0100    0.0048    0.0160   -0.0041   -0.0007    0.0007
          39    0.0073    0.0082    0.0084    0.0099   -0.0233    0.0083    0.0009    0.0124
          40    0.0103   -0.0095    0.0042    0.0034   -0.0062    0.0075   -0.0018   -0.0066
          41   -0.0001   -0.0227   -0.0051    0.0110   -0.0001   -0.0023   -0.0012    0.0005
          42    0.0064   -0.0185   -0.0241    0.0164   -0.0036    0.0259    0.0036   -0.0106
          43   -0.0043    0.0065    0.0107    0.0181   -0.0001    0.0072    0.0015   -0.0022
          44   -0.0234   -0.0122   -0.0046    0.0123    0.0139   -0.0225    0.0016   -0.0113
          45   -0.0114   -0.0103    0.0001    0.0318    0.0047   -0.0084    0.0090   -0.0045
          46   -0.0075   -0.0578    0.0282   -0.0424   -0.0028   -0.0290   -0.0148   -0.0164
          47   -0.0097   -0.0105    0.0492   -0.0288   -0.0080    0.0027   -0.0142   -0.0127
          48   -0.0052   -0.0147    0.0401   -0.0329   -0.0107    0.0239   -0.0097   -0.0177
          49    0.0043    0.0159   -0.0304   -0.0158    0.0040   -0.0303    0.0135   -0.0024
          50   -0.0159   -0.0385    0.0842   -0.0504   -0.0119    0.0019   -0.0247   -0.0212
          51    0.0033   -0.0031   -0.0168    0.0137   -0.0050    0.0277   -0.0050   -0.0036
          52    0.0098   -0.0034    0.0070    0.0023   -0.0383   -0.0208   -0.0061    0.0235
          53   -0.0206    0.0150    0.0032   -0.0040   -0.0518   -0.0319   -0.0029   -0.0235
          54    0.0118    0.0180    0.0154    0.0122   -0.0964   -0.0315   -0.0034    0.0424
          55    0.0093    0.0042    0.0096    0.0046   -0.1009   -0.0468   -0.0092    0.0440
          56    0.0000    0.0122    0.0149   -0.0089    0.0344   -0.0264   -0.0011   -0.0206
          57    0.0063    0.0060    0.0078    0.0099   -0.0149    0.0106    0.0013    0.0060
          58   -0.0189    0.0313    0.0098   -0.0376    0.0074    0.0125   -0.0222    0.0280
          59   -0.0093    0.0021   -0.0015   -0.0199   -0.0028    0.0167   -0.0114    0.0207
          60   -0.0209   -0.0234   -0.0057    0.0661    0.0148   -0.0418    0.0280   -0.0368
          61   -0.0134    0.0029   -0.0158    0.0060    0.0003    0.0129    0.0179   -0.0095
          62   -0.0045    0.0182    0.0057   -0.0563   -0.0072    0.0398   -0.0321    0.0502
          63   -0.0126   -0.0115   -0.0049    0.0316    0.0054   -0.0097    0.0135   -0.0086
          64    0.0025    0.0007   -0.0185   -0.0323    0.0021   -0.0393    0.0740    0.0131
          65    0.0005    0.0594    0.0376   -0.0302   -0.0161    0.0300    0.1840    0.0011
          66    0.0016   -0.0041   -0.0209   -0.0252    0.0015   -0.0186    0.0608    0.0304
          67   -0.0004   -0.0144   -0.0023   -0.0115   -0.0015   -0.0110   -0.0338   -0.0245
          68    0.0106    0.1026   -0.0695    0.0470    0.0094    0.0041   -0.1055   -0.0060
          69   -0.0003   -0.0122    0.0026   -0.0477   -0.0042   -0.0171    0.1498    0.0387
          70    0.0116    0.0595   -0.0595    0.0151    0.0053   -0.0105   -0.0109   -0.0111
          71    0.0045    0.0694   -0.0254    0.0172    0.0011    0.0081   -0.0305   -0.0053
          72    0.0072    0.0175   -0.0898    0.0300    0.0186   -0.0335   -0.1614    0.0192
          73    0.0234   -0.0181    0.0105    0.0047    0.0590    0.0079   -0.0036    0.0341
          74   -0.0020   -0.0059    0.0071    0.0008    0.0408   -0.0049   -0.0014   -0.0015
          75    0.0212    0.0153    0.0178   -0.0004    0.1287    0.0381    0.0107   -0.0533
          76    0.0252   -0.0268    0.0056    0.0043    0.1385    0.0492   -0.0005    0.0151
          77   -0.0201   -0.0027   -0.0061    0.0002   -0.0281   -0.0019   -0.0058   -0.0035
          78    0.0254    0.0327    0.0345    0.0003   -0.0081   -0.0513    0.0057   -0.0094
          79    0.0279   -0.0120    0.0205    0.0070   -0.0171   -0.0431   -0.0073    0.0724
          80   -0.0048    0.0134    0.0133   -0.0075    0.0144   -0.0372   -0.0000   -0.0267
          81    0.0261    0.0321    0.0341   -0.0006    0.0124   -0.0435    0.0068   -0.0173
          82   -0.0175    0.0112   -0.0120    0.0028    0.0034    0.0128    0.0142   -0.0010
          83    0.0094   -0.0294   -0.0256    0.0124   -0.0193    0.0374    0.0215   -0.0177
          84   -0.0126    0.0057    0.0313   -0.0057    0.0135   -0.0290   -0.0352    0.0143
          85   -0.0048   -0.0040   -0.0077    0.0096   -0.0022    0.0032    0.0062   -0.0143
          86    0.0123   -0.0443   -0.0219    0.0388   -0.0123   -0.0014    0.0165   -0.0237
          87   -0.0017    0.0144    0.0277   -0.0439   -0.0057    0.0223   -0.0314    0.0134
          88   -0.0062    0.0051   -0.0052   -0.0174    0.0018    0.0063   -0.0039   -0.0090
          89   -0.1186    0.0191    0.0009    0.0182    0.0403   -0.0056    0.0172    0.0692
          90   -0.0205   -0.0038   -0.0216   -0.0241    0.0088   -0.0012    0.0020    0.0018
          91   -0.0045    0.0053    0.0174    0.0353   -0.0048    0.0136    0.0045    0.0033
          92    0.0817    0.0059   -0.0019    0.0081    0.0112    0.0020    0.0096    0.0297
          93    0.0042   -0.0056   -0.0352   -0.0579    0.0094   -0.0070   -0.0050   -0.0132
          94   -0.0046    0.0051    0.0269    0.0584   -0.0078    0.0175    0.0084    0.0089
          95    0.1806   -0.0142   -0.0046   -0.0069   -0.0206    0.0014   -0.0095   -0.0398
          96    0.0134   -0.0077   -0.0182   -0.0175    0.0009    0.0002    0.0004   -0.0088


   Root No.       9        10        11        12        13        14        15        16

                 9 A      10 A      11 A      12 A      13 A      14 A      15 A      16 A   

                 232.7     252.0     280.2     340.2     368.6     420.7     437.2     456.7
  
           1   -0.0030   -0.0073    0.0098   -0.0012    0.0094   -0.0042    0.0060   -0.0119
           2   -0.0090   -0.0080   -0.0091   -0.0078   -0.0116    0.0044   -0.0109   -0.0093
           3   -0.0029    0.0027    0.0010    0.0018   -0.0015    0.0297    0.0020    0.0206
           4   -0.0021   -0.0074    0.0147    0.0015    0.0043    0.0049    0.0080   -0.0121
           5   -0.0009   -0.0050   -0.0021    0.0052    0.0183    0.0076   -0.0019   -0.0143
           6    0.0029   -0.0085    0.0140   -0.0154   -0.0068    0.0040    0.0039   -0.0081
           7    0.0008   -0.0053    0.0014   -0.0094    0.0199   -0.0219   -0.0087    0.0275
           8   -0.0068   -0.0076   -0.0110   -0.0095   -0.0109   -0.0022   -0.0292    0.0041
           9    0.0013    0.0022   -0.0148    0.0193   -0.0147    0.0121   -0.0060   -0.0057
          10   -0.0170    0.0082    0.0097   -0.0035   -0.0001   -0.0218   -0.0177   -0.0260
          11   -0.0159   -0.0037   -0.0030   -0.0146   -0.0084   -0.0061    0.0255   -0.0000
          12   -0.0139    0.0142    0.0048   -0.0016   -0.0032    0.0193    0.0093    0.0273
          13    0.0038    0.0065    0.0103    0.0218   -0.0218    0.0121   -0.0047    0.0112
          14    0.0186    0.0275   -0.0105    0.0004    0.0127    0.0049    0.0023    0.0015
          15    0.0069    0.0009    0.0104   -0.0129   -0.0159    0.0041    0.0010   -0.0018
          16    0.0035    0.0015   -0.0130   -0.0085    0.0055    0.0188   -0.0049   -0.0112
          17   -0.0064   -0.0123   -0.0163    0.0251   -0.0070   -0.0014   -0.0221    0.0075
          18    0.0002    0.0021   -0.0048   -0.0050   -0.0092    0.0010   -0.0178    0.0061
          19   -0.0012    0.0007    0.0104    0.0236   -0.0240    0.0130   -0.0058    0.0140
          20    0.0027    0.0015    0.0006   -0.0033    0.0023   -0.0000    0.0007   -0.0005
          21    0.0068    0.0168   -0.0243   -0.0165    0.0258   -0.0036    0.0060   -0.0071
          22    0.0000   -0.0058   -0.0034   -0.0179   -0.0146    0.0011    0.0089    0.0084
          23   -0.0152   -0.0058   -0.0060   -0.0193   -0.0128    0.0006    0.0402    0.0110
          24    0.0115    0.0032    0.0020    0.0127    0.0077   -0.0057   -0.0197   -0.0116
          25    0.0024    0.0004    0.0012   -0.0136    0.0121    0.0347    0.0097   -0.0250
          26    0.0023   -0.0065    0.0087    0.0140    0.0278    0.0087    0.0012    0.0016
          27   -0.0031   -0.0115    0.0113   -0.0144   -0.0188   -0.0197   -0.0030   -0.0173
          28    0.0082    0.0085   -0.0138   -0.0167   -0.0025    0.0200   -0.0074   -0.0149
          29    0.0126    0.0055    0.0009   -0.0006   -0.0087   -0.0210   -0.0113    0.0002
          30   -0.0155   -0.0236    0.0064    0.0091    0.0268    0.0121   -0.0047   -0.0004
          31    0.0016   -0.0046    0.0010   -0.0085    0.0226   -0.0276   -0.0106    0.0359
          32    0.0133    0.0088    0.0355    0.0029    0.0002    0.0000   -0.0108    0.0024
          33    0.0032    0.0005   -0.0083    0.0244   -0.0063   -0.0216    0.0267   -0.0101
          34    0.0031    0.0007   -0.0247    0.0264   -0.0015   -0.0303    0.0246    0.0012
          35    0.0039    0.0032    0.0102    0.0026   -0.0003    0.0029    0.0035   -0.0040
          36    0.0011   -0.0033    0.0029    0.0052    0.0080   -0.0231    0.0102    0.0107
          37    0.0052   -0.0166    0.0215   -0.0076    0.0169    0.0010    0.0188   -0.0355
          38   -0.0050   -0.0120   -0.0194   -0.0000   -0.0208   -0.0035   -0.0296   -0.0149
          39   -0.0079    0.0087    0.0021    0.0006   -0.0002    0.0315    0.0060    0.0324
          40    0.0017   -0.0101    0.0161   -0.0001    0.0122    0.0041    0.0220    0.0036
          41   -0.0012   -0.0103    0.0019    0.0069    0.0236    0.0096    0.0039   -0.0077
          42   -0.0036   -0.0200    0.0236   -0.0070    0.0047    0.0083    0.0043   -0.0089
          43    0.0036   -0.0022    0.0095   -0.0142    0.0247   -0.0224   -0.0248    0.0520
          44   -0.0088   -0.0097   -0.0167   -0.0177   -0.0185   -0.0131   -0.0329   -0.0102
          45    0.0013    0.0023   -0.0135    0.0111   -0.0164    0.0057   -0.0165   -0.0011
          46    0.0195    0.0340   -0.0003    0.0298   -0.0205    0.0205   -0.0060    0.0269
          47    0.0253    0.0382   -0.0121    0.0013    0.0087    0.0073    0.0026    0.0093
          48    0.0263    0.0319    0.0070   -0.0119   -0.0299    0.0097    0.0027    0.0205
          49   -0.0005    0.0070    0.0020    0.0254   -0.0205    0.0106   -0.0074    0.0176
          50    0.0409    0.0634   -0.0172    0.0052    0.0036    0.0137    0.0030    0.0248
          51   -0.0063   -0.0261    0.0221   -0.0191   -0.0099   -0.0005    0.0028   -0.0239
          52   -0.0201    0.0109    0.0118   -0.0033    0.0005   -0.0255   -0.0202   -0.0290
          53   -0.0275    0.0076    0.0108   -0.0071    0.0021   -0.0202    0.0174   -0.0180
          54   -0.0398    0.0354    0.0112   -0.0077   -0.0111   -0.0095   -0.0117    0.0108
          55   -0.0434    0.0309    0.0206   -0.0065   -0.0030   -0.0539   -0.0385   -0.0481
          56   -0.0041   -0.0110   -0.0084   -0.0120   -0.0091   -0.0141    0.0311   -0.0047
          57   -0.0076    0.0075    0.0025   -0.0015   -0.0018    0.0352    0.0152    0.0374
          58   -0.0161   -0.0206   -0.0280    0.0271    0.0232    0.0640   -0.0041   -0.0175
          59   -0.0093   -0.0148   -0.0181    0.0264   -0.0056    0.0049   -0.0237    0.0065
          60    0.0085    0.0187    0.0054   -0.0589   -0.0281   -0.0218   -0.0346    0.0097
          61    0.0192    0.0229   -0.0146   -0.0293   -0.0223    0.0053   -0.0089   -0.0204
          62   -0.0206   -0.0339   -0.0343    0.0854    0.0105    0.0396   -0.0082   -0.0021
          63    0.0052    0.0081   -0.0113    0.0020   -0.0206    0.0054   -0.0151   -0.0027
          64   -0.0075    0.0055   -0.0155    0.0194    0.0135    0.0062   -0.0005    0.0066
          65   -0.0254   -0.0376    0.0165   -0.0037   -0.0113    0.0023   -0.0025   -0.0012
          66    0.0006    0.0131   -0.0317   -0.0183    0.0381   -0.0060    0.0077   -0.0102
          67    0.0092    0.0085    0.0218    0.0279   -0.0423    0.0213   -0.0084    0.0196
          68    0.0126    0.0126   -0.0026   -0.0046    0.0023   -0.0050    0.0012    0.0004
          69   -0.0117    0.0000   -0.0334   -0.0199    0.0448   -0.0077    0.0083   -0.0135
          70   -0.0088   -0.0161    0.0239    0.0232   -0.0426    0.0113   -0.0088    0.0169
          71    0.0073    0.0074   -0.0014   -0.0034    0.0033   -0.0012    0.0010   -0.0001
          72    0.0314    0.0515   -0.0407   -0.0175    0.0409   -0.0085    0.0093   -0.0075
          73   -0.0118    0.0022   -0.0022   -0.0158   -0.0127    0.0019    0.0090    0.0094
          74   -0.0019   -0.0145   -0.0121   -0.0231   -0.0144    0.0212    0.0600    0.0376
          75   -0.0969    0.0755    0.0171    0.0335    0.0240   -0.0202   -0.0419   -0.0324
          76   -0.0849    0.0506    0.0058   -0.0048   -0.0043    0.0002    0.0032    0.0077
          77   -0.0647    0.0237    0.0035   -0.0203   -0.0127    0.0081    0.0525    0.0261
          78    0.0864   -0.0447   -0.0082    0.0058    0.0018   -0.0095   -0.0235   -0.0197
          79    0.1088   -0.0790   -0.0224   -0.0417   -0.0344    0.0222    0.0388    0.0392
          80    0.0182   -0.0240   -0.0085   -0.0107   -0.0062   -0.0233    0.0105   -0.0277
          81    0.0701   -0.0334   -0.0061    0.0103    0.0052   -0.0142   -0.0295   -0.0267
          82    0.0131    0.0178   -0.0278   -0.0171   -0.0224    0.0128   -0.0239   -0.0014
          83    0.0283    0.0217    0.0079   -0.0205   -0.0331   -0.0373   -0.0071   -0.0043
          84   -0.0354   -0.0472    0.0089    0.0304    0.0657    0.0345    0.0022   -0.0055
          85    0.0037    0.0017    0.0018   -0.0117    0.0191    0.0441    0.0112   -0.0197
          86    0.0028   -0.0080    0.0229    0.0242    0.0470    0.0263    0.0142    0.0163
          87   -0.0092   -0.0191    0.0144   -0.0184   -0.0450   -0.0586   -0.0054   -0.0360
          88    0.0014   -0.0074    0.0112   -0.0211    0.0345   -0.0395   -0.0146    0.0503
          89    0.0435    0.0314    0.1164    0.0284    0.0123   -0.0056    0.0371   -0.0158
          90    0.0061    0.0011    0.0068    0.0188    0.0026   -0.0292    0.0284   -0.0023
          91    0.0036    0.0014   -0.0257    0.0301   -0.0033   -0.0313    0.0297   -0.0028
          92    0.0261    0.0217    0.0709    0.0311    0.0131   -0.0046    0.0778   -0.0319
          93    0.0018   -0.0070    0.0378   -0.0327    0.0390   -0.0202   -0.0287    0.0568
          94    0.0044    0.0053   -0.0500    0.0621   -0.0264   -0.0368    0.0659   -0.0389
          95   -0.0270   -0.0203   -0.0738   -0.0265   -0.0136    0.0132   -0.0547    0.0170
          96   -0.0015   -0.0034   -0.0193    0.0205   -0.0064   -0.0253    0.0251   -0.0075


   Root No.      17        18        19        20        21        22        23        24

                17 A      18 A      19 A      20 A      21 A      22 A      23 A      24 A   

                 526.7     569.3     599.5     669.3     754.5     778.8     819.4     836.8
  
           1   -0.0126    0.0322   -0.0185   -0.0051    0.0140    0.0121   -0.0099   -0.0036
           2    0.0005    0.0038   -0.0218    0.0307   -0.0082    0.0029   -0.0013    0.0112
           3   -0.0213    0.0085   -0.0272    0.0138    0.0022    0.0056   -0.0048    0.0047
           4   -0.0136    0.0243   -0.0213   -0.0115    0.0078    0.0033    0.0114   -0.0150
           5   -0.0244   -0.0301    0.0065    0.0067   -0.0250   -0.0186   -0.0073    0.0150
           6    0.0210    0.0015   -0.0029    0.0004   -0.0017   -0.0001    0.0053   -0.0033
           7    0.0003    0.0024    0.0039    0.0036   -0.0010    0.0015    0.0005   -0.0022
           8    0.0079   -0.0028   -0.0281    0.0294   -0.0009    0.0102    0.0069   -0.0067
           9   -0.0081    0.0274    0.0216   -0.0213   -0.0003   -0.0206   -0.0012    0.0047
          10    0.0131    0.0106   -0.0012    0.0003    0.0060    0.0071   -0.0238    0.0175
          11    0.0048    0.0073    0.0081   -0.0062    0.0027    0.0010   -0.0048    0.0034
          12   -0.0131   -0.0114   -0.0076    0.0044   -0.0003    0.0054   -0.0033    0.0002
          13   -0.0005   -0.0085    0.0026    0.0016   -0.0046   -0.0025   -0.0055   -0.0051
          14   -0.0037    0.0020   -0.0031   -0.0014   -0.0121   -0.0034   -0.0138   -0.0175
          15    0.0427   -0.0050    0.0055    0.0084   -0.0007   -0.0176   -0.0176   -0.0013
          16    0.0007   -0.0186    0.0206   -0.0012    0.0128    0.0125   -0.0043   -0.0039
          17   -0.0007    0.0221    0.0029    0.0077    0.0122   -0.0032    0.0035   -0.0158
          18   -0.0031    0.0215    0.0176   -0.0074   -0.0046   -0.0025    0.0018   -0.0013
          19   -0.0048   -0.0118    0.0039    0.0024   -0.0040    0.0012    0.0007   -0.0003
          20    0.0059    0.0024   -0.0008    0.0001    0.0003   -0.0007   -0.0037   -0.0053
          21    0.0021    0.0084   -0.0036   -0.0005    0.0011   -0.0037   -0.0058   -0.0011
          22    0.0067   -0.0009    0.0020    0.0004    0.0006    0.0010   -0.0018    0.0024
          23    0.0016    0.0066    0.0144   -0.0135    0.0030   -0.0032   -0.0014    0.0003
          24   -0.0007   -0.0020   -0.0035    0.0034   -0.0011    0.0005   -0.0009    0.0003
          25    0.0009   -0.0020   -0.0196    0.0058   -0.0186   -0.0262    0.0179    0.0082
          26    0.0091   -0.0115    0.0066   -0.0019    0.0131   -0.0059    0.0048    0.0028
          27   -0.0309   -0.0099    0.0052   -0.0078   -0.0203    0.0161    0.0114    0.0035
          28   -0.0049   -0.0153    0.0246   -0.0013    0.0104    0.0090   -0.0025   -0.0012
          29   -0.0177   -0.0139    0.0267   -0.0090    0.0203    0.0099   -0.0006   -0.0006
          30    0.0053   -0.0187    0.0251   -0.0049    0.0063    0.0373    0.0009   -0.0022
          31    0.0004    0.0042    0.0065    0.0024   -0.0122   -0.0156   -0.0003    0.0069
          32    0.0052   -0.0106   -0.0293   -0.0403    0.0016   -0.0013   -0.0012    0.0005
          33    0.0069   -0.0141   -0.0189   -0.0010    0.0021    0.0054    0.0003   -0.0015
          34    0.0063   -0.0107   -0.0096    0.0057   -0.0067   -0.0073   -0.0002    0.0057
          35   -0.0018    0.0036    0.0029    0.0011    0.0009    0.0005   -0.0004   -0.0003
          36    0.0035   -0.0050   -0.0075    0.0040   -0.0036   -0.0011    0.0007    0.0007
          37   -0.0107    0.0334   -0.0231   -0.0192    0.0102    0.0064   -0.0035   -0.0159
          38    0.0101    0.0223   -0.0155    0.0351   -0.0115   -0.0101    0.0120    0.0098
          39   -0.0265   -0.0026   -0.0285    0.0167    0.0051    0.0144   -0.0128    0.0090
          40   -0.0142    0.0286   -0.0109   -0.0307    0.0236    0.0096    0.0206   -0.0381
          41   -0.0143   -0.0323    0.0135    0.0005   -0.0115   -0.0217    0.0011    0.0094
          42    0.0465   -0.0097    0.0073    0.0010    0.0222   -0.0149    0.0139    0.0031
          43   -0.0028    0.0107    0.0106   -0.0163   -0.0142   -0.0199    0.0042    0.0053
          44    0.0132    0.0119   -0.0171    0.0413   -0.0082    0.0064    0.0129   -0.0084
          45   -0.0067    0.0392    0.0303   -0.0237   -0.0096   -0.0317    0.0041    0.0062
          46    0.0073   -0.0111    0.0048    0.0065    0.0275    0.0089    0.0550    0.0739
          47    0.0114    0.0093   -0.0044   -0.0003    0.0111    0.0045    0.0103    0.0047
          48    0.0897    0.0223   -0.0000    0.0099    0.0690    0.0080    0.0465    0.0476
          49   -0.0074   -0.0154    0.0088    0.0036   -0.0179   -0.0047   -0.0383   -0.0353
          50    0.0347    0.0207   -0.0066    0.0017    0.0561    0.0226    0.0700    0.0636
          51    0.0194   -0.0132    0.0025    0.0046   -0.0395   -0.0345   -0.0500   -0.0344
          52    0.0168    0.0081    0.0026   -0.0014    0.0035    0.0022   -0.0108    0.0076
[...]
 TRANSITION DIPOLE   0.0351         C  6 -- H 20         +34.3% ( 60.7%)     94.4%
 TRAVEL (Ang.)       0.2044         C  6 -- C 10          +1.1% ( 10.9%)      0.2%
 REDUCED MASS        0.5492         C  3 -- C  6          +1.1% ( 10.8%)      0.4%
 EFFECTIVE MASS      1.5303
 FORCE CONSTANT      2.7967

 VIBRATION         75   75A           ATOM PAIR      ENERGY CONTRIBUTION    RADIAL
 FREQUENCY          2946.20         C  5 -- H 17         +55.5% ( 77.4%)     97.2%
 TRANSITION DIPOLE   0.0131         C  5 -- H 16         +41.5% ( 66.9%)     95.5%
 TRAVEL (Ang.)       0.2094         C  5 -- C  7          +1.2% ( 11.3%)      0.0%
 REDUCED MASS        0.5217         C  2 -- C  5          +1.1% ( 11.1%)      0.1%
 EFFECTIVE MASS      1.5437
 FORCE CONSTANT      2.6682

 VIBRATION         76   76A           ATOM PAIR      ENERGY CONTRIBUTION    RADIAL
 FREQUENCY          2950.77         C  4 -- H 19         +49.1% ( 72.8%)     96.6%
 TRANSITION DIPOLE   0.0484         C  4 -- H 18         +47.2% ( 71.4%)     96.4%
 TRAVEL (Ang.)       0.2127         C  4 -- C  8          +1.2% ( 11.3%)      0.0%
 REDUCED MASS        0.5053         C  1 -- C  4          +1.1% ( 11.1%)      0.0%
 EFFECTIVE MASS      1.5459
 FORCE CONSTANT      2.5923

 VIBRATION         77   77A           ATOM PAIR      ENERGY CONTRIBUTION    RADIAL
 FREQUENCY          3022.18         C  6 -- H 20         +62.3% ( 78.0%)     99.0%
 TRANSITION DIPOLE   0.0674         C  6 -- H 21         +32.2% ( 56.0%)     95.0%
 TRAVEL (Ang.)       0.2146         C 10 -- H 28          +2.0% ( 14.0%)    100.0%
 REDUCED MASS        0.4847         C  4 -- H 18          +1.0% (  9.9%)     98.3%
 EFFECTIVE MASS      1.2890
 FORCE CONSTANT      2.6083

 VIBRATION         78   78A           ATOM PAIR      ENERGY CONTRIBUTION    RADIAL
 FREQUENCY          3025.94         C  5 -- H 16         +56.8% ( 74.3%)     98.5%
 TRANSITION DIPOLE   0.0296         C  5 -- H 17         +41.2% ( 63.3%)     96.7%
 TRAVEL (Ang.)       0.2138         C  5 -- C  7          +0.6% (  7.8%)     25.2%
 REDUCED MASS        0.4874         C  2 -- C  5          +0.6% (  7.6%)     28.7%
 EFFECTIVE MASS      1.2749
 FORCE CONSTANT      2.6295

 VIBRATION         79   79A           ATOM PAIR      ENERGY CONTRIBUTION    RADIAL
 FREQUENCY          3027.81         C  4 -- H 18         +45.6% ( 66.7%)     97.7%
 TRANSITION DIPOLE   0.0847         C  4 -- H 19         +45.3% ( 66.5%)     97.6%
 TRAVEL (Ang.)       0.2315         C 11 -- H 30          +4.1% ( 19.9%)    100.0%
 REDUCED MASS        0.4156         C  6 -- H 20          +1.1% ( 10.5%)     98.5%
 EFFECTIVE MASS      1.2861
 FORCE CONSTANT      2.2451

 VIBRATION         80   80A           ATOM PAIR      ENERGY CONTRIBUTION    RADIAL
 FREQUENCY          3035.02         C 11 -- H 30         +92.2% ( 97.3%)    100.0%
 TRANSITION DIPOLE   0.2254         C  4 -- H 18          +2.2% ( 15.1%)     98.5%
 TRAVEL (Ang.)       0.1633         C  4 -- H 19          +1.6% ( 12.6%)     96.4%
 REDUCED MASS        0.8336         C 11 -- C 12          +1.4% ( 11.8%)     30.9%
 EFFECTIVE MASS      1.4930
 FORCE CONSTANT      4.5242

 VIBRATION         81   81A           ATOM PAIR      ENERGY CONTRIBUTION    RADIAL
 FREQUENCY          3036.26         C  9 -- H 29         +72.3% ( 86.3%)    100.0%
 TRANSITION DIPOLE   0.2802         C 10 -- H 28         +24.2% ( 49.9%)     99.9%
 TRAVEL (Ang.)       0.1977         C  9 -- C 10          +1.1% ( 10.8%)      4.1%
 REDUCED MASS        0.5684         C  2 -- C  9          +1.0% ( 10.1%)     16.6%
 EFFECTIVE MASS      1.4621
 FORCE CONSTANT      3.0871

 VIBRATION         82   82A           ATOM PAIR      ENERGY CONTRIBUTION    RADIAL
 FREQUENCY          3044.82         C  8 -- H 25         +80.0% ( 91.9%)     99.4%
 TRANSITION DIPOLE   0.0209         C  8 -- H 26         +12.0% ( 35.6%)     81.8%
 TRAVEL (Ang.)       0.1809         C  8 -- H 27          +5.3% ( 23.6%)     62.2%
 REDUCED MASS        0.6770         C  4 -- H 18          +1.4% ( 12.0%)     99.6%
 EFFECTIVE MASS      1.4786
 FORCE CONSTANT      3.6981

 VIBRATION         83   83A           ATOM PAIR      ENERGY CONTRIBUTION    RADIAL
 FREQUENCY          3059.33         C 10 -- H 28         +70.8% ( 85.4%)     99.9%
 TRANSITION DIPOLE   0.2775         C  9 -- H 29         +24.1% ( 49.8%)     99.8%
 TRAVEL (Ang.)       0.1987         C  9 -- C 10          +1.9% ( 14.1%)     89.8%
 REDUCED MASS        0.5585         C  6 -- C 10          +1.1% ( 10.7%)     18.1%
 EFFECTIVE MASS      1.5753
 FORCE CONSTANT      3.0797

 VIBRATION         84   84A           ATOM PAIR      ENERGY CONTRIBUTION    RADIAL
 FREQUENCY          3075.38         C  7 -- H 23         +54.9% ( 76.4%)     97.8%
 TRANSITION DIPOLE   0.0147         C  7 -- H 24         +41.9% ( 66.8%)     95.9%
 TRAVEL (Ang.)       0.2086         C  7 -- H 22          +1.6% ( 13.0%)     15.8%
 REDUCED MASS        0.5038         C  5 -- C  7          +1.0% ( 10.2%)      0.0%
 EFFECTIVE MASS      1.5011
 FORCE CONSTANT      2.8073

 VIBRATION         85   85A           ATOM PAIR      ENERGY CONTRIBUTION    RADIAL
 FREQUENCY          3082.11         C  7 -- H 22         +60.4% ( 80.1%)     98.6%
 TRANSITION DIPOLE   0.0015         C  7 -- H 24         +25.4% ( 51.9%)     90.4%
 TRAVEL (Ang.)       0.2150         C  7 -- H 23         +12.8% ( 36.8%)     78.9%
 REDUCED MASS        0.4732         C  5 -- C  7          +1.0% ( 10.3%)      0.0%
 EFFECTIVE MASS      1.5026
 FORCE CONSTANT      2.6482

 VIBRATION         86   86A           ATOM PAIR      ENERGY CONTRIBUTION    RADIAL
 FREQUENCY          3086.05         C  8 -- H 26         +48.9% ( 72.1%)     96.8%
 TRANSITION DIPOLE   0.0032         C  8 -- H 27         +48.0% ( 71.4%)     97.2%
 TRAVEL (Ang.)       0.2093         C  8 -- H 25          +1.8% ( 13.7%)     17.2%
 REDUCED MASS        0.4987         C  4 -- C  8          +1.0% ( 10.4%)      0.0%
 EFFECTIVE MASS      1.5059
 FORCE CONSTANT      2.7984

 VIBRATION         87   87A           ATOM PAIR      ENERGY CONTRIBUTION    RADIAL
 FREQUENCY          3134.15         C 12 -- H 32         +92.4% ( 97.8%)     99.9%
 TRANSITION DIPOLE   0.1887         C 12 -- H 31          +6.3% ( 25.5%)     69.6%
 TRAVEL (Ang.)       0.1580         C 11 -- C 12          +1.3% ( 11.7%)     23.1%
 REDUCED MASS        0.8614
 EFFECTIVE MASS      1.5360
 FORCE CONSTANT      4.9855

 VIBRATION         88   88A           ATOM PAIR      ENERGY CONTRIBUTION    RADIAL
 FREQUENCY          3146.83         C 12 -- H 31         +92.4% ( 96.8%)     99.7%
 TRANSITION DIPOLE   0.2556         C 12 -- H 32          +5.3% ( 23.2%)     37.4%
 TRAVEL (Ang.)       0.1608         C 11 -- C 12          +1.6% ( 12.7%)     71.6%
 REDUCED MASS        0.8288         C 11 -- H 30          +0.7% (  8.4%)     94.3%
 EFFECTIVE MASS      1.4669
 FORCE CONSTANT      4.8355

 VIBRATION         89   89A           ATOM PAIR      ENERGY CONTRIBUTION    RADIAL
 FREQUENCY          3168.81         C  8 -- H 27         +46.9% ( 66.2%)     98.4%
 TRANSITION DIPOLE   0.0215         C  8 -- H 26         +38.7% ( 60.1%)     97.4%
 TRAVEL (Ang.)       0.2379         C  8 -- H 25         +14.0% ( 36.2%)     89.5%
 REDUCED MASS        0.3760         C  4 -- C  8          +0.3% (  5.5%)     84.2%
 EFFECTIVE MASS      1.1544
 FORCE CONSTANT      2.2243

 VIBRATION         90   90A           ATOM PAIR      ENERGY CONTRIBUTION    RADIAL
 FREQUENCY          3179.28         C  7 -- H 22         +37.4% ( 58.9%)     97.7%
 TRANSITION DIPOLE   0.0153         C  7 -- H 24         +31.5% ( 54.0%)     96.8%
 TRAVEL (Ang.)       0.2539         C  7 -- H 23         +30.8% ( 53.4%)     96.7%
 REDUCED MASS        0.3291         C  5 -- C  7          +0.3% (  5.1%)     99.3%
 EFFECTIVE MASS      1.1372
 FORCE CONSTANT      1.9598

      SYMMETRY NUMBER FOR POINT-GROUP C1  =  1


          SYSTEM IS A GROUND STATE



 InChI=1S/C12H20/c1-4-10-8-7-9-11(5-2)12(10)6-3/h4,7,9-12H,1,5-6,8H2,2-3H3


          MOLECULE IS NOT LINEAR

          THERE ARE 90 GENUINE VIBRATIONS IN THIS SYSTEM
          THIS THERMODYNAMICS CALCULATION IS LIMITED TO
          MOLECULES WHICH HAVE NO INTERNAL ROTATIONS




                    CALCULATED THERMODYNAMIC PROPERTIES
                                          *
   TEMP. (K)   PARTITION FUNCTION   H.O.F.    ENTHALPY  HEAT CAPACITY ENTROPY
                                   KCAL/MOL   CAL/MOLE    CAL/K/MOL  CAL/K/MOL


 298.00  VIB.     0.2650D+05                  6577.8770    45.0664    42.3128
         ROT.     0.1295D+07                   888.2803     2.9808    30.9487
         INT.     0.3431D+11                  7466.1573    48.0472    73.2614
         TRA.     0.2036D+28                  1480.4672     4.9680    41.1956
         TOT.                       -3.463    8946.6244    53.0152   114.4571

 200.00  VIB.     0.6912D+03                  2969.6470    29.1110    27.8413
         ROT.     0.7120D+06                   596.1613     2.9808    29.7600
         INT.     0.4921D+09                  3565.8082    32.0918    57.6013
         TRA.     0.1119D+28                   993.6021     4.9680    39.2145
         TOT.                       -7.850    4559.4104    37.0598    96.8158

 210.00  VIB.     0.1004D+04                  3268.0469    30.5757    29.2969
         ROT.     0.7661D+06                   625.9693     2.9808    29.9054
         INT.     0.7690D+09                  3894.0163    33.5565    59.2024
         TRA.     0.1204D+28                  1043.2822     4.9680    39.4569
         TOT.                       -7.472    4937.2985    38.5245    98.6593

 220.00  VIB.     0.1457D+04                  3581.2995    32.0817    30.7539
         ROT.     0.8214D+06                   655.7774     2.9808    30.0441
         INT.     0.1197D+10                  4237.0769    35.0626    60.7980
         TRA.     0.1291D+28                  1092.9623     4.9680    39.6880
         TOT.                       -7.080    5330.0392    40.0306   100.4860

 230.00  VIB.     0.2114D+04                  3909.8210    33.6294    32.2140
         ROT.     0.8781D+06                   685.5855     2.9808    30.1766
         INT.     0.1856D+10                  4595.4064    36.6103    62.3906
         TRA.     0.1380D+28                  1142.6424     4.9680    39.9088
         TOT.                       -6.672    5738.0489    41.5783   102.2994

 240.00  VIB.     0.3066D+04                  4254.0239    35.2177    33.6786
         ROT.     0.9359D+06                   715.3935     2.9808    30.3035
         INT.     0.2870D+10                  4969.4174    38.1986    63.9821
         TRA.     0.1471D+28                  1192.3226     4.9680    40.1203
         TOT.                       -6.248    6161.7399    43.1666   104.1024

 250.00  VIB.     0.4446D+04                  4614.3037    36.8444    35.1492
         ROT.     0.9950D+06                   745.2016     2.9808    30.4252
         INT.     0.4424D+10                  5359.5053    39.8252    65.5743
         TRA.     0.1564D+28                  1242.0027     4.9680    40.3231
         TOT.                       -5.808    6601.5080    44.7932   105.8974

 260.00  VIB.     0.6446D+04                  4991.0284    38.5061    36.6265
         ROT.     0.1055D+07                   775.0097     2.9808    30.5421
         INT.     0.6803D+10                  5766.0381    41.4869    67.1686
         TRA.     0.1659D+28                  1291.6828     4.9680    40.5179
         TOT.                       -5.352    7057.7209    46.4549   107.6865

 270.00  VIB.     0.9347D+04                  5384.5298    40.1990    38.1114
         ROT.     0.1117D+07                   804.8177     2.9808    30.6546
         INT.     0.1044D+11                  6189.3475    43.1798    68.7659
         TRA.     0.1756D+28                  1341.3629     4.9680    40.7054
         TOT.                       -4.879    7530.7104    48.1478   109.4714

 280.00  VIB.     0.1356D+05                  5795.0977    41.9187    39.6043
         ROT.     0.1179D+07                   834.6258     2.9808    30.7630
         INT.     0.1599D+11                  6629.7235    44.8995    70.3673
         TRA.     0.1854D+28                  1391.0430     4.9680    40.8861
         TOT.                       -4.389    8020.7664    49.8675   111.2534

 290.00  VIB.     0.1967D+05                  6222.9764    43.6604    41.1056
         ROT.     0.1243D+07                   864.4339     2.9808    30.8676
         INT.     0.2445D+11                  7087.4103    46.6412    71.9732
         TRA.     0.1954D+28                  1440.7231     4.9680    41.0604
         TOT.                       -3.882    8528.1334    51.6092   113.0336

 300.00  VIB.     0.2855D+05                  6668.3626    45.4193    42.6154
         ROT.     0.1308D+07                   894.2419     2.9808    30.9686
         INT.     0.3734D+11                  7562.6045    48.4001    73.5840
         TRA.     0.2056D+28                  1490.4032     4.9680    41.2289
         TOT.                       -3.357    9053.0077    53.3682   114.8129

 310.00  VIB.     0.4146D+05                  7131.4047    47.1908    44.1335
         ROT.     0.1374D+07                   924.0500     2.9808    31.0664
         INT.     0.5697D+11                  8055.4547    50.1716    75.1999
         TRA.     0.2160D+28                  1540.0833     4.9680    41.3918
         TOT.                       -2.814    9595.5380    55.1396   116.5917

 320.00  VIB.     0.6025D+05                  7612.2038    48.9700    45.6599
         ROT.     0.1441D+07                   953.8580     2.9808    31.1610
         INT.     0.8682D+11                  8566.0618    51.9508    76.8209
         TRA.     0.2265D+28                  1589.7634     4.9680    41.5495
         TOT.                       -2.254   10155.8253    56.9188   118.3704

 330.00  VIB.     0.8762D+05                  8110.8153    50.7525    47.1940
         ROT.     0.1509D+07                   983.6661     2.9808    31.2527
         INT.     0.1322D+12                  9094.4814    53.7333    78.4468
         TRA.     0.2372D+28                  1639.4435     4.9680    41.7024
         TOT.                       -1.676   10733.9249    58.7013   120.1491

 340.00  VIB.     0.1275D+06                  8627.2514    52.5342    48.7356
         ROT.     0.1578D+07                  1013.4742     2.9808    31.3417
         INT.     0.2012D+12                  9640.7255    55.5150    80.0773
         TRA.     0.2481D+28                  1689.1236     4.9680    41.8507
         TOT.                       -1.080   11329.8492    60.4830   121.9280

 350.00  VIB.     0.1857D+06                  9161.4840    54.3112    50.2841
         ROT.     0.1648D+07                  1043.2822     2.9808    31.4281
         INT.     0.3061D+12                 10204.7662    57.2920    81.7122
         TRA.     0.2591D+28                  1738.8037     4.9680    41.9947
         TOT.                       -0.466   11943.5699    62.2600   123.7069

 360.00  VIB.     0.2706D+06                  9713.4481    56.0800    51.8389
         ROT.     0.1719D+07                  1073.0903     2.9808    31.5121
         INT.     0.4654D+12                 10786.5384    59.0608    83.3510
         TRA.     0.2703D+28                  1788.4838     4.9680    42.1347
         TOT.                        0.165   12575.0222    64.0288   125.4856

 370.00  VIB.     0.3948D+06                 10283.0452    57.8373    53.3994
         ROT.     0.1792D+07                  1102.8984     2.9808    31.5938
         INT.     0.7073D+12                 11385.9436    60.8181    84.9932
         TRA.     0.2817D+28                  1838.1639     4.9680    42.2708
         TOT.                        0.814   13224.1075    65.7861   127.2640

 380.00  VIB.     0.5764D+06                 10870.1469    59.5804    54.9650
         ROT.     0.1865D+07                  1132.7064     2.9808    31.6733
         INT.     0.1075D+13                 12002.8533    62.5612    86.6383
         TRA.     0.2932D+28                  1887.8440     4.9680    42.4033
         TOT.                        1.481   13890.6973    67.5292   129.0415

 390.00  VIB.     0.8422D+06                 11474.5982    61.3069    56.5350
         ROT.     0.1939D+07                  1162.5145     2.9808    31.7507
         INT.     0.1633D+13                 12637.1126    64.2877    88.2857
         TRA.     0.3048D+28                  1937.5242     4.9680    42.5323
         TOT.                        2.165   14574.6368    69.2557   130.8180

 400.00  VIB.     0.1232D+07                 12096.2212    63.0145    58.1087
         ROT.     0.2014D+07                  1192.3226     2.9808    31.8261
         INT.     0.2480D+13                 13288.5437    65.9953    89.9349
         TRA.     0.3166D+28                  1987.2043     4.9680    42.6581
         TOT.                        2.866   15275.7480    70.9633   132.5930

   *: NOTE: HEATS OF FORMATION ARE RELATIVE TO THE
            ELEMENTS IN THEIR STANDARD STATE AT 298K
              (=  Standard Enthalpy of Formation).

            Hvib:  Zero-point energy is not included.
                   frequencies of less than zero cm-1 are not included.
            Hrot = (3/2)RT
            Htra = (3/2)RT + pV = (5/2)RT

            Heat capacity is Cp, not Cv

          For more information, see: HTTP://OpenMOPAC.net/Manual/thermochemistry.html


           FORCE CONSTANT IN CARTESIAN COORDINATES (Millidynes/A)

    ATOM   CHEMICAL       X               Y               Z
   NUMBER   SYMBOL  FORCE CONSTANT  FORCE CONSTANT  FORCE CONSTANT

      1       C        7.787357        8.140532        8.309691
      2       C        8.103807        8.627524        8.153144
      3       C        9.303628        7.546988        8.362066
      4       C        8.431972        8.301619        8.004338
      5       C        8.447509        8.255351        7.938713
      6       C        9.056152        8.404596        7.972974
      7       C        8.272548        8.193556        8.380481
      8       C        8.102048        8.342845        8.370773
      9       C       10.883491       10.075951        6.266721
     10       C       10.684876       10.258163        6.295198
     11       C       10.501696        2.753128       13.828312
     12       C       10.677026        2.137247       13.651626
     13       H        1.095284        1.454631        3.391998
     14       H        1.202637        3.676154        1.101836
     15       H        1.306648        1.477090        3.159708
     16       H        0.731409        4.692729        0.970664
     17       H        2.013452        1.843728        2.456277
     18       H        4.904348        0.793898        0.709288
     19       H        1.328334        1.245073        3.809675
     20       H        0.794815        4.760374        0.785806
     21       H        1.695118        1.059468        3.503782
     22       H        1.188611        0.769202        4.832292
     23       H        2.347013        1.946797        2.462392
     24       H        0.762476        5.107215        0.904602
     25       H        5.103355        0.899800        0.754525
     26       H        1.677344        1.452667        3.645692
     27       H        1.030008        1.909971        3.849309
     28       H        1.585981        2.444552        2.206863
     29       H        4.862505        0.662320        0.681748
     30       H        1.909564        0.394341        3.901371
     31       H        5.420777        0.343469        0.707224
     32       H        1.754901        0.386082        4.313465

 **********************
 *                    *
 * JOB ENDED NORMALLY *
 *                    *
 **********************



 TOTAL JOB TIME:             7.99 SECONDS

 == MOPAC DONE ==
