 *******************************************************************************
 **                                                                           **
 **                              MOPAC v23.1.2                                **
 **                                                                           **
 *******************************************************************************
 **          Digital Object Identifier (DOI): 10.5281/zenodo.6511958          **
 **    Visit the DOI location for information on how to cite this program.    **
 *******************************************************************************

                              PM3 CALCULATION RESULTS

 *******************************************************************************
 *  CALCULATION DONE: (MAX THREADS = 1)              Tue Jun  3 16:28:56 2025  *
 *  PM3        - The PM3 Hamiltonian to be used
 *  PRECISE    - TIGHTER CRITERIA TO BE USED
 *  BFGS       - USE THE BFGS GEOMETRY OPTIMIZER
 *  NOSYM      - POINT-GROUP SYMMETRY SET TO C1
 *  THREADS=1  - MULTI-THREADING NOT USED
 *  T=         - A TIME OF 172800.0 SECONDS REQUESTED
 *  DUMP=N     - RESTART FILE WRITTEN EVERY 7200.0 SECONDS REQUESTED
 *  GNORM      - EXIT WHEN GRADIENT NORM DROPS BELOW 0.000
 *******************************************************************************
pm3  precise nosym gnorm=0.0 bfgs THREADS=1
 InChI=1S/C6H10/c1-6-4-2-3-5-6/h4H,2-3,5H2,1H3

   ATOM   CHEMICAL          X               Y               Z
  NUMBER   SYMBOL      (ANGSTROMS)     (ANGSTROMS)     (ANGSTROMS)

     1       C         -1.52230000  *   0.69360000  *   0.22230000  *
     2       C         -0.05260000  *   1.08420000  *   0.40970000  *
     3       C         -1.52260000  *  -0.73970000  *  -0.32120000  *
     4       C          2.20160000  *  -0.21240000  *  -0.02170000  *
     5       C          0.70630000  *  -0.11860000  *  -0.02610000  *
     6       C         -0.08560000  *  -1.10270000  *  -0.42050000  *
     7       H         -2.06230000  *   0.73970000  *   1.19340000  *
     8       H         -2.01710000  *   1.38120000  *  -0.49820000  *
     9       H          0.21220000  *   1.95510000  *  -0.22780000  *
    10       H          0.16660000  *   1.30910000  *   1.47590000  *
    11       H         -1.99550000  *  -0.78550000  *  -1.32570000  *
    12       H         -2.04110000  *  -1.43130000  *   0.37700000  *
    13       H          2.64580000  *   0.73510000  *   0.34950000  *
    14       H          2.52370000  *  -1.04300000  *   0.64090000  *
    15       H          2.56900000  *  -0.40090000  *  -1.05230000  *
    16       H          0.27400000  *  -2.06370000  *  -0.77530000  *



          CARTESIAN COORDINATES 

    NO.       ATOM           X           Y           Z

     1         C         -1.5223      0.6936      0.2223
     2         C         -0.0526      1.0842      0.4097
     3         C         -1.5226     -0.7397     -0.3212
     4         C          2.2016     -0.2124     -0.0217
     5         C          0.7063     -0.1186     -0.0261
     6         C         -0.0856     -1.1027     -0.4205
     7         H         -2.0623      0.7397      1.1934
     8         H         -2.0171      1.3812     -0.4982
     9         H          0.2122      1.9551     -0.2278
    10         H          0.1666      1.3091      1.4759
    11         H         -1.9955     -0.7855     -1.3257
    12         H         -2.0411     -1.4313      0.3770
    13         H          2.6458      0.7351      0.3495
    14         H          2.5237     -1.0430      0.6409
    15         H          2.5690     -0.4009     -1.0523
    16         H          0.2740     -2.0637     -0.7753

  H: (PM3): J. J. P. STEWART, J. COMP. CHEM. 10, 209 (1989).
  C: (PM3): J. J. P. STEWART, J. COMP. CHEM. 10, 209 (1989).

           Empirical Formula: C6 H10  =    16 atoms



      MOLECULAR POINT GROUP   :   C1  


      RHF CALCULATION, NO. OF DOUBLY OCCUPIED LEVELS = 17


          Geometry optimization using BFGS

  GNORM HAS BEEN SET TOO LOW, RESET TO 0.01
 CYCLE:     1 TIME:   0.008 TIME LEFT:  2.00D  GRAD.:    38.734 HEAT: -5.625450
 CYCLE:     2 TIME:   0.004 TIME LEFT:  2.00D  GRAD.:    25.082 HEAT: -6.045942
 CYCLE:     3 TIME:   0.008 TIME LEFT:  2.00D  GRAD.:    21.838 HEAT: -6.126619
 CYCLE:     4 TIME:   0.004 TIME LEFT:  2.00D  GRAD.:    27.249 HEAT: -6.238960
 CYCLE:     5 TIME:   0.004 TIME LEFT:  2.00D  GRAD.:    10.775 HEAT: -6.430724
 CYCLE:     6 TIME:   0.004 TIME LEFT:  2.00D  GRAD.:     8.246 HEAT: -6.492013
 CYCLE:     7 TIME:   0.004 TIME LEFT:  2.00D  GRAD.:     6.628 HEAT: -6.542354
 CYCLE:     8 TIME:   0.004 TIME LEFT:  2.00D  GRAD.:     3.710 HEAT: -6.568682
 CYCLE:     9 TIME:   0.004 TIME LEFT:  2.00D  GRAD.:     4.123 HEAT: -6.583928
 CYCLE:    10 TIME:   0.004 TIME LEFT:  2.00D  GRAD.:     4.352 HEAT: -6.602867
 CYCLE:    11 TIME:   0.004 TIME LEFT:  2.00D  GRAD.:     3.746 HEAT: -6.625588
 CYCLE:    12 TIME:   0.004 TIME LEFT:  2.00D  GRAD.:     3.472 HEAT: -6.641593
 CYCLE:    13 TIME:   0.004 TIME LEFT:  2.00D  GRAD.:     2.961 HEAT: -6.651917
 CYCLE:    14 TIME:   0.004 TIME LEFT:  2.00D  GRAD.:     1.852 HEAT: -6.657475
 CYCLE:    15 TIME:   0.004 TIME LEFT:  2.00D  GRAD.:     1.089 HEAT: -6.660081
 CYCLE:    16 TIME:   0.008 TIME LEFT:  2.00D  GRAD.:     0.756 HEAT: -6.661300
 CYCLE:    17 TIME:   0.004 TIME LEFT:  2.00D  GRAD.:     0.654 HEAT: -6.662241
 CYCLE:    18 TIME:   0.004 TIME LEFT:  2.00D  GRAD.:     0.700 HEAT: -6.662950
 CYCLE:    19 TIME:   0.004 TIME LEFT:  2.00D  GRAD.:     0.526 HEAT: -6.663393
 CYCLE:    20 TIME:   0.004 TIME LEFT:  2.00D  GRAD.:     0.465 HEAT: -6.663667
 CYCLE:    21 TIME:   0.004 TIME LEFT:  2.00D  GRAD.:     0.349 HEAT: -6.663814
 CYCLE:    22 TIME:   0.004 TIME LEFT:  2.00D  GRAD.:     0.248 HEAT: -6.663909
 CYCLE:    23 TIME:   0.004 TIME LEFT:  2.00D  GRAD.:     0.225 HEAT: -6.663973
 CYCLE:    24 TIME:   0.004 TIME LEFT:  2.00D  GRAD.:     0.204 HEAT: -6.664018
 CYCLE:    25 TIME:   0.004 TIME LEFT:  2.00D  GRAD.:     0.191 HEAT: -6.664072
 CYCLE:    26 TIME:   0.004 TIME LEFT:  2.00D  GRAD.:     0.250 HEAT: -6.664121
 CYCLE:    27 TIME:   0.004 TIME LEFT:  2.00D  GRAD.:     0.206 HEAT: -6.664188
 CYCLE:    28 TIME:   0.008 TIME LEFT:  2.00D  GRAD.:     0.265 HEAT: -6.664284
 CYCLE:    29 TIME:   0.004 TIME LEFT:  2.00D  GRAD.:     0.171 HEAT: -6.664331
 CYCLE:    30 TIME:   0.004 TIME LEFT:  2.00D  GRAD.:     0.149 HEAT: -6.664367
 CYCLE:    31 TIME:   0.004 TIME LEFT:  2.00D  GRAD.:     0.075 HEAT: -6.664378
 CYCLE:    32 TIME:   0.008 TIME LEFT:  2.00D  GRAD.:     0.078 HEAT: -6.664387
 CYCLE:    33 TIME:   0.004 TIME LEFT:  2.00D  GRAD.:     0.056 HEAT: -6.664392
 CYCLE:    34 TIME:   0.004 TIME LEFT:  2.00D  GRAD.:     0.063 HEAT: -6.664400
 CYCLE:    35 TIME:   0.004 TIME LEFT:  2.00D  GRAD.:     0.186 HEAT: -6.664422
 CYCLE:    36 TIME:   0.004 TIME LEFT:  2.00D  GRAD.:     0.161 HEAT: -6.664487
 CYCLE:    37 TIME:   0.004 TIME LEFT:  2.00D  GRAD.:     0.163 HEAT: -6.664503
 CYCLE:    38 TIME:   0.008 TIME LEFT:  2.00D  GRAD.:     0.147 HEAT: -6.664515
 CYCLE:    39 TIME:   0.008 TIME LEFT:  2.00D  GRAD.:     0.539 HEAT: -6.665048
 CYCLE:    40 TIME:   0.004 TIME LEFT:  2.00D  GRAD.:     0.564 HEAT: -6.665096
 CYCLE:    41 TIME:   0.004 TIME LEFT:  2.00D  GRAD.:     0.578 HEAT: -6.665201
 CYCLE:    42 TIME:   0.008 TIME LEFT:  2.00D  GRAD.:     0.598 HEAT: -6.665264
 CYCLE:    43 TIME:   0.004 TIME LEFT:  2.00D  GRAD.:     0.608 HEAT: -6.665563
 CYCLE:    44 TIME:   0.008 TIME LEFT:  2.00D  GRAD.:     0.641 HEAT: -6.665760
 CYCLE:    45 TIME:   0.004 TIME LEFT:  2.00D  GRAD.:     0.714 HEAT: -6.666507
 CYCLE:    46 TIME:   0.008 TIME LEFT:  2.00D  GRAD.:     3.673 HEAT: -6.669588
 CYCLE:    47 TIME:   0.008 TIME LEFT:  2.00D  GRAD.:     2.278 HEAT: -6.669639
 CYCLE:    48 TIME:   0.004 TIME LEFT:  2.00D  GRAD.:     1.204 HEAT: -6.671829
 CYCLE:    49 TIME:   0.004 TIME LEFT:  2.00D  GRAD.:     0.709 HEAT: -6.672882
 CYCLE:    50 TIME:   0.004 TIME LEFT:  2.00D  GRAD.:     0.511 HEAT: -6.673390
 CYCLE:    51 TIME:   0.004 TIME LEFT:  2.00D  GRAD.:     0.294 HEAT: -6.673684
 CYCLE:    52 TIME:   0.004 TIME LEFT:  2.00D  GRAD.:     0.168 HEAT: -6.673741
 CYCLE:    53 TIME:   0.008 TIME LEFT:  2.00D  GRAD.:     0.190 HEAT: -6.673751
 CYCLE:    54 TIME:   0.004 TIME LEFT:  2.00D  GRAD.:     0.196 HEAT: -6.673773
 CYCLE:    55 TIME:   0.004 TIME LEFT:  2.00D  GRAD.:     0.203 HEAT: -6.673822
 CYCLE:    56 TIME:   0.008 TIME LEFT:  2.00D  GRAD.:     0.211 HEAT: -6.673910
 CYCLE:    57 TIME:   0.004 TIME LEFT:  2.00D  GRAD.:     0.227 HEAT: -6.674053
 CYCLE:    58 TIME:   0.004 TIME LEFT:  2.00D  GRAD.:     0.252 HEAT: -6.674265
 CYCLE:    59 TIME:   0.008 TIME LEFT:  2.00D  GRAD.:     0.291 HEAT: -6.674593
 CYCLE:    60 TIME:   0.004 TIME LEFT:  2.00D  GRAD.:     0.351 HEAT: -6.675074
 CYCLE:    61 TIME:   0.004 TIME LEFT:  2.00D  GRAD.:     0.446 HEAT: -6.675794
 CYCLE:    62 TIME:   0.008 TIME LEFT:  2.00D  GRAD.:     1.106 HEAT: -6.679010
 CYCLE:    63 TIME:   0.008 TIME LEFT:  2.00D  GRAD.:     5.686 HEAT: -6.681136
 CYCLE:    64 TIME:   0.008 TIME LEFT:  2.00D  GRAD.:     1.840 HEAT: -6.681136
 CYCLE:    65 TIME:   0.008 TIME LEFT:  2.00D  GRAD.:     1.138 HEAT: -6.683991
 CYCLE:    66 TIME:   0.008 TIME LEFT:  2.00D  GRAD.:     1.569 HEAT: -6.687396
 CYCLE:    67 TIME:   0.008 TIME LEFT:  2.00D  GRAD.:     0.723 HEAT: -6.688745
 CYCLE:    68 TIME:   0.004 TIME LEFT:  2.00D  GRAD.:     0.238 HEAT: -6.689107
 CYCLE:    69 TIME:   0.004 TIME LEFT:  2.00D  GRAD.:     0.209 HEAT: -6.689137
 CYCLE:    70 TIME:   0.008 TIME LEFT:  2.00D  GRAD.:     0.201 HEAT: -6.689149
 CYCLE:    71 TIME:   0.004 TIME LEFT:  2.00D  GRAD.:     0.217 HEAT: -6.689158
 CYCLE:    72 TIME:   0.008 TIME LEFT:  2.00D  GRAD.:     0.209 HEAT: -6.689186
 CYCLE:    73 TIME:   0.008 TIME LEFT:  2.00D  GRAD.:     0.247 HEAT: -6.689265
 CYCLE:    74 TIME:   0.008 TIME LEFT:  2.00D  GRAD.:     0.712 HEAT: -6.689929
 CYCLE:    75 TIME:   0.008 TIME LEFT:  2.00D  GRAD.:     0.545 HEAT: -6.690711
 CYCLE:    76 TIME:   0.008 TIME LEFT:  2.00D  GRAD.:     0.665 HEAT: -6.691184
 CYCLE:    77 TIME:   0.004 TIME LEFT:  2.00D  GRAD.:     0.408 HEAT: -6.691500
 CYCLE:    78 TIME:   0.008 TIME LEFT:  2.00D  GRAD.:     0.300 HEAT: -6.691666
 CYCLE:    79 TIME:   0.004 TIME LEFT:  2.00D  GRAD.:     0.261 HEAT: -6.691720
 CYCLE:    80 TIME:   0.004 TIME LEFT:  2.00D  GRAD.:     0.242 HEAT: -6.691757
 CYCLE:    81 TIME:   0.004 TIME LEFT:  2.00D  GRAD.:     0.251 HEAT: -6.691776
 CYCLE:    82 TIME:   0.008 TIME LEFT:  2.00D  GRAD.:     0.263 HEAT: -6.691802
 CYCLE:    83 TIME:   0.008 TIME LEFT:  2.00D  GRAD.:     0.323 HEAT: -6.691897
 CYCLE:    84 TIME:   0.008 TIME LEFT:  2.00D  GRAD.:     0.602 HEAT: -6.692223
 CYCLE:    85 TIME:   0.012 TIME LEFT:  2.00D  GRAD.:     0.688 HEAT: -6.692908
 CYCLE:    86 TIME:   0.012 TIME LEFT:  2.00D  GRAD.:     0.962 HEAT: -6.694090
 CYCLE:    87 TIME:   0.008 TIME LEFT:  2.00D  GRAD.:     2.583 HEAT: -6.695216
 CYCLE:    88 TIME:   0.008 TIME LEFT:  2.00D  GRAD.:     1.758 HEAT: -6.697706
 CYCLE:    89 TIME:   0.008 TIME LEFT:  2.00D  GRAD.:     1.042 HEAT: -6.701034
 CYCLE:    90 TIME:   0.012 TIME LEFT:  2.00D  GRAD.:     0.926 HEAT: -6.703158
 CYCLE:    91 TIME:   0.008 TIME LEFT:  2.00D  GRAD.:     1.009 HEAT: -6.705642
 CYCLE:    92 TIME:   0.008 TIME LEFT:  2.00D  GRAD.:     1.630 HEAT: -6.708012
 CYCLE:    93 TIME:   0.008 TIME LEFT:  2.00D  GRAD.:     0.994 HEAT: -6.709641
 CYCLE:    94 TIME:   0.008 TIME LEFT:  2.00D  GRAD.:     1.052 HEAT: -6.710902
 CYCLE:    95 TIME:   0.008 TIME LEFT:  2.00D  GRAD.:     1.379 HEAT: -6.712572
 CYCLE:    96 TIME:   0.008 TIME LEFT:  2.00D  GRAD.:    16.121 HEAT: -6.713990
 CYCLE:    97 TIME:   0.004 TIME LEFT:  2.00D  GRAD.:     1.002 HEAT: -6.714475
 CYCLE:    98 TIME:   0.008 TIME LEFT:  2.00D  GRAD.:     0.699 HEAT: -6.715109
 CYCLE:    99 TIME:   0.004 TIME LEFT:  2.00D  GRAD.:     0.343 HEAT: -6.715555
 CYCLE:   100 TIME:   0.008 TIME LEFT:  2.00D  GRAD.:     0.329 HEAT: -6.715627
 CYCLE:   101 TIME:   0.004 TIME LEFT:  2.00D  GRAD.:     0.289 HEAT: -6.715637
 CYCLE:   102 TIME:   0.004 TIME LEFT:  2.00D  GRAD.:     0.280 HEAT: -6.715638
 CYCLE:   103 TIME:   0.008 TIME LEFT:  2.00D  GRAD.:     0.281 HEAT: -6.715639
 CYCLE:   104 TIME:   0.008 TIME LEFT:  2.00D  GRAD.:     0.284 HEAT: -6.715639
 CYCLE:   105 TIME:   0.008 TIME LEFT:  2.00D  GRAD.:     0.285 HEAT: -6.715640
 CYCLE:   106 TIME:   0.004 TIME LEFT:  2.00D  GRAD.:     0.283 HEAT: -6.715640
 CYCLE:   107 TIME:   0.008 TIME LEFT:  2.00D  GRAD.:     0.284 HEAT: -6.715640
 CYCLE:   108 TIME:   0.004 TIME LEFT:  2.00D  GRAD.:     0.298 HEAT: -6.715644
 CYCLE:   109 TIME:   0.008 TIME LEFT:  2.00D  GRAD.:     0.337 HEAT: -6.715656
 CYCLE:   110 TIME:   0.004 TIME LEFT:  2.00D  GRAD.:     0.331 HEAT: -6.715662
 CYCLE:   111 TIME:   0.008 TIME LEFT:  2.00D  GRAD.:     0.367 HEAT: -6.715751
 CYCLE:   112 TIME:   0.008 TIME LEFT:  2.00D  GRAD.:     0.678 HEAT: -6.715992
 CYCLE:   113 TIME:   0.008 TIME LEFT:  2.00D  GRAD.:     1.550 HEAT: -6.718064
 CYCLE:   114 TIME:   0.004 TIME LEFT:  2.00D  GRAD.:     1.551 HEAT: -6.718107
 CYCLE:   115 TIME:   0.008 TIME LEFT:  2.00D  GRAD.:     0.579 HEAT: -6.720553
 CYCLE:   116 TIME:   0.004 TIME LEFT:  2.00D  GRAD.:     1.430 HEAT: -6.723308
 CYCLE:   117 TIME:   0.012 TIME LEFT:  2.00D  GRAD.:     1.734 HEAT: -6.727515
 CYCLE:   118 TIME:   0.008 TIME LEFT:  2.00D  GRAD.:     3.995 HEAT: -6.730285
 CYCLE:   119 TIME:   0.008 TIME LEFT:  2.00D  GRAD.:     2.300 HEAT: -6.735008
 CYCLE:   120 TIME:   0.008 TIME LEFT:  2.00D  GRAD.:     1.168 HEAT: -6.739703
 CYCLE:   121 TIME:   0.008 TIME LEFT:  2.00D  GRAD.:     4.538 HEAT: -6.743610
 CYCLE:   122 TIME:   0.008 TIME LEFT:  2.00D  GRAD.:     1.979 HEAT: -6.752682
 CYCLE:   123 TIME:   0.004 TIME LEFT:  2.00D  GRAD.:     1.348 HEAT: -6.759126
 CYCLE:   124 TIME:   0.012 TIME LEFT:  2.00D  GRAD.:     1.514 HEAT: -6.765288
 CYCLE:   125 TIME:   0.008 TIME LEFT:  2.00D  GRAD.:     2.683 HEAT: -6.771401
 CYCLE:   126 TIME:   0.004 TIME LEFT:  2.00D  GRAD.:     1.975 HEAT: -6.778340
 CYCLE:   127 TIME:   0.004 TIME LEFT:  2.00D  GRAD.:     2.740 HEAT: -6.786112
 CYCLE:   128 TIME:   0.008 TIME LEFT:  2.00D  GRAD.:     1.819 HEAT: -6.789164
 CYCLE:   129 TIME:   0.008 TIME LEFT:  2.00D  GRAD.:     1.362 HEAT: -6.793120
 CYCLE:   130 TIME:   0.004 TIME LEFT:  2.00D  GRAD.:     1.729 HEAT: -6.795362
 CYCLE:   131 TIME:   0.004 TIME LEFT:  2.00D  GRAD.:     1.278 HEAT: -6.797977
 CYCLE:   132 TIME:   0.004 TIME LEFT:  2.00D  GRAD.:     1.862 HEAT: -6.798455
 CYCLE:   133 TIME:   0.008 TIME LEFT:  2.00D  GRAD.:     0.999 HEAT: -6.799712
 CYCLE:   134 TIME:   0.008 TIME LEFT:  2.00D  GRAD.:     0.837 HEAT: -6.800093
 CYCLE:   135 TIME:   0.004 TIME LEFT:  2.00D  GRAD.:     0.864 HEAT: -6.800226
 CYCLE:   136 TIME:   0.004 TIME LEFT:  2.00D  GRAD.:     0.906 HEAT: -6.800279
 CYCLE:   137 TIME:   0.012 TIME LEFT:  2.00D  GRAD.:     0.901 HEAT: -6.800281
 CYCLE:   138 TIME:   0.008 TIME LEFT:  2.00D  GRAD.:     0.904 HEAT: -6.800281
 CYCLE:   139 TIME:   0.008 TIME LEFT:  2.00D  GRAD.:     0.839 HEAT: -6.800296
 CYCLE:   140 TIME:   0.008 TIME LEFT:  2.00D  GRAD.:     0.850 HEAT: -6.800297
 CYCLE:   141 TIME:   0.008 TIME LEFT:  2.00D  GRAD.:     0.871 HEAT: -6.800302
 CYCLE:   142 TIME:   0.008 TIME LEFT:  2.00D  GRAD.:     0.954 HEAT: -6.800354
 CYCLE:   143 TIME:   0.004 TIME LEFT:  2.00D  GRAD.:     0.950 HEAT: -6.800362
 CYCLE:   144 TIME:   0.004 TIME LEFT:  2.00D  GRAD.:     0.932 HEAT: -6.800362
 CYCLE:   145 TIME:   0.008 TIME LEFT:  2.00D  GRAD.:     1.009 HEAT: -6.800502
 CYCLE:   146 TIME:   0.008 TIME LEFT:  2.00D  GRAD.:     1.925 HEAT: -6.802658
 CYCLE:   147 TIME:   0.008 TIME LEFT:  2.00D  GRAD.:     3.041 HEAT: -6.807751
 CYCLE:   148 TIME:   0.004 TIME LEFT:  2.00D  GRAD.:     3.441 HEAT: -6.812548
 CYCLE:   149 TIME:   0.008 TIME LEFT:  2.00D  GRAD.:     3.394 HEAT: -6.813393
 CYCLE:   150 TIME:   0.004 TIME LEFT:  2.00D  GRAD.:     2.565 HEAT: -6.816991
 CYCLE:   151 TIME:   0.008 TIME LEFT:  2.00D  GRAD.:     3.422 HEAT: -6.824122
 CYCLE:   152 TIME:   0.004 TIME LEFT:  2.00D  GRAD.:     3.825 HEAT: -6.834557
 CYCLE:   153 TIME:   0.008 TIME LEFT:  2.00D  GRAD.:     2.257 HEAT: -6.842651
 CYCLE:   154 TIME:   0.004 TIME LEFT:  2.00D  GRAD.:     2.182 HEAT: -6.843546
 CYCLE:   155 TIME:   0.008 TIME LEFT:  2.00D  GRAD.:     2.621 HEAT: -6.846437
 CYCLE:   156 TIME:   0.004 TIME LEFT:  2.00D  GRAD.:     2.459 HEAT: -6.846581
 CYCLE:   157 TIME:   0.008 TIME LEFT:  2.00D  GRAD.:     3.121 HEAT: -6.848713
 CYCLE:   158 TIME:   0.008 TIME LEFT:  2.00D  GRAD.:     2.542 HEAT: -6.856739
 CYCLE:   159 TIME:   0.004 TIME LEFT:  2.00D  GRAD.:     2.421 HEAT: -6.859820
 CYCLE:   160 TIME:   0.004 TIME LEFT:  2.00D  GRAD.:     2.235 HEAT: -6.860886
 CYCLE:   161 TIME:   0.004 TIME LEFT:  2.00D  GRAD.:     2.162 HEAT: -6.860905
 CYCLE:   162 TIME:   0.008 TIME LEFT:  2.00D  GRAD.:     2.326 HEAT: -6.860979
 CYCLE:   163 TIME:   0.004 TIME LEFT:  2.00D  GRAD.:     2.416 HEAT: -6.861174
 CYCLE:   164 TIME:   0.004 TIME LEFT:  2.00D  GRAD.:     2.494 HEAT: -6.861510
 CYCLE:   165 TIME:   0.004 TIME LEFT:  2.00D  GRAD.:     2.525 HEAT: -6.862509
 CYCLE:   166 TIME:   0.004 TIME LEFT:  2.00D  GRAD.:     2.599 HEAT: -6.863550
 CYCLE:   167 TIME:   0.008 TIME LEFT:  2.00D  GRAD.:     2.762 HEAT: -6.868270
 CYCLE:   168 TIME:   0.004 TIME LEFT:  2.00D  GRAD.:     3.087 HEAT: -6.873110
 CYCLE:   169 TIME:   0.004 TIME LEFT:  2.00D  GRAD.:     3.046 HEAT: -6.885584
 CYCLE:   170 TIME:   0.004 TIME LEFT:  2.00D  GRAD.:     5.036 HEAT: -6.893595
 CYCLE:   171 TIME:   0.004 TIME LEFT:  2.00D  GRAD.:     3.694 HEAT: -6.913829
 CYCLE:   172 TIME:   0.012 TIME LEFT:  2.00D  GRAD.:     4.466 HEAT: -6.950921
 CYCLE:   173 TIME:   0.004 TIME LEFT:  2.00D  GRAD.:     5.636 HEAT: -6.965376
 CYCLE:   174 TIME:   0.008 TIME LEFT:  2.00D  GRAD.:     4.945 HEAT: -6.995889
 CYCLE:   175 TIME:   0.004 TIME LEFT:  2.00D  GRAD.:     3.965 HEAT: -7.026521
 CYCLE:   176 TIME:   0.008 TIME LEFT:  2.00D  GRAD.:     4.513 HEAT: -7.049234
 CYCLE:   177 TIME:   0.004 TIME LEFT:  2.00D  GRAD.:     4.840 HEAT: -7.064396
 CYCLE:   178 TIME:   0.004 TIME LEFT:  2.00D  GRAD.:     3.298 HEAT: -7.079660
 CYCLE:   179 TIME:   0.012 TIME LEFT:  2.00D  GRAD.:     3.334 HEAT: -7.095749
 CYCLE:   180 TIME:   0.004 TIME LEFT:  2.00D  GRAD.:     2.017 HEAT: -7.101276
 CYCLE:   181 TIME:   0.004 TIME LEFT:  2.00D  GRAD.:     2.021 HEAT: -7.103801
 CYCLE:   182 TIME:   0.008 TIME LEFT:  2.00D  GRAD.:     1.193 HEAT: -7.105597
 CYCLE:   183 TIME:   0.004 TIME LEFT:  2.00D  GRAD.:     1.000 HEAT: -7.106446
 CYCLE:   184 TIME:   0.004 TIME LEFT:  2.00D  GRAD.:     0.875 HEAT: -7.106803
 CYCLE:   185 TIME:   0.008 TIME LEFT:  2.00D  GRAD.:     0.607 HEAT: -7.107217
 CYCLE:   186 TIME:   0.004 TIME LEFT:  2.00D  GRAD.:     0.437 HEAT: -7.107472
 CYCLE:   187 TIME:   0.008 TIME LEFT:  2.00D  GRAD.:     0.408 HEAT: -7.107671
 CYCLE:   188 TIME:   0.004 TIME LEFT:  2.00D  GRAD.:     0.488 HEAT: -7.107851
 CYCLE:   189 TIME:   0.004 TIME LEFT:  2.00D  GRAD.:     0.703 HEAT: -7.108007
 CYCLE:   190 TIME:   0.008 TIME LEFT:  2.00D  GRAD.:     0.736 HEAT: -7.108259
 CYCLE:   191 TIME:   0.008 TIME LEFT:  2.00D  GRAD.:     0.852 HEAT: -7.108587
 CYCLE:   192 TIME:   0.004 TIME LEFT:  2.00D  GRAD.:     0.820 HEAT: -7.109027
 CYCLE:   193 TIME:   0.008 TIME LEFT:  2.00D  GRAD.:     0.753 HEAT: -7.109721
 CYCLE:   194 TIME:   0.004 TIME LEFT:  2.00D  GRAD.:     0.701 HEAT: -7.110004
 CYCLE:   195 TIME:   0.004 TIME LEFT:  2.00D  GRAD.:     0.584 HEAT: -7.110481
 CYCLE:   196 TIME:   0.004 TIME LEFT:  2.00D  GRAD.:     0.453 HEAT: -7.110897
 CYCLE:   197 TIME:   0.004 TIME LEFT:  2.00D  GRAD.:     0.295 HEAT: -7.111095
 CYCLE:   198 TIME:   0.004 TIME LEFT:  2.00D  GRAD.:     0.243 HEAT: -7.111224
 CYCLE:   199 TIME:   0.004 TIME LEFT:  2.00D  GRAD.:     0.243 HEAT: -7.111246
 CYCLE:   200 TIME:   0.008 TIME LEFT:  2.00D  GRAD.:     0.182 HEAT: -7.111252
 CYCLE:   201 TIME:   0.008 TIME LEFT:  2.00D  GRAD.:     0.132 HEAT: -7.111276
 CYCLE:   202 TIME:   0.004 TIME LEFT:  2.00D  GRAD.:     0.081 HEAT: -7.111296
 CYCLE:   203 TIME:   0.004 TIME LEFT:  2.00D  GRAD.:     0.049 HEAT: -7.111308
 CYCLE:   204 TIME:   0.008 TIME LEFT:  2.00D  GRAD.:     0.033 HEAT: -7.111311
 CYCLE:   205 TIME:   0.004 TIME LEFT:  2.00D  GRAD.:     0.027 HEAT: -7.111311
 CYCLE:   206 TIME:   0.004 TIME LEFT:  2.00D  GRAD.:     0.018 HEAT: -7.111312
 CYCLE:   207 TIME:   0.008 TIME LEFT:  2.00D  GRAD.:     0.019 HEAT: -7.111312
 CYCLE:   208 TIME:   0.008 TIME LEFT:  2.00D  GRAD.:     0.017 HEAT: -7.111312
 TEST ON GRADIENT SATISFIED
PETERS TEST SATISFIED

 -------------------------------------------------------------------------------
 pm3  precise nosym gnorm=0.0 bfgs THREADS=1
 InChI=1S/C6H10/c1-6-4-2-3-5-6/h4H,2-3,5H2,1H3



     PETERS TEST WAS SATISFIED IN BFGS OPTIMIZATION           
     SCF FIELD WAS ACHIEVED                                   


                              PM3 CALCULATION
                                                       MOPAC v23.1.2 MacOS
                                                       Tue Jun  3 16:28:57 2025




          FINAL HEAT OF FORMATION =         -7.11131 KCAL/MOL =     -29.75373 KJ/MOL


          COSMO AREA              =        133.47 SQUARE ANGSTROMS
          COSMO VOLUME            =        123.35 CUBIC ANGSTROMS

          GRADIENT NORM           =          0.00998          =       0.00250 PER ATOM
          IONIZATION POTENTIAL    =          9.278459 EV
          HOMO LUMO ENERGIES (EV) =         -9.278  1.082
          NO. OF FILLED LEVELS    =         17
          MOLECULAR WEIGHT        =         82.1450         POINT GROUP:  C1  

          MOLECULAR DIMENSIONS (Angstroms)

            Atom       Atom       Distance
            H    14    H     7     5.26605
            H    11    H    13     4.18542
            H    12    H     9     3.39029


          SCF CALCULATIONS        =        401

          WALL-CLOCK TIME         =      1.242 SECONDS
          COMPUTATION TIME        =      0.767 SECONDS




   ATOM   CHEMICAL          X               Y               Z
  NUMBER   SYMBOL      (ANGSTROMS)     (ANGSTROMS)     (ANGSTROMS)

     1       C         -1.44155614  *   0.75944815  *  -0.38593879  *
     2       C          0.06857437  *   0.99444610  *  -0.53791364  *
     3       C         -1.59476540  *  -0.52619115  *   0.44116423  *
     4       C          2.17898429  *  -0.26773258  *   0.27229933  *
     5       C          0.71261031  *  -0.14512611  *   0.19449786  *
     6       C         -0.19830958  *  -0.97318685  *   0.72765382  *
     7       H         -1.93180398  *   1.61586343  *   0.11026658  *
     8       H         -1.93257322  *   0.66319746  *  -1.37064590  *
     9       H          0.38468844  *   1.00772263  *  -1.59731564  *
    10       H          0.38554455  *   1.96368600  *  -0.11065890  *
    11       H         -2.15230856  *  -1.30896805  *  -0.10534181  *
    12       H         -2.15118419  *  -0.35309154  *   1.38069112  *
    13       H          2.61684188  *   0.61471030  *   0.75811269  *
    14       H          2.48699244  *  -1.15359356  *   0.84210331  *
    15       H          2.61571710  *  -0.34454180  *  -0.73259206  *
    16       H          0.00538856  *  -1.87374560  *   1.30664776  *

                             CARTESIAN COORDINATES

   1    C       -1.441556138     0.759448153    -0.385938786
   2    C        0.068574369     0.994446103    -0.537913638
   3    C       -1.594765399    -0.526191150     0.441164232
   4    C        2.178984289    -0.267732583     0.272299331
   5    C        0.712610307    -0.145126111     0.194497865
   6    C       -0.198309577    -0.973186850     0.727653822
   7    H       -1.931803978     1.615863433     0.110266580
   8    H       -1.932573217     0.663197460    -1.370645902
   9    H        0.384688437     1.007722626    -1.597315640
  10    H        0.385544552     1.963685999    -0.110658903
  11    H       -2.152308562    -1.308968047    -0.105341814
  12    H       -2.151184193    -0.353091544     1.380691124
  13    H        2.616841875     0.614710296     0.758112689
  14    H        2.486992439    -1.153593560     0.842103311
  15    H        2.615717100    -0.344541797    -0.732592064
  16    H        0.005388561    -1.873745604     1.306647764


           Empirical Formula: C6 H10  =    16 atoms



      MOLECULAR POINT GROUP   :   C1  


                  EIGENVALUES  
 -40.20941 -31.61876 -28.07854 -24.63746 -20.29110 -18.10518 -16.60310 -16.41492
 -14.40360 -14.23773 -13.33854 -13.23957 -12.79221 -12.63355 -12.40146 -11.77191
  -9.27846   1.08184   3.37084   3.63576   3.76477   3.78706   3.94786   4.13920
   4.20965   4.34785   4.43905   4.45692   4.53314   4.66657   5.08416   5.24278
   5.73121   6.10824


              NET ATOMIC CHARGES AND DIPOLE CONTRIBUTIONS

  ATOM NO.   TYPE          CHARGE      No. of ELECS.   s-Pop       p-Pop       
    1          C          -0.097676        4.0977     1.16552     2.93215
    2          C          -0.055554        4.0556     1.15298     2.90257
    3          C          -0.060347        4.0603     1.15291     2.90744
    4          C          -0.050548        4.0505     1.11762     2.93293
    5          C          -0.135824        4.1358     1.20368     2.93214
    6          C          -0.159537        4.1595     1.20034     2.95920
    7          H           0.049073        0.9509     0.95093
    8          H           0.049071        0.9509     0.95093
    9          H           0.054850        0.9451     0.94515
   10          H           0.054852        0.9451     0.94515
   11          H           0.054101        0.9459     0.94590
   12          H           0.054103        0.9459     0.94590
   13          H           0.044220        0.9558     0.95578
   14          H           0.041843        0.9582     0.95816
   15          H           0.044222        0.9558     0.95578
   16          H           0.113153        0.8868     0.88685
 DIPOLE           X         Y         Z       TOTAL
 POINT-CHG.     0.066     0.132    -0.085     0.170
 HYBRID         0.002     0.003    -0.002     0.004
 SUM            0.068     0.135    -0.087     0.174


          ATOMIC ORBITAL ELECTRON POPULATIONS

     Atom    s        px        py        pz   
    1  C   1.16552   0.95847   0.97532   0.99836
    2  C   1.15298   0.94329   0.96663   0.99266
    3  C   1.15291   0.95256   0.96439   0.99049
    4  C   1.11762   0.92109   1.00665   1.00518
    5  C   1.20368   0.95754   0.97644   0.99816
    6  C   1.20034   0.95292   0.99228   1.01401
    7  H   0.95093
    8  H   0.95093
    9  H   0.94515
   10  H   0.94515
   11  H   0.94590
   12  H   0.94590
   13  H   0.95578
   14  H   0.95816
   15  H   0.95578
   16  H   0.88685
 *******************************************************************************
 **                                                                           **
 **                              MOPAC v23.1.2                                **
 **                                                                           **
 *******************************************************************************
 **          Digital Object Identifier (DOI): 10.5281/zenodo.6511958          **
 **    Visit the DOI location for information on how to cite this program.    **
 *******************************************************************************

                              PM3 CALCULATION RESULTS

 *******************************************************************************
 *  CALCULATION DONE: (MAX THREADS = 1)              Tue Jun  3 16:28:57 2025  *
 *  PM3        - The PM3 Hamiltonian to be used
 *  OLDGEO     - PREVIOUS GEOMETRY TO BE USED
 *  PRECISE    - TIGHTER CRITERIA TO BE USED
 *  NOSYM      - POINT-GROUP SYMMETRY SET TO C1
 *  THREADS=1  - MULTI-THREADING NOT USED
 *  T=         - A TIME OF 172800.0 SECONDS REQUESTED
 *  DUMP=N     - RESTART FILE WRITTEN EVERY 7200.0 SECONDS REQUESTED
 *  THERMO     - THERMODYNAMIC QUANTITIES TO BE CALCULATED
 *******************************************************************************
oldgeo thermo nosym precise THREADS=1  pm3
 InChI=1S/C6H10/c1-6-4-2-3-5-6/h4H,2-3,5H2,1H3

   ATOM   CHEMICAL          X               Y               Z
  NUMBER   SYMBOL      (ANGSTROMS)     (ANGSTROMS)     (ANGSTROMS)

     1       C         -1.44155614  *   0.75944815  *  -0.38593879  *
     2       C          0.06857437  *   0.99444610  *  -0.53791364  *
     3       C         -1.59476540  *  -0.52619115  *   0.44116423  *
     4       C          2.17898429  *  -0.26773258  *   0.27229933  *
     5       C          0.71261031  *  -0.14512611  *   0.19449786  *
     6       C         -0.19830958  *  -0.97318685  *   0.72765382  *
     7       H         -1.93180398  *   1.61586343  *   0.11026658  *
     8       H         -1.93257322  *   0.66319746  *  -1.37064590  *
     9       H          0.38468844  *   1.00772263  *  -1.59731564  *
    10       H          0.38554455  *   1.96368600  *  -0.11065890  *
    11       H         -2.15230856  *  -1.30896805  *  -0.10534181  *
    12       H         -2.15118419  *  -0.35309154  *   1.38069112  *
    13       H          2.61684188  *   0.61471030  *   0.75811269  *
    14       H          2.48699244  *  -1.15359356  *   0.84210331  *
    15       H          2.61571710  *  -0.34454180  *  -0.73259206  *
    16       H          0.00538856  *  -1.87374560  *   1.30664776  *



          CARTESIAN COORDINATES 

    NO.       ATOM           X           Y           Z

     1         C         -1.4416      0.7594     -0.3859
     2         C          0.0686      0.9944     -0.5379
     3         C         -1.5948     -0.5262      0.4412
     4         C          2.1790     -0.2677      0.2723
     5         C          0.7126     -0.1451      0.1945
     6         C         -0.1983     -0.9732      0.7277
     7         H         -1.9318      1.6159      0.1103
     8         H         -1.9326      0.6632     -1.3706
     9         H          0.3847      1.0077     -1.5973
    10         H          0.3855      1.9637     -0.1107
    11         H         -2.1523     -1.3090     -0.1053
    12         H         -2.1512     -0.3531      1.3807
    13         H          2.6168      0.6147      0.7581
    14         H          2.4870     -1.1536      0.8421
    15         H          2.6157     -0.3445     -0.7326
    16         H          0.0054     -1.8737      1.3066

  H: (PM3): J. J. P. STEWART, J. COMP. CHEM. 10, 209 (1989).
  C: (PM3): J. J. P. STEWART, J. COMP. CHEM. 10, 209 (1989).

           Empirical Formula: C6 H10  =    16 atoms



      MOLECULAR POINT GROUP   :   C1  


      RHF CALCULATION, NO. OF DOUBLY OCCUPIED LEVELS = 17



          HEAT OF FORMATION =      -7.111312 KCALS/MOLE


          CARTESIAN COORDINATE DERIVATIVES

   NUMBER  ATOM         X            Y            Z

     1       C      0.001417     0.000144     0.002455
     2       C      0.001926     0.000325    -0.000891
     3       C      0.001897    -0.001423     0.001521
     4       C      0.000300    -0.001005     0.000059
     5       C     -0.002238     0.000958    -0.000269
     6       C      0.001132    -0.004957    -0.000827
     7       H     -0.000329    -0.000523    -0.001047
     8       H     -0.000006     0.000516     0.000793
     9       H     -0.001806     0.002306    -0.003572
    10       H     -0.001023     0.001038     0.002756
    11       H      0.000560    -0.000595    -0.001010
    12       H     -0.001350     0.001229    -0.001682
    13       H     -0.000258    -0.000333     0.000545
    14       H      0.000103    -0.000131     0.000093
    15       H     -0.000224     0.000157    -0.000101
    16       H     -0.000100     0.002294     0.001176



          GRADIENT NORM =   0.01014

          MOLECULAR WEIGHT =   82.15



          ROTATIONAL CONSTANTS IN CM(-1)

          A =    0.23241729   B =    0.10271284   C =    0.07523447



           PRINCIPAL MOMENTS OF INERTIA IN UNITS OF 10**(-40)*GRAM-CM**2

          A =      120.4418   B =      272.5341   C =      372.0735


          ORIENTATION OF MOLECULE IN FORCE CALCULATION

    NO.       ATOM         X         Y         Z

     1          C      -1.2147   -1.1586   -0.0002
     2          C       0.3212   -1.1586   -0.0002
     3          C      -1.6439    0.3166   -0.0002
     4          C       2.1230    0.7007    0.0003
     5          C       0.7076    0.2907    0.0001
     6          C      -0.3675    1.0931    0.0001
     7          H      -1.6148   -1.6923   -0.8806
     8          H      -1.6147   -1.6922    0.8803
     9          H       0.7389   -1.6755    0.8835
    10          H       0.7389   -1.6752   -0.8840
    11          H      -2.2578    0.5717    0.8832
    12          H      -2.2574    0.5718   -0.8837
    13          H       2.6404    0.3091   -0.8859
    14          H       2.2339    1.7924    0.0002
    15          H       2.6401    0.3093    0.8868
    16          H      -0.3623    2.1829    0.0003


    FIRST DERIVATIVES WILL BE USED IN THE CALCULATION OF SECOND DERIVATIVES

          ESTIMATED TIME TO COMPLETE CALCULATION =        1.50 SECONDS

    FOR POINT-GROUP C1   THERE ARE   1 UNIQUE SYMMETRY FUNCTIONS.

 STEP:   1 TIME =     0.02 SECS, INTEGRAL =      0.02 TIME LEFT: 172799.98
 STEP:   2 TIME =     0.01 SECS, INTEGRAL =      0.03 TIME LEFT: 172799.96
 STEP:   3 TIME =     0.02 SECS, INTEGRAL =      0.04 TIME LEFT: 172799.95
 STEP:   4 TIME =     0.01 SECS, INTEGRAL =      0.05 TIME LEFT: 172799.94
 STEP:   5 TIME =     0.01 SECS, INTEGRAL =      0.06 TIME LEFT: 172799.93
 STEP:   6 TIME =     0.01 SECS, INTEGRAL =      0.07 TIME LEFT: 172799.92
 STEP:   7 TIME =     0.01 SECS, INTEGRAL =      0.08 TIME LEFT: 172799.91
 STEP:   8 TIME =     0.01 SECS, INTEGRAL =      0.09 TIME LEFT: 172799.90
 STEP:   9 TIME =     0.01 SECS, INTEGRAL =      0.10 TIME LEFT: 172799.89
 STEP:  10 TIME =     0.01 SECS, INTEGRAL =      0.11 TIME LEFT: 172799.89
 STEP:  11 TIME =     0.01 SECS, INTEGRAL =      0.12 TIME LEFT: 172799.88
 STEP:  12 TIME =     0.01 SECS, INTEGRAL =      0.13 TIME LEFT: 172799.86
 STEP:  13 TIME =     0.01 SECS, INTEGRAL =      0.14 TIME LEFT: 172799.86
 STEP:  14 TIME =     0.01 SECS, INTEGRAL =      0.14 TIME LEFT: 172799.85
 STEP:  15 TIME =     0.01 SECS, INTEGRAL =      0.16 TIME LEFT: 172799.84
 STEP:  16 TIME =     0.01 SECS, INTEGRAL =      0.17 TIME LEFT: 172799.82
 STEP:  17 TIME =     0.01 SECS, INTEGRAL =      0.18 TIME LEFT: 172799.81
 STEP:  18 TIME =     0.01 SECS, INTEGRAL =      0.19 TIME LEFT: 172799.80
 STEP:  19 TIME =     0.01 SECS, INTEGRAL =      0.20 TIME LEFT: 172799.79
 STEP:  20 TIME =     0.01 SECS, INTEGRAL =      0.21 TIME LEFT: 172799.79
 STEP:  21 TIME =     0.01 SECS, INTEGRAL =      0.22 TIME LEFT: 172799.77
 STEP:  22 TIME =     0.01 SECS, INTEGRAL =      0.23 TIME LEFT: 172799.76
 STEP:  23 TIME =     0.01 SECS, INTEGRAL =      0.24 TIME LEFT: 172799.75
 STEP:  24 TIME =     0.01 SECS, INTEGRAL =      0.25 TIME LEFT: 172799.74
 STEP:  25 TIME =     0.01 SECS, INTEGRAL =      0.27 TIME LEFT: 172799.73
 STEP:  26 TIME =     0.01 SECS, INTEGRAL =      0.28 TIME LEFT: 172799.71
 STEP:  27 TIME =     0.01 SECS, INTEGRAL =      0.29 TIME LEFT: 172799.70
 STEP:  28 TIME =     0.01 SECS, INTEGRAL =      0.30 TIME LEFT: 172799.69
 STEP:  29 TIME =     0.01 SECS, INTEGRAL =      0.31 TIME LEFT: 172799.68
 STEP:  30 TIME =     0.01 SECS, INTEGRAL =      0.32 TIME LEFT: 172799.67
 STEP:  31 TIME =     0.01 SECS, INTEGRAL =      0.33 TIME LEFT: 172799.66
 STEP:  32 TIME =     0.01 SECS, INTEGRAL =      0.34 TIME LEFT: 172799.65
 STEP:  33 TIME =     0.01 SECS, INTEGRAL =      0.35 TIME LEFT: 172799.64
 STEP:  34 TIME =     0.01 SECS, INTEGRAL =      0.36 TIME LEFT: 172799.63
 STEP:  35 TIME =     0.01 SECS, INTEGRAL =      0.37 TIME LEFT: 172799.62
 STEP:  36 TIME =     0.01 SECS, INTEGRAL =      0.38 TIME LEFT: 172799.61
 STEP:  37 TIME =     0.01 SECS, INTEGRAL =      0.39 TIME LEFT: 172799.60
 STEP:  38 TIME =     0.01 SECS, INTEGRAL =      0.41 TIME LEFT: 172799.59
 STEP:  39 TIME =     0.01 SECS, INTEGRAL =      0.42 TIME LEFT: 172799.57
 STEP:  40 TIME =     0.01 SECS, INTEGRAL =      0.43 TIME LEFT: 172799.56
 STEP:  41 TIME =     0.01 SECS, INTEGRAL =      0.44 TIME LEFT: 172799.55
 STEP:  42 TIME =     0.01 SECS, INTEGRAL =      0.45 TIME LEFT: 172799.54
 STEP:  43 TIME =     0.01 SECS, INTEGRAL =      0.46 TIME LEFT: 172799.53
 STEP:  44 TIME =     0.01 SECS, INTEGRAL =      0.47 TIME LEFT: 172799.52
 STEP:  45 TIME =     0.01 SECS, INTEGRAL =      0.48 TIME LEFT: 172799.51
 STEP:  46 TIME =     0.01 SECS, INTEGRAL =      0.50 TIME LEFT: 172799.50
 STEP:  47 TIME =     0.01 SECS, INTEGRAL =      0.51 TIME LEFT: 172799.48
 STEP:  48 TIME =     0.01 SECS, INTEGRAL =      0.52 TIME LEFT: 172799.47

(To convert to Hartree/Bohr^2, multiply by (10^(-21) x N x a0^2)/(4.184 x 627.51) =  0.0642)


           FORCE MATRIX IN MILLIDYNES/ANGSTROM


                  C  1       C  2       C  3       C  4       C  5       C  6
 ------------------------------------------------------------------------------
     C    1  14.273032
     C    2   3.774961  14.614757
     C    3   3.760708   0.739717  14.676521
     C    4   0.048306   0.516705   0.131129  14.856124
     C    5   0.873593   4.531319   1.172374   5.435042  18.885107
     C    6   0.884927   1.136220   4.761071   0.723949  10.269624  18.340997
     H    7   4.573259   0.440349   0.440612   0.004102   0.028192   0.028049
     H    8   4.573256   0.440353   0.440614   0.004099   0.028177   0.028033
     H    9   0.436552   4.518333   0.027925   0.012607   0.439046   0.035934
     H   10   0.436553   4.518263   0.027910   0.012607   0.439039   0.035928
     H   11   0.436758   0.028303   4.517139   0.019207   0.036237   0.428932
     H   12   0.436761   0.028287   4.516977   0.019208   0.036231   0.428922
     H   13   0.002149   0.014022   0.018404   4.702295   0.450800   0.031891
     H   14   0.007766   0.043085   0.003253   4.751516   0.473043   0.027342
     H   15   0.002147   0.014014   0.018407   4.702261   0.450785   0.031876
     H   16   0.042384   0.109414   0.410653   0.056045   0.459772   5.010383


                  H  7       H  8       H  9       H 10       H 11       H 12
 ------------------------------------------------------------------------------
     H    7   5.179872
     H    8   0.586661   5.179854
     H    9   0.027827   0.028719   5.123650
     H   10   0.028720   0.027839   0.573442   5.123585
     H   11   0.027854   0.028784   0.001293   0.004282   5.123922
     H   12   0.028785   0.027866   0.004282   0.001294   0.575544   5.123767
     H   13   0.000272   0.000409   0.001008   0.006281   0.002296   0.003264
     H   14   0.000848   0.000848   0.001342   0.001341   0.000521   0.000521
     H   15   0.000409   0.000272   0.006277   0.001009   0.003264   0.002297
     H   16   0.003085   0.003082   0.015231   0.015231   0.014213   0.014209


                  H 13       H 14       H 15       H 16
 ------------------------------------------------------
     H   13   5.412377
     H   14   0.559019   5.455680
     H   15   0.572190   0.559033   5.412355
     H   16   0.007005   0.013365   0.007007   5.412038


          HEAT OF FORMATION =      -7.111312 KCALS/MOLE

          ZERO POINT ENERGY      89.808 KCAL/MOL


           NORMAL COORDINATE ANALYSIS (Total motion = 1 Angstrom)


   Root No.       1         2         3         4         5         6         7         8

                 1 A       2 A       3 A       4 A       5 A       6 A       7 A       8 A   

                  99.0     106.5     219.9     338.8     451.2     613.3     712.8     753.2
  
           1    0.0000   -0.0000   -0.0000   -0.0242   -0.0000   -0.0565   -0.0255   -0.0000
           2   -0.0000    0.0000    0.0000    0.0066   -0.0000   -0.0242   -0.0678   -0.0000
           3    0.0411   -0.0174   -0.0054   -0.0000   -0.0058   -0.0000    0.0000   -0.0193
           4    0.0000   -0.0000   -0.0000   -0.0171   -0.0000   -0.0445   -0.0495   -0.0000
           5    0.0000   -0.0000   -0.0000   -0.0389    0.0000    0.0371    0.0101    0.0000
           6   -0.0304    0.0336    0.0174   -0.0000   -0.0064    0.0000    0.0000   -0.0113
           7    0.0000   -0.0000    0.0000    0.0134   -0.0000   -0.0213    0.0929    0.0000
           8   -0.0000    0.0000    0.0000    0.0169   -0.0000   -0.0346   -0.0298   -0.0000
           9   -0.0231    0.0020   -0.0446    0.0000   -0.0002   -0.0000    0.0000   -0.0215
          10   -0.0000    0.0000    0.0000   -0.0123    0.0000    0.0823   -0.0292   -0.0000
          11   -0.0000    0.0000    0.0000    0.0622    0.0000    0.0235    0.0020    0.0000
          12    0.0171   -0.0134   -0.0446    0.0000   -0.0069    0.0000   -0.0000    0.0048
          13   -0.0000   -0.0000   -0.0000    0.0172   -0.0000    0.0460   -0.0181   -0.0000
          14    0.0000    0.0000   -0.0000   -0.0457   -0.0000    0.0297    0.0202    0.0000
          15   -0.0037    0.0050    0.0364   -0.0000    0.0918   -0.0000   -0.0000    0.0131
          16   -0.0000    0.0000   -0.0000    0.0322    0.0000   -0.0026    0.0330    0.0000
          17    0.0000    0.0000   -0.0000   -0.0256    0.0000   -0.0302    0.0708    0.0000
          18   -0.0021   -0.0077    0.0645    0.0000   -0.0349   -0.0000    0.0000   -0.0029
          19   -0.0452    0.0317    0.0109   -0.0400    0.0004   -0.0504   -0.0478   -0.0667
          20   -0.0560    0.0234   -0.0237    0.0186    0.0026   -0.0365   -0.0646   -0.1037
          21    0.0960   -0.0462    0.0042   -0.0000   -0.0077    0.0032    0.0058    0.0785
          22    0.0452   -0.0317   -0.0109   -0.0400   -0.0004   -0.0504   -0.0479    0.0667
          23    0.0560   -0.0234    0.0237    0.0186   -0.0026   -0.0366   -0.0649    0.1036
          24    0.0960   -0.0462    0.0042    0.0000   -0.0077   -0.0033   -0.0060    0.0785
          25    0.0426   -0.0302   -0.0134   -0.0361    0.0160   -0.0599   -0.0337   -0.0569
          26   -0.0329    0.0294   -0.0044   -0.0534   -0.1217    0.0318    0.0288    0.0483
          27   -0.0701    0.0654    0.0212   -0.0001   -0.0881    0.0026    0.0027    0.0469
          28   -0.0426    0.0302    0.0134   -0.0361   -0.0160   -0.0600   -0.0339    0.0569
          29    0.0329   -0.0294    0.0044   -0.0534    0.1217    0.0318    0.0289   -0.0483
          30   -0.0701    0.0654    0.0212    0.0000   -0.0881   -0.0026   -0.0028    0.0468
          31   -0.0372    0.0140   -0.0991    0.0216    0.0439   -0.0177    0.1074    0.1067
          32    0.0288   -0.0080   -0.0006    0.0366    0.0045   -0.0207   -0.0290   -0.0405
          33   -0.0576    0.0142   -0.1146    0.0001    0.0300   -0.0009    0.0072    0.0689
          34    0.0372   -0.0141    0.0992    0.0216   -0.0439   -0.0177    0.1077   -0.1066
          35   -0.0288    0.0080    0.0007    0.0366   -0.0045   -0.0207   -0.0291    0.0405
          36   -0.0576    0.0142   -0.1146   -0.0001    0.0300    0.0009   -0.0074    0.0688
          37   -0.0128   -0.0611   -0.0530    0.0271   -0.0878    0.0878   -0.0385   -0.0368
          38    0.0862    0.1553   -0.0319    0.1183   -0.0270    0.0219   -0.0040   -0.0113
          39   -0.0285   -0.1180   -0.0621   -0.0007   -0.0478    0.0031   -0.0020   -0.0125
          40   -0.0000   -0.0000   -0.0000   -0.1206   -0.0000    0.1022   -0.0226   -0.0000
          41    0.0000    0.0000    0.0000    0.0752   -0.0000    0.0219    0.0016    0.0000
          42    0.1211    0.1688   -0.0915    0.0000   -0.0545    0.0000    0.0000   -0.0157
          43    0.0128    0.0611    0.0530    0.0271    0.0879    0.0877   -0.0386    0.0367
          44   -0.0862   -0.1553    0.0319    0.1183    0.0270    0.0219   -0.0041    0.0113
          45   -0.0285   -0.1179   -0.0621    0.0007   -0.0478   -0.0031    0.0020   -0.0125
          46   -0.0000    0.0000   -0.0000    0.0660    0.0000   -0.0619    0.0043   -0.0000
          47   -0.0000    0.0000   -0.0000   -0.0251    0.0000   -0.0299    0.0708    0.0000
          48    0.0126   -0.0232    0.1136    0.0000   -0.1671    0.0000   -0.0001    0.0955


   Root No.       9        10        11        12        13        14        15        16

                 9 A      10 A      11 A      12 A      13 A      14 A      15 A      16 A   

                 828.3     893.1     951.4     985.4     990.2    1013.7    1022.7    1045.0
  
           1    0.0000   -0.0000   -0.0030    0.0000    0.0225   -0.0000    0.0152    0.0250
           2   -0.0000    0.0000    0.0033    0.0000    0.0202   -0.0000    0.0589    0.0062
           3    0.0179    0.0116   -0.0000   -0.0120    0.0000   -0.0181    0.0000    0.0000
           4    0.0000    0.0000    0.0104   -0.0000   -0.0138    0.0000   -0.0197   -0.0320
           5   -0.0000    0.0000   -0.0495   -0.0000   -0.0318    0.0000    0.0334    0.0130
           6    0.0237   -0.0299   -0.0000    0.0075    0.0000    0.0256    0.0000   -0.0000
           7    0.0000   -0.0000    0.0085   -0.0000    0.0036   -0.0000    0.0395   -0.0176
           8    0.0000    0.0000    0.0007   -0.0000   -0.0107    0.0000   -0.0415   -0.0042
           9   -0.0233    0.0168    0.0000    0.0246   -0.0000    0.0220    0.0000   -0.0000
          10   -0.0000   -0.0000    0.0037    0.0000    0.0260   -0.0000   -0.0276   -0.0053
          11   -0.0000   -0.0000    0.0451   -0.0000   -0.0138    0.0000   -0.0017    0.0131
          12    0.0018    0.0213    0.0000   -0.0200    0.0000    0.0247    0.0000    0.0000
          13    0.0000   -0.0000   -0.0025   -0.0000   -0.0103    0.0000    0.0181    0.0043
          14   -0.0000   -0.0000    0.0166   -0.0000    0.0074    0.0000   -0.0029   -0.0093
          15   -0.0055    0.0100    0.0000    0.0159   -0.0000   -0.0302   -0.0000    0.0000
          16    0.0000    0.0000   -0.0108    0.0000   -0.0129    0.0000    0.0014    0.0195
          17    0.0000    0.0000    0.0060    0.0000    0.0381    0.0000   -0.0447    0.0085
          18   -0.0225   -0.0255   -0.0000   -0.0329    0.0000   -0.0180   -0.0000    0.0000
          19    0.0854   -0.0281   -0.0409   -0.0673    0.0041   -0.0089    0.0018    0.0766
          20    0.0307    0.0730    0.0301    0.0036    0.0337   -0.0576    0.0813   -0.0354
          21   -0.0423   -0.0215    0.0006    0.0180   -0.0009    0.0228   -0.0074    0.0004
          22   -0.0854    0.0281   -0.0409    0.0674    0.0041    0.0089    0.0018    0.0765
          23   -0.0307   -0.0730    0.0301   -0.0036    0.0337    0.0575    0.0813   -0.0354
          24   -0.0423   -0.0215   -0.0006    0.0180    0.0009    0.0228    0.0074   -0.0004
          25    0.0774   -0.0252   -0.0253   -0.1022   -0.0604    0.0240   -0.0747   -0.0722
          26   -0.0592    0.0885   -0.0939   -0.0845   -0.0845   -0.0604    0.0085   -0.0154
          27   -0.0512    0.0365   -0.0084    0.0070   -0.0072   -0.0232    0.0094    0.0028
          28   -0.0774    0.0253   -0.0253    0.1022   -0.0605   -0.0240   -0.0746   -0.0722
          29    0.0592   -0.0885   -0.0939    0.0844   -0.0844    0.0605    0.0086   -0.0154
          30   -0.0512    0.0365    0.0083    0.0071    0.0072   -0.0231   -0.0094   -0.0028
          31    0.0853   -0.0397    0.0087   -0.0571   -0.0307   -0.0928    0.0517   -0.0611
          32    0.0303    0.0690    0.0035    0.0279   -0.0811   -0.1210   -0.0424   -0.0953
          33    0.0295   -0.0333   -0.0000   -0.0252   -0.0025   -0.0083    0.0089   -0.0046
          34   -0.0853    0.0397    0.0087    0.0570   -0.0306    0.0928    0.0518   -0.0611
          35   -0.0303   -0.0690    0.0035   -0.0279   -0.0810    0.1211   -0.0423   -0.0954
          36    0.0294   -0.0333    0.0000   -0.0251    0.0025   -0.0083   -0.0089    0.0045
          37   -0.0176   -0.1080   -0.0837    0.0873    0.0864   -0.1063   -0.0642   -0.0334
          38   -0.0055   -0.0312   -0.0836    0.0246    0.0558   -0.0294   -0.0306   -0.0223
          39   -0.0067   -0.0302    0.0037    0.0216    0.0042   -0.0267   -0.0069   -0.0008
          40   -0.0000   -0.0000    0.2580    0.0000   -0.0726   -0.0000   -0.0232    0.0589
          41   -0.0000   -0.0000    0.0157    0.0000   -0.0007   -0.0000   -0.0046    0.0059
          42   -0.0095   -0.0367    0.0000    0.0259   -0.0000   -0.0329   -0.0000    0.0000
          43    0.0176    0.1081   -0.0836   -0.0873    0.0865    0.1063   -0.0641   -0.0334
          44    0.0055    0.0313   -0.0836   -0.0245    0.0558    0.0294   -0.0306   -0.0223
          45   -0.0067   -0.0302   -0.0037    0.0216   -0.0042   -0.0267    0.0068    0.0007
          46   -0.0000   -0.0000   -0.0510   -0.0000   -0.1062    0.0001   -0.1277    0.1932
          47   -0.0000   -0.0000    0.0068   -0.0000    0.0401   -0.0000   -0.0468    0.0063
          48    0.2459    0.0824    0.0000    0.1329   -0.0000    0.0328   -0.0000    0.0000


   Root No.      17        18        19        20        21        22        23        24

                17 A      18 A      19 A      20 A      21 A      22 A      23 A      24 A   

                1068.8    1102.8    1116.1    1119.2    1224.4    1232.5    1292.4    1347.9
  
           1   -0.0000    0.0000   -0.0000    0.0296    0.0162   -0.0307    0.0573   -0.0057
           2   -0.0000   -0.0000   -0.0000   -0.0171   -0.0026   -0.0051   -0.0503   -0.0043
           3   -0.0035    0.0037    0.0547    0.0000    0.0000   -0.0000   -0.0000   -0.0000
           4    0.0000   -0.0000    0.0000   -0.0279    0.0073    0.0532   -0.0140    0.0245
           5   -0.0000    0.0000    0.0000    0.0027    0.0079    0.0221    0.0067    0.0208
           6    0.0037   -0.0339   -0.0249    0.0000    0.0000    0.0000   -0.0000    0.0000
           7   -0.0000   -0.0000    0.0000   -0.0037    0.0077   -0.0152   -0.0039    0.0235
           8    0.0000    0.0000    0.0000    0.0237   -0.0240   -0.0076    0.0332    0.0492
           9    0.0034    0.0292   -0.0281   -0.0000   -0.0000   -0.0000    0.0000    0.0000
          10   -0.0000    0.0000    0.0000    0.0016    0.0068   -0.0118    0.0029   -0.0183
          11   -0.0000    0.0000   -0.0000    0.0014   -0.0067   -0.0120   -0.0006   -0.0015
          12    0.0160   -0.0077    0.0018    0.0000   -0.0000   -0.0000    0.0000   -0.0000
          13    0.0000   -0.0000   -0.0000    0.0009   -0.0196    0.0302    0.0165   -0.0113
          14    0.0000   -0.0000    0.0000    0.0016    0.0206    0.0271    0.0088   -0.0104
          15   -0.0340    0.0217   -0.0053   -0.0000    0.0000    0.0000    0.0000   -0.0000
          16   -0.0000   -0.0000   -0.0000   -0.0088   -0.0415    0.0198    0.0035   -0.0183
          17    0.0000    0.0000    0.0000   -0.0114   -0.0115    0.0097   -0.0130   -0.0218
          18    0.0235   -0.0181   -0.0003   -0.0000   -0.0000    0.0000   -0.0000   -0.0000
          19    0.0420    0.2233    0.0536    0.1285   -0.0467   -0.0170   -0.1409   -0.0349
          20   -0.0415   -0.1580    0.0880   -0.0859    0.0531   -0.0530    0.0823   -0.0692
          21    0.0028   -0.0020   -0.0221   -0.0026   -0.0045    0.0195    0.0085    0.0462
          22   -0.0420   -0.2232   -0.0536    0.1286   -0.0467   -0.0170   -0.1409   -0.0349
          23    0.0415    0.1580   -0.0880   -0.0860    0.0531   -0.0530    0.0823   -0.0692
          24    0.0028   -0.0020   -0.0221    0.0026    0.0045   -0.0195   -0.0085   -0.0462
          25   -0.1162   -0.0272   -0.1547   -0.0787   -0.0610   -0.0975   -0.0587   -0.0625
          26   -0.0999    0.0550   -0.0489   -0.0452   -0.0482   -0.1428    0.0253   -0.0107
          27   -0.0006    0.0104    0.0205   -0.0024   -0.0010   -0.0225    0.0281    0.0194
          28    0.1162    0.0272    0.1547   -0.0787   -0.0610   -0.0975   -0.0587   -0.0625
          29    0.0998   -0.0550    0.0489   -0.0452   -0.0482   -0.1428    0.0253   -0.0107
          30   -0.0005    0.0104    0.0206    0.0024    0.0010    0.0225   -0.0281   -0.0194
          31    0.0428   -0.0536    0.0046    0.0539    0.0832   -0.0269   -0.0746    0.0205
          32    0.1343   -0.0022   -0.1580    0.1308    0.0760    0.0089    0.0055   -0.1068
          33   -0.0056   -0.0063    0.0218    0.0071    0.0202   -0.0110   -0.0360    0.0373
          34   -0.0428    0.0537   -0.0046    0.0539    0.0832   -0.0269   -0.0746    0.0205
          35   -0.1343    0.0023    0.1581    0.1309    0.0760    0.0089    0.0055   -0.1068
          36   -0.0056   -0.0063    0.0218   -0.0070   -0.0202    0.0110    0.0360   -0.0373
          37   -0.0659    0.0305   -0.0080    0.0007    0.0503   -0.0677   -0.0478    0.0827
          38   -0.0177    0.0080   -0.0020   -0.0007    0.0247   -0.0204   -0.0174    0.0123
          39   -0.0163    0.0072   -0.0023    0.0004    0.0093   -0.0228   -0.0177    0.0437
          40   -0.0000    0.0000    0.0000    0.0043    0.0030   -0.1271   -0.0599    0.0793
          41   -0.0000    0.0000   -0.0000    0.0009   -0.0038   -0.0040    0.0029   -0.0082
          42   -0.0204    0.0094   -0.0028    0.0000    0.0000   -0.0000   -0.0000    0.0000
          43    0.0659   -0.0305    0.0080    0.0007    0.0503   -0.0677   -0.0478    0.0827
          44    0.0177   -0.0081    0.0021   -0.0007    0.0247   -0.0204   -0.0174    0.0123
          45   -0.0162    0.0072   -0.0023   -0.0004   -0.0092    0.0228    0.0177   -0.0436
          46   -0.0000   -0.0001    0.0000   -0.1142    0.2214    0.0030   -0.0374   -0.0230
          47    0.0000   -0.0000    0.0000   -0.0100   -0.0135    0.0111   -0.0129   -0.0231
          48   -0.0483    0.0318   -0.0079   -0.0000    0.0000    0.0000   -0.0000   -0.0000


   Root No.      25        26        27        28        29        30        31        32

                25 A      26 A      27 A      28 A      29 A      30 A      31 A      32 A   

                1361.8    1390.6    1390.9    1395.9    1410.8    1424.3    1484.9    1880.3
  
           1    0.0037    0.0033    0.0001   -0.0051   -0.0238   -0.0252   -0.0008   -0.0055
           2   -0.0035    0.0120    0.0002   -0.0120    0.0041   -0.0374    0.0021   -0.0077
           3    0.0000    0.0000   -0.0000   -0.0000   -0.0000   -0.0000    0.0000   -0.0000
           4    0.0189    0.0175    0.0003   -0.0081    0.0130    0.0213   -0.0240   -0.0102
           5    0.0159   -0.0163   -0.0003    0.0227   -0.0216    0.0017   -0.0696    0.0075
           6    0.0000   -0.0000    0.0003    0.0000   -0.0000    0.0000   -0.0000   -0.0000
           7   -0.0108   -0.0130   -0.0002    0.0177    0.0526   -0.0158   -0.0192    0.0129
           8   -0.0318   -0.0076   -0.0001    0.0082    0.0065    0.0163    0.0066    0.0000
           9   -0.0000   -0.0000   -0.0001    0.0000    0.0000   -0.0000   -0.0000    0.0000
          10   -0.0318    0.0125    0.0002   -0.0083    0.0121    0.0027   -0.0840   -0.0520
          11    0.0011   -0.0153   -0.0003   -0.0208    0.0007    0.0013   -0.0349   -0.0069
          12   -0.0000    0.0003   -0.0436   -0.0000    0.0000    0.0000   -0.0000   -0.0000
          13   -0.0062   -0.0049   -0.0001   -0.0025   -0.0061   -0.0012    0.0702    0.2349
          14   -0.0250   -0.0075   -0.0001   -0.0008    0.0155   -0.0064    0.1091   -0.1234
          15   -0.0000    0.0000   -0.0010    0.0000    0.0000   -0.0000    0.0000    0.0000
          16    0.0274    0.0032    0.0001   -0.0023   -0.0282    0.0050    0.0231   -0.1920
          17    0.0188    0.0093    0.0002   -0.0101   -0.0139    0.0050   -0.0257    0.1105
          18    0.0000    0.0000   -0.0002   -0.0000   -0.0000    0.0000   -0.0000   -0.0000
          19   -0.0165   -0.0249   -0.0006    0.0216    0.0717    0.1020    0.0263   -0.0018
          20    0.0279   -0.0442   -0.0007    0.0382   -0.0091    0.1500   -0.0010   -0.0020
          21   -0.0086    0.0406    0.0007   -0.0367   -0.0305   -0.1481   -0.0100   -0.0070
          22   -0.0165   -0.0249   -0.0003    0.0216    0.0717    0.1020    0.0263   -0.0018
          23    0.0279   -0.0442   -0.0008    0.0382   -0.0091    0.1500   -0.0010   -0.0020
          24    0.0086   -0.0406   -0.0007    0.0367    0.0305    0.1481    0.0100    0.0070
          25   -0.0618   -0.0738   -0.0020    0.0481   -0.0537   -0.0675    0.0215    0.0243
          26    0.0180    0.0813   -0.0002   -0.0752    0.0568    0.0245    0.0517    0.0319
          27    0.0345    0.0873    0.0009   -0.0732    0.0667    0.0481    0.0417    0.0031
          28   -0.0618   -0.0738   -0.0004    0.0481   -0.0537   -0.0675    0.0215    0.0243
          29    0.0181    0.0813    0.0028   -0.0752    0.0569    0.0245    0.0517    0.0319
          30   -0.0345   -0.0873   -0.0019    0.0731   -0.0667   -0.0481   -0.0416   -0.0031
          31   -0.0609    0.0356    0.0009   -0.0495   -0.1251    0.0618    0.0125    0.0197
          32    0.0818    0.0044    0.0004   -0.0015    0.0258   -0.0573   -0.0215    0.0217
          33   -0.0589    0.0264    0.0004   -0.0383   -0.1120    0.0652    0.0270    0.0046
          34   -0.0609    0.0356    0.0003   -0.0495   -0.1252    0.0618    0.0125    0.0197
          35    0.0818    0.0044   -0.0002   -0.0015    0.0257   -0.0573   -0.0215    0.0217
          36    0.0589   -0.0264   -0.0005    0.0383    0.1119   -0.0652   -0.0270   -0.0046
          37    0.0973   -0.0757   -0.0713   -0.0265   -0.0106   -0.0057    0.0934   -0.0250
          38    0.0133    0.1112   -0.2409    0.1307   -0.0161   -0.0042    0.0763   -0.0016
          39    0.0580   -0.0980    0.0506   -0.0743   -0.0036   -0.0019    0.0413    0.0047
          40    0.1176    0.0655    0.0010    0.1181   -0.0465   -0.0032    0.0628    0.0520
          41   -0.0094   -0.0102   -0.0001   -0.0193    0.0039    0.0012   -0.0369   -0.0173
          42    0.0001   -0.0027    0.4279    0.0000    0.0000    0.0000    0.0000    0.0000
          43    0.0974   -0.0766    0.0688   -0.0265   -0.0106   -0.0057    0.0934   -0.0250
          44    0.0133    0.1081    0.2445    0.1308   -0.0161   -0.0042    0.0763   -0.0016
          45   -0.0579    0.0973    0.0539    0.0742    0.0036    0.0019   -0.0413   -0.0047
          46   -0.0471   -0.0085   -0.0001   -0.0041    0.0470   -0.0209    0.0436    0.0564
          47    0.0193    0.0101    0.0002   -0.0115   -0.0148    0.0062   -0.0271    0.1551
          48   -0.0000   -0.0000    0.0008   -0.0000    0.0000   -0.0000    0.0000    0.0000


   Root No.      33        34        35        36        37        38        39        40

                33 A      34 A      35 A      36 A      37 A      38 A      39 A      40 A   

                2969.8    2975.0    2994.2    3053.6    3054.4    3067.5    3071.6    3078.1
  
           1   -0.0000    0.0000    0.0000   -0.0019   -0.0026   -0.0000   -0.0208    0.0001
           2    0.0000   -0.0000    0.0000   -0.0015   -0.0040   -0.0000   -0.0278    0.0002
           3    0.0174    0.0006   -0.0345    0.0000   -0.0000   -0.0000   -0.0000    0.0000
           4    0.0000    0.0000    0.0000   -0.0190   -0.0063   -0.0000    0.0019    0.0003
           5    0.0000    0.0000    0.0000    0.0237    0.0077    0.0000   -0.0031    0.0001
           6   -0.0215   -0.0308   -0.0135   -0.0000   -0.0000    0.0001    0.0000    0.0000
           7   -0.0000    0.0000   -0.0000   -0.0096    0.0266   -0.0000   -0.0037    0.0001
           8    0.0000   -0.0000    0.0000    0.0039   -0.0110    0.0000    0.0010    0.0000
           9   -0.0227    0.0297   -0.0133    0.0000   -0.0000   -0.0001    0.0000   -0.0000
          10    0.0000    0.0000    0.0000   -0.0000    0.0000    0.0000    0.0000    0.0142
          11   -0.0000   -0.0000   -0.0000   -0.0001   -0.0000    0.0000   -0.0003   -0.0485
          12   -0.0001   -0.0001   -0.0001    0.0000   -0.0000   -0.0577    0.0000   -0.0000
          13    0.0000   -0.0000    0.0000    0.0001   -0.0006   -0.0000    0.0005    0.0004
          14   -0.0000   -0.0000   -0.0000    0.0005    0.0002    0.0000    0.0001   -0.0002
          15   -0.0001    0.0001   -0.0001    0.0000   -0.0000   -0.0001    0.0000    0.0000
          16   -0.0000    0.0000   -0.0000    0.0001    0.0005    0.0000    0.0000   -0.0005
          17    0.0000    0.0000    0.0000   -0.0002    0.0014    0.0000   -0.0008   -0.0007
          18   -0.0001   -0.0001   -0.0001   -0.0000    0.0000   -0.0002   -0.0000   -0.0000
          19   -0.0478    0.0010    0.0975    0.0069    0.0163    0.0000    0.1253   -0.0009
          20   -0.0637   -0.0045    0.1301    0.0112    0.0208    0.0000    0.1671   -0.0011
          21   -0.1047   -0.0038    0.2065    0.0202    0.0406    0.0000    0.3183   -0.0021
          22    0.0478   -0.0010   -0.0976    0.0069    0.0163   -0.0000    0.1253   -0.0009
          23    0.0637    0.0045   -0.1301    0.0112    0.0208   -0.0000    0.1671   -0.0011
          24   -0.1047   -0.0038    0.2065   -0.0202   -0.0406    0.0000   -0.3183    0.0021
          25    0.0620    0.0907    0.0421    0.1148    0.0362   -0.0008   -0.0156   -0.0001
          26   -0.0786   -0.1125   -0.0493   -0.1422   -0.0453    0.0004    0.0179    0.0007
          27    0.1297    0.1858    0.0810    0.2792    0.0887   -0.0011   -0.0360   -0.0009
          28   -0.0620   -0.0907   -0.0421    0.1148    0.0362    0.0008   -0.0156   -0.0001
          29    0.0786    0.1125    0.0493   -0.1421   -0.0452   -0.0004    0.0179    0.0007
          30    0.1297    0.1858    0.0811   -0.2792   -0.0887   -0.0011    0.0360    0.0009
          31   -0.0980    0.1287   -0.0582    0.0591   -0.1585   -0.0001    0.0221   -0.0002
          32    0.0396   -0.0536    0.0262   -0.0249    0.0660    0.0001   -0.0103    0.0001
          33    0.1367   -0.1789    0.0796   -0.0978    0.2624    0.0002   -0.0369    0.0004
          34    0.0980   -0.1287    0.0582    0.0590   -0.1583    0.0001    0.0221   -0.0002
          35   -0.0397    0.0537   -0.0262   -0.0248    0.0659   -0.0001   -0.0103    0.0001
          36    0.1368   -0.1790    0.0797    0.0978   -0.2623    0.0002    0.0369   -0.0004
          37   -0.0003   -0.0006   -0.0002    0.0002    0.0000   -0.2141   -0.0006   -0.1069
          38    0.0000    0.0002    0.0000    0.0002    0.0000    0.1756    0.0004    0.0697
          39    0.0003    0.0006    0.0002    0.0000   -0.0000    0.3602    0.0012    0.2089
          40    0.0000    0.0000    0.0000    0.0002    0.0001   -0.0000    0.0003    0.0422
          41    0.0000    0.0000    0.0000    0.0022    0.0009   -0.0002    0.0023    0.4387
          42   -0.0000   -0.0001   -0.0000   -0.0000   -0.0000   -0.0290   -0.0000   -0.0000
          43    0.0003    0.0006    0.0002    0.0002    0.0000    0.2141   -0.0006   -0.1066
          44   -0.0000   -0.0002   -0.0000    0.0002    0.0000   -0.1755    0.0004    0.0695
          45    0.0003    0.0006    0.0002   -0.0000    0.0000    0.3605   -0.0012   -0.2087
          46    0.0000   -0.0000    0.0000   -0.0003    0.0013    0.0000    0.0002   -0.0007
          47   -0.0000    0.0000    0.0000   -0.0038   -0.0173   -0.0000    0.0151    0.0091
          48   -0.0007    0.0003   -0.0005   -0.0000   -0.0000    0.0005    0.0000    0.0000


   Root No.      41        42

                41 A      42 A   

                3123.4    3166.3
  
           1    0.0011    0.0000
           2    0.0016    0.0000
           3    0.0000   -0.0000
           4   -0.0011    0.0001
           5    0.0018   -0.0000
           6    0.0000   -0.0000
           7    0.0024   -0.0000
           8   -0.0008    0.0000
           9   -0.0000    0.0000
          10   -0.0002   -0.0232
          11    0.0010   -0.0087
          12   -0.0000   -0.0000
          13   -0.0058   -0.0003
          14    0.0032   -0.0000
          15   -0.0000   -0.0000
          16    0.0042    0.0002
          17   -0.0716    0.0003
          18   -0.0000    0.0000
          19   -0.0040    0.0000
          20   -0.0050   -0.0000
          21   -0.0098   -0.0000
          22   -0.0040    0.0000
          23   -0.0050   -0.0000
          24    0.0098    0.0000
          25    0.0041   -0.0006
          26   -0.0049    0.0004
          27    0.0097   -0.0010
          28    0.0041   -0.0006
          29   -0.0049    0.0004
          30   -0.0097    0.0010
          31   -0.0114    0.0001
          32    0.0022   -0.0000
          33    0.0167   -0.0002
          34   -0.0114    0.0001
          35    0.0022   -0.0000
          36   -0.0167    0.0002
          37    0.0046    0.1308
          38   -0.0031   -0.1189
          39   -0.0082   -0.2572
          40    0.0004    0.0163
          41   -0.0058    0.3422
          42    0.0000   -0.0000
          43    0.0046    0.1307
          44   -0.0031   -0.1189
          45    0.0082    0.2572
          46    0.0053   -0.0005
          47    0.8013   -0.0048
          48    0.0001   -0.0000


           MASS-WEIGHTED COORDINATE ANALYSIS (NORMAL COORDINATES)


   Root No.       1         2         3         4         5         6         7         8

                 1 A       2 A       3 A       4 A       5 A       6 A       7 A       8 A   

                  99.0     106.5     219.9     338.8     451.2     613.3     712.8     753.2
  
           1    0.0000   -0.0000   -0.0000   -0.1863   -0.0000   -0.3627   -0.1488   -0.0001
           2   -0.0000    0.0000    0.0000    0.0509   -0.0000   -0.1553   -0.3966   -0.0003
           3    0.3962   -0.1538   -0.0415   -0.0000   -0.0425   -0.0000    0.0001   -0.1917
           4    0.0000   -0.0000   -0.0000   -0.1316   -0.0000   -0.2859   -0.2896   -0.0002
           5    0.0000   -0.0000   -0.0000   -0.2992    0.0000    0.2380    0.0593    0.0001
           6   -0.2931    0.2963    0.1334   -0.0001   -0.0467    0.0000    0.0001   -0.1126
           7    0.0000   -0.0000    0.0001    0.1033   -0.0000   -0.1366    0.5433    0.0004
           8   -0.0000    0.0000    0.0000    0.1301   -0.0000   -0.2220   -0.1740   -0.0001
           9   -0.2226    0.0173   -0.3429    0.0000   -0.0017   -0.0000    0.0002   -0.2144
          10   -0.0000    0.0000    0.0001   -0.0946    0.0001    0.5282   -0.1709   -0.0001
          11   -0.0000    0.0000    0.0001    0.4786    0.0000    0.1508    0.0114    0.0000
          12    0.1645   -0.1183   -0.3428    0.0001   -0.0510    0.0001   -0.0000    0.0475
          13   -0.0000   -0.0000   -0.0000    0.1323   -0.0001    0.2955   -0.1057   -0.0001
          14    0.0000    0.0000   -0.0000   -0.3511   -0.0001    0.1906    0.1182    0.0001
          15   -0.0359    0.0443    0.2792   -0.0000    0.6754   -0.0000   -0.0001    0.1302
          16   -0.0000    0.0000   -0.0001    0.2475    0.0000   -0.0168    0.1930    0.0001
          17    0.0000    0.0000   -0.0001   -0.1965    0.0000   -0.1941    0.4139    0.0003
          18   -0.0199   -0.0683    0.4954    0.0000   -0.2564   -0.0000    0.0001   -0.0291
          19   -0.1263    0.0809    0.0243   -0.0891    0.0009   -0.0936   -0.0809   -0.1924
          20   -0.1563    0.0597   -0.0526    0.0414    0.0056   -0.0680   -0.1094   -0.2990
          21    0.2681   -0.1181    0.0093   -0.0000   -0.0164    0.0060    0.0098    0.2264
          22    0.1263   -0.0809   -0.0243   -0.0890   -0.0009   -0.0937   -0.0812    0.1922
          23    0.1563   -0.0597    0.0527    0.0414   -0.0056   -0.0680   -0.1099    0.2988
          24    0.2681   -0.1181    0.0093    0.0000   -0.0164   -0.0061   -0.0102    0.2264
          25    0.1189   -0.0771   -0.0298   -0.0805    0.0341   -0.1114   -0.0571   -0.1641
          26   -0.0919    0.0751   -0.0098   -0.1190   -0.2593    0.0592    0.0487    0.1394
          27   -0.1957    0.1670    0.0471   -0.0002   -0.1877    0.0048    0.0046    0.1351
          28   -0.1189    0.0771    0.0298   -0.0805   -0.0341   -0.1115   -0.0573    0.1640
          29    0.0920   -0.0752    0.0098   -0.1190    0.2594    0.0592    0.0489   -0.1394
          30   -0.1957    0.1670    0.0471    0.0001   -0.1876   -0.0048   -0.0047    0.1351
          31   -0.1038    0.0359   -0.2206    0.0481    0.0935   -0.0330    0.1819    0.3076
          32    0.0803   -0.0205   -0.0014    0.0815    0.0096   -0.0384   -0.0490   -0.1168
          33   -0.1608    0.0363   -0.2550    0.0002    0.0639   -0.0017    0.0122    0.1986
          34    0.1038   -0.0359    0.2207    0.0481   -0.0935   -0.0330    0.1823   -0.3074
          35   -0.0803    0.0205    0.0015    0.0815   -0.0096   -0.0385   -0.0492    0.1166
          36   -0.1608    0.0363   -0.2549   -0.0002    0.0639    0.0017   -0.0125    0.1984
          37   -0.0358   -0.1560   -0.1179    0.0605   -0.1872    0.1632   -0.0653   -0.1060
          38    0.2405    0.3967   -0.0709    0.2636   -0.0576    0.0406   -0.0068   -0.0326
          39   -0.0796   -0.3013   -0.1381   -0.0015   -0.1019    0.0058   -0.0034   -0.0361
          40   -0.0000   -0.0001   -0.0000   -0.2686   -0.0000    0.1899   -0.0382   -0.0000
          41    0.0000    0.0001    0.0000    0.1674   -0.0000    0.0408    0.0026    0.0000
          42    0.3379    0.4312   -0.2037    0.0000   -0.1162    0.0000    0.0000   -0.0452
          43    0.0358    0.1561    0.1180    0.0604    0.1873    0.1631   -0.0654    0.1060
          44   -0.2406   -0.3968    0.0710    0.2635    0.0576    0.0406   -0.0069    0.0326
          45   -0.0796   -0.3012   -0.1381    0.0016   -0.1019   -0.0057    0.0034   -0.0360
          46   -0.0000    0.0000   -0.0000    0.1470    0.0000   -0.1152    0.0074   -0.0000
          47   -0.0000    0.0000   -0.0000   -0.0559    0.0001   -0.0556    0.1198    0.0000
          48    0.0351   -0.0593    0.2528    0.0000   -0.3561    0.0000   -0.0002    0.2754


   Root No.       9        10        11        12        13        14        15        16

                 9 A      10 A      11 A      12 A      13 A      14 A      15 A      16 A   

                 828.3     893.1     951.4     985.4     990.2    1013.7    1022.7    1045.0
  
           1    0.0000   -0.0000   -0.0241    0.0000    0.2102   -0.0001    0.1172    0.2397
           2   -0.0000    0.0000    0.0266    0.0001    0.1890   -0.0002    0.4534    0.0595
           3    0.1613    0.1191   -0.0000   -0.1194    0.0000   -0.1725    0.0000    0.0001
           4    0.0000    0.0000    0.0836   -0.0000   -0.1289    0.0000   -0.1513   -0.3062
           5   -0.0000    0.0000   -0.3992   -0.0001   -0.2969    0.0000    0.2570    0.1249
           6    0.2129   -0.3074   -0.0000    0.0748    0.0000    0.2441    0.0001   -0.0001
           7    0.0000   -0.0000    0.0688   -0.0000    0.0337   -0.0001    0.3038   -0.1681
           8    0.0000    0.0000    0.0054   -0.0001   -0.0999    0.0001   -0.3195   -0.0406
           9   -0.2100    0.1728    0.0000    0.2447   -0.0000    0.2091    0.0001   -0.0000
          10   -0.0000   -0.0000    0.0295    0.0001    0.2425   -0.0001   -0.2123   -0.0506
          11   -0.0000   -0.0000    0.3643   -0.0000   -0.1287    0.0000   -0.0129    0.1251
          12    0.0162    0.2193    0.0001   -0.1990    0.0001    0.2351    0.0001    0.0000
          13    0.0000   -0.0000   -0.0198   -0.0000   -0.0959    0.0000    0.1396    0.0411
          14   -0.0000   -0.0000    0.1337   -0.0000    0.0688    0.0000   -0.0226   -0.0890
          15   -0.0494    0.1023    0.0000    0.1580   -0.0001   -0.2873   -0.0001    0.0000
          16    0.0000    0.0000   -0.0870    0.0000   -0.1205    0.0001    0.0105    0.1864
          17    0.0000    0.0000    0.0487    0.0001    0.3561    0.0000   -0.3441    0.0812
          18   -0.2026   -0.2618   -0.0000   -0.3277    0.0001   -0.1719   -0.0001    0.0001
          19    0.2226   -0.0836   -0.0957   -0.1941    0.0111   -0.0246    0.0040    0.2124
          20    0.0800    0.2173    0.0704    0.0104    0.0910   -0.1588    0.1812   -0.0983
          21   -0.1104   -0.0641    0.0014    0.0520   -0.0026    0.0629   -0.0165    0.0012
          22   -0.2226    0.0836   -0.0956    0.1942    0.0110    0.0246    0.0039    0.2123
          23   -0.0800   -0.2174    0.0704   -0.0104    0.0910    0.1587    0.1812   -0.0983
          24   -0.1103   -0.0641   -0.0014    0.0520    0.0025    0.0629    0.0165   -0.0012
          25    0.2019   -0.0751   -0.0591   -0.2947   -0.1635    0.0663   -0.1664   -0.2003
          26   -0.1542    0.2632   -0.2195   -0.2435   -0.2285   -0.1667    0.0190   -0.0428
          27   -0.1335    0.1087   -0.0196    0.0203   -0.0195   -0.0639    0.0208    0.0079
          28   -0.2019    0.0752   -0.0591    0.2946   -0.1637   -0.0662   -0.1663   -0.2002
          29    0.1543   -0.2633   -0.2194    0.2434   -0.2285    0.1669    0.0191   -0.0428
          30   -0.1335    0.1086    0.0194    0.0204    0.0194   -0.0639   -0.0208   -0.0079
          31    0.2223   -0.1181    0.0203   -0.1644   -0.0829   -0.2561    0.1153   -0.1696
          32    0.0789    0.2053    0.0082    0.0803   -0.2195   -0.3339   -0.0945   -0.2645
          33    0.0769   -0.0990   -0.0000   -0.0725   -0.0067   -0.0229    0.0198   -0.0126
          34   -0.2223    0.1181    0.0203    0.1644   -0.0829    0.2561    0.1154   -0.1696
          35   -0.0789   -0.2053    0.0083   -0.0805   -0.2192    0.3340   -0.0943   -0.2645
          36    0.0768   -0.0990    0.0000   -0.0725    0.0066   -0.0228   -0.0198    0.0125
          37   -0.0458   -0.3215   -0.1956    0.2516    0.2339   -0.2932   -0.1430   -0.0927
          38   -0.0144   -0.0930   -0.1954    0.0708    0.1508   -0.0811   -0.0681   -0.0619
          39   -0.0174   -0.0899    0.0085    0.0623    0.0114   -0.0737   -0.0154   -0.0021
          40   -0.0000   -0.0001    0.6031    0.0000   -0.1965   -0.0000   -0.0517    0.1634
          41   -0.0000   -0.0000    0.0368    0.0000   -0.0020   -0.0000   -0.0102    0.0165
          42   -0.0249   -0.1093    0.0001    0.0747   -0.0001   -0.0907   -0.0000    0.0000
          43    0.0458    0.3217   -0.1954   -0.2517    0.2340    0.2932   -0.1428   -0.0927
          44    0.0144    0.0931   -0.1954   -0.0708    0.1509    0.0811   -0.0681   -0.0619
          45   -0.0174   -0.0897   -0.0086    0.0622   -0.0114   -0.0736    0.0153    0.0021
          46   -0.0000   -0.0000   -0.1193   -0.0001   -0.2872    0.0002   -0.2845    0.5359
          47   -0.0001   -0.0000    0.0160   -0.0000    0.1084   -0.0000   -0.1044    0.0173
          48    0.6410    0.2451    0.0000    0.3831   -0.0001    0.0904   -0.0000    0.0000


   Root No.      17        18        19        20        21        22        23        24

                17 A      18 A      19 A      20 A      21 A      22 A      23 A      24 A   

                1068.8    1102.8    1116.1    1119.2    1224.4    1232.5    1292.4    1347.9
  
           1   -0.0000    0.0001   -0.0001    0.2633    0.1445   -0.2497    0.4663   -0.0523
           2   -0.0000   -0.0000   -0.0001   -0.1522   -0.0230   -0.0411   -0.4093   -0.0396
           3   -0.0334    0.0286    0.4454    0.0000    0.0000   -0.0000   -0.0000   -0.0000
           4    0.0000   -0.0000    0.0001   -0.2482    0.0649    0.4326   -0.1143    0.2245
           5   -0.0000    0.0000    0.0000    0.0241    0.0706    0.1799    0.0548    0.1906
           6    0.0355   -0.2610   -0.2028    0.0001    0.0000    0.0000   -0.0000    0.0000
           7   -0.0000   -0.0000    0.0000   -0.0327    0.0690   -0.1234   -0.0316    0.2153
           8    0.0000    0.0000    0.0001    0.2111   -0.2144   -0.0615    0.2701    0.4513
           9    0.0329    0.2252   -0.2291   -0.0001   -0.0000   -0.0000    0.0000    0.0001
          10   -0.0000    0.0000    0.0000    0.0139    0.0611   -0.0963    0.0237   -0.1678
          11   -0.0000    0.0000   -0.0000    0.0121   -0.0603   -0.0979   -0.0049   -0.0141
          12    0.1528   -0.0593    0.0149    0.0000   -0.0000   -0.0000    0.0000   -0.0001
          13    0.0000   -0.0000   -0.0000    0.0079   -0.1753    0.2456    0.1344   -0.1037
          14    0.0001   -0.0000    0.0000    0.0146    0.1844    0.2199    0.0713   -0.0955
          15   -0.3257    0.1672   -0.0433   -0.0000    0.0000    0.0001    0.0000   -0.0000
          16   -0.0000   -0.0000   -0.0000   -0.0782   -0.3713    0.1612    0.0281   -0.1684
          17    0.0000    0.0000    0.0000   -0.1016   -0.1027    0.0787   -0.1061   -0.2000
          18    0.2248   -0.1395   -0.0022   -0.0000   -0.0001    0.0000   -0.0000   -0.0000
          19    0.1163    0.4985    0.1265    0.3315   -0.1211   -0.0401   -0.3325   -0.0927
          20   -0.1151   -0.3528    0.2075   -0.2216    0.1375   -0.1248    0.1942   -0.1840
          21    0.0077   -0.0044   -0.0521   -0.0066   -0.0116    0.0460    0.0200    0.1228
          22   -0.1163   -0.4983   -0.1265    0.3318   -0.1211   -0.0400   -0.3325   -0.0927
          23    0.1151    0.3527   -0.2076   -0.2218    0.1375   -0.1249    0.1942   -0.1840
          24    0.0077   -0.0044   -0.0520    0.0066    0.0116   -0.0460   -0.0200   -0.1228
          25   -0.3221   -0.0608   -0.3649   -0.2031   -0.1581   -0.2297   -0.1386   -0.1662
          26   -0.2767    0.1227   -0.1152   -0.1165   -0.1250   -0.3363    0.0597   -0.0284
          27   -0.0016    0.0233    0.0484   -0.0063   -0.0026   -0.0530    0.0662    0.0516
          28    0.3221    0.0607    0.3650   -0.2031   -0.1581   -0.2297   -0.1385   -0.1662
          29    0.2767   -0.1229    0.1153   -0.1165   -0.1250   -0.3363    0.0598   -0.0283
          30   -0.0015    0.0233    0.0485    0.0062    0.0026    0.0529   -0.0662   -0.0517
          31    0.1185   -0.1197    0.0108    0.1389    0.2156   -0.0634   -0.1759    0.0545
          32    0.3722   -0.0049   -0.3728    0.3375    0.1970    0.0210    0.0130   -0.2840
          33   -0.0155   -0.0141    0.0513    0.0182    0.0524   -0.0258   -0.0849    0.0991
          34   -0.1185    0.1198   -0.0108    0.1389    0.2156   -0.0634   -0.1759    0.0545
          35   -0.3721    0.0051    0.3729    0.3375    0.1970    0.0210    0.0130   -0.2840
          36   -0.0156   -0.0141    0.0514   -0.0181   -0.0523    0.0258    0.0849   -0.0992
          37   -0.1826    0.0681   -0.0188    0.0018    0.1303   -0.1594   -0.1127    0.2198
          38   -0.0491    0.0180   -0.0048   -0.0017    0.0639   -0.0480   -0.0411    0.0328
          39   -0.0451    0.0162   -0.0055    0.0011    0.0240   -0.0537   -0.0417    0.1161
          40   -0.0001    0.0000    0.0000    0.0112    0.0079   -0.2993   -0.1414    0.2109
          41   -0.0000    0.0000   -0.0000    0.0024   -0.0098   -0.0095    0.0069   -0.0219
          42   -0.0566    0.0210   -0.0066    0.0000    0.0000   -0.0001   -0.0000    0.0001
          43    0.1827   -0.0681    0.0188    0.0019    0.1303   -0.1594   -0.1127    0.2198
          44    0.0492   -0.0180    0.0048   -0.0017    0.0639   -0.0479   -0.0411    0.0328
          45   -0.0450    0.0161   -0.0055   -0.0011   -0.0239    0.0536    0.0417   -0.1160
          46   -0.0000   -0.0002    0.0000   -0.2944    0.5734    0.0070   -0.0882   -0.0612
          47    0.0000   -0.0000    0.0000   -0.0259   -0.0349    0.0261   -0.0304   -0.0613
          48   -0.1339    0.0710   -0.0187   -0.0000    0.0001    0.0000   -0.0000   -0.0000


   Root No.      25        26        27        28        29        30        31        32

                25 A      26 A      27 A      28 A      29 A      30 A      31 A      32 A   

                1361.8    1390.6    1390.9    1395.9    1410.8    1424.3    1484.9    1880.3
  
           1    0.0343    0.0315    0.0003   -0.0500   -0.2046   -0.2021   -0.0043   -0.0156
           2   -0.0325    0.1152    0.0012   -0.1186    0.0350   -0.3003    0.0111   -0.0217
           3    0.0000    0.0000   -0.0001   -0.0000   -0.0000   -0.0000    0.0000   -0.0000
[...]
 TRANSITION DIPOLE   0.0092         C  3 -- H 12         +15.1% ( 50.2%)      0.0%
 TRAVEL (Ang.)       0.2297         C  3 -- H 11         +15.1% ( 50.2%)      0.0%
 REDUCED MASS        0.9483         C  1 -- C  3          +9.7% ( 40.3%)     50.3%
 EFFECTIVE MASS      5.6292
 FORCE CONSTANT      1.0151

 VIBRATION         25   25A           ATOM PAIR      ENERGY CONTRIBUTION    RADIAL
 FREQUENCY          1361.83         C  3 -- C  6         +12.1% ( 42.5%)     86.4%
 TRANSITION DIPOLE   0.0514         C  4 -- H 14         +10.5% ( 39.7%)      0.2%
 TRAVEL (Ang.)       0.3340         C  3 -- H 12          +9.2% ( 37.2%)      0.3%
 REDUCED MASS        0.4438         C  3 -- H 11          +9.2% ( 37.2%)      0.3%
 EFFECTIVE MASS      4.9396
 FORCE CONSTANT      0.4850

 VIBRATION         26   26A           ATOM PAIR      ENERGY CONTRIBUTION    RADIAL
 FREQUENCY          1390.62         C  4 -- H 13         +17.2% ( 40.3%)      2.4%
 TRANSITION DIPOLE   0.0522         C  4 -- H 15         +16.8% ( 39.8%)      2.6%
 TRAVEL (Ang.)       0.4933         C  2 -- H  9         +15.2% ( 37.9%)      4.6%
 REDUCED MASS        0.1993         C  2 -- H 10         +15.2% ( 37.9%)      4.6%
 EFFECTIVE MASS      2.3495
 FORCE CONSTANT      0.2271

 VIBRATION         27   27A           ATOM PAIR      ENERGY CONTRIBUTION    RADIAL
 FREQUENCY          1390.86         C  4 -- H 14         +54.4% ( 63.8%)      0.0%
 TRANSITION DIPOLE   0.0624         C  4 -- H 15         +20.5% ( 39.1%)     11.3%
 TRAVEL (Ang.)       0.3375         C  4 -- H 13         +19.9% ( 38.6%)     11.9%
 REDUCED MASS        0.4257         C  4 -- C  5          +5.2% ( 19.7%)      0.0%
 EFFECTIVE MASS      1.5729
 FORCE CONSTANT      0.4852

 VIBRATION         28   28A           ATOM PAIR      ENERGY CONTRIBUTION    RADIAL
 FREQUENCY          1395.86         C  4 -- H 15         +15.5% ( 39.9%)      0.3%
 TRANSITION DIPOLE   0.0302         C  4 -- H 13         +15.5% ( 39.9%)      0.3%
 TRAVEL (Ang.)       0.4908         C  2 -- H 10         +11.2% ( 33.9%)      5.1%
 REDUCED MASS        0.2006         C  2 -- H  9         +11.2% ( 33.9%)      5.1%
 EFFECTIVE MASS      2.6611
 FORCE CONSTANT      0.2303

 VIBRATION         29   29A           ATOM PAIR      ENERGY CONTRIBUTION    RADIAL
 FREQUENCY          1410.81         C  3 -- H 12         +17.2% ( 51.9%)      6.3%
 TRANSITION DIPOLE   0.0158         C  3 -- H 11         +17.2% ( 51.9%)      6.3%
 TRAVEL (Ang.)       0.2588         C  3 -- C  6         +16.9% ( 51.5%)     91.3%
 REDUCED MASS        0.7135         C  1 -- C  3         +11.5% ( 42.5%)      6.2%
 EFFECTIVE MASS      5.2193
 FORCE CONSTANT      0.8367

 VIBRATION         30   30A           ATOM PAIR      ENERGY CONTRIBUTION    RADIAL
 FREQUENCY          1424.27         C  1 -- H  7         +26.6% ( 54.1%)      5.4%
 TRANSITION DIPOLE   0.0317         C  1 -- H  8         +26.6% ( 54.1%)      5.4%
 TRAVEL (Ang.)       0.3365         C  1 -- C  3         +10.8% ( 34.4%)     80.7%
 REDUCED MASS        0.4182         C  1 -- C  2         +10.7% ( 34.2%)     58.5%
 EFFECTIVE MASS      2.9812
 FORCE CONSTANT      0.4999

 VIBRATION         31   31A           ATOM PAIR      ENERGY CONTRIBUTION    RADIAL
 FREQUENCY          1484.87         C  4 -- C  5         +26.0% ( 77.4%)     79.5%
 TRANSITION DIPOLE   0.0682         C  2 -- C  5         +22.4% ( 71.8%)     95.1%
 TRAVEL (Ang.)       0.1153         C  5 -- C  6         +15.0% ( 58.8%)      9.0%
 REDUCED MASS        3.4150         C  4 -- H 13          +7.4% ( 41.4%)      3.2%
 EFFECTIVE MASS     10.6034
 FORCE CONSTANT      4.4362

 VIBRATION         32   32A           ATOM PAIR      ENERGY CONTRIBUTION    RADIAL
 FREQUENCY          1880.26         C  5 -- C  6         +43.6% ( 97.6%)     98.1%
 TRANSITION DIPOLE   0.1336         C  4 -- C  5         +18.0% ( 62.8%)     61.7%
 TRAVEL (Ang.)       0.0800         C  2 -- C  5         +16.3% ( 59.6%)      5.2%
 REDUCED MASS        5.6026         C  3 -- C  6         +10.7% ( 48.3%)     25.5%
 EFFECTIVE MASS     11.8667         C  6 -- H 16         +10.1% ( 47.0%)      8.8%
 FORCE CONSTANT     11.6701

 VIBRATION         33   33A           ATOM PAIR      ENERGY CONTRIBUTION    RADIAL
 FREQUENCY          2969.75         C  3 -- H 12         +19.6% ( 46.2%)     96.5%
 TRANSITION DIPOLE   0.0120         C  3 -- H 11         +19.6% ( 46.2%)     96.5%
 TRAVEL (Ang.)       0.3541         C  2 -- H 10         +17.6% ( 43.8%)     96.5%
 REDUCED MASS        0.1811         C  2 -- H  9         +17.6% ( 43.8%)     96.5%
 EFFECTIVE MASS      1.5571         C  1 -- H  8         +11.5% ( 35.4%)     96.1%
 FORCE CONSTANT      0.9411         C  1 -- H  7         +11.5% ( 35.4%)     96.1%

 VIBRATION         34   34A           ATOM PAIR      ENERGY CONTRIBUTION    RADIAL
 FREQUENCY          2975.03         C  2 -- H 10         +25.4% ( 52.3%)     96.6%
 TRANSITION DIPOLE   0.0034         C  2 -- H  9         +25.3% ( 52.2%)     96.6%
 TRAVEL (Ang.)       0.2957         C  3 -- H 12         +23.5% ( 50.4%)     96.6%
 REDUCED MASS        0.2593         C  3 -- H 11         +23.5% ( 50.3%)     96.6%
 EFFECTIVE MASS      1.5391
 FORCE CONSTANT      1.3520

 VIBRATION         35   35A           ATOM PAIR      ENERGY CONTRIBUTION    RADIAL
 FREQUENCY          2994.22         C  1 -- H  8         +37.6% ( 63.4%)     96.6%
 TRANSITION DIPOLE   0.0335         C  1 -- H  7         +37.6% ( 63.4%)     96.6%
 TRAVEL (Ang.)       0.2660         C  2 -- H 10          +5.8% ( 24.9%)     97.0%
 REDUCED MASS        0.3182         C  2 -- H  9          +5.8% ( 24.9%)     97.0%
 EFFECTIVE MASS      1.5275
 FORCE CONSTANT      1.6810

 VIBRATION         36   36A           ATOM PAIR      ENERGY CONTRIBUTION    RADIAL
 FREQUENCY          3053.61         C  2 -- H  9         +43.7% ( 65.2%)     97.6%
 TRANSITION DIPOLE   0.0731         C  2 -- H 10         +43.7% ( 65.2%)     97.6%
 TRAVEL (Ang.)       0.2391         C  3 -- H 11          +5.4% ( 22.8%)     97.8%
 REDUCED MASS        0.3864         C  3 -- H 12          +5.4% ( 22.8%)     97.7%
 EFFECTIVE MASS      1.2773
 FORCE CONSTANT      2.1228

 VIBRATION         37   37A           ATOM PAIR      ENERGY CONTRIBUTION    RADIAL
 FREQUENCY          3054.40         C  3 -- H 11         +43.3% ( 64.9%)     97.6%
 TRANSITION DIPOLE   0.0483         C  3 -- H 12         +43.2% ( 64.8%)     97.6%
 TRAVEL (Ang.)       0.2418         C  2 -- H  9          +5.0% ( 22.0%)     97.4%
 REDUCED MASS        0.3777         C  2 -- H 10          +4.9% ( 21.9%)     97.4%
 EFFECTIVE MASS      1.2889
 FORCE CONSTANT      2.0759

 VIBRATION         38   38A           ATOM PAIR      ENERGY CONTRIBUTION    RADIAL
 FREQUENCY          3067.47         C  4 -- H 15         +49.1% ( 72.3%)     97.0%
 TRANSITION DIPOLE   0.0187         C  4 -- H 13         +49.0% ( 72.2%)     97.0%
 TRAVEL (Ang.)       0.2077         C  4 -- C  5          +1.0% ( 10.2%)      0.0%
 REDUCED MASS        0.5098         C  4 -- H 14          +0.9% (  9.9%)      0.0%
 EFFECTIVE MASS      1.5034
 FORCE CONSTANT      2.8262

 VIBRATION         39   39A           ATOM PAIR      ENERGY CONTRIBUTION    RADIAL
 FREQUENCY          3071.60         C  1 -- H  7         +48.0% ( 68.3%)     97.7%
 TRANSITION DIPOLE   0.0552         C  1 -- H  8         +48.0% ( 68.3%)     97.7%
 TRAVEL (Ang.)       0.2186         C  1 -- C  3          +0.7% (  8.0%)     46.4%
 REDUCED MASS        0.4593         C  1 -- C  2          +0.7% (  8.0%)     46.0%
 EFFECTIVE MASS      1.2802
 FORCE CONSTANT      2.5530

 VIBRATION         40   40A           ATOM PAIR      ENERGY CONTRIBUTION    RADIAL
 FREQUENCY          3078.11         C  4 -- H 14         +61.0% ( 80.6%)     98.7%
 TRANSITION DIPOLE   0.0340         C  4 -- H 13         +19.0% ( 45.0%)     85.9%
 TRAVEL (Ang.)       0.2147         C  4 -- H 15         +19.0% ( 44.9%)     85.8%
 REDUCED MASS        0.4753         C  4 -- C  5          +1.0% ( 10.5%)      0.0%
 EFFECTIVE MASS      1.5132
 FORCE CONSTANT      2.6531

 VIBRATION         41   41A           ATOM PAIR      ENERGY CONTRIBUTION    RADIAL
 FREQUENCY          3123.39         C  6 -- H 16         +96.3% ( 99.8%)    100.0%
 TRANSITION DIPOLE   0.3640         C  5 -- C  6          +1.8% ( 13.6%)     48.9%
 TRAVEL (Ang.)       0.1528         C  3 -- C  6          +1.6% ( 13.0%)     24.7%
 REDUCED MASS        0.9250
 EFFECTIVE MASS      1.5553
 FORCE CONSTANT      5.3169

 VIBRATION         42   42A           ATOM PAIR      ENERGY CONTRIBUTION    RADIAL
 FREQUENCY          3166.29         C  4 -- H 14         +37.9% ( 59.3%)     97.7%
 TRANSITION DIPOLE   0.0455         C  4 -- H 13         +30.9% ( 53.6%)     96.7%
 TRAVEL (Ang.)       0.2542         C  4 -- H 15         +30.9% ( 53.5%)     96.7%
 REDUCED MASS        0.3296         C  4 -- C  5          +0.3% (  5.5%)     99.4%
 EFFECTIVE MASS      1.1396
 FORCE CONSTANT      1.9470

      SYMMETRY NUMBER FOR POINT-GROUP C1  =  1


          SYSTEM IS A GROUND STATE



 InChI=1S/C6H10/c1-6-4-2-3-5-6/h4H,2-3,5H2,1H3


          MOLECULE IS NOT LINEAR

          THERE ARE 42 GENUINE VIBRATIONS IN THIS SYSTEM
          THIS THERMODYNAMICS CALCULATION IS LIMITED TO
          MOLECULES WHICH HAVE NO INTERNAL ROTATIONS




                    CALCULATED THERMODYNAMIC PROPERTIES
                                          *
   TEMP. (K)   PARTITION FUNCTION   H.O.F.    ENTHALPY  HEAT CAPACITY ENTROPY
                                   KCAL/MOL   CAL/MOLE    CAL/K/MOL  CAL/K/MOL


 298.00  VIB.     0.1762D+02                  2211.3180    17.0764    13.1218
         ROT.     0.1247D+06                   888.2803     2.9808    26.2975
         INT.     0.2197D+07                  3099.5983    20.0572    39.4193
         TRA.     0.7198D+27                  1480.4672     4.9680    39.1295
         TOT.                       -7.111    4580.0655    25.0252    78.5488

 200.00  VIB.     0.5441D+01                   918.5697     9.6895     7.9592
         ROT.     0.6854D+05                   596.1613     2.9808    25.1088
         INT.     0.3730D+06                  1514.7310    12.6703    33.0680
         TRA.     0.3957D+27                   993.6021     4.9680    37.1484
         TOT.                       -9.183    2508.3331    17.6383    70.2164

 210.00  VIB.     0.6110D+01                  1018.6099    10.3240     8.4472
         ROT.     0.7375D+05                   625.9693     2.9808    25.2542
         INT.     0.4506D+06                  1644.5793    13.3048    33.7014
         TRA.     0.4258D+27                  1043.2822     4.9680    37.3907
         TOT.                       -9.004    2687.8615    18.2728    71.0922

 220.00  VIB.     0.6866D+01                  1125.1583    10.9910     8.9427
         ROT.     0.7908D+05                   655.7774     2.9808    25.3929
         INT.     0.5429D+06                  1780.9357    13.9718    34.3356
         TRA.     0.4566D+27                  1092.9623     4.9680    37.6219
         TOT.                       -8.817    2873.8980    18.9398    71.9575

 230.00  VIB.     0.7721D+01                  1238.5337    11.6891     9.4466
         ROT.     0.8453D+05                   685.5855     2.9808    25.5254
         INT.     0.6527D+06                  1924.1192    14.6700    34.9720
         TRA.     0.4880D+27                  1142.6424     4.9680    37.8427
         TOT.                       -8.625    3066.7616    19.6380    72.8147

 240.00  VIB.     0.8690D+01                  1359.0389    12.4166     9.9594
         ROT.     0.9010D+05                   715.3935     2.9808    25.6523
         INT.     0.7830D+06                  2074.4324    15.3974    35.6116
         TRA.     0.5202D+27                  1192.3226     4.9680    38.0541
         TOT.                       -8.425    3266.7550    20.3654    73.6658

 250.00  VIB.     0.9790D+01                  1486.9551    13.1709    10.4814
         ROT.     0.9579D+05                   745.2016     2.9808    25.7740
         INT.     0.9379D+06                  2232.1567    16.1517    36.2554
         TRA.     0.5531D+27                  1242.0027     4.9680    38.2569
         TOT.                       -8.217    3474.1593    21.1197    74.5123

 260.00  VIB.     0.1104D+02                  1622.5380    13.9495    11.0131
         ROT.     0.1016D+06                   775.0097     2.9808    25.8909
         INT.     0.1122D+07                  2397.5477    16.9303    36.9040
         TRA.     0.5866D+27                  1291.6828     4.9680    38.4518
         TOT.                       -8.002    3689.2304    21.8983    75.3558

 270.00  VIB.     0.1247D+02                  1766.0153    14.7493    11.5545
         ROT.     0.1075D+06                   804.8177     2.9808    26.0034
         INT.     0.1340D+07                  2570.8331    17.7301    37.5579
         TRA.     0.6208D+27                  1341.3629     4.9680    38.6393
         TOT.                       -7.779    3912.1959    22.6981    76.1971

 280.00  VIB.     0.1409D+02                  1917.5850    15.5674    12.1056
         ROT.     0.1135D+06                   834.6258     2.9808    26.1118
         INT.     0.1600D+07                  2752.2108    18.5482    38.2174
         TRA.     0.6556D+27                  1391.0430     4.9680    38.8200
         TOT.                       -7.548    4143.2537    23.5162    77.0373

 290.00  VIB.     0.1595D+02                  2077.4143    16.4007    12.6664
         ROT.     0.1197D+06                   864.4339     2.9808    26.2164
         INT.     0.1908D+07                  2941.8482    19.3816    38.8828
         TRA.     0.6910D+27                  1440.7231     4.9680    38.9943
         TOT.                       -7.309    4382.5713    24.3496    77.8771

 300.00  VIB.     0.1807D+02                  2245.6406    17.2463    13.2366
         ROT.     0.1259D+06                   894.2419     2.9808    26.3174
         INT.     0.2275D+07                  3139.8825    20.2271    39.5541
         TRA.     0.7270D+27                  1490.4032     4.9680    39.1627
         TOT.                       -7.061    4630.2857    25.1951    78.7168

 310.00  VIB.     0.2050D+02                  2422.3713    18.1012    13.8160
         ROT.     0.1323D+06                   924.0500     2.9808    26.4152
         INT.     0.2711D+07                  3346.4213    21.0820    40.2312
         TRA.     0.7637D+27                  1540.0833     4.9680    39.3256
         TOT.                       -6.805    4886.5046    26.0500    79.5568

 320.00  VIB.     0.2328D+02                  2607.6857    18.9626    14.4043
         ROT.     0.1387D+06                   953.8580     2.9808    26.5098
         INT.     0.3230D+07                  3561.5437    21.9434    40.9141
         TRA.     0.8009D+27                  1589.7634     4.9680    39.4834
         TOT.                       -6.540    5151.3071    26.9114    80.3975

 330.00  VIB.     0.2649D+02                  2801.6361    19.8280    15.0011
         ROT.     0.1453D+06                   983.6661     2.9808    26.6015
         INT.     0.3848D+07                  3785.3022    22.8088    41.6026
         TRA.     0.8388D+27                  1639.4435     4.9680    39.6362
         TOT.                       -6.267    5424.7457    27.7768    81.2388

 340.00  VIB.     0.3017D+02                  3004.2499    20.6949    15.6059
         ROT.     0.1519D+06                  1013.4742     2.9808    26.6905
         INT.     0.4583D+07                  4017.7241    23.6757    42.2964
         TRA.     0.8772D+27                  1689.1236     4.9680    39.7845
         TOT.                       -5.985    5706.8477    28.6437    82.0809

 350.00  VIB.     0.3440D+02                  3215.5317    21.5612    16.2183
         ROT.     0.1587D+06                  1043.2822     2.9808    26.7769
         INT.     0.5459D+07                  4258.8140    24.5420    42.9952
         TRA.     0.9162D+27                  1738.8037     4.9680    39.9285
         TOT.                       -5.694    5997.6177    29.5100    82.9237

 360.00  VIB.     0.3929D+02                  3435.4651    22.4249    16.8378
         ROT.     0.1655D+06                  1073.0903     2.9808    26.8609
         INT.     0.6503D+07                  4508.5554    25.4057    43.6987
         TRA.     0.9557D+27                  1788.4838     4.9680    40.0685
         TOT.                       -5.394    6297.0393    30.3737    83.7672

 370.00  VIB.     0.4492D+02                  3664.0150    23.2842    17.4639
         ROT.     0.1725D+06                  1102.8984     2.9808    26.9426
         INT.     0.7748D+07                  4766.9134    26.2650    44.4065
         TRA.     0.9958D+27                  1838.1639     4.9680    40.2046
         TOT.                       -5.086    6605.0773    31.2330    84.6111

 380.00  VIB.     0.5143D+02                  3901.1296    24.1376    18.0962
         ROT.     0.1795D+06                  1132.7064     2.9808    27.0221
         INT.     0.9233D+07                  5033.8360    27.1184    45.1183
         TRA.     0.1036D+28                  1887.8440     4.9680    40.3371
         TOT.                       -4.770    6921.6800    32.0864    85.4554

 390.00  VIB.     0.5896D+02                  4146.7423    24.9836    18.7342
         ROT.     0.1866D+06                  1162.5145     2.9808    27.0995
         INT.     0.1100D+08                  5309.2568    27.9644    45.8336
         TRA.     0.1078D+28                  1937.5242     4.9680    40.4662
         TOT.                       -4.445    7246.7809    32.9325    86.2998

 400.00  VIB.     0.6767D+02                  4400.7739    25.8212    19.3773
         ROT.     0.1939D+06                  1192.3226     2.9808    27.1749
         INT.     0.1312D+08                  5593.0965    28.8020    46.5522
         TRA.     0.1119D+28                  1987.2043     4.9680    40.5919
         TOT.                       -4.111    7580.3007    33.7700    87.1442

   *: NOTE: HEATS OF FORMATION ARE RELATIVE TO THE
            ELEMENTS IN THEIR STANDARD STATE AT 298K
              (=  Standard Enthalpy of Formation).

            Hvib:  Zero-point energy is not included.
                   frequencies of less than zero cm-1 are not included.
            Hrot = (3/2)RT
            Htra = (3/2)RT + pV = (5/2)RT

            Heat capacity is Cp, not Cv

          For more information, see: HTTP://OpenMOPAC.net/Manual/thermochemistry.html


           FORCE CONSTANT IN CARTESIAN COORDINATES (Millidynes/A)

    ATOM   CHEMICAL       X               Y               Z
   NUMBER   SYMBOL  FORCE CONSTANT  FORCE CONSTANT  FORCE CONSTANT

      1       C        7.811433        8.402611        8.364477
      2       C        7.955254        9.157230        8.075173
      3       C        9.645236        7.568969        8.059593
      4       C        9.169485        8.547964        7.961242
      5       C       15.073336       10.694082        2.709968
      6       C       12.081345       13.056907        2.294318
      7       H        1.248935        1.663649        3.585054
      8       H        1.248887        1.663533        3.585192
      9       H        1.287460        1.547638        3.551362
     10       H        1.287466        1.546469        3.552468
     11       H        1.918436        0.915127        3.550465
     12       H        1.917006        0.915310        3.551570
     13       H        1.603571        1.279042        3.755892
     14       H        0.744954        5.339446        0.653273
     15       H        1.602096        1.278392        3.757991
     16       H        0.713713        5.353535        0.344266

 **********************
 *                    *
 * JOB ENDED NORMALLY *
 *                    *
 **********************



 TOTAL JOB TIME:             3.13 SECONDS

 == MOPAC DONE ==
