 *******************************************************************************
 **                                                                           **
 **                              MOPAC v23.1.2                                **
 **                                                                           **
 *******************************************************************************
 **          Digital Object Identifier (DOI): 10.5281/zenodo.6511958          **
 **    Visit the DOI location for information on how to cite this program.    **
 *******************************************************************************

                              PM3 CALCULATION RESULTS

 *******************************************************************************
 *  CALCULATION DONE: (MAX THREADS = 1)              Tue Jun  3 16:32:14 2025  *
 *  PM3        - The PM3 Hamiltonian to be used
 *  PRECISE    - TIGHTER CRITERIA TO BE USED
 *  BFGS       - USE THE BFGS GEOMETRY OPTIMIZER
 *  NOSYM      - POINT-GROUP SYMMETRY SET TO C1
 *  THREADS=1  - MULTI-THREADING NOT USED
 *  T=         - A TIME OF 172800.0 SECONDS REQUESTED
 *  DUMP=N     - RESTART FILE WRITTEN EVERY 7200.0 SECONDS REQUESTED
 *  GNORM      - EXIT WHEN GRADIENT NORM DROPS BELOW 0.000
 *******************************************************************************
pm3  precise nosym gnorm=0.0 bfgs THREADS=1
 InChI=1S/C10H10/c1-8-6-7-9-4-2-3-5-10(8)9/h3-7H,2H2,1H3

   ATOM   CHEMICAL          X               Y               Z
  NUMBER   SYMBOL      (ANGSTROMS)     (ANGSTROMS)     (ANGSTROMS)

     1       C          2.59970000  *  -0.39380000  *   0.19810000  *
     2       C         -2.71570000  *  -0.70450000  *   0.04560000  *
     3       C         -1.52380000  *   0.18480000  *  -0.10570000  *
     4       C         -0.25540000  *  -0.17950000  *   0.02990000  *
     5       C          0.57610000  *   0.96840000  *  -0.19500000  *
     6       C          1.90360000  *   0.91720000  *  -0.12780000  *
     7       C          1.66460000  *  -1.57970000  *   0.42730000  *
     8       C         -1.55430000  *   1.62090000  *  -0.43200000  *
     9       C          0.32860000  *  -1.48220000  *   0.34930000  *
    10       C         -0.30690000  *   2.08710000  *  -0.48530000  *
    11       H          3.28600000  *  -0.64400000  *  -0.63760000  *
    12       H          3.21260000  *  -0.24800000  *   1.11200000  *
    13       H         -2.73790000  *  -1.13030000  *   1.07060000  *
    14       H         -2.66390000  *  -1.52990000  *  -0.69490000  *
    15       H         -3.64870000  *  -0.12730000  *  -0.12420000  *
    16       H          2.49200000  *   1.80840000  *  -0.30480000  *
    17       H          2.10470000  *  -2.54030000  *   0.66320000  *
    18       H         -0.01980000  *   3.10710000  *  -0.70410000  *
    19       H         -0.29860000  *  -2.34820000  *   0.51900000  *
    20       H         -2.44300000  *   2.21390000  *  -0.60350000  *



          CARTESIAN COORDINATES 

    NO.       ATOM           X           Y           Z

     1         C          2.5997     -0.3938      0.1981
     2         C         -2.7157     -0.7045      0.0456
     3         C         -1.5238      0.1848     -0.1057
     4         C         -0.2554     -0.1795      0.0299
     5         C          0.5761      0.9684     -0.1950
     6         C          1.9036      0.9172     -0.1278
     7         C          1.6646     -1.5797      0.4273
     8         C         -1.5543      1.6209     -0.4320
     9         C          0.3286     -1.4822      0.3493
    10         C         -0.3069      2.0871     -0.4853
    11         H          3.2860     -0.6440     -0.6376
    12         H          3.2126     -0.2480      1.1120
    13         H         -2.7379     -1.1303      1.0706
    14         H         -2.6639     -1.5299     -0.6949
    15         H         -3.6487     -0.1273     -0.1242
    16         H          2.4920      1.8084     -0.3048
    17         H          2.1047     -2.5403      0.6632
    18         H         -0.0198      3.1071     -0.7041
    19         H         -0.2986     -2.3482      0.5190
    20         H         -2.4430      2.2139     -0.6035

  H: (PM3): J. J. P. STEWART, J. COMP. CHEM. 10, 209 (1989).
  C: (PM3): J. J. P. STEWART, J. COMP. CHEM. 10, 209 (1989).

           Empirical Formula: C10 H10  =    20 atoms



      MOLECULAR POINT GROUP   :   C1  


      RHF CALCULATION, NO. OF DOUBLY OCCUPIED LEVELS = 25


          Geometry optimization using BFGS

  GNORM HAS BEEN SET TOO LOW, RESET TO 0.01
 CYCLE:     1 TIME:   0.012 TIME LEFT:  2.00D  GRAD.:    64.700 HEAT:  57.19362
 CYCLE:     2 TIME:   0.008 TIME LEFT:  2.00D  GRAD.:    46.013 HEAT:  56.58137
 CYCLE:     3 TIME:   0.008 TIME LEFT:  2.00D  GRAD.:    31.989 HEAT:  56.21562
 CYCLE:     4 TIME:   0.012 TIME LEFT:  2.00D  GRAD.:    25.324 HEAT:  55.94851
 CYCLE:     5 TIME:   0.004 TIME LEFT:  2.00D  GRAD.:    31.930 HEAT:  55.55803
 CYCLE:     6 TIME:   0.008 TIME LEFT:  2.00D  GRAD.:    21.192 HEAT:  55.41655
 CYCLE:     7 TIME:   0.008 TIME LEFT:  2.00D  GRAD.:    13.423 HEAT:  55.13003
 CYCLE:     8 TIME:   0.004 TIME LEFT:  2.00D  GRAD.:    21.601 HEAT:  55.08128
 CYCLE:     9 TIME:   0.008 TIME LEFT:  2.00D  GRAD.:    17.586 HEAT:  54.99048
 CYCLE:    10 TIME:   0.004 TIME LEFT:  2.00D  GRAD.:    13.115 HEAT:  54.93364
 CYCLE:    11 TIME:   0.008 TIME LEFT:  2.00D  GRAD.:     6.579 HEAT:  54.86087
 CYCLE:    12 TIME:   0.008 TIME LEFT:  2.00D  GRAD.:     7.334 HEAT:  54.85634
 CYCLE:    13 TIME:   0.004 TIME LEFT:  2.00D  GRAD.:     4.823 HEAT:  54.82978
 CYCLE:    14 TIME:   0.008 TIME LEFT:  2.00D  GRAD.:     3.531 HEAT:  54.81971
 CYCLE:    15 TIME:   0.004 TIME LEFT:  2.00D  GRAD.:     2.685 HEAT:  54.80634
 CYCLE:    16 TIME:   0.008 TIME LEFT:  2.00D  GRAD.:     4.145 HEAT:  54.78291
 CYCLE:    17 TIME:   0.008 TIME LEFT:  2.00D  GRAD.:     3.686 HEAT:  54.76357
 CYCLE:    18 TIME:   0.008 TIME LEFT:  2.00D  GRAD.:     3.198 HEAT:  54.74670
 CYCLE:    19 TIME:   0.004 TIME LEFT:  2.00D  GRAD.:     2.745 HEAT:  54.73096
 CYCLE:    20 TIME:   0.004 TIME LEFT:  2.00D  GRAD.:     2.252 HEAT:  54.72346
 CYCLE:    21 TIME:   0.008 TIME LEFT:  2.00D  GRAD.:     1.782 HEAT:  54.71725
 CYCLE:    22 TIME:   0.004 TIME LEFT:  2.00D  GRAD.:     1.377 HEAT:  54.71376
 CYCLE:    23 TIME:   0.008 TIME LEFT:  2.00D  GRAD.:     0.978 HEAT:  54.71169
 CYCLE:    24 TIME:   0.008 TIME LEFT:  2.00D  GRAD.:     0.635 HEAT:  54.71064
 CYCLE:    25 TIME:   0.004 TIME LEFT:  2.00D  GRAD.:     0.524 HEAT:  54.71004
 CYCLE:    26 TIME:   0.008 TIME LEFT:  2.00D  GRAD.:     0.429 HEAT:  54.70968
 CYCLE:    27 TIME:   0.004 TIME LEFT:  2.00D  GRAD.:     0.304 HEAT:  54.70945
 CYCLE:    28 TIME:   0.004 TIME LEFT:  2.00D  GRAD.:     0.222 HEAT:  54.70931
 CYCLE:    29 TIME:   0.008 TIME LEFT:  2.00D  GRAD.:     0.200 HEAT:  54.70922
 CYCLE:    30 TIME:   0.008 TIME LEFT:  2.00D  GRAD.:     0.211 HEAT:  54.70915
 CYCLE:    31 TIME:   0.008 TIME LEFT:  2.00D  GRAD.:     0.175 HEAT:  54.70910
 CYCLE:    32 TIME:   0.008 TIME LEFT:  2.00D  GRAD.:     0.166 HEAT:  54.70905
 CYCLE:    33 TIME:   0.008 TIME LEFT:  2.00D  GRAD.:     0.103 HEAT:  54.70901
 CYCLE:    34 TIME:   0.008 TIME LEFT:  2.00D  GRAD.:     0.186 HEAT:  54.70898
 CYCLE:    35 TIME:   0.008 TIME LEFT:  2.00D  GRAD.:     0.171 HEAT:  54.70891
 CYCLE:    36 TIME:   0.008 TIME LEFT:  2.00D  GRAD.:     0.162 HEAT:  54.70889
 CYCLE:    37 TIME:   0.004 TIME LEFT:  2.00D  GRAD.:     0.158 HEAT:  54.70886
 CYCLE:    38 TIME:   0.004 TIME LEFT:  2.00D  GRAD.:     0.149 HEAT:  54.70881
 CYCLE:    39 TIME:   0.004 TIME LEFT:  2.00D  GRAD.:     0.145 HEAT:  54.70875
 CYCLE:    40 TIME:   0.008 TIME LEFT:  2.00D  GRAD.:     0.157 HEAT:  54.70868
 CYCLE:    41 TIME:   0.004 TIME LEFT:  2.00D  GRAD.:     0.182 HEAT:  54.70858
 CYCLE:    42 TIME:   0.008 TIME LEFT:  2.00D  GRAD.:     0.241 HEAT:  54.70850
 CYCLE:    43 TIME:   0.008 TIME LEFT:  2.00D  GRAD.:     0.185 HEAT:  54.70846
 CYCLE:    44 TIME:   0.008 TIME LEFT:  2.00D  GRAD.:     0.301 HEAT:  54.70827
 CYCLE:    45 TIME:   0.008 TIME LEFT:  2.00D  GRAD.:     0.197 HEAT:  54.70822
 CYCLE:    46 TIME:   0.004 TIME LEFT:  2.00D  GRAD.:     0.187 HEAT:  54.70819
 CYCLE:    47 TIME:   0.004 TIME LEFT:  2.00D  GRAD.:     0.220 HEAT:  54.70814
 CYCLE:    48 TIME:   0.008 TIME LEFT:  2.00D  GRAD.:     0.250 HEAT:  54.70802
 CYCLE:    49 TIME:   0.008 TIME LEFT:  2.00D  GRAD.:     0.163 HEAT:  54.70794
 CYCLE:    50 TIME:   0.008 TIME LEFT:  2.00D  GRAD.:     0.163 HEAT:  54.70790
 CYCLE:    51 TIME:   0.004 TIME LEFT:  2.00D  GRAD.:     0.164 HEAT:  54.70783
 CYCLE:    52 TIME:   0.008 TIME LEFT:  2.00D  GRAD.:     0.161 HEAT:  54.70773
 CYCLE:    53 TIME:   0.004 TIME LEFT:  2.00D  GRAD.:     0.171 HEAT:  54.70759
 CYCLE:    54 TIME:   0.008 TIME LEFT:  2.00D  GRAD.:     0.186 HEAT:  54.70737
 CYCLE:    55 TIME:   0.008 TIME LEFT:  2.00D  GRAD.:     1.097 HEAT:  54.70685
 CYCLE:    56 TIME:   0.008 TIME LEFT:  2.00D  GRAD.:     0.479 HEAT:  54.70639
 CYCLE:    57 TIME:   0.008 TIME LEFT:  2.00D  GRAD.:     0.522 HEAT:  54.70616
 CYCLE:    58 TIME:   0.004 TIME LEFT:  2.00D  GRAD.:     0.475 HEAT:  54.70587
 CYCLE:    59 TIME:   0.012 TIME LEFT:  2.00D  GRAD.:     1.966 HEAT:  54.70526
 CYCLE:    60 TIME:   0.004 TIME LEFT:  2.00D  GRAD.:     1.241 HEAT:  54.70439
 CYCLE:    61 TIME:   0.008 TIME LEFT:  2.00D  GRAD.:     0.977 HEAT:  54.70302
 CYCLE:    62 TIME:   0.004 TIME LEFT:  2.00D  GRAD.:     1.203 HEAT:  54.70092
 CYCLE:    63 TIME:   0.008 TIME LEFT:  2.00D  GRAD.:     1.418 HEAT:  54.69812
 CYCLE:    64 TIME:   0.023 TIME LEFT:  2.00D  GRAD.:     3.391 HEAT:  54.69209
 CYCLE:    65 TIME:   0.008 TIME LEFT:  2.00D  GRAD.:     1.303 HEAT:  54.68520
 CYCLE:    66 TIME:   0.012 TIME LEFT:  2.00D  GRAD.:     2.550 HEAT:  54.66866
 CYCLE:    67 TIME:   0.008 TIME LEFT:  2.00D  GRAD.:     4.666 HEAT:  54.66301
 CYCLE:    68 TIME:   0.008 TIME LEFT:  2.00D  GRAD.:     2.689 HEAT:  54.65442
 CYCLE:    69 TIME:   0.008 TIME LEFT:  2.00D  GRAD.:     5.655 HEAT:  54.63799
 CYCLE:    70 TIME:   0.008 TIME LEFT:  2.00D  GRAD.:     2.747 HEAT:  54.62297
 CYCLE:    71 TIME:   0.004 TIME LEFT:  2.00D  GRAD.:     2.871 HEAT:  54.61038
 CYCLE:    72 TIME:   0.008 TIME LEFT:  2.00D  GRAD.:     3.532 HEAT:  54.59892
 CYCLE:    73 TIME:   0.004 TIME LEFT:  2.00D  GRAD.:     2.357 HEAT:  54.59088
 CYCLE:    74 TIME:   0.012 TIME LEFT:  2.00D  GRAD.:     4.388 HEAT:  54.57653
 CYCLE:    75 TIME:   0.004 TIME LEFT:  2.00D  GRAD.:     2.739 HEAT:  54.56035
 CYCLE:    76 TIME:   0.012 TIME LEFT:  2.00D  GRAD.:     5.201 HEAT:  54.54575
 CYCLE:    77 TIME:   0.004 TIME LEFT:  2.00D  GRAD.:     3.080 HEAT:  54.53606
 CYCLE:    78 TIME:   0.008 TIME LEFT:  2.00D  GRAD.:     1.951 HEAT:  54.52750
 CYCLE:    79 TIME:   0.004 TIME LEFT:  2.00D  GRAD.:     1.889 HEAT:  54.52282
 CYCLE:    80 TIME:   0.008 TIME LEFT:  2.00D  GRAD.:     2.461 HEAT:  54.51865
 CYCLE:    81 TIME:   0.008 TIME LEFT:  2.00D  GRAD.:     1.862 HEAT:  54.51368
 CYCLE:    82 TIME:   0.008 TIME LEFT:  2.00D  GRAD.:     1.808 HEAT:  54.50835
 CYCLE:    83 TIME:   0.008 TIME LEFT:  2.00D  GRAD.:     2.929 HEAT:  54.49991
 CYCLE:    84 TIME:   0.008 TIME LEFT:  2.00D  GRAD.:     1.901 HEAT:  54.49523
 CYCLE:    85 TIME:   0.008 TIME LEFT:  2.00D  GRAD.:     3.329 HEAT:  54.48902
 CYCLE:    86 TIME:   0.004 TIME LEFT:  2.00D  GRAD.:     2.299 HEAT:  54.48144
 CYCLE:    87 TIME:   0.008 TIME LEFT:  2.00D  GRAD.:     2.375 HEAT:  54.47417
 CYCLE:    88 TIME:   0.008 TIME LEFT:  2.00D  GRAD.:     2.477 HEAT:  54.46733
 CYCLE:    89 TIME:   0.008 TIME LEFT:  2.00D  GRAD.:     4.287 HEAT:  54.45932
 CYCLE:    90 TIME:   0.004 TIME LEFT:  2.00D  GRAD.:     2.913 HEAT:  54.44917
 CYCLE:    91 TIME:   0.012 TIME LEFT:  2.00D  GRAD.:     3.782 HEAT:  54.43712
 CYCLE:    92 TIME:   0.004 TIME LEFT:  2.00D  GRAD.:     1.558 HEAT:  54.43157
 CYCLE:    93 TIME:   0.008 TIME LEFT:  2.00D  GRAD.:     1.784 HEAT:  54.42303
 CYCLE:    94 TIME:   0.008 TIME LEFT:  2.00D  GRAD.:     2.101 HEAT:  54.41860
 CYCLE:    95 TIME:   0.004 TIME LEFT:  2.00D  GRAD.:     1.119 HEAT:  54.41517
 CYCLE:    96 TIME:   0.008 TIME LEFT:  2.00D  GRAD.:     1.729 HEAT:  54.41225
 CYCLE:    97 TIME:   0.008 TIME LEFT:  2.00D  GRAD.:     1.705 HEAT:  54.40953
 CYCLE:    98 TIME:   0.004 TIME LEFT:  2.00D  GRAD.:     2.238 HEAT:  54.40351
 CYCLE:    99 TIME:   0.008 TIME LEFT:  2.00D  GRAD.:     1.781 HEAT:  54.40212
 CYCLE:   100 TIME:   0.008 TIME LEFT:  2.00D  GRAD.:     1.261 HEAT:  54.39787
 CYCLE:   101 TIME:   0.008 TIME LEFT:  2.00D  GRAD.:     0.881 HEAT:  54.39660
 CYCLE:   102 TIME:   0.008 TIME LEFT:  2.00D  GRAD.:     1.222 HEAT:  54.39514
 CYCLE:   103 TIME:   0.008 TIME LEFT:  2.00D  GRAD.:     0.747 HEAT:  54.39351
 CYCLE:   104 TIME:   0.008 TIME LEFT:  2.00D  GRAD.:     0.720 HEAT:  54.39238
 CYCLE:   105 TIME:   0.008 TIME LEFT:  2.00D  GRAD.:     1.089 HEAT:  54.39146
 CYCLE:   106 TIME:   0.004 TIME LEFT:  2.00D  GRAD.:     0.482 HEAT:  54.39099
 CYCLE:   107 TIME:   0.012 TIME LEFT:  2.00D  GRAD.:     0.672 HEAT:  54.38986
 CYCLE:   108 TIME:   0.004 TIME LEFT:  2.00D  GRAD.:     0.366 HEAT:  54.38941
 CYCLE:   109 TIME:   0.004 TIME LEFT:  2.00D  GRAD.:     0.508 HEAT:  54.38919
 CYCLE:   110 TIME:   0.008 TIME LEFT:  2.00D  GRAD.:     0.360 HEAT:  54.38897
 CYCLE:   111 TIME:   0.008 TIME LEFT:  2.00D  GRAD.:     0.242 HEAT:  54.38881
 CYCLE:   112 TIME:   0.004 TIME LEFT:  2.00D  GRAD.:     0.147 HEAT:  54.38877
 CYCLE:   113 TIME:   0.008 TIME LEFT:  2.00D  GRAD.:     0.170 HEAT:  54.38875
 CYCLE:   114 TIME:   0.004 TIME LEFT:  2.00D  GRAD.:     0.056 HEAT:  54.38874
 CYCLE:   115 TIME:   0.008 TIME LEFT:  2.00D  GRAD.:     0.052 HEAT:  54.38873
 CYCLE:   116 TIME:   0.004 TIME LEFT:  2.00D  GRAD.:     0.023 HEAT:  54.38873
 CYCLE:   117 TIME:   0.008 TIME LEFT:  2.00D  GRAD.:     0.019 HEAT:  54.38873
 CYCLE:   118 TIME:   0.004 TIME LEFT:  2.00D  GRAD.:     0.015 HEAT:  54.38873
 CYCLE:   119 TIME:   0.008 TIME LEFT:  2.00D  GRAD.:     0.022 HEAT:  54.38873
 CYCLE:   120 TIME:   0.004 TIME LEFT:  2.00D  GRAD.:     0.011 HEAT:  54.38873
 CYCLE:   121 TIME:   0.008 TIME LEFT:  2.00D  GRAD.:     0.016 HEAT:  54.38873
 TEST ON GRADIENT SATISFIED
PETERS TEST SATISFIED

 -------------------------------------------------------------------------------
 pm3  precise nosym gnorm=0.0 bfgs THREADS=1
 InChI=1S/C10H10/c1-8-6-7-9-4-2-3-5-10(8)9/h3-7H,2H2,1H3



     PETERS TEST WAS SATISFIED IN BFGS OPTIMIZATION           
     SCF FIELD WAS ACHIEVED                                   


                              PM3 CALCULATION
                                                       MOPAC v23.1.2 MacOS
                                                       Tue Jun  3 16:32:15 2025




          FINAL HEAT OF FORMATION =         54.38873 KCAL/MOL =     227.56243 KJ/MOL


          COSMO AREA              =        173.39 SQUARE ANGSTROMS
          COSMO VOLUME            =        172.75 CUBIC ANGSTROMS

          GRADIENT NORM           =          0.00854          =       0.00191 PER ATOM
          IONIZATION POTENTIAL    =          8.318229 EV
          HOMO LUMO ENERGIES (EV) =         -8.318 -0.752
          NO. OF FILLED LEVELS    =         25
          MOLECULAR WEIGHT        =        130.1890         POINT GROUP:  C1  

          MOLECULAR DIMENSIONS (Angstroms)

            Atom       Atom       Distance
            H    15    H    12     6.90869
            H    18    H    17     5.75504
            H    13    H    11     3.40875


          SCF CALCULATIONS        =        195

          WALL-CLOCK TIME         =      0.867 SECONDS
          COMPUTATION TIME        =      0.580 SECONDS




   ATOM   CHEMICAL          X               Y               Z
  NUMBER   SYMBOL      (ANGSTROMS)     (ANGSTROMS)     (ANGSTROMS)

     1       C          2.60658059  *  -0.41110175  *   0.15489272  *
     2       C         -2.78818914  *  -0.58616266  *  -0.02493210  *
     3       C         -1.56035396  *   0.22014008  *  -0.07499988  *
     4       C         -0.26157522  *  -0.19160856  *   0.02206727  *
     5       C          0.61217952  *   0.99656584  *  -0.08618132  *
     6       C          1.94625503  *   0.90887367  *  -0.02609475  *
     7       C          1.68919846  *  -1.57830662  *   0.25896493  *
     8       C         -1.56453206  *   1.68048074  *  -0.24818892  *
     9       C          0.35133781  *  -1.48119115  *   0.19761992  *
    10       C         -0.28639600  *   2.14315794  *  -0.25547554  *
    11       H          3.30440182  *  -0.57743576  *  -0.69242425  *
    12       H          3.23884979  *  -0.36906098  *   1.06650457  *
    13       H         -3.42802896  *  -0.26811798  *   0.80939316  *
    14       H         -2.57266724  *  -1.65486726  *   0.10444504  *
    15       H         -3.36810818  *  -0.46898425  *  -0.95044564  *
    16       H          2.58945644  *   1.79169362  *  -0.10673528  *
    17       H          2.17312866  *  -2.55214591  *   0.39233565  *
    18       H          0.05436767  *   3.17002675  *  -0.36448332  *
    19       H         -0.29847217  *  -2.35954629  *   0.27741148  *
    20       H         -2.47823662  *   2.26263336  *  -0.35119157  *

                             CARTESIAN COORDINATES

   1    C        2.606580594    -0.411101754     0.154892720
   2    C       -2.788189142    -0.586162655    -0.024932096
   3    C       -1.560353958     0.220140076    -0.074999879
   4    C       -0.261575224    -0.191608565     0.022067272
   5    C        0.612179524     0.996565844    -0.086181319
   6    C        1.946255035     0.908873668    -0.026094750
   7    C        1.689198464    -1.578306621     0.258964928
   8    C       -1.564532061     1.680480740    -0.248188916
   9    C        0.351337811    -1.481191149     0.197619922
  10    C       -0.286396004     2.143157936    -0.255475541
  11    H        3.304401823    -0.577435757    -0.692424248
  12    H        3.238849792    -0.369060980     1.066504571
  13    H       -3.428028955    -0.268117985     0.809393162
  14    H       -2.572667241    -1.654867265     0.104445038
  15    H       -3.368108181    -0.468984253    -0.950445642
  16    H        2.589456439     1.791693620    -0.106735275
  17    H        2.173128661    -2.552145912     0.392335654
  18    H        0.054367671     3.170026749    -0.364483317
  19    H       -0.298472172    -2.359546293     0.277411483
  20    H       -2.478236624     2.262633361    -0.351191572


           Empirical Formula: C10 H10  =    20 atoms



      MOLECULAR POINT GROUP   :   C1  


                  EIGENVALUES  
 -41.10793 -35.69113 -31.83608 -28.96355 -26.97534 -23.98632 -20.98201 -20.15895
 -19.05347 -17.12161 -16.05330 -15.85872 -15.17997 -14.89894 -14.42537 -14.34397
 -13.68623 -13.63927 -13.03211 -12.41400 -12.36497 -11.80208 -10.84920  -9.37680
  -8.31823  -0.75182   0.81402   2.15505   2.56348   3.02832   3.25958   3.30583
   3.45547   3.52173   3.71942   3.98490   4.08461   4.20074   4.21606   4.43330
   4.50535   4.63162   4.69096   4.95399   5.26465   5.30666   5.66848   6.22130
   6.35490   6.50361


              NET ATOMIC CHARGES AND DIPOLE CONTRIBUTIONS

  ATOM NO.   TYPE          CHARGE      No. of ELECS.   s-Pop       p-Pop       
    1          C          -0.034966        4.0350     1.13441     2.90056
    2          C          -0.044882        4.0449     1.11493     2.92995
    3          C          -0.086278        4.0863     1.18886     2.89742
    4          C          -0.083222        4.0832     1.17170     2.91152
    5          C          -0.079021        4.0790     1.18007     2.89895
    6          C          -0.045771        4.0458     1.19018     2.85559
    7          C          -0.155327        4.1553     1.19572     2.95961
    8          C          -0.101748        4.1017     1.19241     2.90934
    9          C          -0.058426        4.0584     1.16633     2.89209
   10          C          -0.120756        4.1208     1.18699     2.93377
   11          H           0.071712        0.9283     0.92829
   12          H           0.071712        0.9283     0.92829
   13          H           0.045530        0.9545     0.95447
   14          H           0.042028        0.9580     0.95797
   15          H           0.045499        0.9545     0.95450
   16          H           0.101040        0.8990     0.89896
   17          H           0.099481        0.9005     0.90052
   18          H           0.115993        0.8840     0.88401
   19          H           0.104242        0.8958     0.89576
   20          H           0.113161        0.8868     0.88684
 DIPOLE           X         Y         Z       TOTAL
 POINT-CHG.     0.904    -0.225     0.061     0.933
 HYBRID         0.110     0.036     0.000     0.116
 SUM            1.014    -0.189     0.061     1.033


          ATOMIC ORBITAL ELECTRON POPULATIONS

     Atom    s        px        py        pz   
    1  C   1.13441   0.97067   0.92348   1.00641
    2  C   1.11493   0.94601   0.98089   1.00304
    3  C   1.18886   0.94028   0.94267   1.01447
    4  C   1.17170   0.93675   0.93090   1.04387
    5  C   1.18007   0.93981   0.94484   1.01430
    6  C   1.19018   0.95150   0.97013   0.93396
    7  C   1.19572   0.95704   0.97691   1.02566
    8  C   1.19241   0.96635   0.93892   1.00407
    9  C   1.16633   0.94535   0.95256   0.99419
   10  C   1.18699   0.94169   0.95845   1.03363
   11  H   0.92829
   12  H   0.92829
   13  H   0.95447
   14  H   0.95797
   15  H   0.95450
   16  H   0.89896
   17  H   0.90052
   18  H   0.88401
   19  H   0.89576
   20  H   0.88684
 *******************************************************************************
 **                                                                           **
 **                              MOPAC v23.1.2                                **
 **                                                                           **
 *******************************************************************************
 **          Digital Object Identifier (DOI): 10.5281/zenodo.6511958          **
 **    Visit the DOI location for information on how to cite this program.    **
 *******************************************************************************

                              PM3 CALCULATION RESULTS

 *******************************************************************************
 *  CALCULATION DONE: (MAX THREADS = 1)              Tue Jun  3 16:32:15 2025  *
 *  PM3        - The PM3 Hamiltonian to be used
 *  OLDGEO     - PREVIOUS GEOMETRY TO BE USED
 *  PRECISE    - TIGHTER CRITERIA TO BE USED
 *  NOSYM      - POINT-GROUP SYMMETRY SET TO C1
 *  THREADS=1  - MULTI-THREADING NOT USED
 *  T=         - A TIME OF 172800.0 SECONDS REQUESTED
 *  DUMP=N     - RESTART FILE WRITTEN EVERY 7200.0 SECONDS REQUESTED
 *  THERMO     - THERMODYNAMIC QUANTITIES TO BE CALCULATED
 *******************************************************************************
oldgeo thermo nosym precise THREADS=1  pm3
 InChI=1S/C10H10/c1-8-6-7-9-4-2-3-5-10(8)9/h3-7H,2H2,1H3

   ATOM   CHEMICAL          X               Y               Z
  NUMBER   SYMBOL      (ANGSTROMS)     (ANGSTROMS)     (ANGSTROMS)

     1       C          2.60658059  *  -0.41110175  *   0.15489272  *
     2       C         -2.78818914  *  -0.58616266  *  -0.02493210  *
     3       C         -1.56035396  *   0.22014008  *  -0.07499988  *
     4       C         -0.26157522  *  -0.19160856  *   0.02206727  *
     5       C          0.61217952  *   0.99656584  *  -0.08618132  *
     6       C          1.94625503  *   0.90887367  *  -0.02609475  *
     7       C          1.68919846  *  -1.57830662  *   0.25896493  *
     8       C         -1.56453206  *   1.68048074  *  -0.24818892  *
     9       C          0.35133781  *  -1.48119115  *   0.19761992  *
    10       C         -0.28639600  *   2.14315794  *  -0.25547554  *
    11       H          3.30440182  *  -0.57743576  *  -0.69242425  *
    12       H          3.23884979  *  -0.36906098  *   1.06650457  *
    13       H         -3.42802896  *  -0.26811798  *   0.80939316  *
    14       H         -2.57266724  *  -1.65486726  *   0.10444504  *
    15       H         -3.36810818  *  -0.46898425  *  -0.95044564  *
    16       H          2.58945644  *   1.79169362  *  -0.10673528  *
    17       H          2.17312866  *  -2.55214591  *   0.39233565  *
    18       H          0.05436767  *   3.17002675  *  -0.36448332  *
    19       H         -0.29847217  *  -2.35954629  *   0.27741148  *
    20       H         -2.47823662  *   2.26263336  *  -0.35119157  *



          CARTESIAN COORDINATES 

    NO.       ATOM           X           Y           Z

     1         C          2.6066     -0.4111      0.1549
     2         C         -2.7882     -0.5862     -0.0249
     3         C         -1.5604      0.2201     -0.0750
     4         C         -0.2616     -0.1916      0.0221
     5         C          0.6122      0.9966     -0.0862
     6         C          1.9463      0.9089     -0.0261
     7         C          1.6892     -1.5783      0.2590
     8         C         -1.5645      1.6805     -0.2482
     9         C          0.3513     -1.4812      0.1976
    10         C         -0.2864      2.1432     -0.2555
    11         H          3.3044     -0.5774     -0.6924
    12         H          3.2388     -0.3691      1.0665
    13         H         -3.4280     -0.2681      0.8094
    14         H         -2.5727     -1.6549      0.1044
    15         H         -3.3681     -0.4690     -0.9504
    16         H          2.5895      1.7917     -0.1067
    17         H          2.1731     -2.5521      0.3923
    18         H          0.0544      3.1700     -0.3645
    19         H         -0.2985     -2.3595      0.2774
    20         H         -2.4782      2.2626     -0.3512

  H: (PM3): J. J. P. STEWART, J. COMP. CHEM. 10, 209 (1989).
  C: (PM3): J. J. P. STEWART, J. COMP. CHEM. 10, 209 (1989).

           Empirical Formula: C10 H10  =    20 atoms



      MOLECULAR POINT GROUP   :   C1  


      RHF CALCULATION, NO. OF DOUBLY OCCUPIED LEVELS = 25



          HEAT OF FORMATION =      54.388726 KCALS/MOLE


          CARTESIAN COORDINATE DERIVATIVES

   NUMBER  ATOM         X            Y            Z

     1       C     -0.000462     0.000030     0.000004
     2       C     -0.001133    -0.004021    -0.000912
     3       C     -0.001072    -0.001235     0.000408
     4       C     -0.000913    -0.000909     0.000504
     5       C     -0.000956    -0.000811    -0.000548
     6       C     -0.000283     0.001599    -0.001157
     7       C     -0.000226    -0.000280     0.000384
     8       C     -0.001538     0.001075    -0.000023
     9       C     -0.000176     0.001098    -0.000712
    10       C      0.000766     0.001476     0.001174
    11       H      0.000772    -0.000495     0.000643
    12       H      0.000130    -0.000556    -0.000620
    13       H     -0.000153    -0.000816    -0.000482
    14       H      0.000356     0.003913     0.001624
    15       H      0.002841     0.000981     0.000112
    16       H      0.000085     0.000505     0.000592
    17       H      0.000247     0.000463    -0.000633
    18       H      0.000783    -0.001808    -0.000191
    19       H      0.000626    -0.000463    -0.000121
    20       H      0.000307     0.000255    -0.000045



          GRADIENT NORM =   0.00865

          MOLECULAR WEIGHT =  130.19



          ROTATIONAL CONSTANTS IN CM(-1)

          A =    0.08472262   B =    0.04143014   C =    0.02811784



           PRINCIPAL MOMENTS OF INERTIA IN UNITS OF 10**(-40)*GRAM-CM**2

          A =      330.4047   B =      675.6615   C =      995.5514


          ORIENTATION OF MOLECULE IN FORCE CALCULATION

    NO.       ATOM         X         Y         Z

     1          C      -2.5284   -0.6469    0.0000
     2          C       2.8722   -0.6469    0.0000
     3          C       1.6212    0.1247    0.0000
     4          C       0.3339   -0.3322    0.0001
     5          C      -0.5738    0.8352   -0.0002
     6          C      -1.9056    0.7034   -0.0002
     7          C      -1.5777   -1.7918    0.0004
     8          C       1.5838    1.5948   -0.0003
     9          C      -0.2424   -1.6503    0.0005
    10          C       0.2923    2.0187   -0.0004
    11          H      -3.1919   -0.7309    0.8862
    12          H      -3.1917   -0.7314   -0.8862
    13          H       3.4732   -0.4123   -0.8890
    14          H       2.6872   -1.7290    0.0055
    15          H       3.4785   -0.4042    0.8833
    16          H      -2.5740    1.5710   -0.0005
    17          H      -2.0340   -2.7879    0.0007
    18          H      -0.0778    3.0412   -0.0006
    19          H       0.4326   -2.5132    0.0008
    20          H       2.4811    2.2106   -0.0004


    FIRST DERIVATIVES WILL BE USED IN THE CALCULATION OF SECOND DERIVATIVES

          ESTIMATED TIME TO COMPLETE CALCULATION =        1.88 SECONDS

    FOR POINT-GROUP C1   THERE ARE   1 UNIQUE SYMMETRY FUNCTIONS.

 STEP:   1 TIME =     0.02 SECS, INTEGRAL =      0.02 TIME LEFT: 172799.97
 STEP:   2 TIME =     0.02 SECS, INTEGRAL =      0.04 TIME LEFT: 172799.95
 STEP:   3 TIME =     0.02 SECS, INTEGRAL =      0.06 TIME LEFT: 172799.93
 STEP:   4 TIME =     0.02 SECS, INTEGRAL =      0.08 TIME LEFT: 172799.91
 STEP:   5 TIME =     0.02 SECS, INTEGRAL =      0.10 TIME LEFT: 172799.89
 STEP:   6 TIME =     0.02 SECS, INTEGRAL =      0.12 TIME LEFT: 172799.87
 STEP:   7 TIME =     0.02 SECS, INTEGRAL =      0.14 TIME LEFT: 172799.85
 STEP:   8 TIME =     0.02 SECS, INTEGRAL =      0.16 TIME LEFT: 172799.83
 STEP:   9 TIME =     0.02 SECS, INTEGRAL =      0.18 TIME LEFT: 172799.81
 STEP:  10 TIME =     0.02 SECS, INTEGRAL =      0.21 TIME LEFT: 172799.79
 STEP:  11 TIME =     0.02 SECS, INTEGRAL =      0.23 TIME LEFT: 172799.77
 STEP:  12 TIME =     0.02 SECS, INTEGRAL =      0.25 TIME LEFT: 172799.74
 STEP:  13 TIME =     0.02 SECS, INTEGRAL =      0.27 TIME LEFT: 172799.72
 STEP:  14 TIME =     0.02 SECS, INTEGRAL =      0.30 TIME LEFT: 172799.70
 STEP:  15 TIME =     0.02 SECS, INTEGRAL =      0.32 TIME LEFT: 172799.67
 STEP:  16 TIME =     0.02 SECS, INTEGRAL =      0.34 TIME LEFT: 172799.65
 STEP:  17 TIME =     0.02 SECS, INTEGRAL =      0.36 TIME LEFT: 172799.63
 STEP:  18 TIME =     0.02 SECS, INTEGRAL =      0.38 TIME LEFT: 172799.61
 STEP:  19 TIME =     0.02 SECS, INTEGRAL =      0.40 TIME LEFT: 172799.59
 STEP:  20 TIME =     0.02 SECS, INTEGRAL =      0.42 TIME LEFT: 172799.57
 STEP:  21 TIME =     0.02 SECS, INTEGRAL =      0.45 TIME LEFT: 172799.55
 STEP:  22 TIME =     0.02 SECS, INTEGRAL =      0.47 TIME LEFT: 172799.52
 STEP:  23 TIME =     0.02 SECS, INTEGRAL =      0.49 TIME LEFT: 172799.50
 STEP:  24 TIME =     0.02 SECS, INTEGRAL =      0.52 TIME LEFT: 172799.48
 STEP:  25 TIME =     0.02 SECS, INTEGRAL =      0.54 TIME LEFT: 172799.45
 STEP:  26 TIME =     0.02 SECS, INTEGRAL =      0.56 TIME LEFT: 172799.43
 STEP:  27 TIME =     0.02 SECS, INTEGRAL =      0.58 TIME LEFT: 172799.41
 STEP:  28 TIME =     0.02 SECS, INTEGRAL =      0.61 TIME LEFT: 172799.39
 STEP:  29 TIME =     0.02 SECS, INTEGRAL =      0.62 TIME LEFT: 172799.37
 STEP:  30 TIME =     0.02 SECS, INTEGRAL =      0.65 TIME LEFT: 172799.34
 STEP:  31 TIME =     0.02 SECS, INTEGRAL =      0.67 TIME LEFT: 172799.32
 STEP:  32 TIME =     0.02 SECS, INTEGRAL =      0.69 TIME LEFT: 172799.30
 STEP:  33 TIME =     0.02 SECS, INTEGRAL =      0.71 TIME LEFT: 172799.28
 STEP:  34 TIME =     0.02 SECS, INTEGRAL =      0.73 TIME LEFT: 172799.26
 STEP:  35 TIME =     0.02 SECS, INTEGRAL =      0.75 TIME LEFT: 172799.24
 STEP:  36 TIME =     0.02 SECS, INTEGRAL =      0.77 TIME LEFT: 172799.22
 STEP:  37 TIME =     0.02 SECS, INTEGRAL =      0.79 TIME LEFT: 172799.20
 STEP:  38 TIME =     0.02 SECS, INTEGRAL =      0.81 TIME LEFT: 172799.18
 STEP:  39 TIME =     0.02 SECS, INTEGRAL =      0.83 TIME LEFT: 172799.16
 STEP:  40 TIME =     0.02 SECS, INTEGRAL =      0.85 TIME LEFT: 172799.14
 STEP:  41 TIME =     0.02 SECS, INTEGRAL =      0.87 TIME LEFT: 172799.12
 STEP:  42 TIME =     0.02 SECS, INTEGRAL =      0.89 TIME LEFT: 172799.10
 STEP:  43 TIME =     0.02 SECS, INTEGRAL =      0.91 TIME LEFT: 172799.08
 STEP:  44 TIME =     0.02 SECS, INTEGRAL =      0.93 TIME LEFT: 172799.06
 STEP:  45 TIME =     0.02 SECS, INTEGRAL =      0.95 TIME LEFT: 172799.04
 STEP:  46 TIME =     0.02 SECS, INTEGRAL =      0.97 TIME LEFT: 172799.02
 STEP:  47 TIME =     0.02 SECS, INTEGRAL =      0.99 TIME LEFT: 172799.00
 STEP:  48 TIME =     0.02 SECS, INTEGRAL =      1.01 TIME LEFT: 172798.98
 STEP:  49 TIME =     0.02 SECS, INTEGRAL =      1.03 TIME LEFT: 172798.96
 STEP:  50 TIME =     0.02 SECS, INTEGRAL =      1.05 TIME LEFT: 172798.95
 STEP:  51 TIME =     0.02 SECS, INTEGRAL =      1.07 TIME LEFT: 172798.93
 STEP:  52 TIME =     0.02 SECS, INTEGRAL =      1.08 TIME LEFT: 172798.91
 STEP:  53 TIME =     0.02 SECS, INTEGRAL =      1.10 TIME LEFT: 172798.89
 STEP:  54 TIME =     0.02 SECS, INTEGRAL =      1.12 TIME LEFT: 172798.87
 STEP:  55 TIME =     0.02 SECS, INTEGRAL =      1.14 TIME LEFT: 172798.85
 STEP:  56 TIME =     0.02 SECS, INTEGRAL =      1.16 TIME LEFT: 172798.83
 STEP:  57 TIME =     0.02 SECS, INTEGRAL =      1.18 TIME LEFT: 172798.81
 STEP:  58 TIME =     0.02 SECS, INTEGRAL =      1.20 TIME LEFT: 172798.79
 STEP:  59 TIME =     0.02 SECS, INTEGRAL =      1.22 TIME LEFT: 172798.77
 STEP:  60 TIME =     0.02 SECS, INTEGRAL =      1.24 TIME LEFT: 172798.75

(To convert to Hartree/Bohr^2, multiply by (10^(-21) x N x a0^2)/(4.184 x 627.51) =  0.0642)


           FORCE MATRIX IN MILLIDYNES/ANGSTROM


                  C  1       C  2       C  3       C  4       C  5       C  6
 ------------------------------------------------------------------------------
     C    1  14.923263
     C    2   0.002477  14.870414
     C    3   0.089322   5.540938  18.440004
     C    4   0.205273   0.660205   8.521368  19.379052
     C    5   0.975792   0.115748   1.442045   4.627917  19.737175
     C    6   4.894089   0.012605   0.206137   0.956982  10.034677  17.938227
     C    7   4.884705   0.010725   0.207348   1.312466   0.083373   0.686259
     C    8   0.073450   0.554412   4.737389   1.667090   1.627106   0.243149
     C    9   0.823983   0.051111   0.965344   5.911573   0.706855   0.083626
     C   10   0.154435   0.056701   1.600922   1.166280   4.951095   0.902849
     H   11   4.359178   0.001376   0.010322   0.017844   0.044925   0.407765
     H   12   4.359711   0.001373   0.010287   0.017791   0.044884   0.407732
     H   13   0.001141   4.696007   0.451419   0.030806   0.017841   0.002644
     H   14   0.000509   4.729692   0.467789   0.017707   0.002878   0.001274
     H   15   0.001128   4.696728   0.451701   0.031068   0.017784   0.002630
     H   16   0.423070   0.009475   0.021689   0.119496   0.459224   4.849147
     H   17   0.422824   0.002925   0.005922   0.124164   0.007362   0.048735
     H   18   0.004804   0.006740   0.099889   0.037723   0.422801   0.015676
     H   19   0.123356   0.013055   0.008441   0.441704   0.041007   0.004759
     H   20   0.009880   0.008390   0.426003   0.046567   0.110105   0.008812


                  C  7       C  8       C  9       C 10       H 11       H 12
 ------------------------------------------------------------------------------
     C    7  17.833179
     C    8   0.116601  17.917563
     C    9  10.046029   0.232969  18.407451
     C   10   0.082413   9.229519   0.140431  18.000360
     H   11   0.412504   0.008934   0.037892   0.022770   4.948500
     H   12   0.412467   0.008901   0.037861   0.022747   0.564690   4.948760
     H   13   0.002075   0.015790   0.005840   0.004896   0.000304   0.000211
     H   14   0.001754   0.046050   0.014220   0.009066   0.000245   0.000242
     H   15   0.002049   0.015885   0.005793   0.004885   0.000211   0.000301
     H   16   0.046494   0.019837   0.007318   0.076345   0.026187   0.026189
     H   17   4.830708   0.010084   0.439740   0.004350   0.029192   0.029192
     H   18   0.002085   0.443245   0.010921   5.082649   0.001134   0.001132
     H   19   0.441773   0.003292   4.826894   0.006882   0.016134   0.016127
     H   20   0.002097   5.063248   0.006483   0.442096   0.001610   0.001607


                  H 13       H 14       H 15       H 16       H 17       H 18
 ------------------------------------------------------------------------------
     H   13   5.406721
     H   14   0.558875   5.433886
     H   15   0.573175   0.558662   5.407293
     H   16   0.001515   0.000259   0.001511   5.218034
     H   17   0.000419   0.000367   0.000413   0.007414   5.206812
     H   18   0.000569   0.001488   0.000569   0.007790   0.000468   5.484993
     H   19   0.001426   0.019801   0.001426   0.001226   0.066634   0.001343
     H   20   0.003501   0.001683   0.003603   0.002932   0.000516   0.041162


                  H 19       H 20
 ------------------------------
     H   19   5.196604
     H   20   0.000623   5.456574


          HEAT OF FORMATION =      54.388726 KCALS/MOLE

          ZERO POINT ENERGY     105.108 KCAL/MOL


           NORMAL COORDINATE ANALYSIS (Total motion = 1 Angstrom)


   Root No.       1         2         3         4         5         6         7         8

                 1 A       2 A       3 A       4 A       5 A       6 A       7 A       8 A   

                  76.3     104.2     195.0     222.8     253.0     314.2     417.5     462.2
  
           1    0.0000    0.0000   -0.0000   -0.0000   -0.0237   -0.0000   -0.0000    0.0190
           2   -0.0000   -0.0000    0.0000    0.0000    0.0215    0.0000   -0.0000   -0.0234
           3   -0.0138   -0.0535    0.0284    0.0180   -0.0000    0.0101    0.0048    0.0000
           4   -0.0001    0.0000   -0.0000   -0.0000    0.0588    0.0000    0.0000   -0.0063
           5   -0.0001    0.0000    0.0000   -0.0000    0.0667   -0.0000   -0.0000    0.0280
           6   -0.0106   -0.0515   -0.0291   -0.0231   -0.0000    0.0192   -0.0002   -0.0000
           7    0.0000   -0.0000    0.0000   -0.0000    0.0055   -0.0000    0.0000   -0.0341
           8    0.0000   -0.0000    0.0000    0.0000   -0.0193   -0.0000   -0.0000   -0.0266
           9    0.0031   -0.0042    0.0136    0.0370    0.0000   -0.0462   -0.0323    0.0000
          10   -0.0000    0.0000    0.0000   -0.0000    0.0067   -0.0000   -0.0000   -0.0451
          11    0.0000   -0.0000   -0.0000    0.0000   -0.0297    0.0000   -0.0000    0.0170
          12    0.0045    0.0265   -0.0212    0.0660    0.0000    0.0002   -0.0245   -0.0000
          13   -0.0000    0.0000    0.0000    0.0000    0.0076   -0.0000   -0.0000   -0.0114
          14    0.0000   -0.0000   -0.0000    0.0000   -0.0252    0.0000   -0.0000    0.0490
          15    0.0054    0.0216   -0.0424    0.0226    0.0000    0.0273   -0.0396   -0.0000
          16   -0.0000    0.0000    0.0000    0.0000    0.0052    0.0000   -0.0000   -0.0093
          17   -0.0000   -0.0000   -0.0000   -0.0000    0.0050   -0.0000    0.0000    0.0015
          18   -0.0038   -0.0205   -0.0582   -0.0243    0.0000   -0.0519    0.0147   -0.0000
          19    0.0000   -0.0000   -0.0000    0.0000   -0.0357   -0.0000    0.0000    0.0018
          20   -0.0000    0.0000    0.0000   -0.0000    0.0109    0.0000   -0.0000   -0.0365
          21   -0.0034    0.0212    0.0344   -0.0488   -0.0000    0.0014   -0.0469    0.0000
          22   -0.0000    0.0000    0.0000    0.0000   -0.0016   -0.0000   -0.0000    0.0276
          23    0.0000   -0.0000    0.0000   -0.0000   -0.0186   -0.0000    0.0000   -0.0330
          24    0.0084    0.0031    0.0649   -0.0090    0.0000   -0.0389    0.0148    0.0000
          25    0.0000   -0.0000   -0.0000    0.0000   -0.0307   -0.0000   -0.0000   -0.0059
          26    0.0000    0.0000   -0.0000    0.0000   -0.0161    0.0000    0.0000    0.0011
          27    0.0052    0.0538   -0.0074    0.0104   -0.0000    0.0006    0.0679   -0.0000
          28   -0.0000    0.0000    0.0000    0.0000   -0.0000   -0.0000   -0.0000    0.0456
          29    0.0000   -0.0000   -0.0000   -0.0000   -0.0223    0.0000    0.0000    0.0205
          30    0.0109    0.0254    0.0072   -0.0229    0.0000    0.0623    0.0060   -0.0000
          31   -0.0116   -0.0658    0.0513    0.0775   -0.0254    0.0629    0.0684    0.0201
          32   -0.0016    0.0060    0.0458    0.0004    0.0331    0.0360   -0.0289   -0.0273
          33   -0.0227   -0.1026    0.0718    0.0770   -0.0002    0.0620    0.0550    0.0004
          34    0.0116    0.0658   -0.0512   -0.0774   -0.0254   -0.0629   -0.0683    0.0201
          35    0.0015   -0.0061   -0.0457   -0.0004    0.0331   -0.0360    0.0289   -0.0274
          36   -0.0227   -0.1025    0.0717    0.0769    0.0002    0.0619    0.0549   -0.0004
          37   -0.1367   -0.0047   -0.0249   -0.0339    0.0405    0.0442    0.0219   -0.0232
          38   -0.1982    0.0495    0.0207    0.0249    0.1177   -0.0312   -0.0122    0.0750
          39   -0.1557   -0.0416   -0.0408   -0.0397    0.0005    0.0416    0.0116    0.0003
          40    0.0006    0.0001    0.0001    0.0002    0.1442   -0.0002   -0.0001    0.0686
          41    0.0011   -0.0003   -0.0001   -0.0002    0.0534    0.0002    0.0001    0.0168
          42    0.2555   -0.1103   -0.0502   -0.0467    0.0003    0.0498    0.0104    0.0001
          43    0.1358    0.0047    0.0247    0.0336    0.0403   -0.0439   -0.0217   -0.0237
          44    0.1965   -0.0491   -0.0205   -0.0247    0.1186    0.0310    0.0121    0.0754
          45   -0.1584   -0.0412   -0.0408   -0.0396   -0.0009    0.0416    0.0116   -0.0004
          46   -0.0000    0.0000    0.0000    0.0000    0.0285    0.0000   -0.0000   -0.0508
          47   -0.0000   -0.0000   -0.0000   -0.0000    0.0231   -0.0000    0.0000   -0.0303
          48   -0.0056   -0.0403   -0.1036   -0.0904    0.0000   -0.1263    0.0810    0.0000
          49    0.0001   -0.0000   -0.0000    0.0000   -0.0519    0.0000    0.0000    0.0090
          50   -0.0000    0.0000    0.0000   -0.0000    0.0181    0.0000   -0.0000   -0.0393
          51   -0.0027    0.0451    0.0726   -0.1337   -0.0000    0.0007   -0.1091    0.0000
          52   -0.0000    0.0000   -0.0000    0.0000   -0.0056   -0.0000    0.0000    0.1041
          53    0.0000    0.0000    0.0000   -0.0000   -0.0244    0.0000    0.0000    0.0413
          54    0.0159    0.0381    0.0136   -0.0631    0.0000    0.1475    0.0436    0.0000
          55    0.0001   -0.0000    0.0000    0.0000   -0.0513    0.0000   -0.0000    0.0307
          56    0.0001    0.0000   -0.0000   -0.0000   -0.0320    0.0000    0.0001    0.0298
          57    0.0143    0.1040   -0.0138   -0.0124    0.0000   -0.0046    0.1919   -0.0000
          58   -0.0000    0.0000   -0.0000    0.0000   -0.0018   -0.0000   -0.0000    0.0626
          59    0.0000   -0.0000    0.0000   -0.0000   -0.0180   -0.0000    0.0000   -0.0830
          60    0.0124   -0.0077    0.1366   -0.0381    0.0000   -0.0861    0.0728    0.0000


   Root No.       9        10        11        12        13        14        15        16

                 9 A      10 A      11 A      12 A      13 A      14 A      15 A      16 A   

                 527.7     561.4     581.3     658.7     711.5     773.4     800.6     818.0
  
           1    0.0671    0.0116   -0.0000    0.0000    0.0439   -0.0000   -0.0000    0.0253
           2    0.0450   -0.0071   -0.0000    0.0000    0.0027   -0.0000   -0.0000    0.0011
           3   -0.0000   -0.0000   -0.0020    0.0197   -0.0000   -0.0317   -0.0213    0.0000
           4   -0.0352   -0.0444    0.0000    0.0000    0.0575   -0.0000   -0.0000    0.0229
           5    0.0165    0.0227   -0.0000   -0.0000   -0.0368   -0.0000    0.0000    0.0039
           6    0.0000    0.0000    0.0041   -0.0029   -0.0000   -0.0024   -0.0066   -0.0000
           7   -0.0386   -0.0159    0.0000   -0.0000    0.0182   -0.0000   -0.0000    0.0210
           8   -0.0111    0.0381   -0.0000   -0.0000   -0.0270   -0.0000    0.0000    0.0322
           9    0.0000    0.0001    0.0750   -0.0209    0.0001   -0.0072   -0.0162    0.0000
          10   -0.0206    0.0042    0.0000   -0.0000   -0.0029   -0.0000   -0.0000    0.0038
          11   -0.0367   -0.0245    0.0000    0.0000    0.0092    0.0000   -0.0000   -0.0009
          12   -0.0000   -0.0000   -0.0174    0.0566    0.0000    0.0446    0.0196    0.0000
          13    0.0040    0.0526   -0.0001    0.0000    0.0073    0.0000   -0.0000   -0.0351
          14   -0.0114   -0.0039   -0.0000   -0.0000    0.0351   -0.0000   -0.0000   -0.0043
          15   -0.0000   -0.0001   -0.0567   -0.0557   -0.0000   -0.0063   -0.0169   -0.0000
          16    0.0087    0.0631   -0.0001    0.0000    0.0176    0.0000   -0.0000   -0.0539
          17    0.0595   -0.0306    0.0000    0.0000    0.0119   -0.0000    0.0000    0.0552
          18   -0.0000    0.0000   -0.0014    0.0017   -0.0000    0.0055   -0.0139   -0.0000
          19    0.0322   -0.0449    0.0000   -0.0000   -0.0233    0.0000   -0.0000   -0.0198
          20    0.0047   -0.0492    0.0001   -0.0000   -0.0461    0.0000    0.0000   -0.0513
          21   -0.0000    0.0000   -0.0002    0.0121    0.0000   -0.0093    0.0145   -0.0000
          22   -0.0315    0.0171    0.0000   -0.0000   -0.0572    0.0000    0.0000    0.0413
          23   -0.0126    0.0471   -0.0001    0.0000   -0.0055   -0.0000    0.0000    0.0338
          24   -0.0000   -0.0001   -0.0403   -0.0096    0.0000   -0.0117    0.0204   -0.0000
          25    0.0369   -0.0436    0.0000   -0.0000   -0.0310    0.0000    0.0000   -0.0184
          26   -0.0624   -0.0296    0.0000   -0.0000    0.0092   -0.0000   -0.0000   -0.0230
          27    0.0000    0.0000   -0.0015    0.0062   -0.0000   -0.0234    0.0087   -0.0000
          28   -0.0239    0.0169   -0.0000   -0.0000   -0.0419    0.0000    0.0000    0.0179
          29   -0.0061    0.0321   -0.0000    0.0000    0.0499   -0.0000   -0.0000   -0.0368
          30    0.0000    0.0001    0.0385   -0.0000    0.0000   -0.0162    0.0252   -0.0000
          31    0.0722    0.0069    0.0187   -0.0852    0.0466    0.0963    0.0534    0.0319
          32    0.0437    0.0351    0.0024   -0.0061    0.0284    0.0033    0.0393   -0.0144
          33    0.0029    0.0004    0.0128   -0.0479    0.0036    0.0440    0.0243    0.0026
          34    0.0722    0.0068   -0.0187    0.0851    0.0465   -0.0962   -0.0534    0.0319
          35    0.0437    0.0351   -0.0025    0.0061    0.0284   -0.0032   -0.0393   -0.0143
          36   -0.0029   -0.0004    0.0128   -0.0477   -0.0036    0.0438    0.0242   -0.0026
          37   -0.0449   -0.0401   -0.0798    0.0225    0.0676    0.0158    0.0346    0.0496
          38    0.0368    0.0023    0.0510   -0.0142   -0.0446   -0.0094   -0.0220   -0.0584
          39   -0.0010   -0.0017   -0.0380    0.0092    0.0038    0.0063    0.0117    0.0016
          40   -0.0071   -0.0881    0.0005   -0.0001    0.0728   -0.0001   -0.0002   -0.0658
          41    0.0121    0.0298   -0.0003    0.0001   -0.0406    0.0001    0.0001    0.0173
          42    0.0000   -0.0001   -0.0443    0.0113   -0.0000    0.0066    0.0149   -0.0000
          43   -0.0450   -0.0396    0.0793   -0.0224    0.0674   -0.0157   -0.0344    0.0503
          44    0.0369    0.0019   -0.0506    0.0141   -0.0445    0.0093    0.0218   -0.0589
          45    0.0009    0.0016   -0.0380    0.0092   -0.0037    0.0063    0.0117   -0.0015
          46    0.0209    0.0760   -0.0001    0.0000   -0.0078    0.0000   -0.0000   -0.0942
          47    0.0676   -0.0206    0.0000    0.0000   -0.0073    0.0000    0.0000    0.0259
          48    0.0000    0.0002    0.1020    0.0173    0.0001    0.1061    0.1738   -0.0001
          49   -0.0289   -0.0685    0.0001   -0.0000   -0.0394   -0.0000   -0.0000   -0.0584
          50    0.0328   -0.0386    0.0001   -0.0000   -0.0387    0.0001   -0.0000   -0.0353
          51   -0.0000    0.0000    0.0228   -0.1304    0.0001    0.2185   -0.0272    0.0001
          52   -0.0408   -0.0201    0.0000   -0.0000   -0.0351   -0.0000    0.0000    0.0081
          53   -0.0124    0.0188   -0.0000    0.0000    0.0536    0.0000   -0.0000   -0.0403
          54    0.0000    0.0002    0.1367    0.1582   -0.0000    0.1028   -0.1695    0.0001
          55    0.0355   -0.0563    0.0001    0.0000   -0.0099   -0.0000   -0.0000   -0.0208
          56   -0.0626   -0.0399    0.0001   -0.0001    0.0257    0.0000   -0.0001   -0.0254
          57    0.0000    0.0001    0.0318   -0.1558    0.0000    0.0463   -0.1060    0.0001
          58   -0.0250    0.0254   -0.0000   -0.0000   -0.0688    0.0000    0.0000    0.0076
          59   -0.0231    0.0352   -0.0001    0.0000    0.0104    0.0000   -0.0000    0.0853
          60   -0.0000   -0.0003   -0.1763    0.0898   -0.0002    0.1108   -0.1191   -0.0000


   Root No.      17        18        19        20        21        22        23        24

                17 A      18 A      19 A      20 A      21 A      22 A      23 A      24 A   

                 851.4     863.9     942.2     958.6     963.5     997.2     999.7    1006.5
  
           1    0.0001    0.0458   -0.0000   -0.0000   -0.0156    0.0457   -0.0002    0.0000
           2   -0.0000    0.0062    0.0000    0.0000    0.0004   -0.0052    0.0000    0.0000
           3   -0.0270    0.0001    0.0273    0.0041   -0.0000   -0.0001   -0.0196    0.0262
           4   -0.0000   -0.0253    0.0000   -0.0000   -0.0100   -0.0066    0.0000   -0.0000
           5    0.0000    0.0084   -0.0000   -0.0001   -0.0472   -0.0093    0.0001    0.0000
           6    0.0086   -0.0000    0.0074   -0.0178    0.0000   -0.0002   -0.0288   -0.0247
           7    0.0000   -0.0015    0.0000   -0.0000   -0.0029    0.0024   -0.0000   -0.0000
           8    0.0000   -0.0025   -0.0000   -0.0000   -0.0063    0.0005    0.0000    0.0000
           9    0.0104   -0.0001   -0.0021    0.0113    0.0000    0.0002    0.0344    0.0315
          10    0.0000   -0.0044    0.0000   -0.0000   -0.0037    0.0065   -0.0001   -0.0000
          11    0.0000    0.0274    0.0000    0.0000    0.0025   -0.0028    0.0000   -0.0000
          12   -0.0281    0.0001    0.0092   -0.0009   -0.0000   -0.0000   -0.0028   -0.0208
          13   -0.0000    0.0076   -0.0000    0.0000    0.0008   -0.0066    0.0000   -0.0000
          14   -0.0000   -0.0303    0.0000   -0.0000   -0.0035    0.0055   -0.0000    0.0000
          15    0.0308   -0.0001    0.0082    0.0164   -0.0001   -0.0001   -0.0147    0.0151
          16    0.0000    0.0191   -0.0000    0.0000   -0.0040   -0.0045    0.0000    0.0000
          17    0.0000    0.0014    0.0000    0.0000    0.0121   -0.0279    0.0001   -0.0000
          18   -0.0075    0.0000   -0.0338   -0.0157    0.0001    0.0002    0.0241   -0.0284
          19   -0.0000   -0.0092    0.0000    0.0000    0.0017   -0.0089    0.0000    0.0000
          20   -0.0000   -0.0227   -0.0000   -0.0000   -0.0125    0.0457   -0.0002    0.0000
          21    0.0241   -0.0000   -0.0012    0.0141   -0.0000    0.0002    0.0235   -0.0362
          22    0.0000    0.0032   -0.0000    0.0000    0.0183    0.0060   -0.0000    0.0000
          23   -0.0000   -0.0198   -0.0000    0.0001    0.0432    0.0073   -0.0001   -0.0000
          24   -0.0196    0.0001   -0.0292    0.0246   -0.0001   -0.0002   -0.0279   -0.0118
          25   -0.0000   -0.0273    0.0000    0.0000    0.0052   -0.0169    0.0001   -0.0000
          26    0.0001    0.0794   -0.0000   -0.0000   -0.0107    0.0045   -0.0000    0.0000
          27    0.0215   -0.0001   -0.0259   -0.0205    0.0001   -0.0001   -0.0134    0.0337
          28   -0.0000   -0.0127   -0.0000    0.0000    0.0046    0.0009   -0.0000    0.0000
          29   -0.0001   -0.0648    0.0000   -0.0000    0.0030   -0.0057    0.0000   -0.0000
          30   -0.0175    0.0001    0.0225   -0.0329    0.0001    0.0002    0.0228   -0.0006
          31    0.0608    0.0544   -0.0667   -0.0153   -0.0208    0.0687    0.0420   -0.0522
          32    0.0498    0.0390    0.0441    0.0506   -0.0000   -0.0518   -0.0037   -0.0275
          33    0.0254    0.0074   -0.0201   -0.0027   -0.0039    0.0129    0.0126   -0.0167
          34   -0.0606    0.0547    0.0666    0.0153   -0.0210    0.0682   -0.0426    0.0522
          35   -0.0497    0.0392   -0.0441   -0.0506    0.0003   -0.0518    0.0043    0.0275
          36    0.0253   -0.0076   -0.0200   -0.0027    0.0040   -0.0127    0.0127   -0.0167
          37   -0.0425   -0.0431   -0.0311    0.0735   -0.0615   -0.0226    0.1126    0.0954
          38    0.0264    0.0430    0.0193   -0.0446    0.1071    0.0334   -0.0678   -0.0575
          39   -0.0142   -0.0026   -0.0091    0.0218    0.0037    0.0001    0.0319    0.0267
          40    0.0002    0.0093    0.0002    0.0001    0.2563    0.0543   -0.0010   -0.0006
          41   -0.0002    0.0042   -0.0001    0.0001   -0.0891   -0.0182    0.0006    0.0004
          42   -0.0172    0.0001   -0.0116    0.0263    0.0000    0.0002    0.0379    0.0321
          43    0.0422   -0.0435    0.0309   -0.0732   -0.0632   -0.0244   -0.1115   -0.0947
          44   -0.0261    0.0433   -0.0191    0.0447    0.1082    0.0346    0.0668    0.0570
          45   -0.0142    0.0026   -0.0091    0.0218   -0.0039    0.0002    0.0319    0.0267
          46    0.0000    0.0460   -0.0000    0.0001    0.0212   -0.1343    0.0007   -0.0001
          47    0.0000    0.0209    0.0001    0.0001    0.0318   -0.1281    0.0006   -0.0001
          48    0.0854   -0.0002    0.1448    0.0904   -0.0003   -0.0006   -0.0930    0.0842
          49    0.0000    0.0359    0.0000    0.0000    0.0084   -0.0890    0.0005   -0.0001
          50   -0.0001   -0.0413   -0.0000   -0.0000   -0.0158    0.0817   -0.0004    0.0001
          51   -0.1171    0.0003   -0.0445   -0.0915    0.0003   -0.0006   -0.0804    0.1286
          52   -0.0001   -0.0751   -0.0000   -0.0002   -0.0734    0.0072   -0.0001   -0.0000
          53   -0.0001   -0.0895   -0.0000   -0.0000   -0.0240   -0.0034   -0.0000   -0.0000
          54    0.0687   -0.0002   -0.1065    0.1338   -0.0005   -0.0005   -0.0726    0.0075
          55    0.0000    0.0373   -0.0000    0.0001    0.0374   -0.1298    0.0007   -0.0000
          56    0.0001    0.1318    0.0000    0.0001    0.0139   -0.0806    0.0004   -0.0001
          57   -0.1206    0.0002    0.1448    0.1119   -0.0004    0.0004    0.0485   -0.1256
          58   -0.0000   -0.0212   -0.0000   -0.0000   -0.0157   -0.0123    0.0001    0.0000
          59    0.0001    0.0131    0.0000    0.0002    0.0943    0.0343   -0.0003   -0.0000
          60    0.1276   -0.0003    0.1410   -0.1049    0.0004    0.0006    0.0979    0.0422


   Root No.      25        26        27        28        29        30        31        32

                25 A      26 A      27 A      28 A      29 A      30 A      31 A      32 A   

                1051.6    1057.2    1071.7    1111.7    1146.6    1181.8    1206.7    1304.4
  
           1    0.0000   -0.0000   -0.0034   -0.0000   -0.0036    0.0141    0.0106    0.0001
           2    0.0000    0.0170   -0.0020   -0.0041   -0.0011   -0.0109    0.0112   -0.0088
           3   -0.0004   -0.0000   -0.0000    0.0000   -0.0000    0.0000    0.0000    0.0000
           4    0.0000    0.0069   -0.0210    0.0155    0.0041    0.0091    0.0092    0.0056
           5   -0.0000   -0.0006    0.0005    0.0064    0.0053   -0.0074   -0.0046    0.0015
           6    0.0015    0.0000   -0.0000    0.0000    0.0000    0.0000    0.0000   -0.0000
           7    0.0000   -0.0033    0.0190   -0.0203   -0.0095   -0.0101   -0.0245    0.0107
           8   -0.0000    0.0026    0.0052   -0.0146   -0.0154    0.0113    0.0061   -0.0219
           9   -0.0017   -0.0000    0.0000   -0.0000    0.0000   -0.0000   -0.0000    0.0000
          10    0.0000   -0.0163    0.0265   -0.0399   -0.0114   -0.0185   -0.0173    0.0151
          11   -0.0000    0.0109   -0.0071    0.0080   -0.0059    0.0206   -0.0206   -0.0160
          12    0.0014   -0.0000   -0.0000   -0.0000    0.0000   -0.0000    0.0000    0.0000
          13   -0.0000   -0.0112   -0.0005    0.0070    0.0053   -0.0229   -0.0002   -0.0172
          14    0.0000    0.0090    0.0005    0.0100    0.0171   -0.0042   -0.0310   -0.0092
          15    0.0114   -0.0000   -0.0000   -0.0000   -0.0000    0.0000    0.0000    0.0000
          16    0.0000    0.0016   -0.0008    0.0169    0.0080   -0.0106    0.0004   -0.0297
          17   -0.0000   -0.0387    0.0108   -0.0080    0.0070   -0.0248   -0.0057   -0.0152
          18   -0.0408    0.0000   -0.0000    0.0000   -0.0000    0.0000    0.0000   -0.0000
          19   -0.0000    0.0034   -0.0017    0.0005    0.0069    0.0103   -0.0089   -0.0075
          20    0.0000   -0.0045   -0.0115    0.0184    0.0048    0.0003    0.0208    0.0132
          21    0.0392    0.0000    0.0000   -0.0000   -0.0000   -0.0000   -0.0000   -0.0000
          22    0.0000    0.0066   -0.0198    0.0089    0.0064    0.0043   -0.0004    0.0078
          23    0.0000    0.0019   -0.0214    0.0051   -0.0012    0.0127    0.0324   -0.0015
          24    0.0012    0.0000    0.0000   -0.0000   -0.0000   -0.0000   -0.0000   -0.0000
          25    0.0000    0.0170   -0.0021   -0.0017   -0.0031    0.0044   -0.0169   -0.0103
          26   -0.0000   -0.0153    0.0046   -0.0080    0.0012    0.0039   -0.0001   -0.0034
          27   -0.0126    0.0000   -0.0000    0.0000   -0.0000   -0.0000   -0.0000    0.0000
          28   -0.0000    0.0009   -0.0026    0.0089    0.0080   -0.0061   -0.0044    0.0176
          29   -0.0000   -0.0158   -0.0085   -0.0134   -0.0042   -0.0081    0.0011    0.0331
          30   -0.0028    0.0000    0.0000    0.0000    0.0000    0.0000   -0.0000   -0.0000
          31    0.0481   -0.0232   -0.0043    0.0121   -0.0115    0.0281    0.0402    0.1086
          32   -0.3439    0.1886   -0.0049   -0.0969    0.0571    0.0663   -0.0116    0.0469
          33    0.0027    0.0005   -0.0015    0.0004   -0.0013    0.0145    0.0167    0.0742
          34   -0.0481   -0.0232   -0.0043    0.0121   -0.0115    0.0282    0.0402    0.1088
          35    0.3439    0.1886   -0.0049   -0.0969    0.0571    0.0663   -0.0116    0.0469
          36    0.0026   -0.0006    0.0015   -0.0003    0.0013   -0.0145   -0.0167   -0.0743
          37   -0.0053    0.0166   -0.0509    0.0452    0.0111    0.0275    0.0499   -0.0546
          38    0.0032   -0.0147    0.0470   -0.0456   -0.0120   -0.0125   -0.0417    0.0304
          39   -0.0013    0.0022   -0.0063    0.0051    0.0003    0.0089    0.0139   -0.0267
          40    0.0000    0.0030    0.0057   -0.0267   -0.0272    0.0444    0.0563   -0.0820
          41   -0.0000   -0.0006   -0.0019    0.0113    0.0103   -0.0142   -0.0161    0.0196
          42   -0.0017   -0.0000    0.0001   -0.0001   -0.0000   -0.0001   -0.0001    0.0003
          43    0.0052    0.0168   -0.0515    0.0457    0.0113    0.0275    0.0500   -0.0544
          44   -0.0032   -0.0148    0.0474   -0.0460   -0.0121   -0.0125   -0.0420    0.0305
          45   -0.0013   -0.0022    0.0063   -0.0051   -0.0003   -0.0089   -0.0138    0.0267
          46   -0.0000   -0.0694    0.0291    0.0961   -0.0595    0.1957   -0.0321    0.0620
          47    0.0000   -0.0915    0.0337    0.0499   -0.0438    0.1318   -0.0317    0.0564
          48    0.0800    0.0000   -0.0000   -0.0000    0.0000   -0.0000    0.0000   -0.0000
          49    0.0000   -0.0726    0.0356   -0.0543    0.2441   -0.0055    0.1484    0.0325
          50   -0.0000    0.0320   -0.0292    0.0434   -0.1017    0.0076   -0.0485   -0.0041
          51   -0.0644   -0.0000    0.0000   -0.0000    0.0000    0.0000    0.0000    0.0000
          52    0.0000    0.0400    0.3126   -0.0212   -0.0907    0.0653    0.1370   -0.0620
          53    0.0000   -0.0024    0.1042   -0.0247   -0.0396    0.0174    0.0519    0.0072
          54    0.0078   -0.0000   -0.0000    0.0000    0.0000   -0.0000   -0.0000   -0.0000
          55    0.0000    0.0898   -0.0380    0.0503   -0.1364   -0.1537    0.0821    0.0605
          56    0.0000    0.0403   -0.0240    0.0336   -0.1032   -0.1179    0.0778    0.0516
          57    0.0228    0.0000   -0.0000    0.0000    0.0000    0.0000   -0.0000   -0.0000
          58   -0.0000   -0.0440   -0.1581   -0.1081   -0.0620    0.0513    0.0519   -0.0262
          59    0.0000    0.0754    0.1774    0.1741    0.0976   -0.0541   -0.0414    0.0502
          60   -0.0030   -0.0000   -0.0000   -0.0000   -0.0000    0.0000    0.0000   -0.0000


   Root No.      33        34        35        36        37        38        39        40

                33 A      34 A      35 A      36 A      37 A      38 A      39 A      40 A   

                1337.0    1358.4    1374.2    1388.6    1391.6    1420.8    1469.6    1558.6
  
           1   -0.0220   -0.0233    0.0413   -0.0000   -0.0019    0.0009    0.0051    0.0119
           2    0.0261   -0.0142   -0.0050   -0.0000    0.0107    0.1134   -0.0451   -0.0310
           3    0.0000    0.0000   -0.0000   -0.0000   -0.0000   -0.0000    0.0000    0.0000
           4   -0.0041   -0.0349   -0.0221   -0.0003   -0.0077   -0.0030    0.0449   -0.0547
           5   -0.0079    0.0116    0.0033   -0.0005   -0.0360    0.0053   -0.0361    0.0410
           6   -0.0000    0.0001    0.0001   -0.0443    0.0005   -0.0000    0.0000   -0.0000
           7    0.0240   -0.0080    0.0102   -0.0000    0.0038    0.0040   -0.0033    0.0739
           8    0.0438    0.0133    0.0203    0.0000   -0.0127    0.0059    0.0943   -0.0785
           9   -0.0000   -0.0000   -0.0000   -0.0007    0.0000   -0.0000   -0.0000    0.0000
          10    0.0037    0.0092    0.0172   -0.0000   -0.0066   -0.0092   -0.0564   -0.0101
          11    0.0190   -0.0080   -0.0151    0.0000    0.0071    0.0309    0.0369    0.1253
          12   -0.0000    0.0000    0.0000   -0.0003   -0.0000   -0.0000   -0.0000   -0.0000
          13   -0.0061    0.0077   -0.0162    0.0000   -0.0001   -0.0170    0.0230    0.0127
          14    0.0567   -0.0101    0.0137   -0.0001   -0.0061   -0.0539   -0.0666   -0.0531
          15   -0.0000    0.0000   -0.0000   -0.0000    0.0000    0.0000    0.0000    0.0000
          16    0.0162   -0.0023   -0.0197   -0.0000    0.0016   -0.0188    0.0093    0.0068
          17   -0.0187    0.0130   -0.0166    0.0000   -0.0032   -0.0499    0.0303    0.0198
          18    0.0000   -0.0000    0.0000   -0.0000    0.0000    0.0000   -0.0000   -0.0000
          19   -0.0229    0.0064   -0.0153    0.0000    0.0012    0.0048   -0.0113   -0.0370
          20    0.0046   -0.0065    0.0195   -0.0000   -0.0038   -0.0440    0.0236    0.0252
          21   -0.0000    0.0000   -0.0000   -0.0000    0.0000    0.0000   -0.0000   -0.0000
          22   -0.0027   -0.0021    0.0040   -0.0000    0.0006    0.0076   -0.0032    0.0014
          23   -0.0237   -0.0227   -0.0247   -0.0000    0.0112   -0.0269   -0.0646    0.0192
          24    0.0000    0.0000    0.0000    0.0002   -0.0000    0.0000    0.0000   -0.0000
          25   -0.0033    0.0063   -0.0156    0.0000    0.0018    0.0168   -0.0053   -0.0070
          26   -0.0438    0.0136   -0.0130    0.0000   -0.0015    0.0058   -0.0211   -0.0695
          27    0.0000   -0.0000    0.0000   -0.0000   -0.0000   -0.0000    0.0000    0.0000
          28   -0.0193    0.0123    0.0096    0.0000   -0.0034    0.0223    0.0192   -0.0165
          29   -0.0376    0.0133    0.0118    0.0001   -0.0001    0.0432    0.0314    0.0109
          30    0.0000   -0.0000   -0.0000   -0.0001    0.0000   -0.0000   -0.0000   -0.0000
          31    0.1086    0.0783   -0.0951    0.0001    0.0028    0.0022   -0.0037   -0.0023
          32   -0.0502    0.0275    0.0049    0.0000   -0.0121   -0.1099    0.0381    0.0176
          33    0.0781    0.0690   -0.0871    0.0001    0.0011   -0.0177    0.0015   -0.0052
          34    0.1088    0.0785   -0.0953   -0.0000    0.0028    0.0022   -0.0036   -0.0023
          35   -0.0502    0.0275    0.0049    0.0001   -0.0121   -0.1099    0.0381    0.0176
          36   -0.0782   -0.0691    0.0872    0.0000   -0.0011    0.0178   -0.0015    0.0052
          37   -0.0080    0.1164    0.0544    0.0000    0.1519   -0.0048   -0.0528    0.0259
          38    0.0199   -0.0511   -0.0072    0.2564    0.2112   -0.0225    0.0668   -0.0519
          39    0.0040    0.0711    0.0415    0.0536    0.1626   -0.0091   -0.0304    0.0210
          40    0.0359    0.1234    0.0587   -0.0002   -0.2054    0.0323   -0.0354    0.0481
          41   -0.0134   -0.0212   -0.0118    0.0021    0.0244   -0.0034   -0.0137    0.0162
          42    0.0001   -0.0009   -0.0004    0.4335   -0.0027    0.0001   -0.0001   -0.0001
          43   -0.0083    0.1160    0.0541    0.0043    0.1509   -0.0047   -0.0529    0.0259
          44    0.0199   -0.0511   -0.0071   -0.2520    0.2134   -0.0226    0.0676   -0.0524
          45   -0.0040   -0.0715   -0.0418    0.0520   -0.1663    0.0094    0.0301   -0.0207
          46    0.0368   -0.0286    0.0661   -0.0001   -0.0059   -0.0050   -0.0514   -0.0300
          47   -0.0037   -0.0056    0.0493   -0.0000   -0.0094   -0.0408   -0.0165   -0.0095
          48    0.0000    0.0000   -0.0000    0.0001   -0.0000    0.0000    0.0000   -0.0000
          49    0.0946   -0.0481    0.0597   -0.0001    0.0031    0.0215    0.0240    0.0616
          50   -0.0504    0.0175   -0.0132    0.0000   -0.0048   -0.0539    0.0084   -0.0223
          51    0.0000   -0.0000    0.0000    0.0001    0.0000    0.0000    0.0000    0.0000
          52   -0.0132   -0.0339   -0.0553   -0.0000    0.0152   -0.0432   -0.0310    0.0278
          53   -0.0379   -0.0035   -0.0107    0.0000    0.0070    0.0216    0.0117    0.0287
          54    0.0000    0.0000   -0.0000   -0.0003    0.0000   -0.0000   -0.0000   -0.0000
          55    0.0609   -0.0215    0.0568   -0.0001   -0.0008   -0.0604    0.0061    0.0401
          56    0.0016   -0.0074    0.0432   -0.0000   -0.0038   -0.0558   -0.0112   -0.0390
          57    0.0000   -0.0000   -0.0000    0.0002    0.0000    0.0000    0.0000    0.0000
          58    0.0183   -0.0385   -0.0254   -0.0001    0.0122   -0.0398   -0.0608    0.0273
          59   -0.0563    0.0280    0.0179    0.0001   -0.0045    0.0426    0.0139   -0.0156
          60    0.0000   -0.0000   -0.0000    0.0003   -0.0000   -0.0000   -0.0000    0.0000


   Root No.      41        42        43        44        45        46        47        48

                41 A      42 A      43 A      44 A      45 A      46 A      47 A      48 A   

                1713.1    1823.5    1876.9    1923.4    2925.0    3003.5    3048.1    3063.1
  
           1    0.0038   -0.0209   -0.0111    0.0117    0.0000   -0.0388   -0.0014    0.0021
           2   -0.0002    0.0215   -0.0005    0.0156   -0.0000   -0.0050   -0.0004    0.0002
           3    0.0000   -0.0000   -0.0000   -0.0000   -0.0609   -0.0000   -0.0000    0.0000
           4    0.0090   -0.0224    0.0294    0.0183    0.0000   -0.0000    0.0014   -0.0011
           5   -0.0099    0.0099   -0.0133   -0.0090    0.0000    0.0000    0.0028   -0.0019
           6    0.0000   -0.0000    0.0000    0.0000   -0.0000    0.0000   -0.0000    0.0001
           7   -0.0220    0.0976   -0.1408   -0.0859   -0.0000    0.0001   -0.0000    0.0000
           8    0.0053    0.0125   -0.0059   -0.0018   -0.0000    0.0001    0.0001   -0.0002
           9   -0.0000   -0.0000    0.0000    0.0000   -0.0000    0.0000   -0.0000    0.0000
          10    0.0372   -0.0692    0.1434    0.0488    0.0000   -0.0003   -0.0001   -0.0001
          11    0.0426   -0.0229    0.0902    0.0605    0.0000   -0.0001   -0.0003    0.0003
          12   -0.0000    0.0000   -0.0000   -0.0000    0.0001   -0.0000    0.0000    0.0000
          13   -0.0289    0.0253   -0.0669    0.2359   -0.0000    0.0006   -0.0002   -0.0047
          14   -0.0029    0.0063   -0.0173    0.0298   -0.0000    0.0003   -0.0003   -0.0007
          15   -0.0000   -0.0000    0.0000    0.0000   -0.0003    0.0000   -0.0000   -0.0000
          16    0.0101   -0.0185    0.0543   -0.1864   -0.0000    0.0016    0.0012    0.0346
          17   -0.0037   -0.0109    0.0169   -0.0435    0.0000   -0.0033   -0.0012   -0.0391
          18    0.0000    0.0000   -0.0000   -0.0000   -0.0001   -0.0000    0.0000    0.0000
          19   -0.0124    0.1806    0.0739    0.0023    0.0000    0.0012   -0.0133   -0.0053
          20    0.0023   -0.0085   -0.0023   -0.0022   -0.0000    0.0040   -0.0297   -0.0080
          21   -0.0000    0.0000    0.0000    0.0000   -0.0001   -0.0000    0.0000    0.0000
          22   -0.1996   -0.0228    0.0387   -0.0147   -0.0000    0.0000   -0.0000   -0.0000
          23    0.0651    0.0087   -0.0276   -0.0025    0.0000   -0.0001    0.0000    0.0001
          24   -0.0000   -0.0000    0.0000    0.0000    0.0000    0.0000   -0.0000    0.0000
          25   -0.0019   -0.1576   -0.0976   -0.0142   -0.0000    0.0003   -0.0218    0.0079
          26   -0.0168   -0.0290   -0.0563   -0.0231    0.0000    0.0002    0.0285   -0.0084
          27    0.0000   -0.0000    0.0000    0.0000   -0.0003    0.0000   -0.0000    0.0000
          28    0.2120    0.0130   -0.0222   -0.0158    0.0000   -0.0001    0.0001    0.0004
          29   -0.0533   -0.0041    0.0070   -0.0319    0.0000   -0.0001    0.0000   -0.0000
          30    0.0000    0.0000   -0.0000    0.0000   -0.0001    0.0000    0.0000    0.0000
          31   -0.0003   -0.0110   -0.0079    0.0068   -0.2848    0.2331    0.0105   -0.0118
          32   -0.0009    0.0173    0.0037    0.0168   -0.0365    0.0297   -0.0008   -0.0047
          33   -0.0039    0.0033   -0.0024    0.0027    0.3686   -0.3615   -0.0152    0.0182
          34   -0.0003   -0.0109   -0.0079    0.0068    0.2846    0.2331    0.0105   -0.0118
          35   -0.0009    0.0173    0.0037    0.0168    0.0366    0.0299   -0.0008   -0.0047
          36    0.0039   -0.0033    0.0024   -0.0027    0.3685    0.3617    0.0152   -0.0182
          37    0.0011   -0.0087    0.0132    0.0067    0.0000   -0.0000   -0.0055    0.0046
          38    0.0018    0.0011   -0.0026   -0.0009   -0.0000   -0.0000   -0.0013    0.0013
          39   -0.0008    0.0036   -0.0031   -0.0028   -0.0000    0.0000    0.0097   -0.0080
          40    0.0009    0.0239   -0.0258   -0.0130   -0.0000   -0.0000   -0.0053    0.0036
          41   -0.0095    0.0013   -0.0027   -0.0030   -0.0000   -0.0002   -0.0310    0.0207
          42    0.0000   -0.0000   -0.0000    0.0000   -0.0000    0.0000    0.0002   -0.0001
          43    0.0011   -0.0089    0.0134    0.0068   -0.0000   -0.0000   -0.0054    0.0042
          44    0.0017    0.0011   -0.0026   -0.0009    0.0000   -0.0000   -0.0013    0.0011
          45    0.0008   -0.0035    0.0030    0.0027   -0.0000   -0.0000   -0.0095    0.0073
          46    0.0093   -0.0067   -0.0017   -0.0401    0.0000   -0.0263   -0.0132   -0.3605
          47   -0.0092    0.0025   -0.0374    0.1189   -0.0000    0.0296    0.0174    0.4730
          48    0.0000    0.0000    0.0000   -0.0000   -0.0015   -0.0000   -0.0000   -0.0001
          49    0.0078   -0.0037    0.0046    0.0130    0.0000   -0.0213    0.1580    0.0453
          50   -0.0094    0.1061    0.0396   -0.0075    0.0000   -0.0392    0.3561    0.0989
          51    0.0000   -0.0000   -0.0000    0.0000   -0.0015    0.0000   -0.0001   -0.0000
          52   -0.0142    0.0012   -0.0085    0.0321    0.0000   -0.0000   -0.0001   -0.0004
          53   -0.1707   -0.0111    0.0164   -0.0270   -0.0000    0.0002    0.0002    0.0025
          54    0.0000    0.0000   -0.0000    0.0000    0.0000   -0.0000   -0.0000   -0.0000
          55    0.0142   -0.0422    0.0173    0.0072   -0.0000    0.0026    0.2571   -0.0781
          56   -0.0070    0.0952    0.0433   -0.0095   -0.0000   -0.0025   -0.3343    0.0997
          57    0.0000   -0.0000   -0.0000    0.0000   -0.0008    0.0000    0.0001   -0.0000
          58   -0.1064    0.0047   -0.0107   -0.0266   -0.0000    0.0003    0.0002    0.0006
          59   -0.1339   -0.0342    0.0475   -0.0069   -0.0000    0.0002    0.0002    0.0004
          60    0.0000    0.0000   -0.0000    0.0000    0.0000   -0.0000   -0.0000    0.0000


   Root No.      49        50        51        52        53        54

                49 A      50 A      51 A      52 A      53 A      54 A   

                3065.8    3067.0    3074.0    3133.7    3152.0    3163.6
  
           1    0.0000   -0.0025    0.0004    0.0000    0.0000    0.0000
           2    0.0000   -0.0003    0.0000   -0.0000    0.0000   -0.0000
           3    0.0000   -0.0000    0.0000    0.0000    0.0000   -0.0000
           4    0.0002   -0.0040   -0.0222   -0.0002   -0.0002    0.0206
           5    0.0003   -0.0071   -0.0369   -0.0003   -0.0001   -0.0133
           6   -0.0571   -0.0005   -0.0001    0.0000    0.0000    0.0000
           7    0.0000   -0.0003   -0.0004   -0.0003   -0.0009    0.0003
           8    0.0000   -0.0002    0.0000    0.0002    0.0014   -0.0001
           9   -0.0001   -0.0000   -0.0000   -0.0000   -0.0000    0.0000
          10   -0.0000    0.0010    0.0002    0.0006    0.0003   -0.0003
          11   -0.0000    0.0006   -0.0003    0.0004    0.0015   -0.0001
          12   -0.0002   -0.0000   -0.0000   -0.0000   -0.0000    0.0000
          13   -0.0000    0.0010   -0.0001    0.0006    0.0020    0.0000
          14   -0.0000    0.0005   -0.0001   -0.0000    0.0007   -0.0000
          15   -0.0000   -0.0000    0.0000   -0.0000   -0.0000    0.0000
          16    0.0002   -0.0072    0.0005   -0.0001   -0.0006   -0.0000
          17   -0.0002    0.0082   -0.0006    0.0000   -0.0000    0.0000
          18    0.0000   -0.0000    0.0000   -0.0000   -0.0000   -0.0000
          19    0.0002   -0.0152    0.0027   -0.0000   -0.0000    0.0001
          20    0.0004   -0.0250    0.0041   -0.0000    0.0001    0.0000
          21   -0.0000    0.0000   -0.0000   -0.0000   -0.0000   -0.0000
          22   -0.0000   -0.0000   -0.0001   -0.0412   -0.0293   -0.0005
          23   -0.0000    0.0000    0.0003   -0.0274   -0.0155   -0.0001
          24   -0.0000   -0.0000    0.0000    0.0000    0.0000   -0.0000
          25   -0.0003    0.0184   -0.0053   -0.0000   -0.0001   -0.0004
          26    0.0003   -0.0190    0.0059   -0.0001   -0.0001    0.0006
          27    0.0000    0.0000   -0.0000    0.0000    0.0000   -0.0000
          28    0.0000   -0.0000    0.0000   -0.0083    0.0210    0.0002
          29    0.0000   -0.0001    0.0000    0.0272   -0.0475   -0.0003
          30   -0.0000   -0.0000   -0.0000   -0.0000    0.0000    0.0000
          31   -0.0002    0.0135   -0.0019   -0.0001   -0.0002   -0.0000
          32   -0.0000    0.0008   -0.0001    0.0000    0.0000   -0.0000
          33    0.0003   -0.0200    0.0028    0.0001    0.0002    0.0000
          34   -0.0002    0.0135   -0.0019   -0.0001   -0.0002   -0.0000
          35   -0.0000    0.0008   -0.0001    0.0000    0.0000   -0.0000
          36   -0.0004    0.0200   -0.0029   -0.0001   -0.0002   -0.0000
          37   -0.2511    0.0150    0.0975    0.0014    0.0022   -0.1583
          38   -0.1098    0.0039    0.0294    0.0004    0.0009   -0.0787
          39    0.3603   -0.0269   -0.1700   -0.0023   -0.0036    0.2606
          40   -0.0010    0.0130    0.0672    0.0001   -0.0006    0.0730
          41   -0.0055    0.0737    0.3769   -0.0001   -0.0031    0.3184
          42   -0.0287   -0.0006   -0.0021    0.0000    0.0000   -0.0017
          43    0.2502    0.0198    0.1019    0.0013    0.0022   -0.1600
          44    0.1121    0.0062    0.0325    0.0004    0.0009   -0.0812
          45    0.3526    0.0333    0.1738    0.0022    0.0036   -0.2592
          46   -0.0016    0.0736   -0.0051   -0.0003    0.0010    0.0002
          47    0.0021   -0.0965    0.0066    0.0007   -0.0020   -0.0003
          48    0.0001    0.0000   -0.0000   -0.0000    0.0000   -0.0000
          49   -0.0022    0.1334   -0.0219    0.0001   -0.0003   -0.0002
          50   -0.0047    0.2917   -0.0473    0.0004   -0.0006   -0.0004
          51   -0.0000   -0.0001    0.0000   -0.0000   -0.0000    0.0000
          52    0.0000   -0.0001   -0.0000    0.1155   -0.1894   -0.0011
          53   -0.0000    0.0001    0.0001   -0.3255    0.5241    0.0030
          54   -0.0000   -0.0000   -0.0000    0.0001   -0.0001   -0.0000
          55    0.0024   -0.1752    0.0541   -0.0002    0.0002    0.0048
          56   -0.0031    0.2230   -0.0687    0.0003   -0.0003   -0.0062
          57   -0.0001   -0.0001    0.0000   -0.0000   -0.0000    0.0000
          58    0.0001   -0.0006   -0.0017    0.4663    0.2770    0.0040
          59    0.0000   -0.0003   -0.0009    0.3229    0.1896    0.0025
          60   -0.0002   -0.0000   -0.0000   -0.0001   -0.0000    0.0000


           MASS-WEIGHTED COORDINATE ANALYSIS (NORMAL COORDINATES)


   Root No.       1         2         3         4         5         6         7         8

                 1 A       2 A       3 A       4 A       5 A       6 A       7 A       8 A   

                  76.3     104.2     195.0     222.8     253.0     314.2     417.5     462.2
  
           1    0.0002    0.0000   -0.0001   -0.0000   -0.1669   -0.0001   -0.0001    0.1398
           2   -0.0002   -0.0001    0.0000    0.0000    0.1514    0.0000   -0.0000   -0.1723
           3   -0.0978   -0.4144    0.2103    0.1411   -0.0000    0.0760    0.0361    0.0001
           4   -0.0004    0.0001   -0.0000   -0.0001    0.4150    0.0001    0.0000   -0.0465
           5   -0.0006    0.0001    0.0000   -0.0000    0.4705   -0.0000   -0.0001    0.2058
           6   -0.0750   -0.3986   -0.2158   -0.1816   -0.0001    0.1445   -0.0017   -0.0000
           7    0.0000   -0.0000    0.0000   -0.0000    0.0389   -0.0000    0.0000   -0.2511
           8    0.0002   -0.0001    0.0000    0.0001   -0.1360   -0.0001   -0.0001   -0.1958
           9    0.0216   -0.0327    0.1006    0.2910    0.0001   -0.3466   -0.2454    0.0000
          10   -0.0000    0.0000    0.0000   -0.0000    0.0474   -0.0000   -0.0000   -0.3318
          11    0.0002   -0.0000   -0.0001    0.0001   -0.2093    0.0000   -0.0000    0.1249
          12    0.0319    0.2051   -0.1571    0.5193    0.0001    0.0011   -0.1863   -0.0001
          13   -0.0001    0.0000    0.0000    0.0000    0.0538   -0.0000   -0.0000   -0.0842
          14    0.0002   -0.0000   -0.0001    0.0001   -0.1779    0.0001   -0.0000    0.3602
          15    0.0379    0.1670   -0.3137    0.1778    0.0000    0.2051   -0.3012   -0.0001
          16   -0.0000    0.0000    0.0000    0.0000    0.0370    0.0000   -0.0000   -0.0688
          17   -0.0001   -0.0000   -0.0001   -0.0001    0.0355   -0.0001    0.0000    0.0112
          18   -0.0269   -0.1591   -0.4312   -0.1908    0.0000   -0.3896    0.1117   -0.0000
          19    0.0003   -0.0001   -0.0000    0.0000   -0.2516   -0.0000    0.0000    0.0133
          20   -0.0001    0.0000    0.0001   -0.0001    0.0770    0.0000   -0.0001   -0.2688
          21   -0.0239    0.1638    0.2548   -0.3836   -0.0001    0.0104   -0.3566    0.0001
          22   -0.0000    0.0000    0.0000    0.0000   -0.0111   -0.0000   -0.0000    0.2033
          23    0.0002   -0.0000    0.0001   -0.0000   -0.1310   -0.0001    0.0000   -0.2430
          24    0.0593    0.0237    0.4803   -0.0710    0.0001   -0.2918    0.1125    0.0000
          25    0.0003   -0.0001   -0.0000    0.0000   -0.2168   -0.0000   -0.0000   -0.0437
          26    0.0002    0.0001   -0.0000    0.0000   -0.1136    0.0000    0.0002    0.0079
          27    0.0370    0.4167   -0.0545    0.0818   -0.0000    0.0047    0.5155   -0.0000
[...]
 FORCE CONSTANT      0.4867

 VIBRATION         37   37A           ATOM PAIR      ENERGY CONTRIBUTION    RADIAL
 FREQUENCY          1391.55         C  2 -- H 15         +34.7% ( 53.3%)      0.8%
 TRANSITION DIPOLE   0.1220         C  2 -- H 13         +34.1% ( 52.8%)      0.9%
 TRAVEL (Ang.)       0.3707         C  2 -- H 14         +15.6% ( 35.8%)     25.0%
 REDUCED MASS        0.3527         C  2 -- C  3          +4.7% ( 19.7%)      0.9%
 EFFECTIVE MASS      1.8242
 FORCE CONSTANT      0.4024

 VIBRATION         38   38A           ATOM PAIR      ENERGY CONTRIBUTION    RADIAL
 FREQUENCY          1420.83         C  1 -- C  6         +17.9% ( 69.5%)     90.6%
 TRANSITION DIPOLE   0.3017         C  1 -- C  7         +15.4% ( 64.5%)     61.6%
 TRAVEL (Ang.)       0.1314         C  1 -- H 12         +12.6% ( 58.4%)      0.2%
 REDUCED MASS        2.7488         C  1 -- H 11         +12.6% ( 58.4%)      0.2%
 EFFECTIVE MASS     10.5489
 FORCE CONSTANT      3.2695

 VIBRATION         39   39A           ATOM PAIR      ENERGY CONTRIBUTION    RADIAL
 FREQUENCY          1469.55         C  3 -- C  8         +12.3% ( 59.6%)     99.9%
 TRANSITION DIPOLE   1.0954         C  2 -- C  3         +10.3% ( 54.5%)     62.0%
 TRAVEL (Ang.)       0.1655         C  3 -- C  4          +9.4% ( 52.2%)     78.5%
 REDUCED MASS        1.6749         C  3 -- C  5          +9.2% ( 51.4%)     20.9%
 EFFECTIVE MASS     11.2609
 FORCE CONSTANT      2.1311

 VIBRATION         40   40A           ATOM PAIR      ENERGY CONTRIBUTION    RADIAL
 FREQUENCY          1558.56         C  3 -- C  4         +15.5% ( 67.0%)      0.2%
 TRANSITION DIPOLE   0.3756         C  4 -- C  9         +14.9% ( 65.8%)     82.8%
 TRAVEL (Ang.)       0.1312         C  4 -- C  5         +12.1% ( 59.2%)     74.1%
 REDUCED MASS        2.5148         C  2 -- C  3         +11.9% ( 58.8%)     96.2%
 EFFECTIVE MASS     11.6455
 FORCE CONSTANT      3.5992

 VIBRATION         41   41A           ATOM PAIR      ENERGY CONTRIBUTION    RADIAL
 FREQUENCY          1713.13         C  8 -- C 10         +34.1% ( 99.3%)     99.9%
 TRANSITION DIPOLE   1.1233         C  5 -- C 10         +11.2% ( 56.8%)     17.0%
 TRAVEL (Ang.)       0.0898         C  4 -- C  8         +10.9% ( 56.1%)     21.4%
 REDUCED MASS        4.8792         C  5 -- C  8         +10.0% ( 53.8%)     56.8%
 EFFECTIVE MASS     11.9936         C 10 -- H 18         +10.0% ( 53.8%)     12.7%
 FORCE CONSTANT      8.4369

 VIBRATION         42   42A           ATOM PAIR      ENERGY CONTRIBUTION    RADIAL
 FREQUENCY          1823.52         C  7 -- C  9         +32.7% ( 87.4%)     99.8%
 TRANSITION DIPOLE   0.0451         C  1 -- C  7         +12.0% ( 53.0%)     55.5%
 TRAVEL (Ang.)       0.1017         C  7 -- H 17         +11.0% ( 50.6%)      4.6%
 REDUCED MASS        3.5746         C  4 -- C  9          +9.3% ( 46.6%)     21.4%
 EFFECTIVE MASS     11.9024
 FORCE CONSTANT      7.0033

 VIBRATION         43   43A           ATOM PAIR      ENERGY CONTRIBUTION    RADIAL
 FREQUENCY          1876.90         C  3 -- C  4         +21.0% ( 75.7%)    100.0%
 TRANSITION DIPOLE   0.9475         C  4 -- C  9         +14.5% ( 63.0%)     67.0%
 TRAVEL (Ang.)       0.1142         C  4 -- C  5         +10.4% ( 53.3%)      3.5%
 REDUCED MASS        2.7562         C  4 -- C  8          +9.2% ( 50.2%)     97.7%
 EFFECTIVE MASS     11.9185
 FORCE CONSTANT      5.7206

 VIBRATION         44   44A           ATOM PAIR      ENERGY CONTRIBUTION    RADIAL
 FREQUENCY          1923.42         C  5 -- C  6         +28.0% ( 91.0%)     99.5%
 TRANSITION DIPOLE   2.2998         C  3 -- C  5         +13.3% ( 62.7%)     84.0%
 TRAVEL (Ang.)       0.0883         C  4 -- C  5         +12.5% ( 60.7%)     53.9%
 REDUCED MASS        4.4938         C  5 -- C 10         +12.1% ( 59.8%)     58.6%
 EFFECTIVE MASS     11.9403         C  5 -- C  8         +11.5% ( 58.4%)     95.6%
 FORCE CONSTANT      9.7951

 VIBRATION         45   45A           ATOM PAIR      ENERGY CONTRIBUTION    RADIAL
 FREQUENCY          2924.96         C  1 -- H 11         +49.0% ( 72.6%)     96.6%
 TRANSITION DIPOLE   0.1143         C  1 -- H 12         +48.9% ( 72.5%)     96.6%
 TRAVEL (Ang.)       0.2111         C  1 -- C  7          +1.1% ( 10.7%)      0.0%
 REDUCED MASS        0.5171         C  1 -- C  6          +1.1% ( 10.7%)      0.0%
 EFFECTIVE MASS      1.5322
 FORCE CONSTANT      2.6065

 VIBRATION         46   46A           ATOM PAIR      ENERGY CONTRIBUTION    RADIAL
 FREQUENCY          3003.51         C  1 -- H 12         +48.8% ( 68.9%)     97.8%
 TRANSITION DIPOLE   0.2385         C  1 -- H 11         +48.8% ( 68.9%)     97.7%
 TRAVEL (Ang.)       0.2175         C  1 -- C  7          +0.7% (  8.0%)     20.6%
 REDUCED MASS        0.4746         C  1 -- C  6          +0.7% (  8.0%)     20.8%
 EFFECTIVE MASS      1.2802
 FORCE CONSTANT      2.5224

 VIBRATION         47   47A           ATOM PAIR      ENERGY CONTRIBUTION    RADIAL
 FREQUENCY          3048.08         C  9 -- H 19         +52.3% ( 73.4%)    100.0%
 TRANSITION DIPOLE   0.2929         C  7 -- H 17         +44.5% ( 67.8%)    100.0%
 TRAVEL (Ang.)       0.2190         C  7 -- C  9          +1.1% ( 10.8%)      0.2%
 REDUCED MASS        0.4613         C  4 -- C  9          +0.7% (  8.8%)     24.1%
 EFFECTIVE MASS      1.4651
 FORCE CONSTANT      2.5252

 VIBRATION         48   48A           ATOM PAIR      ENERGY CONTRIBUTION    RADIAL
 FREQUENCY          3063.05         C  6 -- H 16         +89.4% ( 96.0%)    100.0%
 TRANSITION DIPOLE   0.3751         C  9 -- H 19          +4.1% ( 20.5%)     99.9%
 TRAVEL (Ang.)       0.1665         C  7 -- H 17          +3.0% ( 17.5%)     99.9%
 REDUCED MASS        0.7941         C  5 -- C  6          +1.5% ( 12.3%)     41.4%
 EFFECTIVE MASS      1.5272
 FORCE CONSTANT      4.3894

 VIBRATION         49   49A           ATOM PAIR      ENERGY CONTRIBUTION    RADIAL
 FREQUENCY          3065.85         C  2 -- H 13         +49.7% ( 72.7%)     97.1%
 TRANSITION DIPOLE   0.0277         C  2 -- H 15         +48.4% ( 71.8%)     96.9%
 TRAVEL (Ang.)       0.2077         C  2 -- C  3          +1.0% ( 10.2%)      0.0%
 REDUCED MASS        0.5096         C  2 -- H 14          +0.9% (  9.9%)      0.2%
 EFFECTIVE MASS      1.5030
 FORCE CONSTANT      2.8223

 VIBRATION         50   50A           ATOM PAIR      ENERGY CONTRIBUTION    RADIAL
 FREQUENCY          3066.96         C  7 -- H 17         +47.7% ( 70.2%)     99.9%
 TRANSITION DIPOLE   0.3107         C  9 -- H 19         +37.4% ( 62.1%)     99.9%
 TRAVEL (Ang.)       0.2419         C  6 -- H 16          +6.8% ( 26.6%)    100.0%
 REDUCED MASS        0.3756         C  2 -- H 14          +2.7% ( 16.8%)     99.0%
 EFFECTIVE MASS      1.5845
 FORCE CONSTANT      2.0817

 VIBRATION         51   51A           ATOM PAIR      ENERGY CONTRIBUTION    RADIAL
 FREQUENCY          3074.01         C  2 -- H 14         +60.5% ( 80.2%)     98.8%
 TRANSITION DIPOLE   0.0600         C  2 -- H 15         +17.6% ( 43.2%)     85.5%
 TRAVEL (Ang.)       0.2200         C  2 -- H 13         +16.6% ( 42.0%)     84.6%
 REDUCED MASS        0.4532         C  9 -- H 19          +3.0% ( 17.8%)    100.0%
 EFFECTIVE MASS      1.5164
 FORCE CONSTANT      2.5234

 VIBRATION         52   52A           ATOM PAIR      ENERGY CONTRIBUTION    RADIAL
 FREQUENCY          3133.72         C  8 -- H 20         +69.3% ( 85.6%)    100.0%
 TRANSITION DIPOLE   0.3677         C 10 -- H 18         +25.6% ( 52.0%)    100.0%
 TRAVEL (Ang.)       0.1952         C  8 -- C 10          +1.3% ( 11.6%)      5.0%
 REDUCED MASS        0.5646         C  4 -- C  8          +1.2% ( 11.1%)     84.3%
 EFFECTIVE MASS      1.4901
 FORCE CONSTANT      3.2670

 VIBRATION         53   53A           ATOM PAIR      ENERGY CONTRIBUTION    RADIAL
 FREQUENCY          3152.05         C 10 -- H 18         +69.4% ( 85.3%)    100.0%
 TRANSITION DIPOLE   0.4483         C  8 -- H 20         +25.3% ( 51.5%)     99.9%
 TRAVEL (Ang.)       0.1943         C  8 -- C 10          +2.3% ( 15.6%)     94.0%
 REDUCED MASS        0.5667         C  5 -- C 10          +1.3% ( 11.8%)     28.4%
 EFFECTIVE MASS      1.6372
 FORCE CONSTANT      3.3174

 VIBRATION         54   54A           ATOM PAIR      ENERGY CONTRIBUTION    RADIAL
 FREQUENCY          3163.56         C  2 -- H 14         +35.0% ( 57.0%)     97.3%
 TRANSITION DIPOLE   0.0881         C  2 -- H 15         +32.4% ( 54.8%)     97.0%
 TRAVEL (Ang.)       0.2552         C  2 -- H 13         +32.3% ( 54.7%)     97.0%
 REDUCED MASS        0.3272         C  2 -- C  3          +0.3% (  5.5%)     99.9%
 EFFECTIVE MASS      1.1392
 FORCE CONSTANT      1.9295

      SYMMETRY NUMBER FOR POINT-GROUP C1  =  1


          SYSTEM IS A GROUND STATE



 InChI=1S/C10H10/c1-8-6-7-9-4-2-3-5-10(8)9/h3-7H,2H2,1H3


          MOLECULE IS NOT LINEAR

          THERE ARE 54 GENUINE VIBRATIONS IN THIS SYSTEM
          THIS THERMODYNAMICS CALCULATION IS LIMITED TO
          MOLECULES WHICH HAVE NO INTERNAL ROTATIONS




                    CALCULATED THERMODYNAMIC PROPERTIES
                                          *
   TEMP. (K)   PARTITION FUNCTION   H.O.F.    ENTHALPY  HEAT CAPACITY ENTROPY
                                   KCAL/MOL   CAL/MOLE    CAL/K/MOL  CAL/K/MOL


 298.00  VIB.     0.7773D+02                  3558.1152    27.2629    20.5909
         ROT.     0.5318D+06                   888.2803     2.9808    29.1802
         INT.     0.4134D+08                  4446.3955    30.2437    49.7711
         TRA.     0.1436D+28                  1480.4672     4.9680    40.5022
         TOT.                       54.389    5926.8626    35.2117    90.2732

 200.00  VIB.     0.1189D+02                  1438.6939    16.2050    12.1132
         ROT.     0.2924D+06                   596.1613     2.9808    27.9915
         INT.     0.3477D+07                  2034.8551    19.1859    40.1047
         TRA.     0.7896D+27                   993.6021     4.9680    38.5210
         TOT.                       51.490    3028.4573    24.1539    78.6257

 210.00  VIB.     0.1427D+02                  1605.9866    17.2578    12.9292
         ROT.     0.3146D+06                   625.9693     2.9808    28.1370
         INT.     0.4488D+07                  2231.9559    20.2386    41.0661
         TRA.     0.8496D+27                  1043.2822     4.9680    38.7634
         TOT.                       51.737    3275.2382    25.2066    79.8296

 220.00  VIB.     0.1715D+02                  1783.9304    18.3349    13.7568
         ROT.     0.3373D+06                   655.7774     2.9808    28.2756
         INT.     0.5786D+07                  2439.7078    21.3157    42.0324
         TRA.     0.9110D+27                  1092.9623     4.9680    38.9945
         TOT.                       51.995    3532.6702    26.2837    81.0269

 230.00  VIB.     0.2067D+02                  1972.7579    19.4340    14.5960
         ROT.     0.3606D+06                   685.5855     2.9808    28.4081
         INT.     0.7454D+07                  2658.3434    22.4148    43.0041
         TRA.     0.9738D+27                  1142.6424     4.9680    39.2154
         TOT.                       52.263    3800.9858    27.3829    82.2195

 240.00  VIB.     0.2497D+02                  2172.6754    20.5524    15.4466
         ROT.     0.3844D+06                   715.3935     2.9808    28.5350
         INT.     0.9596D+07                  2888.0689    23.5332    43.9816
         TRA.     0.1038D+28                  1192.3226     4.9680    39.4268
         TOT.                       52.542    4080.3915    28.5012    83.4084

 250.00  VIB.     0.3022D+02                  2383.8605    21.6871    16.3086
         ROT.     0.4086D+06                   745.2016     2.9808    28.6567
         INT.     0.1235D+08                  3129.0621    24.6679    44.9653
         TRA.     0.1103D+28                  1242.0027     4.9680    39.6296
         TOT.                       52.833    4371.0647    29.6359    84.5949

 260.00  VIB.     0.3665D+02                  2606.4603    22.8349    17.1815
         ROT.     0.4334D+06                   775.0097     2.9808    28.7736
         INT.     0.1588D+08                  3381.4700    25.8157    45.9551
         TRA.     0.1170D+28                  1291.6828     4.9680    39.8245
         TOT.                       53.135    4673.1528    30.7837    85.7795

 270.00  VIB.     0.4454D+02                  2840.5912    23.9927    18.0650
         ROT.     0.4587D+06                   804.8177     2.9808    28.8861
         INT.     0.2043D+08                  3645.4089    26.9735    46.9510
         TRA.     0.1239D+28                  1341.3629     4.9680    40.0120
         TOT.                       53.449    4986.7718    31.9415    86.9630

 280.00  VIB.     0.5424D+02                  3086.3384    25.1576    18.9586
         ROT.     0.4844D+06                   834.6258     2.9808    28.9945
         INT.     0.2627D+08                  3920.9642    28.1384    47.9530
         TRA.     0.1308D+28                  1391.0430     4.9680    40.1926
         TOT.                       53.774    5312.0071    33.1064    88.1457

 290.00  VIB.     0.6619D+02                  3343.7574    26.3266    19.8618
         ROT.     0.5105D+06                   864.4339     2.9808    29.0991
         INT.     0.3380D+08                  4208.1912    29.3074    48.9608
         TRA.     0.1379D+28                  1440.7231     4.9680    40.3670
         TOT.                       54.111    5648.9143    34.2754    89.3278

 300.00  VIB.     0.8094D+02                  3612.8749    27.4969    20.7740
         ROT.     0.5372D+06                   894.2419     2.9808    29.2001
         INT.     0.4348D+08                  4507.1168    30.4777    49.9741
         TRA.     0.1451D+28                  1490.4032     4.9680    40.5354
         TOT.                       54.459    5997.5200    35.4457    90.5095

 310.00  VIB.     0.9915D+02                  3893.6906    28.6658    21.6947
         ROT.     0.5643D+06                   924.0500     2.9808    29.2979
         INT.     0.5594D+08                  4817.7406    31.6466    50.9926
         TRA.     0.1524D+28                  1540.0833     4.9680    40.6983
         TOT.                       54.820    6357.8239    36.6146    91.6909

 320.00  VIB.     0.1217D+03                  4186.1789    29.8310    22.6232
         ROT.     0.5918D+06                   953.8580     2.9808    29.3925
         INT.     0.7201D+08                  5140.0370    32.8118    52.0157
         TRA.     0.1598D+28                  1589.7634     4.9680    40.8560
         TOT.                       55.192    6729.8004    37.7798    92.8717

 330.00  VIB.     0.1496D+03                  4490.2913    30.9903    23.5589
         ROT.     0.6197D+06                   983.6661     2.9808    29.4842
         INT.     0.9272D+08                  5473.9574    33.9711    53.0432
         TRA.     0.1674D+28                  1639.4435     4.9680    41.0089
         TOT.                       55.575    7113.4009    38.9391    94.0521

 340.00  VIB.     0.1843D+03                  4805.9580    32.1416    24.5012
         ROT.     0.6481D+06                  1013.4742     2.9808    29.5732
         INT.     0.1194D+09                  5819.4321    35.1224    54.0744
         TRA.     0.1750D+28                  1689.1236     4.9680    41.1572
         TOT.                       55.970    7508.5557    40.0904    95.2316

 350.00  VIB.     0.2273D+03                  5133.0905    33.2832    25.4494
         ROT.     0.6769D+06                  1043.2822     2.9808    29.6596
         INT.     0.1539D+09                  6176.3727    36.2640    55.1090
         TRA.     0.1828D+28                  1738.8037     4.9680    41.3012
         TOT.                       56.377    7915.1764    41.2320    96.4102

 360.00  VIB.     0.2809D+03                  5471.5836    34.4135    26.4029
         ROT.     0.7061D+06                  1073.0903     2.9808    29.7436
         INT.     0.1984D+09                  6544.6739    37.3943    56.1465
         TRA.     0.1907D+28                  1788.4838     4.9680    41.4412
         TOT.                       56.795    8333.1578    42.3623    97.5877

 370.00  VIB.     0.3477D+03                  5821.3175    35.5311    27.3610
         ROT.     0.7358D+06                  1102.8984     2.9808    29.8253
         INT.     0.2558D+09                  6924.2159    38.5119    57.1863
         TRA.     0.1987D+28                  1838.1639     4.9680    41.5773
         TOT.                       57.224    8762.3798    43.4799    98.7636

 380.00  VIB.     0.4310D+03                  6182.1595    36.6349    28.3233
         ROT.     0.7658D+06                  1132.7064     2.9808    29.9048
         INT.     0.3300D+09                  7314.8660    39.6157    58.2280
         TRA.     0.2068D+28                  1887.8440     4.9680    41.7098
         TOT.                       57.665    9202.7100    44.5837    99.9378

 390.00  VIB.     0.5349D+03                  6553.9663    37.7239    29.2890
         ROT.     0.7962D+06                  1162.5145     2.9808    29.9822
         INT.     0.4259D+09                  7716.4808    40.7047    59.2712
         TRA.     0.2150D+28                  1937.5242     4.9680    41.8388
         TOT.                       58.116    9654.0050    45.6727   101.1100

 400.00  VIB.     0.6649D+03                  6936.5853    38.7972    30.2576
         ROT.     0.8270D+06                  1192.3226     2.9808    30.0577
         INT.     0.5499D+09                  8128.9079    41.7780    60.3153
         TRA.     0.2233D+28                  1987.2043     4.9680    41.9646
         TOT.                       58.578   10116.1122    46.7461   102.2799

   *: NOTE: HEATS OF FORMATION ARE RELATIVE TO THE
            ELEMENTS IN THEIR STANDARD STATE AT 298K
              (=  Standard Enthalpy of Formation).

            Hvib:  Zero-point energy is not included.
                   frequencies of less than zero cm-1 are not included.
            Hrot = (3/2)RT
            Htra = (3/2)RT + pV = (5/2)RT

            Heat capacity is Cp, not Cv

          For more information, see: HTTP://OpenMOPAC.net/Manual/thermochemistry.html


           FORCE CONSTANT IN CARTESIAN COORDINATES (Millidynes/A)

    ATOM   CHEMICAL       X               Y               Z
   NUMBER   SYMBOL  FORCE CONSTANT  FORCE CONSTANT  FORCE CONSTANT

      1       C        8.850179        9.331109        7.570089
      2       C        9.007424        8.751015        7.937264
      3       C       15.218396       10.038023        2.521573
      4       C       13.512937       13.046755        2.285751
      5       C       17.151106        9.328983        2.284233
      6       C       14.988898        9.552559        2.413359
      7       C       14.751139        9.658841        2.343670
      8       C       14.866914        9.716919        2.159450
      9       C       14.777083       10.735880        2.211172
     10       C       12.479798       12.302370        2.133583
     11       H        2.021606        0.674141        3.425165
     12       H        2.020886        0.674395        3.426914
     13       H        1.955406        0.896148        3.772657
     14       H        0.881382        5.179379        0.652354
     15       H        1.979866        0.912829        3.732660
     16       H        2.356801        3.530697        0.351132
     17       H        1.508925        4.399490        0.338531
     18       H        1.232120        4.889045        0.327995
     19       H        2.396429        3.480329        0.349118
     20       H        3.881729        2.214320        0.341366

 **********************
 *                    *
 * JOB ENDED NORMALLY *
 *                    *
 **********************



 TOTAL JOB TIME:             3.09 SECONDS

 == MOPAC DONE ==
