 *******************************************************************************
 **                                                                           **
 **                              MOPAC v23.1.2                                **
 **                                                                           **
 *******************************************************************************
 **          Digital Object Identifier (DOI): 10.5281/zenodo.6511958          **
 **    Visit the DOI location for information on how to cite this program.    **
 *******************************************************************************

                              PM3 CALCULATION RESULTS

 *******************************************************************************
 *  CALCULATION DONE: (MAX THREADS = 1)              Tue Jun  3 16:28:51 2025  *
 *  PM3        - The PM3 Hamiltonian to be used
 *  NONR       - DO NOT USE NEWTON-RAPHSON STEP IN EF
 *  PRECISE    - TIGHTER CRITERIA TO BE USED
 *  NOSYM      - POINT-GROUP SYMMETRY SET TO C1
 *  THREADS=1  - MULTI-THREADING NOT USED
 *  T=         - A TIME OF 172800.0 SECONDS REQUESTED
 *  DUMP=N     - RESTART FILE WRITTEN EVERY 7200.0 SECONDS REQUESTED
 *  GNORM      - EXIT WHEN GRADIENT NORM DROPS BELOW 0.000
 *******************************************************************************
pm3  precise nosym gnorm=0.0 nonr THREADS=1
 InChI=1S/C7H10/c1-6-3-4-7(2)5-6/h5H,1,3-4H2,2H3

   ATOM   CHEMICAL          X               Y               Z
  NUMBER   SYMBOL      (ANGSTROMS)     (ANGSTROMS)     (ANGSTROMS)

     1       C         -0.40120000  *   1.22430000  *   0.40590000  *
     2       C          1.10610000  *   1.10310000  *   0.13310000  *
     3       C         -2.39450000  *  -0.50300000  *   0.23890000  *
     4       C         -0.95000000  *  -0.13920000  *   0.11170000  *
     5       C          1.26480000  *  -0.31660000  *  -0.28900000  *
     6       C         -0.01620000  *  -0.99020000  *  -0.27430000  *
     7       C          2.41750000  *  -0.88560000  *  -0.63080000  *
     8       H          1.41910000  *   1.78860000  *  -0.68420000  *
     9       H          1.69470000  *   1.30230000  *   1.05480000  *
    10       H         -0.86640000  *   1.97680000  *  -0.26680000  *
    11       H         -0.59140000  *   1.49180000  *   1.46770000  *
    12       H         -2.51180000  *  -1.32130000  *   0.98010000  *
    13       H         -2.78520000  *  -0.83910000  *  -0.74450000  *
    14       H         -2.98390000  *   0.37470000  *   0.57780000  *
    15       H         -0.19040000  *  -2.02660000  *  -0.53650000  *
    16       H          3.33640000  *  -0.31350000  *  -0.61650000  *
    17       H          2.45220000  *  -1.92640000  *  -0.92730000  *



          CARTESIAN COORDINATES 

    NO.       ATOM           X           Y           Z

     1         C         -0.4012      1.2243      0.4059
     2         C          1.1061      1.1031      0.1331
     3         C         -2.3945     -0.5030      0.2389
     4         C         -0.9500     -0.1392      0.1117
     5         C          1.2648     -0.3166     -0.2890
     6         C         -0.0162     -0.9902     -0.2743
     7         C          2.4175     -0.8856     -0.6308
     8         H          1.4191      1.7886     -0.6842
     9         H          1.6947      1.3023      1.0548
    10         H         -0.8664      1.9768     -0.2668
    11         H         -0.5914      1.4918      1.4677
    12         H         -2.5118     -1.3213      0.9801
    13         H         -2.7852     -0.8391     -0.7445
    14         H         -2.9839      0.3747      0.5778
    15         H         -0.1904     -2.0266     -0.5365
    16         H          3.3364     -0.3135     -0.6165
    17         H          2.4522     -1.9264     -0.9273

  H: (PM3): J. J. P. STEWART, J. COMP. CHEM. 10, 209 (1989).
  C: (PM3): J. J. P. STEWART, J. COMP. CHEM. 10, 209 (1989).

           Empirical Formula: C7 H10  =    17 atoms



      MOLECULAR POINT GROUP   :   C1  


      RHF CALCULATION, NO. OF DOUBLY OCCUPIED LEVELS = 19


          Geometry optimization using EF

  GNORM HAS BEEN SET TOO LOW, RESET TO 0.01

  SPECIFY LET AS KEYWORD TO ALLOW GNORM LESS THAN 0.01

          DIAGONAL MATRIX USED AS START HESSIAN

 CYCLE:     1 TIME:   0.004 TIME LEFT:  2.00D  GRAD.:    82.846 HEAT:  17.18672
 CYCLE:     2 TIME:   0.008 TIME LEFT:  2.00D  GRAD.:    63.069 HEAT:  16.17816
 CYCLE:     3 TIME:   0.008 TIME LEFT:  2.00D  GRAD.:    30.382 HEAT:  15.36549
 CYCLE:     4 TIME:   0.004 TIME LEFT:  2.00D  GRAD.:    49.138 HEAT:  15.33076
 CYCLE:     5 TIME:   0.004 TIME LEFT:  2.00D  GRAD.:    50.101 HEAT:  15.19469
 CYCLE:     6 TIME:   0.008 TIME LEFT:  2.00D  GRAD.:    25.768 HEAT:  14.67019
 CYCLE:     7 TIME:   0.008 TIME LEFT:  2.00D  GRAD.:    15.681 HEAT:  14.49493
 CYCLE:     8 TIME:   0.008 TIME LEFT:  2.00D  GRAD.:    15.975 HEAT:  14.43949
 CYCLE:     9 TIME:   0.008 TIME LEFT:  2.00D  GRAD.:    10.146 HEAT:  14.35250
 CYCLE:    10 TIME:   0.004 TIME LEFT:  2.00D  GRAD.:     7.605 HEAT:  14.29012
 CYCLE:    11 TIME:   0.004 TIME LEFT:  2.00D  GRAD.:     9.207 HEAT:  14.21238
 CYCLE:    12 TIME:   0.008 TIME LEFT:  2.00D  GRAD.:    10.136 HEAT:  14.18573
 CYCLE:    13 TIME:   0.008 TIME LEFT:  2.00D  GRAD.:     8.889 HEAT:  14.16884
 CYCLE:    14 TIME:   0.004 TIME LEFT:  2.00D  GRAD.:     8.106 HEAT:  14.15373
 CYCLE:    15 TIME:   0.004 TIME LEFT:  2.00D  GRAD.:     5.223 HEAT:  14.13381
 CYCLE:    16 TIME:   0.008 TIME LEFT:  2.00D  GRAD.:     4.705 HEAT:  14.11974
 CYCLE:    17 TIME:   0.004 TIME LEFT:  2.00D  GRAD.:     3.452 HEAT:  14.10108
 CYCLE:    18 TIME:   0.004 TIME LEFT:  2.00D  GRAD.:     3.162 HEAT:  14.08121
 CYCLE:    19 TIME:   0.004 TIME LEFT:  2.00D  GRAD.:     2.944 HEAT:  14.06707
 CYCLE:    20 TIME:   0.008 TIME LEFT:  2.00D  GRAD.:     4.754 HEAT:  14.05647
 CYCLE:    21 TIME:   0.004 TIME LEFT:  2.00D  GRAD.:     3.425 HEAT:  14.04911
 CYCLE:    22 TIME:   0.004 TIME LEFT:  2.00D  GRAD.:     3.645 HEAT:  14.04604
 CYCLE:    23 TIME:   0.008 TIME LEFT:  2.00D  GRAD.:     1.740 HEAT:  14.04149
 CYCLE:    24 TIME:   0.004 TIME LEFT:  2.00D  GRAD.:     1.193 HEAT:  14.03971
 CYCLE:    25 TIME:   0.004 TIME LEFT:  2.00D  GRAD.:     0.914 HEAT:  14.03745
 CYCLE:    26 TIME:   0.008 TIME LEFT:  2.00D  GRAD.:     0.964 HEAT:  14.03640
 CYCLE:    27 TIME:   0.004 TIME LEFT:  2.00D  GRAD.:     0.678 HEAT:  14.03586
 CYCLE:    28 TIME:   0.004 TIME LEFT:  2.00D  GRAD.:     0.620 HEAT:  14.03531
 CYCLE:    29 TIME:   0.008 TIME LEFT:  2.00D  GRAD.:     0.546 HEAT:  14.03488
 CYCLE:    30 TIME:   0.004 TIME LEFT:  2.00D  GRAD.:     1.055 HEAT:  14.03425
 CYCLE:    31 TIME:   0.004 TIME LEFT:  2.00D  GRAD.:     0.662 HEAT:  14.03374
 CYCLE:    32 TIME:   0.008 TIME LEFT:  2.00D  GRAD.:     0.302 HEAT:  14.03344
 CYCLE:    33 TIME:   0.004 TIME LEFT:  2.00D  GRAD.:     0.227 HEAT:  14.03324
 CYCLE:    34 TIME:   0.004 TIME LEFT:  2.00D  GRAD.:     0.253 HEAT:  14.03309
 CYCLE:    35 TIME:   0.004 TIME LEFT:  2.00D  GRAD.:     0.212 HEAT:  14.03300
 CYCLE:    36 TIME:   0.008 TIME LEFT:  2.00D  GRAD.:     0.151 HEAT:  14.03288
 CYCLE:    37 TIME:   0.004 TIME LEFT:  2.00D  GRAD.:     0.110 HEAT:  14.03283
 CYCLE:    38 TIME:   0.008 TIME LEFT:  2.00D  GRAD.:     0.083 HEAT:  14.03281
 CYCLE:    39 TIME:   0.004 TIME LEFT:  2.00D  GRAD.:     0.070 HEAT:  14.03279
 CYCLE:    40 TIME:   0.004 TIME LEFT:  2.00D  GRAD.:     0.040 HEAT:  14.03279
 CYCLE:    41 TIME:   0.004 TIME LEFT:  2.00D  GRAD.:     0.038 HEAT:  14.03278
 CYCLE:    42 TIME:   0.004 TIME LEFT:  2.00D  GRAD.:     0.050 HEAT:  14.03278
 CYCLE:    43 TIME:   0.008 TIME LEFT:  2.00D  GRAD.:     0.055 HEAT:  14.03277
 CYCLE:    44 TIME:   0.004 TIME LEFT:  2.00D  GRAD.:     0.045 HEAT:  14.03276
 CYCLE:    45 TIME:   0.004 TIME LEFT:  2.00D  GRAD.:     0.033 HEAT:  14.03275
 CYCLE:    46 TIME:   0.004 TIME LEFT:  2.00D  GRAD.:     0.032 HEAT:  14.03275
 CYCLE:    47 TIME:   0.008 TIME LEFT:  2.00D  GRAD.:     0.051 HEAT:  14.03274
 CYCLE:    48 TIME:   0.004 TIME LEFT:  2.00D  GRAD.:     0.031 HEAT:  14.03274
 CYCLE:    49 TIME:   0.004 TIME LEFT:  2.00D  GRAD.:     0.027 HEAT:  14.03274
 CYCLE:    50 TIME:   0.004 TIME LEFT:  2.00D  GRAD.:     0.019 HEAT:  14.03274
 CYCLE:    51 TIME:   0.008 TIME LEFT:  2.00D  GRAD.:     0.020 HEAT:  14.03273
 CYCLE:    52 TIME:   0.004 TIME LEFT:  2.00D  GRAD.:     0.021 HEAT:  14.03273
 CYCLE:    53 TIME:   0.004 TIME LEFT:  2.00D  GRAD.:     0.024 HEAT:  14.03273
 CYCLE:    54 TIME:   0.004 TIME LEFT:  2.00D  GRAD.:     0.018 HEAT:  14.03272
 CYCLE:    55 TIME:   0.008 TIME LEFT:  2.00D  GRAD.:     0.015 HEAT:  14.03272
 CYCLE:    56 TIME:   0.008 TIME LEFT:  2.00D  GRAD.:     0.017 HEAT:  14.03272
 CYCLE:    57 TIME:   0.004 TIME LEFT:  2.00D  GRAD.:     0.026 HEAT:  14.03271
 CYCLE:    58 TIME:   0.004 TIME LEFT:  2.00D  GRAD.:     0.040 HEAT:  14.03270
 CYCLE:    59 TIME:   0.008 TIME LEFT:  2.00D  GRAD.:     0.051 HEAT:  14.03268
 CYCLE:    60 TIME:   0.004 TIME LEFT:  2.00D  GRAD.:     0.061 HEAT:  14.03261
 CYCLE:    61 TIME:   0.012 TIME LEFT:  2.00D  GRAD.:     0.068 HEAT:  14.03258
 CYCLE:    62 TIME:   0.004 TIME LEFT:  2.00D  GRAD.:     0.083 HEAT:  14.03251
 CYCLE:    63 TIME:   0.004 TIME LEFT:  2.00D  GRAD.:     0.144 HEAT:  14.03221
 CYCLE:    64 TIME:   0.012 TIME LEFT:  2.00D  GRAD.:     0.689 HEAT:  14.03099
 CYCLE:    65 TIME:   0.043 TIME LEFT:  2.00D  GRAD.:     1.271 HEAT:  14.03125
 CYCLE:    66 TIME:   0.008 TIME LEFT:  2.00D  GRAD.:     1.274 HEAT:  14.03117
 CYCLE:    67 TIME:   0.008 TIME LEFT:  2.00D  GRAD.:     0.805 HEAT:  14.03045
 CYCLE:    68 TIME:   0.008 TIME LEFT:  2.00D  GRAD.:     0.337 HEAT:  14.02994
 CYCLE:    69 TIME:   0.004 TIME LEFT:  2.00D  GRAD.:     0.185 HEAT:  14.02945
 CYCLE:    70 TIME:   0.004 TIME LEFT:  2.00D  GRAD.:     0.213 HEAT:  14.02879
 CYCLE:    71 TIME:   0.008 TIME LEFT:  2.00D  GRAD.:     0.256 HEAT:  14.02736
 CYCLE:    72 TIME:   0.008 TIME LEFT:  2.00D  GRAD.:     0.927 HEAT:  14.02237
 CYCLE:    73 TIME:   0.004 TIME LEFT:  2.00D  GRAD.:     5.352 HEAT:  14.02374
 CYCLE:    74 TIME:   0.008 TIME LEFT:  2.00D  GRAD.:     0.704 HEAT:  14.02037
 CYCLE:    75 TIME:   0.008 TIME LEFT:  2.00D  GRAD.:     1.167 HEAT:  14.01650
 CYCLE:    76 TIME:   0.004 TIME LEFT:  2.00D  GRAD.:     2.309 HEAT:  14.01365
 CYCLE:    77 TIME:   0.008 TIME LEFT:  2.00D  GRAD.:     5.019 HEAT:  14.01294
 CYCLE:    78 TIME:   0.004 TIME LEFT:  2.00D  GRAD.:     0.618 HEAT:  14.00990
 CYCLE:    79 TIME:   0.008 TIME LEFT:  2.00D  GRAD.:     1.374 HEAT:  14.00506
 CYCLE:    80 TIME:   0.008 TIME LEFT:  2.00D  GRAD.:     2.565 HEAT:  14.00127
 CYCLE:    81 TIME:   0.008 TIME LEFT:  2.00D  GRAD.:     5.729 HEAT:  13.99871
 CYCLE:    82 TIME:   0.004 TIME LEFT:  2.00D  GRAD.:     0.925 HEAT:  13.99211
 CYCLE:    83 TIME:   0.008 TIME LEFT:  2.00D  GRAD.:     1.509 HEAT:  13.98374
 CYCLE:    84 TIME:   0.008 TIME LEFT:  2.00D  GRAD.:     2.937 HEAT:  13.97719
 CYCLE:    85 TIME:   0.004 TIME LEFT:  2.00D  GRAD.:     6.993 HEAT:  13.97409
 CYCLE:    86 TIME:   0.008 TIME LEFT:  2.00D  GRAD.:     2.029 HEAT:  13.96895
 CYCLE:    87 TIME:   0.008 TIME LEFT:  2.00D  GRAD.:     1.586 HEAT:  13.95524
 CYCLE:    88 TIME:   0.008 TIME LEFT:  2.00D  GRAD.:     6.580 HEAT:  13.94770
 CYCLE:    89 TIME:   0.008 TIME LEFT:  2.00D  GRAD.:     3.037 HEAT:  13.93617
 CYCLE:    90 TIME:   0.004 TIME LEFT:  2.00D  GRAD.:     1.718 HEAT:  13.91079
 CYCLE:    91 TIME:   0.008 TIME LEFT:  2.00D  GRAD.:     1.894 HEAT:  13.89650
 CYCLE:    92 TIME:   0.008 TIME LEFT:  2.00D  GRAD.:     6.479 HEAT:  13.86056
 CYCLE:    93 TIME:   0.012 TIME LEFT:  2.00D  GRAD.:     6.199 HEAT:  13.85157
 CYCLE:    94 TIME:   0.008 TIME LEFT:  2.00D  GRAD.:     1.783 HEAT:  13.83072
 CYCLE:    95 TIME:   0.004 TIME LEFT:  2.00D  GRAD.:     1.339 HEAT:  13.81984
 CYCLE:    96 TIME:   0.008 TIME LEFT:  2.00D  GRAD.:     1.889 HEAT:  13.80618
 CYCLE:    97 TIME:   0.004 TIME LEFT:  2.00D  GRAD.:     2.994 HEAT:  13.79569
 CYCLE:    98 TIME:   0.008 TIME LEFT:  2.00D  GRAD.:     4.757 HEAT:  13.76952
 CYCLE:    99 TIME:   0.008 TIME LEFT:  2.00D  GRAD.:     5.425 HEAT:  13.76009
 CYCLE:   100 TIME:   0.004 TIME LEFT:  2.00D  GRAD.:     1.481 HEAT:  13.74351
 CYCLE:   101 TIME:   0.008 TIME LEFT:  2.00D  GRAD.:     2.504 HEAT:  13.73841
 CYCLE:   102 TIME:   0.004 TIME LEFT:  2.00D  GRAD.:     3.425 HEAT:  13.73109
 CYCLE:   103 TIME:   0.008 TIME LEFT:  2.00D  GRAD.:     3.174 HEAT:  13.72387
 CYCLE:   104 TIME:   0.004 TIME LEFT:  2.00D  GRAD.:     2.413 HEAT:  13.71577
 CYCLE:   105 TIME:   0.008 TIME LEFT:  2.00D  GRAD.:     1.691 HEAT:  13.71173
 CYCLE:   106 TIME:   0.008 TIME LEFT:  2.00D  GRAD.:     1.418 HEAT:  13.70871
 CYCLE:   107 TIME:   0.004 TIME LEFT:  2.00D  GRAD.:     1.552 HEAT:  13.70390
 CYCLE:   108 TIME:   0.016 TIME LEFT:  2.00D  GRAD.:     3.696 HEAT:  13.70669
 CYCLE:   109 TIME:   0.008 TIME LEFT:  2.00D  GRAD.:     3.044 HEAT:  13.70359
 CYCLE:   110 TIME:   0.008 TIME LEFT:  2.00D  GRAD.:     1.493 HEAT:  13.69727
 CYCLE:   111 TIME:   0.012 TIME LEFT:  2.00D  GRAD.:     3.961 HEAT:  13.69697
 CYCLE:   112 TIME:   0.004 TIME LEFT:  2.00D  GRAD.:     1.199 HEAT:  13.69208
 CYCLE:   113 TIME:   0.008 TIME LEFT:  2.00D  GRAD.:     1.117 HEAT:  13.69053
 CYCLE:   114 TIME:   0.008 TIME LEFT:  2.00D  GRAD.:     1.197 HEAT:  13.68839
 CYCLE:   115 TIME:   0.004 TIME LEFT:  2.00D  GRAD.:     1.784 HEAT:  13.68134
 CYCLE:   116 TIME:   0.008 TIME LEFT:  2.00D  GRAD.:     4.098 HEAT:  13.67626
 CYCLE:   117 TIME:   0.008 TIME LEFT:  2.00D  GRAD.:     2.459 HEAT:  13.66817
 CYCLE:   118 TIME:   0.008 TIME LEFT:  2.00D  GRAD.:     1.708 HEAT:  13.66098
 CYCLE:   119 TIME:   0.004 TIME LEFT:  2.00D  GRAD.:     1.647 HEAT:  13.64960
 CYCLE:   120 TIME:   0.008 TIME LEFT:  2.00D  GRAD.:     2.008 HEAT:  13.64074
 CYCLE:   121 TIME:   0.008 TIME LEFT:  2.00D  GRAD.:     4.472 HEAT:  13.62899
 CYCLE:   122 TIME:   0.008 TIME LEFT:  2.00D  GRAD.:     2.018 HEAT:  13.62289
 CYCLE:   123 TIME:   0.008 TIME LEFT:  2.00D  GRAD.:     0.720 HEAT:  13.61651
 CYCLE:   124 TIME:   0.008 TIME LEFT:  2.00D  GRAD.:     0.695 HEAT:  13.61468
 CYCLE:   125 TIME:   0.004 TIME LEFT:  2.00D  GRAD.:     0.766 HEAT:  13.61366
 CYCLE:   126 TIME:   0.008 TIME LEFT:  2.00D  GRAD.:     0.365 HEAT:  13.61331
 CYCLE:   127 TIME:   0.008 TIME LEFT:  2.00D  GRAD.:     0.213 HEAT:  13.61305
 CYCLE:   128 TIME:   0.008 TIME LEFT:  2.00D  GRAD.:     0.173 HEAT:  13.61284
 CYCLE:   129 TIME:   0.008 TIME LEFT:  2.00D  GRAD.:     0.344 HEAT:  13.61257
 CYCLE:   130 TIME:   0.004 TIME LEFT:  2.00D  GRAD.:     0.346 HEAT:  13.61242
 CYCLE:   131 TIME:   0.004 TIME LEFT:  2.00D  GRAD.:     0.341 HEAT:  13.61223
 CYCLE:   132 TIME:   0.004 TIME LEFT:  2.00D  GRAD.:     0.948 HEAT:  13.61236
 CYCLE:   133 TIME:   0.004 TIME LEFT:  2.00D  GRAD.:     0.284 HEAT:  13.61177
 CYCLE:   134 TIME:   0.008 TIME LEFT:  2.00D  GRAD.:     0.274 HEAT:  13.61161
 CYCLE:   135 TIME:   0.004 TIME LEFT:  2.00D  GRAD.:     0.263 HEAT:  13.61145
 CYCLE:   136 TIME:   0.008 TIME LEFT:  2.00D  GRAD.:     0.377 HEAT:  13.61184
 CYCLE:   137 TIME:   0.004 TIME LEFT:  2.00D  GRAD.:     0.201 HEAT:  13.61132
 CYCLE:   138 TIME:   0.008 TIME LEFT:  2.00D  GRAD.:     0.454 HEAT:  13.61198
 CYCLE:   139 TIME:   0.008 TIME LEFT:  2.00D  GRAD.:     0.145 HEAT:  13.61126
 CYCLE:   140 TIME:   0.008 TIME LEFT:  2.00D  GRAD.:     0.257 HEAT:  13.61142
 CYCLE:   141 TIME:   0.004 TIME LEFT:  2.00D  GRAD.:     0.117 HEAT:  13.61123
 CYCLE:   142 TIME:   0.008 TIME LEFT:  2.00D  GRAD.:     0.117 HEAT:  13.61120
 CYCLE:   143 TIME:   0.012 TIME LEFT:  2.00D  GRAD.:     0.073 HEAT:  13.61123
 CYCLE:   144 TIME:   0.004 TIME LEFT:  2.00D  GRAD.:     0.063 HEAT:  13.61117
 CYCLE:   145 TIME:   0.004 TIME LEFT:  2.00D  GRAD.:     0.044 HEAT:  13.61117
 CYCLE:   146 TIME:   0.008 TIME LEFT:  2.00D  GRAD.:     0.080 HEAT:  13.61115
 CYCLE:   147 TIME:   0.004 TIME LEFT:  2.00D  GRAD.:     0.048 HEAT:  13.61115
 CYCLE:   148 TIME:   0.008 TIME LEFT:  2.00D  GRAD.:     0.064 HEAT:  13.61115
 CYCLE:   149 TIME:   0.004 TIME LEFT:  2.00D  GRAD.:     0.014 HEAT:  13.61115
 CYCLE:   150 TIME:   0.004 TIME LEFT:  2.00D  GRAD.:     0.009 HEAT:  13.61115

     GRADIENT =  0.00908 IS LESS THAN CUTOFF =  0.01000



 -------------------------------------------------------------------------------
 pm3  precise nosym gnorm=0.0 nonr THREADS=1
 InChI=1S/C7H10/c1-6-3-4-7(2)5-6/h5H,1,3-4H2,2H3



     GEOMETRY OPTIMISED USING EIGENVECTOR FOLLOWING (EF).     
     SCF FIELD WAS ACHIEVED                                   


                              PM3 CALCULATION
                                                       MOPAC v23.1.2 MacOS
                                                       Tue Jun  3 16:28:52 2025




          FINAL HEAT OF FORMATION =         13.61115 KCAL/MOL =      56.94903 KJ/MOL


          COSMO AREA              =        148.04 SQUARE ANGSTROMS
          COSMO VOLUME            =        140.08 CUBIC ANGSTROMS

          GRADIENT NORM           =          0.00908          =       0.00220 PER ATOM
          IONIZATION POTENTIAL    =          8.852896 EV
          HOMO LUMO ENERGIES (EV) =         -8.853  0.297
          NO. OF FILLED LEVELS    =         19
          MOLECULAR WEIGHT        =         94.1560         POINT GROUP:  C1  

          MOLECULAR DIMENSIONS (Angstroms)

            Atom       Atom       Distance
            H    16    H    14     6.42432
            H    15    H    11     4.02079
            H    12    H     8     2.74744


          SCF CALCULATIONS        =        168

          WALL-CLOCK TIME         =      0.980 SECONDS
          COMPUTATION TIME        =      0.604 SECONDS




   ATOM   CHEMICAL          X               Y               Z
  NUMBER   SYMBOL      (ANGSTROMS)     (ANGSTROMS)     (ANGSTROMS)

     1       C         -0.41418151  *   1.17693665  *   0.49299901  *
     2       C          1.09403945  *   1.06703487  *   0.20755722  *
     3       C         -2.41153971  *  -0.45493315  *   0.23312482  *
     4       C         -0.97426483  *  -0.16149910  *   0.10404428  *
     5       C          1.29271262  *  -0.32541374  *  -0.32427288  *
     6       C         -0.01355243  *  -0.98937301  *  -0.34963165  *
     7       C          2.44940420  *  -0.86090350  *  -0.70474593  *
     8       H          1.42961337  *   1.82158477  *  -0.52676711  *
     9       H          1.69804237  *   1.23160943  *   1.11820501  *
    10       H         -0.89129157  *   1.98649257  *  -0.08921649  *
    11       H         -0.62294087  *   1.39606601  *   1.55619410  *
    12       H         -2.73585143  *  -0.35235535  *   1.27760355  *
    13       H         -2.65386547  *  -1.47316398  *  -0.09670974  *
    14       H         -3.00594752  *   0.24542400  *  -0.36921018  *
    15       H         -0.14329621  *  -2.01471798  *  -0.69645883  *
    16       H          3.38707626  *  -0.31616517  *  -0.66211697  *
    17       H          2.52516279  *  -1.87610822  *  -1.08118085  *

                             CARTESIAN COORDINATES

   1    C       -0.414181508     1.176936647     0.492999006
   2    C        1.094039452     1.067034870     0.207557217
   3    C       -2.411539708    -0.454933155     0.233124817
   4    C       -0.974264834    -0.161499097     0.104044279
   5    C        1.292712617    -0.325413740    -0.324272882
   6    C       -0.013552430    -0.989373012    -0.349631645
   7    C        2.449404196    -0.860903498    -0.704745928
   8    H        1.429613370     1.821584773    -0.526767110
   9    H        1.698042374     1.231609433     1.118205008
  10    H       -0.891291568     1.986492572    -0.089216489
  11    H       -0.622940873     1.396066009     1.556194101
  12    H       -2.735851434    -0.352355354     1.277603552
  13    H       -2.653865474    -1.473163977    -0.096709741
  14    H       -3.005947517     0.245423998    -0.369210180
  15    H       -0.143296209    -2.014717981    -0.696458834
  16    H        3.387076257    -0.316165172    -0.662116970
  17    H        2.525162789    -1.876108224    -1.081180855


           Empirical Formula: C7 H10  =    17 atoms



      MOLECULAR POINT GROUP   :   C1  


                  EIGENVALUES  
 -40.33031 -32.57851 -29.42970 -26.21760 -22.89676 -18.93168 -18.40396 -16.55953
 -16.07569 -14.93779 -14.29815 -14.13508 -13.52900 -13.08648 -12.54097 -12.44628
 -12.12221 -11.07024  -8.85290   0.29669   2.02934   3.21384   3.40876   3.56893
   3.87689   3.98860   3.99445   4.08317   4.16878   4.26643   4.37073   4.45123
   4.75992   4.86603   5.13696   5.72400   5.96924   6.26674


              NET ATOMIC CHARGES AND DIPOLE CONTRIBUTIONS

  ATOM NO.   TYPE          CHARGE      No. of ELECS.   s-Pop       p-Pop       
    1          C          -0.060326        4.0603     1.15421     2.90611
    2          C          -0.059880        4.0599     1.15269     2.90719
    3          C          -0.054673        4.0547     1.11801     2.93666
    4          C          -0.116769        4.1168     1.20612     2.91065
    5          C          -0.080618        4.0806     1.19081     2.88981
    6          C          -0.119884        4.1199     1.18616     2.93373
    7          C          -0.165895        4.1659     1.17627     2.98962
    8          H           0.059102        0.9409     0.94090
    9          H           0.059104        0.9409     0.94090
   10          H           0.058108        0.9419     0.94189
   11          H           0.058108        0.9419     0.94189
   12          H           0.046597        0.9534     0.95340
   13          H           0.044225        0.9558     0.95577
   14          H           0.046563        0.9534     0.95344
   15          H           0.117513        0.8825     0.88249
   16          H           0.083452        0.9165     0.91655
   17          H           0.085273        0.9147     0.91473
 DIPOLE           X         Y         Z       TOTAL
 POINT-CHG.    -0.531     0.385     0.225     0.694
 HYBRID         0.014     0.008     0.001     0.016
 SUM           -0.517     0.394     0.226     0.688


          ATOMIC ORBITAL ELECTRON POPULATIONS

     Atom    s        px        py        pz   
    1  C   1.15421   0.94841   0.95172   1.00597
    2  C   1.15269   0.95537   0.94869   1.00313
    3  C   1.11801   0.92410   1.00664   1.00592
    4  C   1.20612   0.95818   0.96477   0.98771
    5  C   1.19081   0.94644   0.95477   0.98859
    6  C   1.18616   0.93152   0.98067   1.02154
    7  C   1.17627   0.96136   1.00422   1.02405
    8  H   0.94090
    9  H   0.94090
   10  H   0.94189
   11  H   0.94189
   12  H   0.95340
   13  H   0.95577
   14  H   0.95344
   15  H   0.88249
   16  H   0.91655
   17  H   0.91473
 *******************************************************************************
 **                                                                           **
 **                              MOPAC v23.1.2                                **
 **                                                                           **
 *******************************************************************************
 **          Digital Object Identifier (DOI): 10.5281/zenodo.6511958          **
 **    Visit the DOI location for information on how to cite this program.    **
 *******************************************************************************

                              PM3 CALCULATION RESULTS

 *******************************************************************************
 *  CALCULATION DONE: (MAX THREADS = 1)              Tue Jun  3 16:28:52 2025  *
 *  PM3        - The PM3 Hamiltonian to be used
 *  OLDGEO     - PREVIOUS GEOMETRY TO BE USED
 *  PRECISE    - TIGHTER CRITERIA TO BE USED
 *  NOSYM      - POINT-GROUP SYMMETRY SET TO C1
 *  THREADS=1  - MULTI-THREADING NOT USED
 *  T=         - A TIME OF 172800.0 SECONDS REQUESTED
 *  DUMP=N     - RESTART FILE WRITTEN EVERY 7200.0 SECONDS REQUESTED
 *  THERMO     - THERMODYNAMIC QUANTITIES TO BE CALCULATED
 *******************************************************************************
oldgeo thermo nosym precise THREADS=1  pm3
 InChI=1S/C7H10/c1-6-3-4-7(2)5-6/h5H,1,3-4H2,2H3

   ATOM   CHEMICAL          X               Y               Z
  NUMBER   SYMBOL      (ANGSTROMS)     (ANGSTROMS)     (ANGSTROMS)

     1       C         -0.41418151  *   1.17693665  *   0.49299901  *
     2       C          1.09403945  *   1.06703487  *   0.20755722  *
     3       C         -2.41153971  *  -0.45493315  *   0.23312482  *
     4       C         -0.97426483  *  -0.16149910  *   0.10404428  *
     5       C          1.29271262  *  -0.32541374  *  -0.32427288  *
     6       C         -0.01355243  *  -0.98937301  *  -0.34963165  *
     7       C          2.44940420  *  -0.86090350  *  -0.70474593  *
     8       H          1.42961337  *   1.82158477  *  -0.52676711  *
     9       H          1.69804237  *   1.23160943  *   1.11820501  *
    10       H         -0.89129157  *   1.98649257  *  -0.08921649  *
    11       H         -0.62294087  *   1.39606601  *   1.55619410  *
    12       H         -2.73585143  *  -0.35235535  *   1.27760355  *
    13       H         -2.65386547  *  -1.47316398  *  -0.09670974  *
    14       H         -3.00594752  *   0.24542400  *  -0.36921018  *
    15       H         -0.14329621  *  -2.01471798  *  -0.69645883  *
    16       H          3.38707626  *  -0.31616517  *  -0.66211697  *
    17       H          2.52516279  *  -1.87610822  *  -1.08118085  *



          CARTESIAN COORDINATES 

    NO.       ATOM           X           Y           Z

     1         C         -0.4142      1.1769      0.4930
     2         C          1.0940      1.0670      0.2076
     3         C         -2.4115     -0.4549      0.2331
     4         C         -0.9743     -0.1615      0.1040
     5         C          1.2927     -0.3254     -0.3243
     6         C         -0.0136     -0.9894     -0.3496
     7         C          2.4494     -0.8609     -0.7047
     8         H          1.4296      1.8216     -0.5268
     9         H          1.6980      1.2316      1.1182
    10         H         -0.8913      1.9865     -0.0892
    11         H         -0.6229      1.3961      1.5562
    12         H         -2.7359     -0.3524      1.2776
    13         H         -2.6539     -1.4732     -0.0967
    14         H         -3.0059      0.2454     -0.3692
    15         H         -0.1433     -2.0147     -0.6965
    16         H          3.3871     -0.3162     -0.6621
    17         H          2.5252     -1.8761     -1.0812

  H: (PM3): J. J. P. STEWART, J. COMP. CHEM. 10, 209 (1989).
  C: (PM3): J. J. P. STEWART, J. COMP. CHEM. 10, 209 (1989).

           Empirical Formula: C7 H10  =    17 atoms



      MOLECULAR POINT GROUP   :   C1  


      RHF CALCULATION, NO. OF DOUBLY OCCUPIED LEVELS = 19



          HEAT OF FORMATION =      13.611145 KCALS/MOLE


          CARTESIAN COORDINATE DERIVATIVES

   NUMBER  ATOM         X            Y            Z

     1       C      0.000595     0.000674     0.000022
     2       C      0.000487     0.000580    -0.000555
     3       C     -0.000959    -0.002132    -0.002438
     4       C     -0.000230    -0.000265    -0.001178
     5       C      0.000200     0.000201    -0.001424
     6       C      0.000403    -0.000046     0.000048
     7       C     -0.000099    -0.000397    -0.000313
     8       H     -0.001961    -0.000519     0.001346
     9       H      0.004702     0.000810    -0.000082
    10       H     -0.000752     0.000306     0.001200
    11       H     -0.003310    -0.001077     0.000399
    12       H      0.002528     0.003388     0.001497
    13       H     -0.000033     0.000390     0.002416
    14       H     -0.000202    -0.001590    -0.000577
    15       H      0.000139    -0.000811     0.000294
    16       H     -0.001193    -0.000071     0.000938
    17       H     -0.000315     0.000559    -0.001593



          GRADIENT NORM =   0.00976

          MOLECULAR WEIGHT =   94.16



          ROTATIONAL CONSTANTS IN CM(-1)

          A =    0.19038890   B =    0.06774313   C =    0.05140792



           PRINCIPAL MOMENTS OF INERTIA IN UNITS OF 10**(-40)*GRAM-CM**2

          A =      147.0293   B =      413.2191   C =      544.5221


          ORIENTATION OF MOLECULE IN FORCE CALCULATION

    NO.       ATOM         X         Y         Z

     1          C      -0.7103   -1.2652    0.0002
     2          C       0.8286   -1.2652    0.0002
     3          C      -2.5031    0.6073    0.0002
     4          C      -1.0915    0.1878    0.0001
     5          C       1.2214    0.1864   -0.0001
     6          C      -0.0067    0.9861   -0.0000
     7          C       2.4638    0.6616   -0.0005
     8          H       1.2398   -1.7851    0.8843
     9          H       1.2399   -1.7855   -0.8837
    10          H      -1.1278   -1.7806    0.8845
    11          H      -1.1278   -1.7807   -0.8841
    12          H      -3.0220    0.2220   -0.8881
    13          H      -2.6067    1.6998    0.0038
    14          H      -3.0239    0.2159    0.8846
    15          H       0.0037    2.0762    0.0000
    16          H       3.3360    0.0157   -0.0005
    17          H       2.6804    1.7251   -0.0007


    FIRST DERIVATIVES WILL BE USED IN THE CALCULATION OF SECOND DERIVATIVES

          ESTIMATED TIME TO COMPLETE CALCULATION =        0.80 SECONDS

    FOR POINT-GROUP C1   THERE ARE   1 UNIQUE SYMMETRY FUNCTIONS.

 STEP:   1 TIME =     0.02 SECS, INTEGRAL =      0.02 TIME LEFT: 172799.98
 STEP:   2 TIME =     0.02 SECS, INTEGRAL =      0.03 TIME LEFT: 172799.96
 STEP:   3 TIME =     0.01 SECS, INTEGRAL =      0.04 TIME LEFT: 172799.95
 STEP:   4 TIME =     0.01 SECS, INTEGRAL =      0.05 TIME LEFT: 172799.94
 STEP:   5 TIME =     0.01 SECS, INTEGRAL =      0.07 TIME LEFT: 172799.93
 STEP:   6 TIME =     0.01 SECS, INTEGRAL =      0.08 TIME LEFT: 172799.92
 STEP:   7 TIME =     0.01 SECS, INTEGRAL =      0.09 TIME LEFT: 172799.91
 STEP:   8 TIME =     0.01 SECS, INTEGRAL =      0.10 TIME LEFT: 172799.89
 STEP:   9 TIME =     0.01 SECS, INTEGRAL =      0.11 TIME LEFT: 172799.88
 STEP:  10 TIME =     0.01 SECS, INTEGRAL =      0.12 TIME LEFT: 172799.87
 STEP:  11 TIME =     0.01 SECS, INTEGRAL =      0.14 TIME LEFT: 172799.86
 STEP:  12 TIME =     0.01 SECS, INTEGRAL =      0.15 TIME LEFT: 172799.85
 STEP:  13 TIME =     0.01 SECS, INTEGRAL =      0.16 TIME LEFT: 172799.84
 STEP:  14 TIME =     0.01 SECS, INTEGRAL =      0.17 TIME LEFT: 172799.82
 STEP:  15 TIME =     0.01 SECS, INTEGRAL =      0.18 TIME LEFT: 172799.81
 STEP:  16 TIME =     0.01 SECS, INTEGRAL =      0.20 TIME LEFT: 172799.80
 STEP:  17 TIME =     0.01 SECS, INTEGRAL =      0.21 TIME LEFT: 172799.79
 STEP:  18 TIME =     0.02 SECS, INTEGRAL =      0.22 TIME LEFT: 172799.77
 STEP:  19 TIME =     0.01 SECS, INTEGRAL =      0.23 TIME LEFT: 172799.76
 STEP:  20 TIME =     0.01 SECS, INTEGRAL =      0.25 TIME LEFT: 172799.75
 STEP:  21 TIME =     0.01 SECS, INTEGRAL =      0.26 TIME LEFT: 172799.74
 STEP:  22 TIME =     0.01 SECS, INTEGRAL =      0.27 TIME LEFT: 172799.73
 STEP:  23 TIME =     0.02 SECS, INTEGRAL =      0.29 TIME LEFT: 172799.71
 STEP:  24 TIME =     0.01 SECS, INTEGRAL =      0.30 TIME LEFT: 172799.70
 STEP:  25 TIME =     0.01 SECS, INTEGRAL =      0.31 TIME LEFT: 172799.69
 STEP:  26 TIME =     0.01 SECS, INTEGRAL =      0.32 TIME LEFT: 172799.68
 STEP:  27 TIME =     0.01 SECS, INTEGRAL =      0.33 TIME LEFT: 172799.66
 STEP:  28 TIME =     0.01 SECS, INTEGRAL =      0.34 TIME LEFT: 172799.65
 STEP:  29 TIME =     0.01 SECS, INTEGRAL =      0.36 TIME LEFT: 172799.64
 STEP:  30 TIME =     0.01 SECS, INTEGRAL =      0.37 TIME LEFT: 172799.63
 STEP:  31 TIME =     0.01 SECS, INTEGRAL =      0.38 TIME LEFT: 172799.62
 STEP:  32 TIME =     0.01 SECS, INTEGRAL =      0.39 TIME LEFT: 172799.61
 STEP:  33 TIME =     0.01 SECS, INTEGRAL =      0.40 TIME LEFT: 172799.59
 STEP:  34 TIME =     0.01 SECS, INTEGRAL =      0.41 TIME LEFT: 172799.58
 STEP:  35 TIME =     0.01 SECS, INTEGRAL =      0.43 TIME LEFT: 172799.57
 STEP:  36 TIME =     0.01 SECS, INTEGRAL =      0.44 TIME LEFT: 172799.56
 STEP:  37 TIME =     0.02 SECS, INTEGRAL =      0.45 TIME LEFT: 172799.54
 STEP:  38 TIME =     0.01 SECS, INTEGRAL =      0.46 TIME LEFT: 172799.53
 STEP:  39 TIME =     0.02 SECS, INTEGRAL =      0.48 TIME LEFT: 172799.52
 STEP:  40 TIME =     0.02 SECS, INTEGRAL =      0.50 TIME LEFT: 172799.50
 STEP:  41 TIME =     0.01 SECS, INTEGRAL =      0.51 TIME LEFT: 172799.49
 STEP:  42 TIME =     0.01 SECS, INTEGRAL =      0.52 TIME LEFT: 172799.48
 STEP:  43 TIME =     0.02 SECS, INTEGRAL =      0.54 TIME LEFT: 172799.46
 STEP:  44 TIME =     0.01 SECS, INTEGRAL =      0.55 TIME LEFT: 172799.45
 STEP:  45 TIME =     0.02 SECS, INTEGRAL =      0.56 TIME LEFT: 172799.43
 STEP:  46 TIME =     0.01 SECS, INTEGRAL =      0.57 TIME LEFT: 172799.42
 STEP:  47 TIME =     0.01 SECS, INTEGRAL =      0.59 TIME LEFT: 172799.41
 STEP:  48 TIME =     0.02 SECS, INTEGRAL =      0.60 TIME LEFT: 172799.39
 STEP:  49 TIME =     0.02 SECS, INTEGRAL =      0.62 TIME LEFT: 172799.38
 STEP:  50 TIME =     0.01 SECS, INTEGRAL =      0.63 TIME LEFT: 172799.37
 STEP:  51 TIME =     0.02 SECS, INTEGRAL =      0.64 TIME LEFT: 172799.35

(To convert to Hartree/Bohr^2, multiply by (10^(-21) x N x a0^2)/(4.184 x 627.51) =  0.0642)


           FORCE MATRIX IN MILLIDYNES/ANGSTROM


                  C  1       C  2       C  3       C  4       C  5       C  6
 ------------------------------------------------------------------------------
     C    1  14.575076
     C    2   3.695365  14.559814
     C    3   0.513994   0.047441  14.850680
     C    4   4.445678   0.883595   5.448556  18.697926
     C    5   0.835133   4.419632   0.131874   1.460004  19.375502
     C    6   1.125321   0.893300   0.726128   9.929920   5.200162  18.558556
     C    7   0.059293   0.692734   0.016728   0.109894  10.697271   0.926461
     H    8   0.439101   4.543457   0.004554   0.028497   0.434730   0.028510
     H    9   0.439101   4.543505   0.004550   0.028508   0.434735   0.028522
     H   10   4.526153   0.436046   0.012342   0.438558   0.030868   0.036022
     H   11   4.526236   0.436056   0.012308   0.438557   0.030855   0.036024
     H   12   0.013910   0.002000   4.699934   0.450153   0.018734   0.032208
     H   13   0.043107   0.007638   4.753637   0.473688   0.003551   0.026022
     H   14   0.014036   0.002013   4.700231   0.450382   0.018693   0.032377
     H   15   0.107370   0.039692   0.054127   0.456132   0.430633   5.004160
     H   16   0.005710   0.086128   0.010908   0.008030   0.477485   0.128750
     H   17   0.006919   0.122250   0.006022   0.007276   0.476541   0.092193


                  C  7       H  8       H  9       H 10       H 11       H 12
 ------------------------------------------------------------------------------
     C    7  17.979099
     H    8   0.020473   5.144580
     H    9   0.020473   0.568933   5.144654
     H   10   0.004865   0.029974   0.026560   5.131716
     H   11   0.004863   0.026572   0.029975   0.568828   5.131805
     H   12   0.002003   0.000535   0.000236   0.001056   0.005892   5.409594
     H   13   0.001508   0.000858   0.000856   0.001352   0.001352   0.558126
     H   14   0.002004   0.000237   0.000533   0.005991   0.001050   0.572363
     H   15   0.013544   0.002812   0.002814   0.014938   0.014940   0.006781
     H   16   5.115473   0.011070   0.011067   0.001231   0.001231   0.001612
     H   17   5.112428   0.013065   0.013059   0.002122   0.002123   0.000753


                  H 13       H 14       H 15       H 16       H 17
 ------------------------------------------------------------------
     H   13   5.455660
     H   14   0.557993   5.409826
     H   15   0.012582   0.006747   5.403155
     H   16   0.000242   0.001608   0.002159   5.492903
     H   17   0.000288   0.000751   0.009550   0.406511   5.490513


          HEAT OF FORMATION =      13.611145 KCALS/MOLE

          ZERO POINT ENERGY      92.988 KCAL/MOL


           NORMAL COORDINATE ANALYSIS (Total motion = 1 Angstrom)


   Root No.       1         2         3         4         5         6         7         8

                 1 A       2 A       3 A       4 A       5 A       6 A       7 A       8 A   

                  90.6     112.2     163.0     282.4     409.7     431.3     517.5     608.7
  
           1    0.0000    0.0000   -0.0000    0.0007   -0.0223    0.0000    0.0000   -0.0103
           2   -0.0000   -0.0000    0.0000   -0.0308    0.0237   -0.0000    0.0000   -0.0235
           3    0.0015    0.0425    0.0308   -0.0000   -0.0000   -0.0030   -0.0066   -0.0000
           4    0.0000    0.0000   -0.0000    0.0083   -0.0218    0.0000    0.0000   -0.0318
           5   -0.0000   -0.0000   -0.0000   -0.0233   -0.0270    0.0000   -0.0000    0.0030
           6    0.0218   -0.0416   -0.0241    0.0000    0.0000   -0.0037   -0.0008    0.0000
           7    0.0000    0.0000    0.0000    0.0238    0.0019    0.0000    0.0000    0.0927
           8    0.0000    0.0000   -0.0000    0.0595   -0.0283    0.0000    0.0000   -0.0218
           9   -0.0079    0.0015   -0.0525   -0.0000   -0.0000   -0.0112    0.0018    0.0000
          10   -0.0000   -0.0000    0.0000   -0.0029    0.0169   -0.0000    0.0000    0.0562
          11   -0.0000   -0.0000    0.0000   -0.0307    0.0311   -0.0000    0.0000   -0.0136
          12    0.0032    0.0006    0.0251   -0.0000    0.0001    0.0878    0.0269   -0.0000
          13   -0.0000   -0.0000    0.0000   -0.0004    0.0149   -0.0000   -0.0000   -0.0541
          14   -0.0000   -0.0000    0.0000   -0.0209   -0.0350    0.0000    0.0000    0.0164
          15    0.0022   -0.0155    0.0150    0.0000   -0.0000   -0.0512    0.0758    0.0000
          16   -0.0000   -0.0000    0.0000   -0.0033    0.0352   -0.0000   -0.0000   -0.0043
          17   -0.0000   -0.0000    0.0000   -0.0331    0.0017   -0.0000    0.0000    0.0560
          18    0.0079   -0.0347    0.0592    0.0000   -0.0000   -0.0132   -0.0328   -0.0000
          19   -0.0000    0.0000   -0.0000   -0.0286   -0.0111    0.0000   -0.0000   -0.0550
          20    0.0000    0.0000   -0.0000    0.0524    0.0337   -0.0000   -0.0000   -0.0103
          21   -0.0248    0.0409   -0.0318   -0.0000    0.0000    0.0129   -0.0142    0.0000
          22   -0.0125    0.0514    0.0345    0.0094   -0.0419   -0.0071    0.0185   -0.0159
          23    0.0173   -0.0366   -0.0373   -0.0218   -0.0421    0.0534   -0.1141    0.0182
          24    0.0378   -0.0874   -0.0625    0.0001    0.0002    0.0319   -0.0794    0.0013
          25    0.0125   -0.0514   -0.0345    0.0094   -0.0419    0.0072   -0.0184   -0.0159
          26   -0.0173    0.0365    0.0373   -0.0218   -0.0422   -0.0533    0.1140    0.0182
          27    0.0379   -0.0875   -0.0625   -0.0001   -0.0001    0.0320   -0.0794   -0.0013
          28   -0.0123    0.0505    0.0331    0.0053   -0.0427   -0.0105   -0.0172   -0.0279
          29   -0.0047    0.0433    0.0191   -0.0338    0.0397   -0.1007   -0.0630   -0.0126
          30   -0.0070    0.0920    0.0579   -0.0000    0.0000   -0.0688   -0.0536   -0.0010
          31    0.0123   -0.0505   -0.0331    0.0054   -0.0426    0.0106    0.0172   -0.0280
          32    0.0046   -0.0433   -0.0190   -0.0339    0.0399    0.1006    0.0631   -0.0127
          33   -0.0070    0.0920    0.0579    0.0000   -0.0001   -0.0688   -0.0536    0.0010
          34    0.0711    0.0161    0.0453   -0.0064    0.0262    0.0891    0.0193    0.1045
          35    0.1985    0.0498   -0.0336    0.1030   -0.0634   -0.0300   -0.0045   -0.0273
          36   -0.1358   -0.0297   -0.0647   -0.0004    0.0003   -0.0518   -0.0079   -0.0035
          37   -0.0002   -0.0000   -0.0002    0.1097   -0.0639   -0.0002   -0.0001    0.1004
          38   -0.0008   -0.0002    0.0001    0.0689   -0.0360    0.0002    0.0000   -0.0216
          39    0.2257    0.0602   -0.0995   -0.0002    0.0000   -0.0619   -0.0066    0.0000
          40   -0.0709   -0.0161   -0.0451   -0.0068    0.0264   -0.0887   -0.0192    0.1044
          41   -0.1974   -0.0496    0.0334    0.1034   -0.0636    0.0300    0.0045   -0.0273
          42   -0.1374   -0.0300   -0.0646    0.0006   -0.0005   -0.0518   -0.0079    0.0035
          43   -0.0000   -0.0000    0.0000   -0.0079    0.0757   -0.0001   -0.0000   -0.0341
          44   -0.0000   -0.0000    0.0000   -0.0325    0.0013   -0.0000    0.0000    0.0559
          45    0.0133   -0.0669    0.0847    0.0000   -0.0001   -0.0760   -0.1706    0.0000
          46   -0.0000    0.0000   -0.0000    0.0195    0.0453   -0.0000   -0.0000   -0.0829
          47    0.0000    0.0000   -0.0000    0.1190    0.1123   -0.0001   -0.0000   -0.0465
          48   -0.0333    0.0688   -0.0937   -0.0000    0.0000    0.0520    0.0175   -0.0000
          49   -0.0000    0.0000   -0.0000   -0.1089   -0.1039    0.0001   -0.0000   -0.0266
          50    0.0000    0.0000   -0.0000    0.0697    0.0543   -0.0000   -0.0000   -0.0173
          51   -0.0403    0.0636   -0.0125    0.0000    0.0000    0.0429   -0.1543    0.0001


   Root No.       9        10        11        12        13        14        15        16

                 9 A      10 A      11 A      12 A      13 A      14 A      15 A      16 A   

                 619.8     633.5     813.3     884.6     918.3     946.7     947.8     990.3
  
           1   -0.0000    0.0687   -0.0000    0.0000   -0.0078    0.0116    0.0000   -0.0031
           2   -0.0000    0.0324   -0.0000    0.0000    0.0051    0.0444    0.0002    0.0229
           3   -0.0027   -0.0000    0.0335   -0.0144    0.0000   -0.0001    0.0236    0.0000
           4   -0.0000    0.0592   -0.0000    0.0000    0.0130   -0.0014   -0.0000   -0.0045
           5    0.0000   -0.0439    0.0000    0.0000   -0.0470   -0.0117   -0.0001    0.0546
           6   -0.0024    0.0000    0.0304    0.0125    0.0000    0.0001   -0.0262   -0.0000
           7    0.0000   -0.0203    0.0000   -0.0000    0.0006    0.0037    0.0000    0.0046
           8   -0.0000    0.0142   -0.0000   -0.0000    0.0030   -0.0397   -0.0002   -0.0193
           9   -0.0009   -0.0000   -0.0070    0.0250    0.0000    0.0001   -0.0148    0.0000
          10    0.0000   -0.0050    0.0000   -0.0000    0.0008   -0.0016    0.0000   -0.0061
          11   -0.0000    0.0359   -0.0000    0.0000    0.0026   -0.0151   -0.0001   -0.0014
          12   -0.0017    0.0000   -0.0166    0.0088   -0.0000   -0.0000    0.0029   -0.0000
          13   -0.0000   -0.0454   -0.0000    0.0000    0.0021    0.0043    0.0000   -0.0088
          14    0.0000   -0.0364    0.0000   -0.0000    0.0110    0.0010    0.0000   -0.0185
          15   -0.0268   -0.0000   -0.0246    0.0109   -0.0000   -0.0001    0.0179   -0.0000
          16    0.0000   -0.0065    0.0000   -0.0000    0.0037   -0.0162   -0.0001    0.0314
          17    0.0000    0.0280    0.0000   -0.0000   -0.0112    0.0033    0.0000   -0.0530
          18    0.0200    0.0000   -0.0037   -0.0532   -0.0000    0.0002   -0.0240    0.0000
          19    0.0000   -0.0619    0.0000    0.0000   -0.0118    0.0084    0.0000   -0.0356
          20    0.0000   -0.0296    0.0000   -0.0000    0.0612   -0.0027   -0.0000    0.0047
          21    0.0006    0.0000   -0.0027    0.0030   -0.0000   -0.0001    0.0186    0.0000
          22    0.0101    0.0759    0.1139   -0.0153   -0.0139   -0.0397   -0.0133    0.0257
          23   -0.0136   -0.0420   -0.0739   -0.0513   -0.0799   -0.0462    0.0812    0.1034
          24   -0.0160   -0.0044   -0.0710   -0.0114   -0.0064   -0.0022    0.0302    0.0124
          25   -0.0101    0.0758   -0.1139    0.0153   -0.0139   -0.0398    0.0129    0.0255
          26    0.0136   -0.0420    0.0738    0.0513   -0.0799   -0.0454   -0.0815    0.1033
          27   -0.0160    0.0044   -0.0710   -0.0114    0.0064    0.0019    0.0303   -0.0125
          28    0.0028    0.0724   -0.1107   -0.0003   -0.0410   -0.0245    0.0450    0.0202
          29    0.0202    0.0390   -0.0918    0.0522    0.0332    0.0875   -0.1029    0.0153
          30    0.0111    0.0038   -0.0778    0.0171    0.0006    0.0075   -0.0168    0.0051
          31   -0.0029    0.0725    0.1107    0.0003   -0.0411   -0.0240   -0.0452    0.0203
          32   -0.0202    0.0390    0.0918   -0.0521    0.0332    0.0864    0.1036    0.0152
          33    0.0111   -0.0039   -0.0779    0.0171   -0.0006   -0.0073   -0.0168   -0.0051
          34    0.0083   -0.0143   -0.0372    0.1308    0.0090   -0.0720   -0.0669   -0.0194
          35   -0.0038    0.0044    0.0111   -0.0392   -0.0090    0.0750    0.0199    0.0198
          36   -0.0044    0.0007    0.0105   -0.0373    0.0001   -0.0034    0.0167   -0.0021
          37   -0.0000   -0.0459    0.0002   -0.0004   -0.0209    0.2290    0.0012    0.0976
          38    0.0000    0.0121   -0.0001    0.0002    0.0005   -0.0150   -0.0001   -0.0104
          39   -0.0073   -0.0000    0.0120   -0.0465    0.0000   -0.0002    0.0199   -0.0000
          40   -0.0083   -0.0141    0.0370   -0.1301    0.0091   -0.0740    0.0659   -0.0201
          41    0.0037    0.0043   -0.0110    0.0389   -0.0090    0.0756   -0.0191    0.0200
          42   -0.0044   -0.0007    0.0105   -0.0373   -0.0001    0.0033    0.0167    0.0021
          43    0.0000    0.0569    0.0000    0.0000    0.0060   -0.0744   -0.0003    0.2061
          44    0.0000    0.0273    0.0000   -0.0000   -0.0114    0.0036    0.0000   -0.0564
          45    0.1484    0.0001    0.0951    0.2468    0.0000   -0.0008    0.1257   -0.0001
          46    0.0001   -0.0590   -0.0000    0.0000   -0.1775    0.0253    0.0001   -0.1017
          47    0.0001   -0.0236   -0.0000    0.0000   -0.1704    0.0201    0.0001   -0.0828
          48    0.3593    0.0001    0.0001   -0.0636    0.0001    0.0004   -0.0820   -0.0001
          49   -0.0000   -0.0880    0.0000   -0.0000    0.2773   -0.0087   -0.0001    0.0101
          50   -0.0001   -0.0256    0.0000    0.0000   -0.0014    0.0015   -0.0000   -0.0081
          51   -0.3167    0.0000    0.0606    0.0137   -0.0001    0.0005   -0.0986   -0.0001


   Root No.      17        18        19        20        21        22        23        24

                17 A      18 A      19 A      20 A      21 A      22 A      23 A      24 A   

                 997.2    1004.5    1024.5    1072.7    1081.3    1093.7    1189.8    1228.9
  
           1   -0.0000   -0.0016    0.0000   -0.0575    0.0001   -0.0000   -0.0041    0.0472
           2   -0.0001   -0.0499    0.0001   -0.0139   -0.0000    0.0000    0.0011   -0.0247
           3   -0.0024   -0.0001   -0.0229    0.0000    0.0127    0.0477   -0.0000    0.0000
           4   -0.0000   -0.0136    0.0000    0.0579   -0.0001    0.0000    0.0168   -0.0141
           5   -0.0000   -0.0128    0.0000   -0.0121    0.0000   -0.0000   -0.0053    0.0092
           6    0.0044    0.0000    0.0254    0.0001    0.0164   -0.0441   -0.0000   -0.0000
           7   -0.0001   -0.0381    0.0001   -0.0029   -0.0000    0.0000    0.0165   -0.0097
           8   -0.0001   -0.0194    0.0000   -0.0065    0.0000   -0.0000    0.0016    0.0133
           9   -0.0173    0.0000   -0.0253    0.0000    0.0144    0.0003   -0.0000    0.0000
          10    0.0001    0.0193   -0.0000    0.0056   -0.0000   -0.0000   -0.0311    0.0232
          11    0.0000    0.0150   -0.0000    0.0022    0.0000    0.0000   -0.0094   -0.0316
          12    0.0177    0.0001    0.0368   -0.0001   -0.0341   -0.0014    0.0000   -0.0000
          13   -0.0000    0.0001   -0.0000   -0.0043    0.0000   -0.0000   -0.0101   -0.0037
          14    0.0000    0.0041   -0.0000    0.0051   -0.0000   -0.0000    0.0227    0.0159
          15    0.0131   -0.0001   -0.0291   -0.0001   -0.0256   -0.0038    0.0000   -0.0000
          16    0.0001    0.0240   -0.0000    0.0013    0.0000   -0.0000   -0.0464    0.0069
          17    0.0001    0.0518   -0.0001    0.0066    0.0000   -0.0000    0.0050   -0.0032
          18   -0.0169    0.0000   -0.0050    0.0000    0.0171    0.0011    0.0000    0.0000
          19   -0.0000    0.0034   -0.0000    0.0020    0.0000   -0.0000    0.0164   -0.0023
          20    0.0000    0.0091   -0.0000   -0.0089    0.0000   -0.0000   -0.0059   -0.0039
          21   -0.0391    0.0002    0.0274    0.0000    0.0119    0.0004   -0.0000    0.0000
          22   -0.0661    0.0043   -0.0332    0.1639   -0.0940   -0.2292   -0.0324   -0.0624
          23   -0.0498   -0.0037   -0.0977    0.0719   -0.1031   -0.0625   -0.0686    0.0047
          24    0.0068   -0.0022   -0.0181   -0.0016    0.0002    0.0264   -0.0126    0.0170
          25    0.0662    0.0040    0.0331    0.1643    0.0935    0.2293   -0.0324   -0.0624
          26    0.0499   -0.0036    0.0977    0.0724    0.1029    0.0625   -0.0686    0.0047
          27    0.0068    0.0020   -0.0182    0.0015    0.0002    0.0264    0.0126   -0.0170
          28    0.0704    0.0159    0.0112   -0.1643    0.1210   -0.2011   -0.0181   -0.1156
          29   -0.0327   -0.0891    0.0659    0.0726   -0.1156    0.0343    0.0103    0.1357
          30    0.0132   -0.0123    0.0232   -0.0014    0.0029   -0.0274   -0.0009    0.0153
          31   -0.0703    0.0166   -0.0112   -0.1649   -0.1205    0.2011   -0.0180   -0.1156
          32    0.0324   -0.0899   -0.0656    0.0731    0.1153   -0.0342    0.0103    0.1357
          33    0.0132    0.0123    0.0231    0.0014    0.0029   -0.0275    0.0009   -0.0153
          34   -0.0752   -0.1245   -0.1069   -0.0179    0.0587    0.0002    0.0749   -0.0508
          35    0.0219    0.0787    0.0303    0.0107   -0.0162   -0.0001   -0.0332    0.0132
          36    0.0185    0.0070    0.0264    0.0009   -0.0143    0.0004   -0.0151    0.0189
          37    0.0006    0.0936    0.0002    0.0224   -0.0002   -0.0000    0.0450   -0.1194
          38   -0.0001   -0.0027   -0.0002   -0.0038    0.0001   -0.0000    0.0006    0.0056
          39    0.0225   -0.0001    0.0329   -0.0000   -0.0183    0.0003    0.0001   -0.0001
          40    0.0742   -0.1255    0.1068   -0.0183   -0.0584   -0.0001    0.0752   -0.0506
          41   -0.0213    0.0791   -0.0304    0.0108    0.0161    0.0001   -0.0334    0.0132
          42    0.0184   -0.0069    0.0264   -0.0010   -0.0143    0.0004    0.0151   -0.0189
          43    0.0005    0.1648   -0.0003   -0.0028    0.0001   -0.0000    0.3010    0.0659
          44    0.0001    0.0540   -0.0001    0.0075    0.0000   -0.0000    0.0029   -0.0045
          45    0.0725   -0.0002    0.0170   -0.0001   -0.0379    0.0024   -0.0000   -0.0000
          46   -0.0000   -0.0034   -0.0000    0.0207   -0.0000   -0.0000    0.0736   -0.0116
          47   -0.0000   -0.0009   -0.0000    0.0165   -0.0000   -0.0000    0.0679   -0.0135
          48    0.1463   -0.0008   -0.1136   -0.0001   -0.0417    0.0014   -0.0000    0.0000
          49    0.0001    0.0310   -0.0001   -0.0281    0.0000   -0.0000    0.0311   -0.0434
          50    0.0000    0.0043   -0.0000   -0.0026   -0.0000   -0.0000   -0.0053    0.0039
          51    0.1643   -0.0008   -0.0857   -0.0001   -0.0325   -0.0064   -0.0000    0.0000


   Root No.      25        26        27        28        29        30        31        32

                25 A      26 A      27 A      28 A      29 A      30 A      31 A      32 A   

                1262.0    1332.4    1353.4    1382.3    1389.4    1391.6    1402.2    1422.0
  
           1   -0.0288   -0.0133    0.0230    0.0013    0.0001   -0.0119    0.0298   -0.0150
           2    0.0015    0.0093   -0.0187    0.0229   -0.0000    0.0088    0.0312    0.0043
           3    0.0000    0.0000   -0.0000   -0.0000    0.0003    0.0000   -0.0000   -0.0000
           4    0.0552    0.0270    0.0162    0.0127   -0.0000    0.0081   -0.0239    0.0137
           5    0.0329    0.0240    0.0111   -0.0222   -0.0000   -0.0057   -0.0090   -0.0630
           6   -0.0000   -0.0000   -0.0000    0.0000   -0.0000    0.0000    0.0000    0.0000
           7   -0.0012    0.0141   -0.0267    0.0233    0.0001    0.0016    0.0100   -0.0135
           8   -0.0015   -0.0011   -0.0003    0.0052    0.0007   -0.0283   -0.0092   -0.0018
           9    0.0000    0.0000   -0.0001    0.0001   -0.0439   -0.0005   -0.0001    0.0000
          10    0.0091    0.0148   -0.0093   -0.0039   -0.0000    0.0052   -0.0012    0.0083
          11   -0.0020   -0.0101    0.0212   -0.0103    0.0001   -0.0132    0.0048    0.0129
          12   -0.0000   -0.0000    0.0000   -0.0000   -0.0010   -0.0000   -0.0000    0.0000
          13    0.0043   -0.0185    0.0024    0.0125   -0.0000    0.0068   -0.0128   -0.0377
          14    0.0180   -0.0168   -0.0177   -0.0165    0.0001   -0.0117    0.0304    0.0907
          15   -0.0000    0.0000    0.0000    0.0000   -0.0001   -0.0000   -0.0000   -0.0000
          16    0.0156    0.0081    0.0050   -0.0254    0.0001   -0.0133    0.0107    0.0456
          17   -0.0033   -0.0016    0.0026    0.0135   -0.0000    0.0097   -0.0233   -0.0408
          18   -0.0000   -0.0000   -0.0000    0.0000   -0.0003   -0.0000   -0.0000   -0.0000
          19   -0.0054   -0.0289   -0.0083    0.0118   -0.0000    0.0043   -0.0016   -0.0057
          20   -0.0082   -0.0098    0.0000    0.0071   -0.0000    0.0035   -0.0057   -0.0181
          21    0.0000    0.0000    0.0000   -0.0000   -0.0000   -0.0000    0.0000    0.0000
          22   -0.1104   -0.0560   -0.0785   -0.0609   -0.0002   -0.0245    0.0722   -0.0843
          23   -0.1318   -0.0192    0.0362    0.1074   -0.0002    0.0380   -0.0361    0.0840
          24   -0.0178    0.0112    0.0516    0.0965   -0.0000    0.0356   -0.0532    0.1136
          25   -0.1104   -0.0560   -0.0785   -0.0609    0.0003   -0.0245    0.0722   -0.0843
          26   -0.1318   -0.0192    0.0361    0.1074    0.0000    0.0380   -0.0360    0.0839
          27    0.0178   -0.0112   -0.0516   -0.0965    0.0001   -0.0357    0.0533   -0.1136
          28   -0.0196    0.0004   -0.0898   -0.0280    0.0006    0.0287   -0.1114    0.0726
          29   -0.0567   -0.0188   -0.0248   -0.0637   -0.0016    0.0027   -0.1214    0.0053
          30   -0.0260   -0.0091   -0.0497   -0.0560   -0.0006    0.0136   -0.1358    0.0363
          31   -0.0196    0.0004   -0.0898   -0.0280   -0.0009    0.0287   -0.1114    0.0726
          32   -0.0567   -0.0188   -0.0248   -0.0637    0.0015    0.0027   -0.1214    0.0053
          33    0.0260    0.0091    0.0497    0.0560   -0.0004   -0.0136    0.1358   -0.0363
          34   -0.0260   -0.0729    0.0968   -0.0687    0.0668    0.0744   -0.0083    0.0130
          35    0.0083    0.0202   -0.0130   -0.0304   -0.2482    0.1916    0.0502   -0.0003
          36    0.0082    0.0338   -0.0552    0.0604    0.0545   -0.1295   -0.0161   -0.0136
          37   -0.0190   -0.0822    0.1080   -0.0337    0.0022   -0.1645   -0.0554    0.0310
          38   -0.0022   -0.0063    0.0084   -0.0014   -0.0011   -0.0236   -0.0094    0.0011
          39   -0.0000   -0.0002    0.0004   -0.0009    0.4305    0.0037    0.0005   -0.0000
          40   -0.0260   -0.0728    0.0965   -0.0683   -0.0706    0.0728   -0.0085    0.0129
          41    0.0083    0.0203   -0.0131   -0.0309    0.2405    0.1952    0.0507   -0.0004
          42   -0.0082   -0.0339    0.0554   -0.0610    0.0505    0.1320    0.0166    0.0136
          43   -0.0141   -0.0210   -0.0501    0.0326   -0.0001    0.0235    0.0045   -0.0042
          44   -0.0025   -0.0026    0.0035    0.0136   -0.0000    0.0095   -0.0254   -0.0419
          45    0.0000    0.0000    0.0000   -0.0000    0.0008    0.0000    0.0000    0.0000
          46   -0.0789    0.1117    0.0106   -0.0317    0.0001   -0.0140    0.0200    0.0510
          47   -0.0980    0.1699    0.0235   -0.0508    0.0001   -0.0212    0.0241    0.0616
          48    0.0000   -0.0001   -0.0000    0.0000    0.0002    0.0000   -0.0000   -0.0000
          49   -0.1579    0.2101    0.0467   -0.0362    0.0000   -0.0101   -0.0061   -0.0282
          50    0.0178   -0.0531   -0.0108    0.0155   -0.0000    0.0059   -0.0039   -0.0112
          51    0.0000   -0.0000   -0.0000    0.0000   -0.0001    0.0000    0.0000    0.0000


   Root No.      33        34        35        36        37        38        39        40

                33 A      34 A      35 A      36 A      37 A      38 A      39 A      40 A   

                1477.9    1859.2    1910.7    2973.4    2988.4    3055.0    3060.3    3066.8
  
           1    0.0228   -0.0117   -0.0028    0.0000    0.0000   -0.0197   -0.0069   -0.0000
           2   -0.0690   -0.0067   -0.0067    0.0000    0.0000   -0.0242   -0.0093   -0.0000
           3    0.0000    0.0000    0.0000   -0.0349   -0.0264   -0.0000   -0.0000    0.0001
           4    0.0048   -0.0064   -0.0162    0.0000   -0.0000   -0.0079    0.0190    0.0000
           5    0.0062    0.0059   -0.0273    0.0000   -0.0000    0.0093   -0.0244   -0.0000
           6   -0.0000   -0.0000    0.0000    0.0266   -0.0349   -0.0000   -0.0000   -0.0000
           7    0.0840   -0.0548    0.0114    0.0000    0.0000    0.0000    0.0000    0.0000
           8   -0.0370    0.0081   -0.0023    0.0000    0.0000    0.0002   -0.0000    0.0001
           9   -0.0000    0.0000   -0.0000   -0.0001   -0.0001    0.0000    0.0000   -0.0577
          10   -0.0647    0.2376   -0.0412    0.0000    0.0000    0.0000   -0.0004   -0.0000
          11    0.1136    0.1181   -0.0070    0.0000    0.0000   -0.0007   -0.0000   -0.0000
          12   -0.0000   -0.0000    0.0000   -0.0000   -0.0001    0.0000    0.0000   -0.0001
          13   -0.0020    0.0303    0.2481   -0.0000    0.0000    0.0004    0.0000   -0.0000
          14    0.0040    0.0072    0.0857   -0.0000    0.0000    0.0004   -0.0004    0.0000
          15    0.0000   -0.0000   -0.0001    0.0000   -0.0001   -0.0000    0.0000   -0.0001
          16   -0.0178   -0.1938   -0.0170   -0.0000   -0.0000    0.0003   -0.0000    0.0000
          17   -0.0333   -0.1075    0.0237   -0.0000   -0.0000   -0.0003   -0.0005   -0.0000
          18    0.0000    0.0000    0.0000   -0.0001   -0.0002   -0.0000   -0.0000   -0.0002
          19    0.0099   -0.0108   -0.1831    0.0000   -0.0000   -0.0001    0.0000    0.0000
          20    0.0015   -0.0080   -0.0691    0.0000   -0.0000   -0.0000    0.0000   -0.0000
          21   -0.0000    0.0000    0.0001    0.0000   -0.0001    0.0000   -0.0000    0.0000
          22   -0.0343   -0.0011    0.0227   -0.0745    0.1030    0.0436   -0.1160   -0.0000
          23   -0.0093    0.0017    0.0105    0.0972   -0.1274   -0.0563    0.1455   -0.0000
          24    0.0090   -0.0071    0.0019   -0.1604    0.2097    0.1093   -0.2846    0.0000
          25   -0.0344   -0.0011    0.0227    0.0745   -0.1030    0.0436   -0.1160   -0.0000
          26   -0.0093    0.0017    0.0105   -0.0973    0.1275   -0.0564    0.1457    0.0001
          27   -0.0090    0.0071   -0.0019   -0.1603    0.2096   -0.1093    0.2846    0.0001
          28   -0.0211    0.0251   -0.0035   -0.1009   -0.0801    0.1170    0.0457    0.0008
          29    0.0494   -0.0334    0.0024   -0.1272   -0.0960    0.1451    0.0551    0.0004
          30    0.0403   -0.0031    0.0076    0.2107    0.1587   -0.2850   -0.1090   -0.0011
          31   -0.0211    0.0251   -0.0035    0.1008    0.0801    0.1171    0.0457   -0.0007
          32    0.0494   -0.0334    0.0024    0.1272    0.0960    0.1452    0.0551   -0.0003
          33   -0.0403    0.0031   -0.0076    0.2106    0.1586    0.2851    0.1090   -0.0009
          34   -0.0976   -0.0245    0.0028    0.0005    0.0003   -0.0001    0.0001    0.2154
          35    0.0824    0.0001    0.0007    0.0001    0.0001   -0.0003   -0.0001    0.1733
          36    0.0410   -0.0051    0.0027    0.0005    0.0003   -0.0005    0.0001    0.3621
          37   -0.0661    0.0542   -0.0048    0.0000    0.0000    0.0003   -0.0000   -0.0001
          38   -0.0378    0.0179   -0.0034   -0.0000   -0.0000   -0.0028   -0.0002    0.0014
          39    0.0001    0.0000   -0.0000   -0.0001   -0.0001   -0.0000    0.0000   -0.0289
          40   -0.0979   -0.0248    0.0028   -0.0005   -0.0004    0.0000    0.0002   -0.2156
          41    0.0832    0.0001    0.0007   -0.0001   -0.0001   -0.0003   -0.0000   -0.1754
          42   -0.0406    0.0050   -0.0027    0.0005    0.0004    0.0003   -0.0002    0.3591
          43   -0.0526    0.0601    0.0291   -0.0000   -0.0000    0.0004   -0.0001    0.0000
          44   -0.0352   -0.1526    0.0347   -0.0000   -0.0000    0.0077    0.0126    0.0001
          45    0.0000    0.0000   -0.0000   -0.0003   -0.0003   -0.0000   -0.0000    0.0005
          46    0.0007    0.0011   -0.0826    0.0000   -0.0000   -0.0006    0.0007    0.0000
          47   -0.0116    0.0075    0.1219   -0.0000    0.0000    0.0006   -0.0010   -0.0000
          48    0.0000   -0.0000   -0.0000   -0.0003    0.0002    0.0000   -0.0000    0.0000
          49   -0.0157    0.0003    0.0242    0.0000   -0.0000    0.0000    0.0000    0.0000
          50    0.0068   -0.0133   -0.1444    0.0000   -0.0000   -0.0001    0.0006    0.0000
          51    0.0000    0.0000    0.0000    0.0004   -0.0004   -0.0000   -0.0000   -0.0000


   Root No.      41        42        43        44        45

                41 A      42 A      43 A      44 A      45 A   

                3078.2    3121.6    3143.1    3148.0    3165.9
  
           1   -0.0004    0.0011   -0.0001   -0.0000   -0.0001
           2    0.0000    0.0018   -0.0001   -0.0001   -0.0000
           3   -0.0000    0.0000    0.0000    0.0000    0.0000
           4   -0.0000   -0.0010    0.0000   -0.0004   -0.0000
           5    0.0001    0.0015    0.0001   -0.0002    0.0000
           6   -0.0000   -0.0000   -0.0000    0.0000   -0.0000
           7   -0.0147    0.0002   -0.0001   -0.0000    0.0231
           8   -0.0485    0.0010    0.0000   -0.0000   -0.0090
           9   -0.0001    0.0000    0.0000   -0.0000   -0.0000
          10   -0.0004    0.0056   -0.0004   -0.0001    0.0003
          11   -0.0002    0.0031   -0.0002   -0.0001   -0.0000
          12    0.0000   -0.0000   -0.0000   -0.0000   -0.0000
          13   -0.0000   -0.0014    0.0061    0.0005    0.0001
          14    0.0000    0.0001    0.0023    0.0008   -0.0000
          15   -0.0000    0.0000   -0.0000   -0.0000    0.0000
          16    0.0005   -0.0045    0.0003    0.0006   -0.0002
          17   -0.0008   -0.0729    0.0017    0.0002    0.0003
          18    0.0000    0.0000   -0.0000   -0.0000    0.0000
          19    0.0000   -0.0011   -0.0407   -0.0281   -0.0002
          20   -0.0000   -0.0008   -0.0229    0.0588   -0.0001
          21    0.0000    0.0000    0.0000   -0.0000    0.0000
          22    0.0003    0.0034    0.0004   -0.0002    0.0000
          23   -0.0003   -0.0039   -0.0004   -0.0005   -0.0000
          24    0.0007    0.0080    0.0007    0.0005    0.0001
          25    0.0003    0.0034    0.0004   -0.0002    0.0000
          26   -0.0003   -0.0040   -0.0004   -0.0005   -0.0000
          27   -0.0007   -0.0080   -0.0007   -0.0005   -0.0001
          28    0.0004   -0.0044    0.0001    0.0001    0.0005
          29    0.0009   -0.0052    0.0001    0.0001    0.0003
          30   -0.0014    0.0103   -0.0002   -0.0002   -0.0009
          31    0.0004   -0.0044    0.0001    0.0001    0.0005
          32    0.0009   -0.0052    0.0001    0.0001    0.0003
          33    0.0015   -0.0103    0.0002    0.0002    0.0008
          34    0.1072   -0.0044    0.0007    0.0001   -0.1306
          35    0.0684   -0.0029    0.0005    0.0001   -0.1167
          36    0.2097   -0.0078    0.0012    0.0002   -0.2566
          37   -0.0393   -0.0004    0.0001   -0.0000   -0.0142
          38    0.4388   -0.0061   -0.0015   -0.0001    0.3431
          39    0.0015   -0.0000   -0.0000   -0.0000    0.0012
          40    0.1086   -0.0044    0.0007    0.0001   -0.1312
          41    0.0707   -0.0029    0.0005    0.0001   -0.1185
          42   -0.2106    0.0077   -0.0012   -0.0002    0.2556
          43    0.0008    0.0062   -0.0006    0.0007    0.0004
          44    0.0090    0.8116   -0.0175   -0.0009   -0.0042
          45   -0.0000    0.0000   -0.0000   -0.0000   -0.0000
          46    0.0000    0.0126    0.3226    0.4179    0.0011
          47   -0.0000   -0.0095   -0.2551   -0.3030   -0.0009
          48    0.0000   -0.0000   -0.0000   -0.0000   -0.0000
          49    0.0000    0.0041    0.0901   -0.0905    0.0002
          50    0.0002    0.0165    0.5007   -0.4027    0.0014
          51   -0.0000   -0.0000   -0.0001    0.0001   -0.0000


           MASS-WEIGHTED COORDINATE ANALYSIS (NORMAL COORDINATES)


   Root No.       1         2         3         4         5         6         7         8

                 1 A       2 A       3 A       4 A       5 A       6 A       7 A       8 A   

                  90.6     112.2     163.0     282.4     409.7     431.3     517.5     608.7
  
           1    0.0001    0.0000   -0.0000    0.0054   -0.1915    0.0001    0.0001   -0.0616
           2   -0.0002   -0.0000    0.0001   -0.2297    0.2036   -0.0003    0.0000   -0.1408
           3    0.0120    0.3761    0.2518   -0.0000   -0.0000   -0.0227   -0.0512   -0.0000
           4    0.0001    0.0000   -0.0000    0.0619   -0.1874    0.0001    0.0001   -0.1902
           5   -0.0000   -0.0001   -0.0000   -0.1737   -0.2317    0.0002   -0.0001    0.0177
           6    0.1687   -0.3678   -0.1972    0.0000    0.0001   -0.0284   -0.0059    0.0000
           7    0.0000    0.0000    0.0000    0.1780    0.0166    0.0001    0.0001    0.5555
           8    0.0003    0.0001   -0.0001    0.4446   -0.2435    0.0003    0.0000   -0.1308
           9   -0.0615    0.0132   -0.4289   -0.0001   -0.0000   -0.0855    0.0136    0.0001
          10   -0.0001   -0.0000    0.0000   -0.0218    0.1449   -0.0001    0.0000    0.3364
          11   -0.0002   -0.0001    0.0001   -0.2294    0.2675   -0.0003    0.0000   -0.0813
          12    0.0244    0.0057    0.2050   -0.0001    0.0006    0.6715    0.2072   -0.0002
          13   -0.0000   -0.0000    0.0000   -0.0032    0.1281   -0.0002   -0.0000   -0.3240
          14   -0.0000   -0.0000    0.0000   -0.1561   -0.3008    0.0003    0.0001    0.0981
          15    0.0174   -0.1372    0.1227    0.0001   -0.0003   -0.3914    0.5842    0.0000
          16   -0.0001   -0.0001    0.0001   -0.0247    0.3023   -0.0003   -0.0001   -0.0257
          17   -0.0001   -0.0001    0.0001   -0.2472    0.0146   -0.0000    0.0001    0.3354
          18    0.0610   -0.3069    0.4842    0.0001   -0.0002   -0.1006   -0.2530   -0.0001
          19   -0.0001    0.0001   -0.0001   -0.2135   -0.0952    0.0001   -0.0002   -0.3295
          20    0.0001    0.0001   -0.0000    0.3910    0.2900   -0.0002   -0.0001   -0.0618
          21   -0.1920    0.3613   -0.2597   -0.0000    0.0001    0.0984   -0.1096    0.0001
          22   -0.0280    0.1317    0.0817    0.0203   -0.1043   -0.0157    0.0412   -0.0276
          23    0.0388   -0.0936   -0.0883   -0.0472   -0.1048    0.1183   -0.2547    0.0316
          24    0.0849   -0.2239   -0.1479    0.0002    0.0004    0.0708   -0.1772    0.0022
          25    0.0280   -0.1317   -0.0817    0.0203   -0.1042    0.0159   -0.0412   -0.0275
          26   -0.0388    0.0935    0.0882   -0.0472   -0.1050   -0.1180    0.2546    0.0316
          27    0.0850   -0.2240   -0.1479   -0.0002   -0.0002    0.0708   -0.1773   -0.0022
          28   -0.0276    0.1292    0.0784    0.0116   -0.1062   -0.0232   -0.0384   -0.0485
          29   -0.0106    0.1108    0.0451   -0.0732    0.0988   -0.2230   -0.1407   -0.0218
          30   -0.0156    0.2355    0.1370   -0.0000    0.0001   -0.1524   -0.1197   -0.0017
          31    0.0277   -0.1292   -0.0784    0.0116   -0.1062    0.0234    0.0384   -0.0485
          32    0.0104   -0.1109   -0.0451   -0.0733    0.0992    0.2228    0.1407   -0.0220
          33   -0.0156    0.2355    0.1370    0.0000   -0.0004   -0.1524   -0.1197    0.0018
          34    0.1595    0.0413    0.1073   -0.0139    0.0653    0.1974    0.0432    0.1813
          35    0.4455    0.1276   -0.0795    0.2227   -0.1578   -0.0664   -0.0100   -0.0473
          36   -0.3049   -0.0760   -0.1532   -0.0010    0.0007   -0.1147   -0.0176   -0.0061
          37   -0.0004   -0.0001   -0.0005    0.2372   -0.1590   -0.0005   -0.0001    0.1742
          38   -0.0017   -0.0005    0.0003    0.1491   -0.0896    0.0004    0.0001   -0.0375
          39    0.5067    0.1542   -0.2355   -0.0004    0.0001   -0.1371   -0.0148    0.0001
          40   -0.1591   -0.0412   -0.1067   -0.0147    0.0657   -0.1965   -0.0429    0.1812
          41   -0.4430   -0.1269    0.0790    0.2237   -0.1582    0.0664    0.0100   -0.0474
          42   -0.3083   -0.0769   -0.1529    0.0014   -0.0012   -0.1147   -0.0176    0.0060
          43   -0.0000   -0.0000    0.0000   -0.0170    0.1884   -0.0002   -0.0001   -0.0592
          44   -0.0000   -0.0000    0.0000   -0.0703    0.0033   -0.0000    0.0000    0.0970
          45    0.0298   -0.1714    0.2006    0.0001   -0.0003   -0.1684   -0.3808    0.0001
          46   -0.0000    0.0000   -0.0001    0.0423    0.1127   -0.0001   -0.0000   -0.1438
          47    0.0001    0.0001   -0.0000    0.2573    0.2796   -0.0002   -0.0000   -0.0806
          48   -0.0748    0.1761   -0.2220   -0.0001    0.0001    0.1153    0.0390   -0.0001
          49   -0.0001    0.0000   -0.0000   -0.2355   -0.2587    0.0002   -0.0001   -0.0462
          50    0.0000    0.0001   -0.0000    0.1507    0.1352   -0.0001   -0.0001   -0.0301
          51   -0.0904    0.1630   -0.0295    0.0000    0.0001    0.0951   -0.3444    0.0001


   Root No.       9        10        11        12        13        14        15        16

                 9 A      10 A      11 A      12 A      13 A      14 A      15 A      16 A   

                 619.8     633.5     813.3     884.6     918.3     946.7     947.8     990.3
  
           1   -0.0001    0.4257   -0.0000    0.0000   -0.0557    0.1003    0.0005   -0.0236
           2   -0.0000    0.2009   -0.0000    0.0003    0.0363    0.3857    0.0017    0.1717
           3   -0.0180   -0.0000    0.2960   -0.1215    0.0000   -0.0011    0.2383    0.0000
           4   -0.0001    0.3667   -0.0001    0.0001    0.0924   -0.0121   -0.0001   -0.0340
           5    0.0001   -0.2722    0.0000    0.0000   -0.3337   -0.1015   -0.0005    0.4097
           6   -0.0161    0.0000    0.2688    0.1059    0.0001    0.0012   -0.2655   -0.0001
           7    0.0001   -0.1255    0.0001   -0.0000    0.0044    0.0317    0.0001    0.0346
           8   -0.0000    0.0881   -0.0001   -0.0000    0.0211   -0.3448   -0.0017   -0.1447
           9   -0.0063   -0.0001   -0.0620    0.2114    0.0000    0.0007   -0.1495    0.0001
          10    0.0000   -0.0309    0.0001   -0.0002    0.0056   -0.0137    0.0001   -0.0456
          11   -0.0000    0.2223   -0.0000    0.0000    0.0183   -0.1311   -0.0006   -0.0104
          12   -0.0113    0.0000   -0.1468    0.0744   -0.0000   -0.0002    0.0293   -0.0002
          13   -0.0000   -0.2814   -0.0000    0.0001    0.0152    0.0369    0.0002   -0.0661
          14    0.0000   -0.2257    0.0000   -0.0000    0.0781    0.0091    0.0001   -0.1387
          15   -0.1787   -0.0002   -0.2179    0.0917   -0.0000   -0.0009    0.1806   -0.0000
          16    0.0000   -0.0402    0.0000   -0.0002    0.0264   -0.1408   -0.0006    0.2359
          17    0.0000    0.1736    0.0000   -0.0002   -0.0794    0.0288    0.0003   -0.3980
          18    0.1338    0.0001   -0.0331   -0.4493   -0.0000    0.0013   -0.2427    0.0001
          19    0.0001   -0.3832    0.0000    0.0001   -0.0842    0.0725    0.0003   -0.2676
          20    0.0000   -0.1834    0.0000   -0.0000    0.4346   -0.0232   -0.0001    0.0352
          21    0.0042    0.0001   -0.0241    0.0256   -0.0000   -0.0009    0.1879    0.0003
          22    0.0194    0.1361    0.2919   -0.0374   -0.0286   -0.0998   -0.0389    0.0558
          23   -0.0262   -0.0753   -0.1894   -0.1254   -0.1644   -0.1163    0.2379    0.2248
          24   -0.0309   -0.0079   -0.1819   -0.0278   -0.0132   -0.0054    0.0886    0.0270
          25   -0.0195    0.1360   -0.2919    0.0374   -0.0286   -0.1002    0.0379    0.0555
          26    0.0263   -0.0754    0.1893    0.1254   -0.1644   -0.1142   -0.2389    0.2246
          27   -0.0309    0.0079   -0.1821   -0.0278    0.0133    0.0047    0.0887   -0.0271
          28    0.0055    0.1300   -0.2838   -0.0008   -0.0845   -0.0616    0.1319    0.0439
          29    0.0391    0.0700   -0.2354    0.1276    0.0683    0.2201   -0.3016    0.0332
          30    0.0214    0.0069   -0.1995    0.0419    0.0013    0.0188   -0.0492    0.0111
          31   -0.0055    0.1300    0.2838    0.0008   -0.0845   -0.0604   -0.1325    0.0441
          32   -0.0391    0.0700    0.2354   -0.1274    0.0683    0.2173    0.3036    0.0331
          33    0.0214   -0.0069   -0.1996    0.0419   -0.0013   -0.0183   -0.0493   -0.0111
          34    0.0161   -0.0256   -0.0953    0.3198    0.0184   -0.1813   -0.1959   -0.0422
          35   -0.0073    0.0078    0.0285   -0.0958   -0.0185    0.1886    0.0583    0.0431
          36   -0.0086    0.0012    0.0270   -0.0913    0.0002   -0.0085    0.0489   -0.0045
          37   -0.0000   -0.0823    0.0004   -0.0011   -0.0430    0.5762    0.0035    0.2123
          38    0.0000    0.0217   -0.0001    0.0004    0.0009   -0.0378   -0.0004   -0.0227
          39   -0.0141   -0.0000    0.0307   -0.1137    0.0000   -0.0004    0.0583   -0.0001
          40   -0.0160   -0.0252    0.0949   -0.3183    0.0186   -0.1862    0.1931   -0.0436
          41    0.0072    0.0078   -0.0283    0.0952   -0.0186    0.1901   -0.0561    0.0435
          42   -0.0086   -0.0012    0.0270   -0.0913   -0.0002    0.0083    0.0490    0.0045
          43    0.0000    0.1021    0.0000    0.0000    0.0123   -0.1873   -0.0008    0.4482
          44    0.0000    0.0489    0.0000   -0.0001   -0.0234    0.0090    0.0001   -0.1228
          45    0.2870    0.0001    0.2438    0.6036    0.0000   -0.0019    0.3684   -0.0002
          46    0.0001   -0.1058   -0.0000    0.0000   -0.3652    0.0638    0.0002   -0.2212
          47    0.0001   -0.0423   -0.0000    0.0000   -0.3506    0.0504    0.0002   -0.1801
          48    0.6949    0.0002    0.0002   -0.1555    0.0001    0.0011   -0.2401   -0.0002
          49   -0.0001   -0.1579    0.0001   -0.0000    0.5707   -0.0218   -0.0002    0.0219
          50   -0.0001   -0.0459    0.0000    0.0000   -0.0028    0.0037   -0.0000   -0.0175
          51   -0.6125    0.0000    0.1553    0.0335   -0.0001    0.0013   -0.2890   -0.0003


   Root No.      17        18        19        20        21        22        23        24

                17 A      18 A      19 A      20 A      21 A      22 A      23 A      24 A   

                 997.2    1004.5    1024.5    1072.7    1081.3    1093.7    1189.8    1228.9
  
           1   -0.0000   -0.0124    0.0001   -0.4246    0.0008   -0.0001   -0.0324    0.4042
           2   -0.0010   -0.3818    0.0009   -0.1028   -0.0000    0.0001    0.0087   -0.2115
           3   -0.0231   -0.0005   -0.2137    0.0001    0.1170    0.3297   -0.0000    0.0000
           4   -0.0004   -0.1038    0.0001    0.4274   -0.0008    0.0001    0.1341   -0.1208
           5   -0.0000   -0.0983    0.0003   -0.0895    0.0001   -0.0000   -0.0425    0.0788
           6    0.0432    0.0004    0.2369    0.0004    0.1505   -0.3045   -0.0000   -0.0000
           7   -0.0008   -0.2913    0.0007   -0.0212   -0.0002    0.0001    0.1318   -0.0832
           8   -0.0006   -0.1487    0.0002   -0.0483    0.0001   -0.0000    0.0131    0.1136
           9   -0.1697    0.0001   -0.2363    0.0002    0.1323    0.0020   -0.0002    0.0002
          10    0.0005    0.1478   -0.0002    0.0417   -0.0002   -0.0000   -0.2485    0.1985
          11    0.0003    0.1147   -0.0003    0.0165    0.0000    0.0000   -0.0751   -0.2709
          12    0.1735    0.0004    0.3435   -0.0005   -0.3127   -0.0094    0.0001   -0.0001
          13   -0.0000    0.0004   -0.0001   -0.0320    0.0000   -0.0000   -0.0804   -0.0313
          14    0.0000    0.0313   -0.0001    0.0374   -0.0001   -0.0000    0.1816    0.1361
          15    0.1283   -0.0009   -0.2715   -0.0005   -0.2352   -0.0263    0.0000   -0.0000
          16    0.0007    0.1836   -0.0003    0.0094    0.0000   -0.0000   -0.3703    0.0594
          17    0.0010    0.3966   -0.0009    0.0486    0.0001   -0.0001    0.0396   -0.0276
          18   -0.1658    0.0002   -0.0467    0.0003    0.1567    0.0077    0.0000    0.0000
          19   -0.0002    0.0263   -0.0001    0.0148    0.0001   -0.0000    0.1308   -0.0198
          20    0.0002    0.0694   -0.0001   -0.0658    0.0002   -0.0000   -0.0469   -0.0334
          21   -0.3827    0.0016    0.2558    0.0003    0.1092    0.0029   -0.0000    0.0000
          22   -0.1875    0.0096   -0.0900    0.3506   -0.2499   -0.4589   -0.0748   -0.1549
          23   -0.1412   -0.0083   -0.2645    0.1537   -0.2743   -0.1250   -0.1586    0.0117
          24    0.0193   -0.0048   -0.0490   -0.0033    0.0006    0.0528   -0.0292    0.0421
          25    0.1875    0.0089    0.0897    0.3515    0.2486    0.4590   -0.0748   -0.1550
          26    0.1415   -0.0080    0.2645    0.1548    0.2737    0.1251   -0.1587    0.0116
          27    0.0193    0.0045   -0.0491    0.0033    0.0005    0.0528    0.0292   -0.0421
          28    0.1994    0.0352    0.0303   -0.3514    0.3217   -0.4026   -0.0418   -0.2869
          29   -0.0928   -0.1974    0.1785    0.1554   -0.3074    0.0686    0.0239    0.3369
          30    0.0374   -0.0272    0.0627   -0.0030    0.0076   -0.0549   -0.0021    0.0381
          31   -0.1992    0.0368   -0.0304   -0.3527   -0.3204    0.4024   -0.0417   -0.2869
          32    0.0917   -0.1994   -0.1775    0.1565    0.3066   -0.0684    0.0238    0.3368
          33    0.0376    0.0273    0.0626    0.0030    0.0076   -0.0549    0.0021   -0.0381
          34   -0.2132   -0.2760   -0.2893   -0.0383    0.1560    0.0004    0.1731   -0.1260
          35    0.0620    0.1744    0.0820    0.0228   -0.0431   -0.0002   -0.0768    0.0327
          36    0.0523    0.0155    0.0714    0.0020   -0.0381    0.0008   -0.0350    0.0469
          37    0.0016    0.2076    0.0007    0.0479   -0.0005   -0.0001    0.1041   -0.2965
          38   -0.0003   -0.0059   -0.0004   -0.0080    0.0003   -0.0000    0.0013    0.0140
          39    0.0638   -0.0003    0.0890   -0.0000   -0.0487    0.0005    0.0003   -0.0003
          40    0.2104   -0.2783    0.2890   -0.0391   -0.1553   -0.0003    0.1738   -0.1256
          41   -0.0604    0.1753   -0.0822    0.0231    0.0428    0.0001   -0.0773    0.0329
          42    0.0522   -0.0154    0.0715   -0.0021   -0.0381    0.0008    0.0350   -0.0469
          43    0.0014    0.3653   -0.0009   -0.0060    0.0003   -0.0001    0.6961    0.1636
          44    0.0003    0.1196   -0.0003    0.0160    0.0000   -0.0000    0.0067   -0.0111
          45    0.2055   -0.0005    0.0459   -0.0002   -0.1008    0.0049   -0.0001   -0.0000
          46   -0.0001   -0.0076   -0.0001    0.0443   -0.0001   -0.0000    0.1702   -0.0287
          47   -0.0001   -0.0021   -0.0001    0.0354   -0.0000   -0.0000    0.1569   -0.0336
          48    0.4148   -0.0019   -0.3074   -0.0003   -0.1110    0.0028   -0.0001    0.0000
          49    0.0003    0.0687   -0.0002   -0.0602    0.0001   -0.0000    0.0718   -0.1078
          50    0.0001    0.0095   -0.0001   -0.0057   -0.0000   -0.0000   -0.0122    0.0096
          51    0.4658   -0.0018   -0.2320   -0.0002   -0.0864   -0.0128   -0.0000    0.0000


[...]
 FREQUENCY          1353.41         C  3 -- H 13         +11.1% ( 37.7%)      0.2%
 TRANSITION DIPOLE   0.0219         C  3 -- H 12         +10.4% ( 36.5%)      4.2%
 TRAVEL (Ang.)       0.4209         C  3 -- H 14         +10.4% ( 36.5%)      4.2%
 REDUCED MASS        0.2813         C  1 -- C  4          +9.9% ( 35.6%)     83.1%
 EFFECTIVE MASS      3.6787
 FORCE CONSTANT      0.3036

 VIBRATION         28   28A           ATOM PAIR      ENERGY CONTRIBUTION    RADIAL
 FREQUENCY          1382.31         C  2 -- H  8         +13.2% ( 41.5%)      4.3%
 TRANSITION DIPOLE   0.0079         C  2 -- H  9         +13.2% ( 41.5%)      4.3%
 TRAVEL (Ang.)       0.4142         C  5 -- C  6          +9.5% ( 35.3%)     99.2%
 REDUCED MASS        0.2843         C  3 -- H 14          +6.6% ( 29.3%)      5.2%
 EFFECTIVE MASS      4.0821
 FORCE CONSTANT      0.3201

 VIBRATION         29   29A           ATOM PAIR      ENERGY CONTRIBUTION    RADIAL
 FREQUENCY          1389.39         C  3 -- H 13         +54.5% ( 63.9%)      0.0%
 TRANSITION DIPOLE   0.0738         C  3 -- H 12         +20.7% ( 39.4%)     11.0%
 TRAVEL (Ang.)       0.3374         C  3 -- H 14         +19.6% ( 38.3%)     12.1%
 REDUCED MASS        0.4262         C  3 -- C  4          +5.2% ( 19.7%)      0.0%
 EFFECTIVE MASS      1.5740
 FORCE CONSTANT      0.4848

 VIBRATION         30   30A           ATOM PAIR      ENERGY CONTRIBUTION    RADIAL
 FREQUENCY          1391.62         C  3 -- H 14         +29.9% ( 50.6%)      0.8%
 TRANSITION DIPOLE   0.0779         C  3 -- H 12         +29.0% ( 49.9%)      0.9%
 TRAVEL (Ang.)       0.4047         C  3 -- H 13         +13.6% ( 34.1%)     23.4%
 REDUCED MASS        0.2958         C  3 -- C  4          +4.1% ( 18.8%)      0.3%
 EFFECTIVE MASS      2.1519
 FORCE CONSTANT      0.3375

 VIBRATION         31   31A           ATOM PAIR      ENERGY CONTRIBUTION    RADIAL
 FREQUENCY          1402.19         C  1 -- H 10         +21.0% ( 52.0%)      5.4%
 TRANSITION DIPOLE   0.0496         C  1 -- H 11         +21.0% ( 52.0%)      5.4%
 TRAVEL (Ang.)       0.3246         C  1 -- C  2         +10.6% ( 37.0%)     64.1%
 REDUCED MASS        0.4563         C  5 -- C  6          +9.2% ( 34.4%)     69.9%
 EFFECTIVE MASS      4.2675
 FORCE CONSTANT      0.5286

 VIBRATION         32   32A           ATOM PAIR      ENERGY CONTRIBUTION    RADIAL
 FREQUENCY          1421.99         C  5 -- C  6         +24.6% ( 70.1%)     82.7%
 TRANSITION DIPOLE   0.1575         C  2 -- C  5         +23.1% ( 67.9%)     69.3%
 TRAVEL (Ang.)       0.1408         C  5 -- C  7         +13.0% ( 51.0%)      0.6%
 REDUCED MASS        2.3911         C  2 -- H  8          +8.5% ( 41.1%)      8.3%
 EFFECTIVE MASS      9.1816
 FORCE CONSTANT      2.8487

 VIBRATION         33   33A           ATOM PAIR      ENERGY CONTRIBUTION    RADIAL
 FREQUENCY          1477.87         C  3 -- C  4         +25.9% ( 77.1%)     76.8%
 TRANSITION DIPOLE   0.1218         C  1 -- C  4         +22.1% ( 71.3%)     96.4%
 TRAVEL (Ang.)       0.1158         C  4 -- C  6         +15.8% ( 60.2%)     10.2%
 REDUCED MASS        3.4000         C  3 -- H 14          +7.7% ( 42.1%)      3.0%
 EFFECTIVE MASS     10.5351
 FORCE CONSTANT      4.3752

 VIBRATION         34   34A           ATOM PAIR      ENERGY CONTRIBUTION    RADIAL
 FREQUENCY          1859.21         C  4 -- C  6         +42.7% ( 97.1%)     97.7%
 TRANSITION DIPOLE   0.7625         C  3 -- C  4         +18.0% ( 63.1%)     63.5%
 TRAVEL (Ang.)       0.0812         C  1 -- C  4         +16.1% ( 59.7%)      4.2%
 REDUCED MASS        5.5000         C  5 -- C  6         +11.0% ( 49.3%)     24.7%
 EFFECTIVE MASS     11.8809         C  6 -- H 15         +10.0% ( 47.1%)      8.8%
 FORCE CONSTANT     11.2015

 VIBRATION         35   35A           ATOM PAIR      ENERGY CONTRIBUTION    RADIAL
 FREQUENCY          1910.67         C  5 -- C  7         +43.5% ( 97.9%)    100.0%
 TRANSITION DIPOLE   0.4158         C  2 -- C  5         +18.7% ( 64.2%)     38.4%
 TRAVEL (Ang.)       0.0790         C  5 -- C  6         +18.7% ( 64.1%)     47.8%
 REDUCED MASS        5.6571         C  7 -- H 17          +8.6% ( 43.4%)     11.3%
 EFFECTIVE MASS     11.9023
 FORCE CONSTANT     12.1678

 VIBRATION         36   36A           ATOM PAIR      ENERGY CONTRIBUTION    RADIAL
 FREQUENCY          2973.35         C  1 -- H 10         +30.9% ( 57.9%)     96.5%
 TRANSITION DIPOLE   0.0018         C  1 -- H 11         +30.9% ( 57.9%)     96.5%
 TRAVEL (Ang.)       0.2855         C  2 -- H  8         +17.9% ( 44.0%)     96.4%
 REDUCED MASS        0.2782         C  2 -- H  9         +17.9% ( 44.0%)     96.4%
 EFFECTIVE MASS      1.5535
 FORCE CONSTANT      1.4492

 VIBRATION         37   37A           ATOM PAIR      ENERGY CONTRIBUTION    RADIAL
 FREQUENCY          2988.42         C  2 -- H  8         +31.1% ( 57.7%)     96.7%
 TRANSITION DIPOLE   0.0726         C  2 -- H  9         +31.1% ( 57.7%)     96.7%
 TRAVEL (Ang.)       0.2850         C  1 -- H 10         +17.9% ( 43.7%)     96.8%
 REDUCED MASS        0.2778         C  1 -- H 11         +17.9% ( 43.7%)     96.8%
 EFFECTIVE MASS      1.5279
 FORCE CONSTANT      1.4617

 VIBRATION         38   38A           ATOM PAIR      ENERGY CONTRIBUTION    RADIAL
 FREQUENCY          3055.02         C  1 -- H 11         +43.0% ( 64.7%)     97.5%
 TRANSITION DIPOLE   0.0730         C  1 -- H 10         +42.9% ( 64.7%)     97.5%
 TRAVEL (Ang.)       0.2423         C  2 -- H  9          +6.3% ( 24.8%)     97.5%
 REDUCED MASS        0.3758         C  2 -- H  8          +6.3% ( 24.8%)     97.5%
 EFFECTIVE MASS      1.2838
 FORCE CONSTANT      2.0668

 VIBRATION         39   39A           ATOM PAIR      ENERGY CONTRIBUTION    RADIAL
 FREQUENCY          3060.32         C  2 -- H  9         +43.0% ( 64.7%)     97.6%
 TRANSITION DIPOLE   0.1173         C  2 -- H  8         +43.0% ( 64.6%)     97.6%
 TRAVEL (Ang.)       0.2422         C  1 -- H 11          +6.3% ( 24.7%)     97.7%
 REDUCED MASS        0.3757         C  1 -- H 10          +6.3% ( 24.7%)     97.6%
 EFFECTIVE MASS      1.2804
 FORCE CONSTANT      2.0730

 VIBRATION         40   40A           ATOM PAIR      ENERGY CONTRIBUTION    RADIAL
 FREQUENCY          3066.81         C  3 -- H 12         +49.2% ( 72.4%)     97.0%
 TRANSITION DIPOLE   0.0357         C  3 -- H 14         +48.9% ( 72.1%)     97.0%
 TRAVEL (Ang.)       0.2077         C  3 -- C  4          +1.0% ( 10.2%)      0.0%
 REDUCED MASS        0.5098         C  3 -- H 13          +0.9% (  9.9%)      0.0%
 EFFECTIVE MASS      1.5032
 FORCE CONSTANT      2.8249

 VIBRATION         41   41A           ATOM PAIR      ENERGY CONTRIBUTION    RADIAL
 FREQUENCY          3078.20         C  3 -- H 13         +60.7% ( 80.4%)     98.7%
 TRANSITION DIPOLE   0.0496         C  3 -- H 14         +19.3% ( 45.3%)     86.1%
 TRAVEL (Ang.)       0.2152         C  3 -- H 12         +19.0% ( 44.9%)     85.8%
 REDUCED MASS        0.4729         C  3 -- C  4          +1.0% ( 10.5%)      0.0%
 EFFECTIVE MASS      1.5133
 FORCE CONSTANT      2.6403

 VIBRATION         42   42A           ATOM PAIR      ENERGY CONTRIBUTION    RADIAL
 FREQUENCY          3121.57         C  6 -- H 15         +96.3% ( 99.8%)    100.0%
 TRANSITION DIPOLE   0.3642         C  4 -- C  6          +1.8% ( 13.8%)     48.2%
 TRAVEL (Ang.)       0.1527         C  5 -- C  6          +1.7% ( 13.2%)     25.9%
 REDUCED MASS        0.9265
 EFFECTIVE MASS      1.5621
 FORCE CONSTANT      5.3192

 VIBRATION         43   43A           ATOM PAIR      ENERGY CONTRIBUTION    RADIAL
 FREQUENCY          3143.08         C  7 -- H 17         +59.8% ( 77.3%)     96.9%
 TRANSITION DIPOLE   0.3680         C  7 -- H 16         +38.6% ( 62.1%)     92.7%
 TRAVEL (Ang.)       0.2061         C  5 -- C  7          +1.5% ( 12.3%)     98.4%
 REDUCED MASS        0.5050
 EFFECTIVE MASS      1.3873
 FORCE CONSTANT      2.9395

 VIBRATION         44   44A           ATOM PAIR      ENERGY CONTRIBUTION    RADIAL
 FREQUENCY          3148.05         C  7 -- H 16         +59.4% ( 79.0%)     98.1%
 TRANSITION DIPOLE   0.1984         C  7 -- H 17         +39.3% ( 64.2%)     95.6%
 TRAVEL (Ang.)       0.1967         C  5 -- C  7          +1.3% ( 11.7%)      0.9%
 REDUCED MASS        0.5537
 EFFECTIVE MASS      1.6038
 FORCE CONSTANT      3.2330

 VIBRATION         45   45A           ATOM PAIR      ENERGY CONTRIBUTION    RADIAL
 FREQUENCY          3165.86         C  3 -- H 13         +38.2% ( 59.6%)     97.7%
 TRANSITION DIPOLE   0.0722         C  3 -- H 14         +30.7% ( 53.4%)     96.7%
 TRAVEL (Ang.)       0.2540         C  3 -- H 12         +30.7% ( 53.4%)     96.6%
 REDUCED MASS        0.3300         C  3 -- C  4          +0.3% (  5.5%)     99.2%
 EFFECTIVE MASS      1.1397
 FORCE CONSTANT      1.9488

      SYMMETRY NUMBER FOR POINT-GROUP C1  =  1


          SYSTEM IS A GROUND STATE



 InChI=1S/C7H10/c1-6-3-4-7(2)5-6/h5H,1,3-4H2,2H3


          MOLECULE IS NOT LINEAR

          THERE ARE 45 GENUINE VIBRATIONS IN THIS SYSTEM
          THIS THERMODYNAMICS CALCULATION IS LIMITED TO
          MOLECULES WHICH HAVE NO INTERNAL ROTATIONS




                    CALCULATED THERMODYNAMIC PROPERTIES
                                          *
   TEMP. (K)   PARTITION FUNCTION   H.O.F.    ENTHALPY  HEAT CAPACITY ENTROPY
                                   KCAL/MOL   CAL/MOLE    CAL/K/MOL  CAL/K/MOL


 298.00  VIB.     0.3203D+02                  2741.4265    20.8603    16.0881
         ROT.     0.2052D+06                   888.2803     2.9808    27.2876
         INT.     0.6571D+07                  3629.7068    23.8411    43.3757
         TRA.     0.8833D+27                  1480.4672     4.9680    39.5363
         TOT.                       13.611    5110.1740    28.8091    82.9120

 200.00  VIB.     0.7468D+01                  1128.5756    12.3033     9.6385
         ROT.     0.1128D+06                   596.1613     2.9808    26.0989
         INT.     0.8425D+06                  1724.7369    15.2841    35.7374
         TRA.     0.4856D+27                   993.6021     4.9680    37.5551
         TOT.                       11.219    2718.3390    20.2521    73.2926

 210.00  VIB.     0.8613D+01                  1255.5477    13.0952    10.2579
         ROT.     0.1214D+06                   625.9693     2.9808    26.2444
         INT.     0.1045D+07                  1881.5171    16.0760    36.5022
         TRA.     0.5225D+27                  1043.2822     4.9680    37.7975
         TOT.                       11.426    2924.7993    21.0441    74.2998

 220.00  VIB.     0.9947D+01                  1390.5597    13.9110    10.8858
         ROT.     0.1302D+06                   655.7774     2.9808    26.3830
         INT.     0.1295D+07                  2046.3371    16.8918    37.2688
         TRA.     0.5603D+27                  1092.9623     4.9680    38.0286
         TOT.                       11.640    3139.2994    21.8598    75.2975

 230.00  VIB.     0.1150D+02                  1533.8417    14.7490    11.5226
         ROT.     0.1391D+06                   685.5855     2.9808    26.5155
         INT.     0.1600D+07                  2219.4272    17.7298    38.0381
         TRA.     0.5989D+27                  1142.6424     4.9680    38.2495
         TOT.                       11.863    3362.0696    22.6978    76.2876

 240.00  VIB.     0.1332D+02                  1685.6063    15.6072    12.1683
         ROT.     0.1483D+06                   715.3935     2.9808    26.6424
         INT.     0.1975D+07                  2400.9999    18.5880    38.8107
         TRA.     0.6384D+27                  1192.3226     4.9680    38.4609
         TOT.                       12.094    3593.3224    23.5560    77.2717

 250.00  VIB.     0.1544D+02                  1846.0448    16.4833    12.8232
         ROT.     0.1577D+06                   745.2016     2.9808    26.7641
         INT.     0.2434D+07                  2591.2464    19.4641    39.5872
         TRA.     0.6787D+27                  1242.0027     4.9680    38.6637
         TOT.                       12.334    3833.2491    24.4322    78.2510

 260.00  VIB.     0.1793D+02                  2015.3250    17.3751    13.4870
         ROT.     0.1672D+06                   775.0097     2.9808    26.8810
         INT.     0.2998D+07                  2790.3347    20.3559    40.3680
         TRA.     0.7198D+27                  1291.6828     4.9680    38.8586
         TOT.                       12.583    4082.0174    25.3239    79.2265

 270.00  VIB.     0.2084D+02                  2193.5898    18.2798    14.1596
         ROT.     0.1770D+06                   804.8177     2.9808    26.9935
         INT.     0.3688D+07                  2998.4075    21.2606    41.1531
         TRA.     0.7618D+27                  1341.3629     4.9680    39.0461
         TOT.                       12.841    4339.7704    26.2286    80.1992

 280.00  VIB.     0.2427D+02                  2380.9562    19.1950    14.8409
         ROT.     0.1869D+06                   834.6258     2.9808    27.1019
         INT.     0.4535D+07                  3215.5820    22.1758    41.9428
         TRA.     0.8045D+27                  1391.0430     4.9680    39.2267
         TOT.                       13.108    4606.6250    27.1438    81.1696

 290.00  VIB.     0.2830D+02                  2577.5154    20.1180    15.5306
         ROT.     0.1970D+06                   864.4339     2.9808    27.2065
         INT.     0.5574D+07                  3441.9493    23.0988    42.7371
         TRA.     0.8479D+27                  1440.7231     4.9680    39.4011
         TOT.                       13.384    4882.6724    28.0668    82.1382

 300.00  VIB.     0.3304D+02                  2783.3330    21.0462    16.2283
         ROT.     0.2073D+06                   894.2419     2.9808    27.3075
         INT.     0.6847D+07                  3677.5749    24.0270    43.5358
         TRA.     0.8922D+27                  1490.4032     4.9680    39.5695
         TOT.                       13.669    5167.9781    28.9951    83.1053

 310.00  VIB.     0.3863D+02                  2998.4498    21.9774    16.9336
         ROT.     0.2177D+06                   924.0500     2.9808    27.4053
         INT.     0.8409D+07                  3922.4998    24.9582    44.3388
         TRA.     0.9372D+27                  1540.0833     4.9680    39.7324
         TOT.                       13.964    5462.5831    29.9262    84.0712

 320.00  VIB.     0.4522D+02                  3222.8836    22.9093    17.6460
         ROT.     0.2283D+06                   953.8580     2.9808    27.4999
         INT.     0.1033D+08                  4176.7417    25.8901    45.1459
         TRA.     0.9829D+27                  1589.7634     4.9680    39.8901
         TOT.                       14.267    5766.5051    30.8581    85.0361

 330.00  VIB.     0.5302D+02                  3456.6300    23.8396    18.3652
         ROT.     0.2391D+06                   983.6661     2.9808    27.5916
         INT.     0.1268D+08                  4440.2962    26.8204    45.9569
         TRA.     0.1029D+28                  1639.4435     4.9680    40.0430
         TOT.                       14.581    6079.7397    31.7884    85.9999

 340.00  VIB.     0.6225D+02                  3699.6645    24.7666    19.0907
         ROT.     0.2501D+06                  1013.4742     2.9808    27.6806
         INT.     0.1556D+08                  4713.1387    27.7474    46.7713
         TRA.     0.1076D+28                  1689.1236     4.9680    40.1913
         TOT.                       14.903    6402.2623    32.7154    86.9626

 350.00  VIB.     0.7317D+02                  3951.9441    25.6884    19.8219
         ROT.     0.2612D+06                  1043.2822     2.9808    27.7670
         INT.     0.1911D+08                  4995.2263    28.6692    47.5890
         TRA.     0.1124D+28                  1738.8037     4.9680    40.3353
         TOT.                       15.235    6734.0300    33.6372    87.9243

 360.00  VIB.     0.8612D+02                  4213.4091    26.6034    20.5584
         ROT.     0.2724D+06                  1073.0903     2.9808    27.8510
         INT.     0.2346D+08                  5286.4994    29.5842    48.4094
         TRA.     0.1173D+28                  1788.4838     4.9680    40.4753
         TOT.                       15.576    7074.9832    34.5522    88.8847

 370.00  VIB.     0.1015D+03                  4483.9852    27.5103    21.2997
         ROT.     0.2839D+06                  1102.8984     2.9808    27.9327
         INT.     0.2881D+08                  5586.8835    30.4912    49.2324
         TRA.     0.1222D+28                  1838.1639     4.9680    40.6114
         TOT.                       15.926    7425.0475    35.4592    89.8438

 380.00  VIB.     0.1197D+03                  4763.5849    28.4080    22.0453
         ROT.     0.2955D+06                  1132.7064     2.9808    28.0122
         INT.     0.3538D+08                  5896.2913    31.3888    50.0575
         TRA.     0.1272D+28                  1887.8440     4.9680    40.7439
         TOT.                       16.285    7784.1354    36.3568    90.8014

 390.00  VIB.     0.1415D+03                  5052.1096    29.2952    22.7947
         ROT.     0.3072D+06                  1162.5145     2.9808    28.0896
         INT.     0.4345D+08                  6214.6241    32.2760    50.8843
         TRA.     0.1322D+28                  1937.5242     4.9680    40.8729
         TOT.                       16.653    8152.1483    37.2440    91.7573

 400.00  VIB.     0.1673D+03                  5349.4511    30.1712    23.5475
         ROT.     0.3191D+06                  1192.3226     2.9808    28.1651
         INT.     0.5338D+08                  6541.7736    33.1520    51.7125
         TRA.     0.1374D+28                  1987.2043     4.9680    40.9987
         TOT.                       17.030    8528.9779    38.1200    92.7113

   *: NOTE: HEATS OF FORMATION ARE RELATIVE TO THE
            ELEMENTS IN THEIR STANDARD STATE AT 298K
              (=  Standard Enthalpy of Formation).

            Hvib:  Zero-point energy is not included.
                   frequencies of less than zero cm-1 are not included.
            Hrot = (3/2)RT
            Htra = (3/2)RT + pV = (5/2)RT

            Heat capacity is Cp, not Cv

          For more information, see: HTTP://OpenMOPAC.net/Manual/thermochemistry.html


           FORCE CONSTANT IN CARTESIAN COORDINATES (Millidynes/A)

    ATOM   CHEMICAL       X               Y               Z
   NUMBER   SYMBOL  FORCE CONSTANT  FORCE CONSTANT  FORCE CONSTANT

      1       C        7.923524        9.086908        8.095197
      2       C        7.954027        9.004356        8.141146
      3       C        9.164182        8.554503        7.949236
      4       C       15.042992       10.463585        2.717509
      5       C       16.267709        9.624133        2.543909
      6       C       12.269162       13.364544        2.148277
      7       C       14.581355        9.929714        1.906107
      8       H        1.275491        1.563085        3.569562
      9       H        1.275771        1.564517        3.567930
     10       H        1.288028        1.544489        3.558964
     11       H        1.288106        1.544729        3.558612
     12       H        1.606055        1.257176        3.767121
     13       H        0.738243        5.344435        0.652033
     14       H        1.614022        1.276710        3.740403
     15       H        0.708125        5.345269        0.343993
     16       H        3.733479        2.378191        0.323760
     17       H        0.858791        5.255998        0.327395

 **********************
 *                    *
 * JOB ENDED NORMALLY *
 *                    *
 **********************



 TOTAL JOB TIME:             2.71 SECONDS

 == MOPAC DONE ==
