 *******************************************************************************
 **                                                                           **
 **                              MOPAC v23.1.2                                **
 **                                                                           **
 *******************************************************************************
 **          Digital Object Identifier (DOI): 10.5281/zenodo.6511958          **
 **    Visit the DOI location for information on how to cite this program.    **
 *******************************************************************************

                              PM3 CALCULATION RESULTS

 *******************************************************************************
 *  CALCULATION DONE: (MAX THREADS = 1)              Tue Jun  3 16:30:16 2025  *
 *  PM3        - The PM3 Hamiltonian to be used
 *  PRECISE    - TIGHTER CRITERIA TO BE USED
 *  NOSYM      - POINT-GROUP SYMMETRY SET TO C1
 *  THREADS=1  - MULTI-THREADING NOT USED
 *  T=         - A TIME OF 172800.0 SECONDS REQUESTED
 *  DUMP=N     - RESTART FILE WRITTEN EVERY 7200.0 SECONDS REQUESTED
 *******************************************************************************
pm3  precise nosym THREADS=1
 InChI=1S/C9H12/c1-2-5-9-7-3-6-8(9)4-1/h1-2,4,9H,3,5-7H2

   ATOM   CHEMICAL          X               Y               Z
  NUMBER   SYMBOL      (ANGSTROMS)     (ANGSTROMS)     (ANGSTROMS)

     1       C          0.02030000  *  -0.66860000  *  -0.41580000  *
     2       C         -1.27350000  *  -1.24240000  *   0.15710000  *
     3       C         -2.29930000  *  -0.10420000  *   0.07350000  *
     4       C         -1.51080000  *   1.20630000  *   0.12070000  *
     5       C          1.30990000  *  -1.20360000  *   0.23950000  *
     6       C         -0.11910000  *   0.79550000  *  -0.18520000  *
     7       C          2.47610000  *  -0.30210000  *  -0.09780000  *
     8       C          0.94430000  *   1.60650000  *  -0.14760000  *
     9       C          2.29930000  *   1.02180000  *  -0.23210000  *
    10       H          0.06070000  *  -0.84990000  *  -1.51340000  *
    11       H         -3.03240000  *  -0.16360000  *   0.90700000  *
    12       H         -2.84610000  *  -0.17280000  *  -0.89290000  *
    13       H         -1.14120000  *  -1.53100000  *   1.22340000  *
    14       H         -1.60950000  *  -2.13120000  *  -0.41960000  *
    15       H         -1.55750000  *   1.65100000  *   1.13840000  *
    16       H         -1.88570000  *   1.93020000  *  -0.63440000  *
    17       H          1.51560000  *  -2.23520000  *  -0.11700000  *
    18       H          1.20070000  *  -1.22700000  *   1.34560000  *
    19       H          3.47250000  *  -0.72050000  *  -0.16230000  *
    20       H          3.15260000  *   1.66870000  *  -0.38920000  *
    21       H          0.82320000  *   2.67190000  *   0.00220000  *



          CARTESIAN COORDINATES 

    NO.       ATOM           X           Y           Z

     1         C          0.0203     -0.6686     -0.4158
     2         C         -1.2735     -1.2424      0.1571
     3         C         -2.2993     -0.1042      0.0735
     4         C         -1.5108      1.2063      0.1207
     5         C          1.3099     -1.2036      0.2395
     6         C         -0.1191      0.7955     -0.1852
     7         C          2.4761     -0.3021     -0.0978
     8         C          0.9443      1.6065     -0.1476
     9         C          2.2993      1.0218     -0.2321
    10         H          0.0607     -0.8499     -1.5134
    11         H         -3.0324     -0.1636      0.9070
    12         H         -2.8461     -0.1728     -0.8929
    13         H         -1.1412     -1.5310      1.2234
    14         H         -1.6095     -2.1312     -0.4196
    15         H         -1.5575      1.6510      1.1384
    16         H         -1.8857      1.9302     -0.6344
    17         H          1.5156     -2.2352     -0.1170
    18         H          1.2007     -1.2270      1.3456
    19         H          3.4725     -0.7205     -0.1623
    20         H          3.1526      1.6687     -0.3892
    21         H          0.8232      2.6719      0.0022

  H: (PM3): J. J. P. STEWART, J. COMP. CHEM. 10, 209 (1989).
  C: (PM3): J. J. P. STEWART, J. COMP. CHEM. 10, 209 (1989).

           Empirical Formula: C9 H12  =    21 atoms



      MOLECULAR POINT GROUP   :   C1  


      RHF CALCULATION, NO. OF DOUBLY OCCUPIED LEVELS = 24


          Geometry optimization using EF

          DIAGONAL MATRIX USED AS START HESSIAN

 CYCLE:     1 TIME:   0.008 TIME LEFT:  2.00D  GRAD.:    63.544 HEAT:  13.29059
 CYCLE:     2 TIME:   0.012 TIME LEFT:  2.00D  GRAD.:    82.107 HEAT:  13.06010
 CYCLE:     3 TIME:   0.008 TIME LEFT:  2.00D  GRAD.:    41.382 HEAT:  11.70308
 CYCLE:     4 TIME:   0.012 TIME LEFT:  2.00D  GRAD.:    34.536 HEAT:  11.45863
 CYCLE:     5 TIME:   0.008 TIME LEFT:  2.00D  GRAD.:    26.554 HEAT:  11.24276
 CYCLE:     6 TIME:   0.012 TIME LEFT:  2.00D  GRAD.:    23.696 HEAT:  11.09232
 CYCLE:     7 TIME:   0.008 TIME LEFT:  2.00D  GRAD.:    22.458 HEAT:  11.00286
 CYCLE:     8 TIME:   0.008 TIME LEFT:  2.00D  GRAD.:    20.414 HEAT:  10.93173
 CYCLE:     9 TIME:   0.008 TIME LEFT:  2.00D  GRAD.:    12.719 HEAT:  10.82906
 CYCLE:    10 TIME:   0.008 TIME LEFT:  2.00D  GRAD.:    11.159 HEAT:  10.77446
 CYCLE:    11 TIME:   0.012 TIME LEFT:  2.00D  GRAD.:     8.452 HEAT:  10.74077
 CYCLE:    12 TIME:   0.008 TIME LEFT:  2.00D  GRAD.:     9.335 HEAT:  10.70591
 CYCLE:    13 TIME:   0.008 TIME LEFT:  2.00D  GRAD.:    11.897 HEAT:  10.68134
 CYCLE:    14 TIME:   0.008 TIME LEFT:  2.00D  GRAD.:    14.808 HEAT:  10.66825
 CYCLE:    15 TIME:   0.008 TIME LEFT:  2.00D  GRAD.:     7.845 HEAT:  10.62019
 CYCLE:    16 TIME:   0.012 TIME LEFT:  2.00D  GRAD.:     5.767 HEAT:  10.60421
 CYCLE:    17 TIME:   0.008 TIME LEFT:  2.00D  GRAD.:     3.665 HEAT:  10.58686
 CYCLE:    18 TIME:   0.004 TIME LEFT:  2.00D  GRAD.:     4.742 HEAT:  10.56781
 CYCLE:    19 TIME:   0.008 TIME LEFT:  2.00D  GRAD.:     7.631 HEAT:  10.54910
 CYCLE:    20 TIME:   0.008 TIME LEFT:  2.00D  GRAD.:     6.290 HEAT:  10.53096
 CYCLE:    21 TIME:   0.008 TIME LEFT:  2.00D  GRAD.:     7.086 HEAT:  10.52556
 CYCLE:    22 TIME:   0.008 TIME LEFT:  2.00D  GRAD.:     2.598 HEAT:  10.50932
 CYCLE:    23 TIME:   0.008 TIME LEFT:  2.00D  GRAD.:     3.710 HEAT:  10.50309
 CYCLE:    24 TIME:   0.012 TIME LEFT:  2.00D  GRAD.:     3.468 HEAT:  10.49233
 CYCLE:    25 TIME:   0.004 TIME LEFT:  2.00D  GRAD.:     3.537 HEAT:  10.48223
 CYCLE:    26 TIME:   0.008 TIME LEFT:  2.00D  GRAD.:     3.333 HEAT:  10.47520
 CYCLE:    27 TIME:   0.008 TIME LEFT:  2.00D  GRAD.:     3.033 HEAT:  10.46554
 CYCLE:    28 TIME:   0.008 TIME LEFT:  2.00D  GRAD.:     3.753 HEAT:  10.45277
 CYCLE:    29 TIME:   0.008 TIME LEFT:  2.00D  GRAD.:     5.578 HEAT:  10.43511
 CYCLE:    30 TIME:   0.004 TIME LEFT:  2.00D  GRAD.:     5.479 HEAT:  10.42721
 CYCLE:    31 TIME:   0.008 TIME LEFT:  2.00D  GRAD.:     3.341 HEAT:  10.41088
 CYCLE:    32 TIME:   0.008 TIME LEFT:  2.00D  GRAD.:     3.446 HEAT:  10.39661
 CYCLE:    33 TIME:   0.008 TIME LEFT:  2.00D  GRAD.:     3.746 HEAT:  10.37686
 CYCLE:    34 TIME:   0.008 TIME LEFT:  2.00D  GRAD.:     2.965 HEAT:  10.36074
 CYCLE:    35 TIME:   0.008 TIME LEFT:  2.00D  GRAD.:     1.634 HEAT:  10.35368
 CYCLE:    36 TIME:   0.008 TIME LEFT:  2.00D  GRAD.:     1.581 HEAT:  10.34961
 CYCLE:    37 TIME:   0.004 TIME LEFT:  2.00D  GRAD.:     1.634 HEAT:  10.34574
 CYCLE:    38 TIME:   0.008 TIME LEFT:  2.00D  GRAD.:     1.259 HEAT:  10.34344
 CYCLE:    39 TIME:   0.008 TIME LEFT:  2.00D  GRAD.:     1.058 HEAT:  10.34113
 CYCLE:    40 TIME:   0.012 TIME LEFT:  2.00D  GRAD.:     0.806 HEAT:  10.33947
 CYCLE:    41 TIME:   0.008 TIME LEFT:  2.00D  GRAD.:     0.749 HEAT:  10.33814
 CYCLE:    42 TIME:   0.004 TIME LEFT:  2.00D  GRAD.:     0.822 HEAT:  10.33654
 CYCLE:    43 TIME:   0.008 TIME LEFT:  2.00D  GRAD.:     0.859 HEAT:  10.33531
 CYCLE:    44 TIME:   0.008 TIME LEFT:  2.00D  GRAD.:     0.827 HEAT:  10.33393
 CYCLE:    45 TIME:   0.008 TIME LEFT:  2.00D  GRAD.:     0.818 HEAT:  10.33214
 CYCLE:    46 TIME:   0.008 TIME LEFT:  2.00D  GRAD.:     0.756 HEAT:  10.33058
 CYCLE:    47 TIME:   0.004 TIME LEFT:  2.00D  GRAD.:     0.595 HEAT:  10.32972
 CYCLE:    48 TIME:   0.008 TIME LEFT:  2.00D  GRAD.:     0.468 HEAT:  10.32908
 CYCLE:    49 TIME:   0.008 TIME LEFT:  2.00D  GRAD.:     0.414 HEAT:  10.32871
 CYCLE:    50 TIME:   0.004 TIME LEFT:  2.00D  GRAD.:     0.409 HEAT:  10.32835
 CYCLE:    51 TIME:   0.008 TIME LEFT:  2.00D  GRAD.:     0.383 HEAT:  10.32798
 CYCLE:    52 TIME:   0.008 TIME LEFT:  2.00D  GRAD.:     0.370 HEAT:  10.32767
 CYCLE:    53 TIME:   0.008 TIME LEFT:  2.00D  GRAD.:     0.426 HEAT:  10.32720
 CYCLE:    54 TIME:   0.008 TIME LEFT:  2.00D  GRAD.:     0.408 HEAT:  10.32693
 CYCLE:    55 TIME:   0.008 TIME LEFT:  2.00D  GRAD.:     0.475 HEAT:  10.32646
 CYCLE:    56 TIME:   0.008 TIME LEFT:  2.00D  GRAD.:     0.567 HEAT:  10.32575
 CYCLE:    57 TIME:   0.008 TIME LEFT:  2.00D  GRAD.:     0.607 HEAT:  10.32497
 CYCLE:    58 TIME:   0.004 TIME LEFT:  2.00D  GRAD.:     0.483 HEAT:  10.32420
 CYCLE:    59 TIME:   0.008 TIME LEFT:  2.00D  GRAD.:     0.284 HEAT:  10.32389
 CYCLE:    60 TIME:   0.008 TIME LEFT:  2.00D  GRAD.:     0.162 HEAT:  10.32370
 CYCLE:    61 TIME:   0.008 TIME LEFT:  2.00D  GRAD.:     0.139 HEAT:  10.32366
 CYCLE:    62 TIME:   0.004 TIME LEFT:  2.00D  GRAD.:     0.179 HEAT:  10.32362
 CYCLE:    63 TIME:   0.008 TIME LEFT:  2.00D  GRAD.:     0.083 HEAT:  10.32359
 CYCLE:    64 TIME:   0.008 TIME LEFT:  2.00D  GRAD.:     0.073 HEAT:  10.32358
 CYCLE:    65 TIME:   0.004 TIME LEFT:  2.00D  GRAD.:     0.085 HEAT:  10.32357
 CYCLE:    66 TIME:   0.012 TIME LEFT:  2.00D  GRAD.:     0.062 HEAT:  10.32356
 CYCLE:    67 TIME:   0.004 TIME LEFT:  2.00D  GRAD.:     0.069 HEAT:  10.32355
 CYCLE:    68 TIME:   0.012 TIME LEFT:  2.00D  GRAD.:     0.050 HEAT:  10.32354

     GRADIENT =  0.05000 IS LESS THAN CUTOFF =  0.05000



 -------------------------------------------------------------------------------
 pm3  precise nosym THREADS=1
 InChI=1S/C9H12/c1-2-5-9-7-3-6-8(9)4-1/h1-2,4,9H,3,5-7H2



     GEOMETRY OPTIMISED USING EIGENVECTOR FOLLOWING (EF).     
     SCF FIELD WAS ACHIEVED                                   


                              PM3 CALCULATION
                                                       MOPAC v23.1.2 MacOS
                                                       Tue Jun  3 16:30:17 2025




          FINAL HEAT OF FORMATION =         10.32354 KCAL/MOL =      43.19370 KJ/MOL


          COSMO AREA              =        164.35 SQUARE ANGSTROMS
          COSMO VOLUME            =        164.94 CUBIC ANGSTROMS

          GRADIENT NORM           =          0.05000          =       0.01091 PER ATOM
          IONIZATION POTENTIAL    =          8.779247 EV
          HOMO LUMO ENERGIES (EV) =         -8.779  0.303
          NO. OF FILLED LEVELS    =         24
          MOLECULAR WEIGHT        =        120.1938         POINT GROUP:  C1  

          MOLECULAR DIMENSIONS (Angstroms)

            Atom       Atom       Distance
            H    19    H    11     6.53982
            H    21    H    14     5.11173
            H    16    H    18     3.00885


          SCF CALCULATIONS        =         78

          WALL-CLOCK TIME         =      0.535 SECONDS
          COMPUTATION TIME        =      0.319 SECONDS




   ATOM   CHEMICAL          X               Y               Z
  NUMBER   SYMBOL      (ANGSTROMS)     (ANGSTROMS)     (ANGSTROMS)

     1       C          0.01686786  *  -0.65400205  *  -0.41143937  *
     2       C         -1.26349944  *  -1.24028460  *   0.19112010  *
     3       C         -2.30103920  *  -0.11630284  *   0.13152401  *
     4       C         -1.52900644  *   1.20337246  *   0.01928584  *
     5       C          1.31190464  *  -1.22302845  *   0.15505098  *
     6       C         -0.10185524  *   0.82355988  *  -0.17312331  *
     7       C          2.46160374  *  -0.29838003  *  -0.06150186  *
     8       C          0.97305347  *   1.61990489  *  -0.10162196  *
     9       C          2.29702671  *   1.02622710  *  -0.18793849  *
    10       H          0.01183855  *  -0.81096748  *  -1.51841499  *
    11       H         -2.95754922  *  -0.12796330  *   1.01980805  *
    12       H         -2.97252934  *  -0.24986996  *  -0.73684289  *
    13       H         -1.09532457  *  -1.56588529  *   1.23567010  *
    14       H         -1.59864075  *  -2.14030865  *  -0.35413973  *
    15       H         -1.64756164  *   1.82714030  *   0.92499950  *
    16       H         -1.89043558  *   1.82093033  *  -0.82414149  *
    17       H          1.52063097  *  -2.20721665  *  -0.30697223  *
    18       H          1.22341823  *  -1.41463243  *   1.24481076  *
    19       H          3.45845801  *  -0.75039332  *  -0.08323979  *
    20       H          3.14726743  *   1.69972032  *  -0.33338985  *
    21       H          0.89168728  *   2.70004092  *   0.05030752  *

                             CARTESIAN COORDINATES

   1    C        0.016867861    -0.654002049    -0.411439365
   2    C       -1.263499442    -1.240284599     0.191120101
   3    C       -2.301039204    -0.116302842     0.131524006
   4    C       -1.529006445     1.203372455     0.019285843
   5    C        1.311904636    -1.223028449     0.155050977
   6    C       -0.101855239     0.823559882    -0.173123311
   7    C        2.461603740    -0.298380032    -0.061501860
   8    C        0.973053470     1.619904891    -0.101621958
   9    C        2.297026707     1.026227102    -0.187938490
  10    H        0.011838550    -0.810967479    -1.518414990
  11    H       -2.957549218    -0.127963304     1.019808053
  12    H       -2.972529337    -0.249869957    -0.736842890
  13    H       -1.095324575    -1.565885292     1.235670103
  14    H       -1.598640748    -2.140308654    -0.354139730
  15    H       -1.647561644     1.827140302     0.924999495
  16    H       -1.890435580     1.820930326    -0.824141492
  17    H        1.520630973    -2.207216654    -0.306972232
  18    H        1.223418233    -1.414632431     1.244810765
  19    H        3.458458010    -0.750393324    -0.083239794
  20    H        3.147267426     1.699720317    -0.333389850
  21    H        0.891687281     2.700040924     0.050307515


           Empirical Formula: C9 H12  =    21 atoms



      MOLECULAR POINT GROUP   :   C1  


                  EIGENVALUES  
 -41.85290 -35.23303 -31.33593 -27.60037 -26.10166 -22.04553 -20.39234 -19.79639
 -17.60154 -17.11968 -15.95828 -15.56494 -14.82819 -14.45056 -14.03766 -13.67224
 -13.03913 -12.82447 -12.58157 -12.10201 -11.71424 -11.32922 -11.06172  -8.77925
   0.30272   2.07383   3.29257   3.35315   3.45859   3.65697   3.66934   3.76930
   3.80216   3.89645   4.00714   4.07754   4.23706   4.31787   4.42565   4.66345
   4.78356   4.88798   5.05171   5.14069   5.23405   5.61521   6.05402   6.29546


              NET ATOMIC CHARGES AND DIPOLE CONTRIBUTIONS

  ATOM NO.   TYPE          CHARGE      No. of ELECS.   s-Pop       p-Pop       
    1          C          -0.042403        4.0424     1.16672     2.87568
    2          C          -0.092283        4.0923     1.16558     2.92670
    3          C          -0.095530        4.0955     1.16450     2.93103
    4          C          -0.050557        4.0506     1.14774     2.90282
    5          C          -0.051602        4.0516     1.14683     2.90477
    6          C          -0.109637        4.1096     1.20554     2.90410
    7          C          -0.143824        4.1438     1.19733     2.94650
    8          C          -0.119844        4.1198     1.17397     2.94588
    9          C          -0.105071        4.1051     1.17852     2.92655
   10          H           0.072418        0.9276     0.92758
   11          H           0.050435        0.9496     0.94957
   12          H           0.048151        0.9518     0.95185
   13          H           0.053443        0.9466     0.94656
   14          H           0.050782        0.9492     0.94922
   15          H           0.057987        0.9420     0.94201
   16          H           0.058553        0.9414     0.94145
   17          H           0.053763        0.9462     0.94624
   18          H           0.059361        0.9406     0.94064
   19          H           0.098512        0.9015     0.90149
   20          H           0.100563        0.8994     0.89944
   21          H           0.106785        0.8932     0.89321
 DIPOLE           X         Y         Z       TOTAL
 POINT-CHG.    -0.414    -0.327     0.089     0.535
 HYBRID         0.018     0.025     0.004     0.031
 SUM           -0.396    -0.302     0.092     0.507


          ATOMIC ORBITAL ELECTRON POPULATIONS

     Atom    s        px        py        pz   
    1  C   1.16672   0.94302   0.93174   1.00093
    2  C   1.16558   0.94878   0.96960   1.00832
    3  C   1.16450   0.96924   0.94661   1.01519
    4  C   1.14774   0.92632   0.96523   1.01127
    5  C   1.14683   0.93178   0.96869   1.00431
    6  C   1.20554   0.95498   0.95984   0.98928
    7  C   1.19733   0.98045   0.95720   1.00885
    8  C   1.17397   0.93062   0.97881   1.03645
    9  C   1.17852   0.96108   0.95348   1.01199
   10  H   0.92758
   11  H   0.94957
   12  H   0.95185
   13  H   0.94656
   14  H   0.94922
   15  H   0.94201
   16  H   0.94145
   17  H   0.94624
   18  H   0.94064
   19  H   0.90149
   20  H   0.89944
   21  H   0.89321
 *******************************************************************************
 **                                                                           **
 **                              MOPAC v23.1.2                                **
 **                                                                           **
 *******************************************************************************
 **          Digital Object Identifier (DOI): 10.5281/zenodo.6511958          **
 **    Visit the DOI location for information on how to cite this program.    **
 *******************************************************************************

                              PM3 CALCULATION RESULTS

 *******************************************************************************
 *  CALCULATION DONE: (MAX THREADS = 1)              Tue Jun  3 16:30:17 2025  *
 *  PM3        - The PM3 Hamiltonian to be used
 *  OLDGEO     - PREVIOUS GEOMETRY TO BE USED
 *  PRECISE    - TIGHTER CRITERIA TO BE USED
 *  NOSYM      - POINT-GROUP SYMMETRY SET TO C1
 *  THREADS=1  - MULTI-THREADING NOT USED
 *  T=         - A TIME OF 172800.0 SECONDS REQUESTED
 *  DUMP=N     - RESTART FILE WRITTEN EVERY 7200.0 SECONDS REQUESTED
 *  THERMO     - THERMODYNAMIC QUANTITIES TO BE CALCULATED
 *******************************************************************************
oldgeo thermo nosym precise THREADS=1  pm3
 InChI=1S/C9H12/c1-2-5-9-7-3-6-8(9)4-1/h1-2,4,9H,3,5-7H2

   ATOM   CHEMICAL          X               Y               Z
  NUMBER   SYMBOL      (ANGSTROMS)     (ANGSTROMS)     (ANGSTROMS)

     1       C          0.01686786  *  -0.65400205  *  -0.41143937  *
     2       C         -1.26349944  *  -1.24028460  *   0.19112010  *
     3       C         -2.30103920  *  -0.11630284  *   0.13152401  *
     4       C         -1.52900644  *   1.20337246  *   0.01928584  *
     5       C          1.31190464  *  -1.22302845  *   0.15505098  *
     6       C         -0.10185524  *   0.82355988  *  -0.17312331  *
     7       C          2.46160374  *  -0.29838003  *  -0.06150186  *
     8       C          0.97305347  *   1.61990489  *  -0.10162196  *
     9       C          2.29702671  *   1.02622710  *  -0.18793849  *
    10       H          0.01183855  *  -0.81096748  *  -1.51841499  *
    11       H         -2.95754922  *  -0.12796330  *   1.01980805  *
    12       H         -2.97252934  *  -0.24986996  *  -0.73684289  *
    13       H         -1.09532457  *  -1.56588529  *   1.23567010  *
    14       H         -1.59864075  *  -2.14030865  *  -0.35413973  *
    15       H         -1.64756164  *   1.82714030  *   0.92499950  *
    16       H         -1.89043558  *   1.82093033  *  -0.82414149  *
    17       H          1.52063097  *  -2.20721665  *  -0.30697223  *
    18       H          1.22341823  *  -1.41463243  *   1.24481076  *
    19       H          3.45845801  *  -0.75039332  *  -0.08323979  *
    20       H          3.14726743  *   1.69972032  *  -0.33338985  *
    21       H          0.89168728  *   2.70004092  *   0.05030752  *



          CARTESIAN COORDINATES 

    NO.       ATOM           X           Y           Z

     1         C          0.0169     -0.6540     -0.4114
     2         C         -1.2635     -1.2403      0.1911
     3         C         -2.3010     -0.1163      0.1315
     4         C         -1.5290      1.2034      0.0193
     5         C          1.3119     -1.2230      0.1551
     6         C         -0.1019      0.8236     -0.1731
     7         C          2.4616     -0.2984     -0.0615
     8         C          0.9731      1.6199     -0.1016
     9         C          2.2970      1.0262     -0.1879
    10         H          0.0118     -0.8110     -1.5184
    11         H         -2.9575     -0.1280      1.0198
    12         H         -2.9725     -0.2499     -0.7368
    13         H         -1.0953     -1.5659      1.2357
    14         H         -1.5986     -2.1403     -0.3541
    15         H         -1.6476      1.8271      0.9250
    16         H         -1.8904      1.8209     -0.8241
    17         H          1.5206     -2.2072     -0.3070
    18         H          1.2234     -1.4146      1.2448
    19         H          3.4585     -0.7504     -0.0832
    20         H          3.1473      1.6997     -0.3334
    21         H          0.8917      2.7000      0.0503

  H: (PM3): J. J. P. STEWART, J. COMP. CHEM. 10, 209 (1989).
  C: (PM3): J. J. P. STEWART, J. COMP. CHEM. 10, 209 (1989).

           Empirical Formula: C9 H12  =    21 atoms



      MOLECULAR POINT GROUP   :   C1  


      RHF CALCULATION, NO. OF DOUBLY OCCUPIED LEVELS = 24



          HEAT OF FORMATION =      10.323542 KCALS/MOLE


          CARTESIAN COORDINATE DERIVATIVES

   NUMBER  ATOM         X            Y            Z

     1       C      0.004871    -0.003454     0.000420
     2       C      0.001936     0.001232     0.000586
     3       C      0.001823     0.006439     0.001731
     4       C      0.006602     0.006981    -0.007801
     5       C      0.001631    -0.003493    -0.004675
     6       C     -0.006198    -0.005439    -0.000826
     7       C      0.002195    -0.000913     0.004460
     8       C     -0.004595    -0.001598     0.002509
     9       C      0.000473    -0.000483     0.000919
    10       H     -0.002393     0.008241    -0.001615
    11       H      0.000059    -0.005248     0.013379
    12       H     -0.002276     0.000061    -0.015237
    13       H      0.003557     0.012072     0.000751
    14       H      0.007279     0.010047     0.003306
    15       H     -0.003777    -0.001629     0.013705
    16       H      0.001417    -0.019491    -0.008057
    17       H     -0.013459    -0.000210    -0.010220
    18       H     -0.010236    -0.008924     0.002365
    19       H      0.006788     0.006228    -0.000411
    20       H      0.000530     0.002471     0.000532
    21       H      0.003772    -0.002889     0.004179



          GRADIENT NORM =   0.05007

          MOLECULAR WEIGHT =  120.19



          ROTATIONAL CONSTANTS IN CM(-1)

          A =    0.10931506   B =    0.04903705   C =    0.03550925



           PRINCIPAL MOMENTS OF INERTIA IN UNITS OF 10**(-40)*GRAM-CM**2

          A =      256.0741   B =      570.8491   C =      788.3227


          ORIENTATION OF MOLECULE IN FORCE CALCULATION

    NO.       ATOM         X         Y         Z

     1          C       0.2727   -0.5314    0.6150
     2          C       1.8044   -0.5314    0.6150
     3          C       2.2180    0.9425    0.6150
     4          C       1.0234    1.7452    0.0870
     5          C      -0.3692   -1.7198   -0.0905
     6          C      -0.0999    0.7739   -0.0265
     7          C      -1.7693   -1.4223   -0.5085
     8          C      -1.2751    0.9514   -0.6446
     9          C      -2.1885   -0.1735   -0.7586
    10          H      -0.0985   -0.4986    1.6691
    11          H       3.1207    1.1065   -0.0002
    12          H       2.4889    1.2724    1.6350
    13          H       2.1994   -1.0512   -0.2790
    14          H       2.2146   -1.0749    1.4845
    15          H       1.2401    2.2069   -0.8945
    16          H       0.7574    2.5793    0.7629
    17          H      -0.3487   -2.6043    0.5750
    18          H       0.2068   -2.0093   -0.9941
    19          H      -2.4381   -2.2802   -0.6320
    20          H      -3.2142    0.0353   -1.0779
    21          H      -1.5607    1.9064   -1.0949


    FIRST DERIVATIVES WILL BE USED IN THE CALCULATION OF SECOND DERIVATIVES

          ESTIMATED TIME TO COMPLETE CALCULATION =        1.97 SECONDS

    FOR POINT-GROUP C1   THERE ARE   1 UNIQUE SYMMETRY FUNCTIONS.

 STEP:   1 TIME =     0.02 SECS, INTEGRAL =      0.02 TIME LEFT: 172799.97
 STEP:   2 TIME =     0.02 SECS, INTEGRAL =      0.04 TIME LEFT: 172799.95
 STEP:   3 TIME =     0.02 SECS, INTEGRAL =      0.06 TIME LEFT: 172799.93
 STEP:   4 TIME =     0.02 SECS, INTEGRAL =      0.07 TIME LEFT: 172799.92
 STEP:   5 TIME =     0.02 SECS, INTEGRAL =      0.09 TIME LEFT: 172799.90
 STEP:   6 TIME =     0.02 SECS, INTEGRAL =      0.11 TIME LEFT: 172799.88
 STEP:   7 TIME =     0.02 SECS, INTEGRAL =      0.13 TIME LEFT: 172799.86
 STEP:   8 TIME =     0.02 SECS, INTEGRAL =      0.14 TIME LEFT: 172799.85
 STEP:   9 TIME =     0.02 SECS, INTEGRAL =      0.16 TIME LEFT: 172799.83
 STEP:  10 TIME =     0.02 SECS, INTEGRAL =      0.18 TIME LEFT: 172799.81
 STEP:  11 TIME =     0.02 SECS, INTEGRAL =      0.20 TIME LEFT: 172799.79
 STEP:  12 TIME =     0.02 SECS, INTEGRAL =      0.22 TIME LEFT: 172799.77
 STEP:  13 TIME =     0.02 SECS, INTEGRAL =      0.24 TIME LEFT: 172799.75
 STEP:  14 TIME =     0.02 SECS, INTEGRAL =      0.26 TIME LEFT: 172799.73
 STEP:  15 TIME =     0.02 SECS, INTEGRAL =      0.28 TIME LEFT: 172799.71
 STEP:  16 TIME =     0.02 SECS, INTEGRAL =      0.30 TIME LEFT: 172799.69
 STEP:  17 TIME =     0.02 SECS, INTEGRAL =      0.32 TIME LEFT: 172799.67
 STEP:  18 TIME =     0.02 SECS, INTEGRAL =      0.34 TIME LEFT: 172799.65
 STEP:  19 TIME =     0.02 SECS, INTEGRAL =      0.36 TIME LEFT: 172799.63
 STEP:  20 TIME =     0.02 SECS, INTEGRAL =      0.38 TIME LEFT: 172799.61
 STEP:  21 TIME =     0.02 SECS, INTEGRAL =      0.40 TIME LEFT: 172799.59
 STEP:  22 TIME =     0.02 SECS, INTEGRAL =      0.42 TIME LEFT: 172799.57
 STEP:  23 TIME =     0.02 SECS, INTEGRAL =      0.44 TIME LEFT: 172799.55
 STEP:  24 TIME =     0.02 SECS, INTEGRAL =      0.46 TIME LEFT: 172799.54
 STEP:  25 TIME =     0.02 SECS, INTEGRAL =      0.48 TIME LEFT: 172799.52
 STEP:  26 TIME =     0.02 SECS, INTEGRAL =      0.50 TIME LEFT: 172799.50
 STEP:  27 TIME =     0.02 SECS, INTEGRAL =      0.52 TIME LEFT: 172799.47
 STEP:  28 TIME =     0.02 SECS, INTEGRAL =      0.54 TIME LEFT: 172799.45
 STEP:  29 TIME =     0.02 SECS, INTEGRAL =      0.56 TIME LEFT: 172799.43
 STEP:  30 TIME =     0.02 SECS, INTEGRAL =      0.58 TIME LEFT: 172799.41
 STEP:  31 TIME =     0.02 SECS, INTEGRAL =      0.60 TIME LEFT: 172799.39
 STEP:  32 TIME =     0.02 SECS, INTEGRAL =      0.62 TIME LEFT: 172799.38
 STEP:  33 TIME =     0.02 SECS, INTEGRAL =      0.64 TIME LEFT: 172799.36
 STEP:  34 TIME =     0.02 SECS, INTEGRAL =      0.66 TIME LEFT: 172799.34
 STEP:  35 TIME =     0.02 SECS, INTEGRAL =      0.68 TIME LEFT: 172799.32
 STEP:  36 TIME =     0.02 SECS, INTEGRAL =      0.69 TIME LEFT: 172799.30
 STEP:  37 TIME =     0.02 SECS, INTEGRAL =      0.71 TIME LEFT: 172799.28
 STEP:  38 TIME =     0.02 SECS, INTEGRAL =      0.73 TIME LEFT: 172799.26
 STEP:  39 TIME =     0.02 SECS, INTEGRAL =      0.75 TIME LEFT: 172799.24
 STEP:  40 TIME =     0.02 SECS, INTEGRAL =      0.77 TIME LEFT: 172799.23
 STEP:  41 TIME =     0.02 SECS, INTEGRAL =      0.79 TIME LEFT: 172799.21
 STEP:  42 TIME =     0.02 SECS, INTEGRAL =      0.80 TIME LEFT: 172799.19
 STEP:  43 TIME =     0.02 SECS, INTEGRAL =      0.83 TIME LEFT: 172799.16
 STEP:  44 TIME =     0.02 SECS, INTEGRAL =      0.85 TIME LEFT: 172799.14
 STEP:  45 TIME =     0.02 SECS, INTEGRAL =      0.87 TIME LEFT: 172799.12
 STEP:  46 TIME =     0.02 SECS, INTEGRAL =      0.89 TIME LEFT: 172799.11
 STEP:  47 TIME =     0.02 SECS, INTEGRAL =      0.91 TIME LEFT: 172799.09
 STEP:  48 TIME =     0.02 SECS, INTEGRAL =      0.93 TIME LEFT: 172799.07
 STEP:  49 TIME =     0.02 SECS, INTEGRAL =      0.95 TIME LEFT: 172799.04
 STEP:  50 TIME =     0.02 SECS, INTEGRAL =      0.97 TIME LEFT: 172799.02
 STEP:  51 TIME =     0.02 SECS, INTEGRAL =      0.99 TIME LEFT: 172799.00
 STEP:  52 TIME =     0.02 SECS, INTEGRAL =      1.01 TIME LEFT: 172798.98
 STEP:  53 TIME =     0.02 SECS, INTEGRAL =      1.03 TIME LEFT: 172798.96
 STEP:  54 TIME =     0.02 SECS, INTEGRAL =      1.05 TIME LEFT: 172798.95
 STEP:  55 TIME =     0.02 SECS, INTEGRAL =      1.07 TIME LEFT: 172798.93
 STEP:  56 TIME =     0.02 SECS, INTEGRAL =      1.09 TIME LEFT: 172798.91
 STEP:  57 TIME =     0.02 SECS, INTEGRAL =      1.11 TIME LEFT: 172798.89
 STEP:  58 TIME =     0.02 SECS, INTEGRAL =      1.12 TIME LEFT: 172798.87
 STEP:  59 TIME =     0.02 SECS, INTEGRAL =      1.14 TIME LEFT: 172798.85
 STEP:  60 TIME =     0.02 SECS, INTEGRAL =      1.16 TIME LEFT: 172798.83
 STEP:  61 TIME =     0.02 SECS, INTEGRAL =      1.18 TIME LEFT: 172798.81
 STEP:  62 TIME =     0.02 SECS, INTEGRAL =      1.20 TIME LEFT: 172798.79
 STEP:  63 TIME =     0.02 SECS, INTEGRAL =      1.22 TIME LEFT: 172798.77

(To convert to Hartree/Bohr^2, multiply by (10^(-21) x N x a0^2)/(4.184 x 627.51) =  0.0642)


           FORCE MATRIX IN MILLIDYNES/ANGSTROM


                  C  1       C  2       C  3       C  4       C  5       C  6
 ------------------------------------------------------------------------------
     C    1  14.840234
     C    2   3.812783  14.341997
     C    3   0.779157   3.900028  14.297452
     C    4   0.746607   0.734147   3.843914  14.671052
     C    5   4.057295   0.545118   0.044495   0.042907  14.655313
     C    6   4.442217   0.890022   0.869899   4.831940   0.644898  19.035193
     C    7   0.679376   0.050161   0.007762   0.016719   4.834021   0.157185
     C    8   0.785038   0.050112   0.049150   0.682843   0.114794  10.126105
     C    9   0.118396   0.009590   0.009379   0.136471   0.840682   1.183983
     H   10   4.192598   0.427308   0.013873   0.017640   0.426244   0.396424
     H   11   0.039866   0.439407   4.570708   0.438858   0.005365   0.033084
     H   12   0.013644   0.442895   4.534806   0.440278   0.001808   0.023399
     H   13   0.454453   4.492839   0.441655   0.013143   0.042650   0.011782
     H   14   0.436276   4.574732   0.438928   0.038495   0.013784   0.045709
     H   15   0.031074   0.019932   0.438473   4.510271   0.004445   0.438295
     H   16   0.023186   0.031756   0.439664   4.505765   0.002630   0.429958
     H   17   0.437359   0.010272   0.001080   0.007896   4.482187   0.048631
     H   18   0.453046   0.036628   0.002211   0.004738   4.373697   0.014473
     H   19   0.044067   0.007602   0.001683   0.009089   0.426584   0.015295
     H   20   0.005277   0.000910   0.001415   0.009181   0.121424   0.048076
     H   21   0.114861   0.011505   0.002539   0.067525   0.008569   0.461222


                  C  7       C  8       C  9       H 10       H 11       H 12
 ------------------------------------------------------------------------------
     C    7  17.873667
     C    8   1.119554  18.385236
     C    9  10.204334   5.543641  18.286754
     H   10   0.013614   0.030643   0.017816   4.644169
     H   11   0.001242   0.004842   0.000969   0.001129   5.180570
     H   12   0.000378   0.003119   0.000477   0.001552   0.585478   5.138539
     H   13   0.002639   0.002207   0.001595   0.039471   0.031406   0.038328
     H   14   0.001939   0.006712   0.001242   0.033180   0.017406   0.031310
     H   15   0.001920   0.023784   0.013569   0.001526   0.029566   0.031532
     H   16   0.002245   0.023871   0.016323   0.002499   0.022943   0.028345
     H   17   0.439050   0.010046   0.047846   0.035614   0.000244   0.000210
     H   18   0.407715   0.019102   0.033388   0.044457   0.000313   0.000355
     H   19   4.854980   0.123567   0.444184   0.004164   0.000355   0.000220
     H   20   0.445088   0.431660   4.866720   0.000796   0.000217   0.000200
     H   21   0.046508   4.883015   0.434394   0.015270   0.000470   0.000370


                  H 13       H 14       H 15       H 16       H 17       H 18
 ------------------------------------------------------------------------------
     H   13   5.105367
     H   14   0.577116   5.189463
     H   15   0.001040   0.002578   5.109705
     H   16   0.001074   0.003150   0.575185   5.107976
     H   17   0.001156   0.001646   0.001273   0.000365   5.073711
     H   18   0.026431   0.001145   0.000661   0.000412   0.570619   4.977175
     H   19   0.000499   0.000444   0.001063   0.001131   0.034960   0.015339
     H   20   0.000211   0.000108   0.000968   0.000936   0.012865   0.017077
     H   21   0.000357   0.001625   0.008885   0.009193   0.001127   0.000777


                  H 19       H 20       H 21
 ------------------------------------------
     H   19   5.230096
     H   20   0.066103   5.234798
     H   21   0.007737   0.028485   5.256714


          HEAT OF FORMATION =      10.323542 KCALS/MOLE

          ZERO POINT ENERGY     115.731 KCAL/MOL


           NORMAL COORDINATE ANALYSIS (Total motion = 1 Angstrom)


   Root No.       1         2         3         4         5         6         7         8

                 1 A       2 A       3 A       4 A       5 A       6 A       7 A       8 A   

                  87.7     119.2     187.0     332.4     367.0     432.0     497.0     522.5
  
           1    0.0035   -0.0090   -0.0011   -0.0115   -0.0248   -0.0093   -0.0134    0.0263
           2   -0.0030   -0.0002    0.0021    0.0014    0.0374   -0.0051   -0.0221    0.0120
           3   -0.0142    0.0039    0.0148    0.0469   -0.0036    0.0234   -0.0102    0.0277
           4    0.0030   -0.0097   -0.0004   -0.0096   -0.0326   -0.0069   -0.0266    0.0309
           5    0.0020   -0.0007   -0.0003   -0.0026   -0.0153    0.0072   -0.0161   -0.0236
           6    0.0029    0.0570   -0.0025   -0.0166   -0.0146   -0.0050   -0.0053    0.0040
           7   -0.0131    0.0080    0.0005   -0.0037    0.0048   -0.0052   -0.0467   -0.0078
           8    0.0060   -0.0055   -0.0012   -0.0065   -0.0325    0.0084   -0.0109   -0.0205
           9    0.0481   -0.0284   -0.0081   -0.0097    0.0057   -0.0035   -0.0138    0.0031
          10    0.0154    0.0029    0.0083   -0.0019    0.0227   -0.0060   -0.0324   -0.0270
          11   -0.0101   -0.0054   -0.0084   -0.0071    0.0083    0.0025    0.0000   -0.0409
          12   -0.0408   -0.0147   -0.0347   -0.0111    0.0099   -0.0008   -0.0111   -0.0015
          13    0.0081    0.0172   -0.0045    0.0120    0.0216   -0.0033    0.0347    0.0271
          14    0.0026    0.0093   -0.0043    0.0229    0.0137   -0.0047   -0.0448    0.0432
          15   -0.0266   -0.0373    0.0272   -0.0118    0.0060    0.0017    0.0031    0.0186
          16    0.0055   -0.0020   -0.0082   -0.0183   -0.0057    0.0056   -0.0105   -0.0166
          17   -0.0021    0.0004    0.0033    0.0043    0.0376   -0.0090   -0.0059   -0.0331
          18   -0.0154    0.0018    0.0231    0.0527   -0.0179    0.0065    0.0017   -0.0392
          19   -0.0043    0.0065    0.0207    0.0021    0.0239    0.0121    0.0488    0.0293
          20    0.0007   -0.0007   -0.0010    0.0021   -0.0210    0.0017    0.0275    0.0387
          21    0.0110   -0.0112   -0.0509    0.0102   -0.0014   -0.0479    0.0264   -0.0010
          22   -0.0060   -0.0086   -0.0218    0.0133   -0.0184    0.0287    0.0089   -0.0296
          23    0.0008    0.0026    0.0135   -0.0090    0.0056   -0.0140    0.0504    0.0054
          24    0.0071    0.0140    0.0518   -0.0113   -0.0058   -0.0327   -0.0077   -0.0135
          25   -0.0111   -0.0074    0.0035    0.0072    0.0055   -0.0142    0.0492   -0.0371
          26    0.0022    0.0007    0.0010   -0.0028   -0.0232    0.0135    0.0274    0.0160
          27    0.0286    0.0178   -0.0114   -0.0209    0.0181    0.0598    0.0110   -0.0068
          28   -0.0070   -0.0474    0.0117    0.0094   -0.0360   -0.0030   -0.0339    0.0482
          29   -0.0083   -0.0160    0.0058   -0.0389    0.0584   -0.0166   -0.0260    0.0497
          30   -0.0176   -0.0093    0.0191    0.0533   -0.0085    0.0246   -0.0167    0.0336
          31    0.0356   -0.0163    0.0119   -0.0002    0.0118   -0.0064   -0.0457   -0.0081
          32    0.0250   -0.0492   -0.0051   -0.0054   -0.0492    0.0083   -0.0094    0.0107
          33    0.1251   -0.0763    0.0077   -0.0041    0.0116   -0.0052   -0.0108    0.0120
          34   -0.1043    0.0604   -0.0196   -0.0098    0.0097   -0.0038   -0.0559   -0.0299
          35   -0.0001    0.0384    0.0071   -0.0118   -0.0550    0.0083   -0.0118   -0.0150
          36    0.0746   -0.0566   -0.0053   -0.0064    0.0116   -0.0039   -0.0113    0.0074
          37    0.0153    0.0219   -0.0113   -0.0553   -0.0600   -0.0285   -0.0178    0.0170
          38    0.0307   -0.0675   -0.0004    0.0188   -0.0085    0.0222   -0.0223   -0.0194
          39   -0.0082    0.1099   -0.0074   -0.0504   -0.0322   -0.0237    0.0017   -0.0050
          40   -0.0022   -0.0453    0.0095    0.0321   -0.0432    0.0195   -0.0250    0.0457
          41   -0.0191    0.0576   -0.0004   -0.0256   -0.0525   -0.0014   -0.0042   -0.0308
          42   -0.0080    0.1108   -0.0074   -0.0514   -0.0330   -0.0236    0.0017   -0.0072
          43    0.0530   -0.0088    0.0045   -0.0202    0.0467   -0.0136   -0.0418   -0.0179
          44   -0.0838   -0.0068   -0.0728   -0.0666    0.0280    0.0130   -0.0081    0.0134
          45   -0.0675   -0.0180   -0.0664   -0.0440    0.0251    0.0026   -0.0177    0.0276
          46    0.0094    0.0138    0.0348    0.0364    0.0416   -0.0186   -0.0326   -0.0669
          47    0.0422   -0.0035    0.0382    0.0361   -0.0028   -0.0060    0.0067   -0.0848
          48   -0.1082   -0.0125   -0.0825   -0.0505    0.0310    0.0054   -0.0191    0.0382
          49    0.0326    0.0444   -0.0603    0.0590    0.0470   -0.0641    0.0161    0.0192
          50   -0.0116   -0.0165    0.0213   -0.0229    0.0223    0.0085   -0.0356    0.0253
          51   -0.0466   -0.0729    0.0638   -0.0760    0.0169    0.0223    0.0176   -0.0058
          52   -0.0064    0.0166    0.0316    0.0084    0.0380    0.0431    0.0368    0.0405
          53    0.0307    0.0607   -0.0572    0.1108    0.0218   -0.0375   -0.0736    0.0721
          54   -0.0447   -0.0541    0.0671   -0.0438    0.0130    0.0428    0.0141    0.0165
          55   -0.0067    0.0128    0.0457    0.0026    0.0420    0.0244    0.0053    0.0661
          56    0.0007   -0.0049   -0.0088   -0.0018   -0.0336    0.0007    0.0551    0.0119
          57    0.0251   -0.0145   -0.1366    0.0381   -0.0110   -0.1083    0.0681   -0.0150
          58   -0.0197   -0.0147    0.0131    0.0135   -0.0048   -0.0460    0.0375   -0.0433
          59    0.0045    0.0001   -0.0105   -0.0016   -0.0444    0.0416    0.0016   -0.0171
          60    0.0581    0.0412   -0.0501   -0.0394    0.0368    0.1818    0.0323   -0.0064
          61   -0.0121   -0.0127   -0.0353    0.0497   -0.0557    0.0791    0.0144   -0.0163
          62   -0.0002    0.0026    0.0263   -0.0229   -0.0109   -0.0466    0.0600    0.0187
          63    0.0090    0.0168    0.0873   -0.0641   -0.0165   -0.1336    0.0108    0.0064


   Root No.       9        10        11        12        13        14        15        16

                 9 A      10 A      11 A      12 A      13 A      14 A      15 A      16 A   

                 599.7     648.6     751.3     781.5     796.7     853.9     868.3     918.0
  
           1   -0.0191   -0.0246    0.0027    0.0102   -0.0019   -0.0104   -0.0070    0.0032
           2   -0.0067   -0.0074    0.0026    0.0025    0.0110    0.0168   -0.0083    0.0003
           3    0.0353    0.0052    0.0100   -0.0110    0.0066   -0.0238    0.0055    0.0003
           4   -0.0244   -0.0154   -0.0042    0.0021    0.0222   -0.0273   -0.0091    0.0039
           5    0.0079    0.0460   -0.0058   -0.0120   -0.0018    0.0153    0.0060    0.0007
           6   -0.0011    0.0016    0.0051    0.0066   -0.0046   -0.0234   -0.0211    0.0199
           7   -0.0097    0.0515   -0.0078   -0.0175    0.0054    0.0058    0.0063    0.0024
           8    0.0104    0.0203   -0.0021   -0.0015    0.0016    0.0048    0.0033   -0.0043
           9   -0.0052    0.0175    0.0018    0.0198   -0.0023   -0.0038   -0.0072   -0.0082
          10    0.0021    0.0140   -0.0011   -0.0156   -0.0143   -0.0134    0.0061   -0.0014
          11    0.0104   -0.0462    0.0125    0.0081   -0.0280   -0.0343    0.0135   -0.0035
          12   -0.0147    0.0124    0.0015    0.0170    0.0072    0.0103    0.0219   -0.0063
          13   -0.0070    0.0088    0.0068   -0.0023   -0.0250    0.0069    0.0019    0.0032
          14    0.0006   -0.0268    0.0122    0.0090    0.0103    0.0378   -0.0176    0.0097
          15    0.0047   -0.0041   -0.0106    0.0039    0.0134   -0.0088    0.0190   -0.0171
          16    0.0407   -0.0203    0.0112    0.0078   -0.0146    0.0107    0.0036   -0.0086
          17   -0.0270   -0.0168   -0.0041   -0.0027    0.0014   -0.0242   -0.0046    0.0063
          18   -0.0394   -0.0110   -0.0007   -0.0104   -0.0047    0.0097   -0.0054    0.0141
          19   -0.0064    0.0104    0.0035   -0.0026   -0.0207    0.0010    0.0108   -0.0067
          20   -0.0068    0.0099    0.0019   -0.0009   -0.0380   -0.0005    0.0155    0.0007
          21   -0.0009    0.0038   -0.0213    0.0059   -0.0194    0.0068    0.0044    0.0207
          22    0.0168   -0.0204    0.0072    0.0077    0.0013    0.0244    0.0056    0.0142
          23   -0.0051    0.0188   -0.0180   -0.0036    0.0375   -0.0207   -0.0150   -0.0081
          24    0.0250   -0.0107    0.0041   -0.0060   -0.0197    0.0143   -0.0198   -0.0374
          25    0.0158   -0.0064   -0.0058    0.0031    0.0523    0.0107   -0.0210    0.0010
          26    0.0018    0.0050   -0.0046    0.0014   -0.0078    0.0012    0.0043   -0.0005
          27    0.0036   -0.0058   -0.0278    0.0100    0.0064    0.0086   -0.0073    0.0088
          28   -0.0410   -0.0473   -0.0064    0.0077    0.0381   -0.0339    0.0075   -0.0316
          29    0.0227   -0.0195    0.0113    0.0282    0.0476    0.0419    0.0080   -0.0442
          30    0.0250   -0.0032    0.0066   -0.0122    0.0190   -0.0301    0.0101   -0.0106
          31   -0.0024    0.0231   -0.0215   -0.0985    0.0018    0.0101    0.0170    0.0295
          32   -0.0099   -0.0096   -0.0202   -0.0394    0.0509    0.0399    0.0416   -0.0196
          33    0.0006   -0.0374   -0.0238   -0.1147    0.0062    0.0139    0.0196    0.0289
          34   -0.0156    0.1252    0.0206    0.1299   -0.0137   -0.0154   -0.0094   -0.0464
          35    0.0165    0.0496    0.0027    0.0243   -0.0015   -0.0225   -0.0600    0.0259
          36   -0.0059   -0.0125   -0.0084   -0.0322    0.0045    0.0112    0.0188   -0.0040
          37   -0.0766   -0.0578   -0.0271   -0.0034    0.0403    0.0093    0.0233   -0.0450
          38    0.0421    0.1060    0.0142    0.0423   -0.0272   -0.0354   -0.0674    0.0409
          39   -0.0457   -0.0541   -0.0180   -0.0296    0.0200    0.0248    0.0388   -0.0271
          40    0.0279    0.0069    0.0177    0.0101    0.0110   -0.1124   -0.0429    0.0543
          41   -0.0170   -0.0145   -0.0258   -0.0650    0.0253    0.0405    0.0754   -0.0340
          42   -0.0437   -0.0501   -0.0187   -0.0320    0.0187    0.0330    0.0408   -0.0273
          43    0.0085    0.0201    0.0050    0.0256   -0.0275   -0.0535    0.0124   -0.0534
          44    0.0835   -0.0703   -0.0125   -0.1071   -0.0529   -0.0696   -0.0583    0.0214
          45    0.0223    0.0026   -0.0098   -0.0316   -0.0076   -0.0146   -0.0124   -0.0049
          46   -0.0593   -0.0048    0.0050   -0.0174   -0.0151   -0.0453    0.0506    0.0455
          47   -0.0435   -0.0392    0.0323    0.0891   -0.0181   -0.0305    0.0697   -0.0188
          48    0.0301   -0.0060   -0.0216   -0.0886   -0.0065   -0.0093   -0.0326    0.0326
          49    0.0326   -0.0052   -0.0564    0.0180    0.0295    0.0070    0.0295   -0.0266
          50   -0.0428   -0.0296    0.0417    0.0085   -0.0178    0.0943   -0.0631    0.0467
          51   -0.0574   -0.0068    0.0326    0.0018   -0.0300    0.0672   -0.0438    0.0352
          52   -0.0081    0.0185    0.0545   -0.0210   -0.0208    0.0139   -0.0041   -0.0162
          53    0.0866   -0.0317   -0.0439    0.0173    0.0942   -0.0269    0.0539   -0.0664
          54   -0.0256    0.0041    0.0399   -0.0113   -0.0118    0.0177   -0.0099   -0.0034
          55   -0.0018   -0.0095   -0.0512    0.0231   -0.0559    0.0266    0.0305    0.0383
          56   -0.0034    0.0197    0.0122   -0.0097   -0.0133   -0.0187    0.0084   -0.0170
          57   -0.0453    0.0399    0.2048   -0.0708    0.0006    0.0029   -0.0524   -0.1013
          58    0.0323   -0.0175   -0.0543    0.0154    0.0189    0.0308   -0.0367    0.0071
          59    0.0161   -0.0183    0.0293    0.0037    0.0205    0.0309   -0.0014   -0.0024
          60   -0.0393    0.0139    0.1511   -0.0275    0.1331   -0.0330    0.0387   -0.0114
          61   -0.0026   -0.0228   -0.0327   -0.0056   -0.0616    0.0634   -0.0438   -0.0885
          62    0.0223    0.0250    0.0235    0.0051    0.0555    0.0010    0.0285    0.0525
          63    0.0959    0.0044    0.1178    0.0214    0.0577    0.0389    0.1044    0.1565


   Root No.      17        18        19        20        21        22        23        24

                17 A      18 A      19 A      20 A      21 A      22 A      23 A      24 A   

                 946.5     981.1     996.2    1022.3    1038.3    1052.8    1065.5    1073.1
  
           1    0.0077   -0.0042   -0.0022   -0.0051   -0.0071   -0.0023    0.0101   -0.0180
           2    0.0014    0.0138   -0.0044   -0.0010    0.0127   -0.0027   -0.0085   -0.0109
           3   -0.0237   -0.0073    0.0096    0.0107    0.0109    0.0022    0.0046    0.0002
           4   -0.0101    0.0144    0.0023   -0.0004    0.0113   -0.0006   -0.0126    0.0103
           5    0.0020   -0.0133    0.0030   -0.0351   -0.0065    0.0037    0.0041   -0.0152
           6    0.0042    0.0209    0.0019   -0.0022   -0.0093   -0.0020    0.0030    0.0008
           7    0.0001    0.0155   -0.0048    0.0474    0.0003   -0.0058    0.0157   -0.0075
           8   -0.0002    0.0018   -0.0008    0.0193   -0.0006   -0.0017   -0.0041    0.0126
           9    0.0078   -0.0154   -0.0084    0.0092    0.0071    0.0001   -0.0015   -0.0003
          10    0.0005   -0.0138    0.0032   -0.0186    0.0011    0.0013   -0.0110    0.0143
          11   -0.0029    0.0040   -0.0002    0.0255   -0.0011   -0.0008    0.0230   -0.0029
          12   -0.0179    0.0139    0.0137   -0.0127   -0.0127    0.0019    0.0079   -0.0080
          13   -0.0026    0.0070   -0.0007   -0.0087    0.0271    0.0040    0.0130   -0.0039
          14   -0.0041   -0.0195    0.0124    0.0040   -0.0214    0.0014    0.0029    0.0083
          15    0.0228    0.0032   -0.0139   -0.0099   -0.0099   -0.0121    0.0016    0.0097
          16   -0.0036    0.0046    0.0069   -0.0007   -0.0075    0.0035    0.0002    0.0035
          17    0.0005   -0.0011   -0.0050    0.0001    0.0091   -0.0040   -0.0176   -0.0008
          18    0.0180   -0.0038   -0.0144    0.0022    0.0117   -0.0100   -0.0170    0.0010
          19    0.0050   -0.0054   -0.0039    0.0097   -0.0306   -0.0107   -0.0217   -0.0006
          20    0.0075    0.0004   -0.0000    0.0060   -0.0094    0.0002   -0.0196   -0.0069
          21    0.0079   -0.0070    0.0260    0.0113    0.0110    0.0252   -0.0047   -0.0037
          22    0.0038   -0.0004   -0.0101   -0.0042    0.0020   -0.0046   -0.0061    0.0044
          23   -0.0090   -0.0042    0.0115    0.0011    0.0000    0.0002    0.0295    0.0161
          24    0.0086    0.0101    0.0166   -0.0023   -0.0032    0.0086   -0.0037   -0.0044
          25   -0.0002   -0.0082    0.0113    0.0096   -0.0114    0.0090   -0.0122   -0.0134
          26    0.0004    0.0052   -0.0073   -0.0039    0.0057   -0.0037    0.0003   -0.0024
          27   -0.0298   -0.0027   -0.0279   -0.0025   -0.0100   -0.0109   -0.0008    0.0004
          28    0.0172   -0.1103   -0.0513   -0.0077   -0.0186    0.0285    0.0900   -0.0906
          29    0.0169    0.1335   -0.0496   -0.0288    0.0337    0.0493   -0.0903   -0.0799
          30   -0.0194   -0.0494   -0.0068    0.0109    0.0056    0.0110    0.0364   -0.0227
          31    0.0053    0.0338   -0.0072    0.0476   -0.0261   -0.0077    0.0626   -0.0600
          32   -0.0598    0.0652    0.0406    0.0601    0.0339   -0.0052   -0.0967    0.1456
          33   -0.0009    0.0315   -0.0005    0.0218   -0.0238   -0.0038    0.0441   -0.0433
          34    0.0077   -0.0508   -0.0119    0.0468    0.0347   -0.0056   -0.0064    0.0192
          35    0.0506   -0.0120   -0.0442   -0.0114   -0.0235    0.0137   -0.0097   -0.0146
          36   -0.0116    0.0077    0.0083    0.0181    0.0045   -0.0048    0.0066    0.0011
          37    0.0184   -0.0616   -0.0558   -0.0166    0.0183    0.0783   -0.0156    0.0725
          38    0.0486    0.0074   -0.0354   -0.0688   -0.0351    0.0589   -0.0001    0.0370
          39   -0.0112   -0.0263   -0.0012    0.0108    0.0106    0.0007    0.0032   -0.0011
          40   -0.0607    0.0549    0.0819   -0.0974    0.0021   -0.0621   -0.0326   -0.0394
          41   -0.0559   -0.0579    0.0602   -0.1058    0.0090   -0.0376   -0.0166   -0.0598
          42   -0.0090   -0.0284   -0.0001    0.0005    0.0056    0.0012    0.0011   -0.0046
          43   -0.0298   -0.1087    0.0481   -0.0532    0.0910   -0.0755   -0.0740    0.0038
          44    0.0505   -0.0470   -0.0336    0.0256    0.0320   -0.0048   -0.0122    0.0304
          45    0.0022   -0.0316    0.0067   -0.0206    0.0228   -0.0170   -0.0228    0.0037
          46   -0.0123    0.0526   -0.0024   -0.1426   -0.1039    0.1091    0.0296    0.0691
          47   -0.0438    0.0393    0.0250    0.0176   -0.0289    0.0101    0.0554   -0.0102
          48    0.0293   -0.0044   -0.0209   -0.0517   -0.0196    0.0314   -0.0165    0.0243
          49    0.0852    0.0649   -0.0239   -0.0810    0.0715   -0.1350    0.0874    0.0347
          50   -0.0189   -0.0185    0.0431   -0.0076    0.0050   -0.0346    0.0385    0.0161
          51   -0.0010    0.0017    0.0294   -0.0230    0.0259   -0.0564    0.0489    0.0214
          52   -0.0667   -0.0020   -0.0422   -0.0113    0.1171    0.1520    0.0401    0.0110
          53    0.0396   -0.0009   -0.0567   -0.0132   -0.0316    0.0396   -0.0137    0.0193
          54   -0.0338   -0.0093   -0.0167   -0.0055    0.0500    0.0697    0.0237    0.0159
          55    0.0362   -0.0296    0.0516    0.0160   -0.0390   -0.0039    0.0208    0.0634
          56   -0.0052    0.0183   -0.0281    0.0052    0.0092    0.0078   -0.0559   -0.0639
          57   -0.0691    0.0028   -0.0845   -0.0197   -0.0718   -0.0671    0.0084    0.0375
          58   -0.0486   -0.0017   -0.0340   -0.0067    0.0024   -0.0008   -0.0067   -0.0198
          59    0.0315    0.0367   -0.0140   -0.0520    0.1075    0.0122    0.0187   -0.0445
          60    0.1466   -0.0051    0.1150    0.0208    0.0064    0.0314   -0.0091   -0.0060
          61    0.0411    0.0432    0.0234   -0.0383    0.0260   -0.0050    0.0974    0.0672
          62   -0.0003   -0.0103   -0.0176   -0.0116    0.0264   -0.0192    0.0637    0.0494
          63    0.0044   -0.0306   -0.0670   -0.0079    0.0363   -0.0323   -0.0001    0.0257


   Root No.      25        26        27        28        29        30        31        32

                25 A      26 A      27 A      28 A      29 A      30 A      31 A      32 A   

                1091.3    1105.8    1119.6    1122.5    1141.7    1156.9    1188.2    1195.5
  
           1   -0.0037    0.0106   -0.0049    0.0124   -0.0144   -0.0033    0.0007    0.0251
           2   -0.0020    0.0119    0.0014    0.0055    0.0009   -0.0071    0.0293   -0.0290
           3   -0.0086    0.0145    0.0158   -0.0015    0.0300    0.0197    0.0074   -0.0052
           4    0.0057   -0.0071   -0.0080   -0.0122    0.0182    0.0048    0.0154   -0.0072
           5   -0.0053    0.0073   -0.0326    0.0088    0.0057    0.0030    0.0049   -0.0014
           6   -0.0060    0.0009   -0.0162    0.0280   -0.0151   -0.0062   -0.0079   -0.0021
           7    0.0002   -0.0052   -0.0075   -0.0020   -0.0003    0.0017    0.0016    0.0048
           8    0.0023    0.0001    0.0334   -0.0027   -0.0115   -0.0038   -0.0085    0.0183
           9   -0.0028    0.0166    0.0034   -0.0415   -0.0050   -0.0018    0.0054    0.0017
          10    0.0019    0.0029    0.0167    0.0013   -0.0056   -0.0036   -0.0137   -0.0086
          11    0.0024   -0.0005   -0.0137   -0.0055    0.0110    0.0036   -0.0024    0.0129
          12    0.0063   -0.0175    0.0167    0.0183    0.0039   -0.0002    0.0008   -0.0103
          13   -0.0085    0.0002    0.0071    0.0007    0.0014    0.0013    0.0053    0.0038
          14   -0.0003   -0.0123   -0.0061   -0.0047    0.0006   -0.0066   -0.0018    0.0192
          15   -0.0030   -0.0199   -0.0127   -0.0041   -0.0127   -0.0078    0.0062    0.0060
          16   -0.0033   -0.0034    0.0057   -0.0023    0.0002   -0.0040   -0.0087   -0.0253
          17   -0.0011   -0.0047    0.0005    0.0003   -0.0122   -0.0001    0.0089   -0.0359
          18    0.0127    0.0025   -0.0070    0.0009   -0.0017   -0.0010   -0.0160    0.0108
          19    0.0022    0.0013   -0.0028   -0.0002    0.0011    0.0022    0.0131   -0.0002
          20   -0.0053   -0.0036    0.0009   -0.0016    0.0035   -0.0040   -0.0061   -0.0039
          21    0.0053    0.0014    0.0007    0.0002   -0.0015   -0.0006    0.0021   -0.0018
          22    0.0060    0.0007   -0.0019    0.0004   -0.0027   -0.0017   -0.0114   -0.0142
          23    0.0124    0.0057    0.0028   -0.0002   -0.0010    0.0079   -0.0147    0.0013
          24   -0.0046   -0.0030    0.0009   -0.0001   -0.0000   -0.0011    0.0020   -0.0085
          25   -0.0093   -0.0033   -0.0040   -0.0009    0.0048   -0.0026    0.0039    0.0137
          26   -0.0063   -0.0040    0.0013   -0.0020    0.0005    0.0023   -0.0099   -0.0006
          27    0.0010    0.0007   -0.0034    0.0004    0.0005   -0.0004    0.0035    0.0067
          28   -0.0396    0.0966    0.0789    0.1060   -0.0838   -0.0165   -0.0492   -0.0829
          29    0.0982    0.1252    0.0327    0.0168    0.0460    0.0925   -0.1132    0.0714
          30   -0.0253    0.0414    0.0450    0.0321    0.0055    0.0124   -0.0066   -0.0453
          31    0.0312   -0.0498   -0.0145    0.0182    0.0294    0.0136   -0.0025    0.0205
          32   -0.0780    0.0546    0.0275    0.0907   -0.0811   -0.0271   -0.0119   -0.0086
          33    0.0206   -0.0332   -0.0079    0.0131    0.0177    0.0083   -0.0014    0.0159
          34   -0.0298    0.0633   -0.0596   -0.0889   -0.0092    0.0031   -0.0109    0.0349
          35    0.0799   -0.0887    0.2463   -0.0306    0.0067   -0.0084    0.0521   -0.0218
          36   -0.0200    0.0274   -0.0514   -0.0101   -0.0091   -0.0008   -0.0110    0.0078
          37   -0.0045   -0.0400   -0.0329   -0.0006    0.1613    0.0700   -0.0123   -0.0724
          38   -0.0197   -0.0291   -0.0908    0.0937    0.0760    0.0354   -0.0362   -0.0481
          39   -0.0031    0.0091    0.0074   -0.0158    0.0086    0.0051    0.0035   -0.0047
          40    0.0452   -0.0119   -0.0423   -0.0881   -0.0568   -0.0330   -0.0382   -0.0427
          41    0.0315    0.0145   -0.0244   -0.1119   -0.0133   -0.0068   -0.0190   -0.0220
          42   -0.0026    0.0093    0.0042   -0.0121    0.0087    0.0060    0.0024    0.0011
          43    0.0538   -0.0473    0.0148    0.1541    0.0227    0.0094    0.0234    0.1386
          44   -0.0027    0.0358   -0.0197   -0.0342    0.0036    0.0038   -0.0057    0.0678
          45    0.0156   -0.0114    0.0132    0.0375    0.0065    0.0027    0.0075    0.0458
          46   -0.0585    0.0633    0.0778   -0.0490    0.0050   -0.0011    0.0478    0.1234
          47    0.0051   -0.0215    0.0030    0.0179    0.0282    0.0080    0.0096    0.0394
          48   -0.0200    0.0321    0.0232   -0.0313   -0.0126   -0.0045    0.0103    0.0122
          49   -0.0712   -0.0219    0.0541   -0.0210    0.0564   -0.0462   -0.0877   -0.0086
          50   -0.0265    0.0003    0.0298   -0.0110    0.0503   -0.0169   -0.0456    0.0316
          51   -0.0365   -0.0040    0.0343   -0.0127    0.0509   -0.0181   -0.0493    0.0199
          52    0.0333   -0.0747   -0.0278   -0.0179   -0.0644   -0.0879   -0.0649    0.0102
          53    0.0280   -0.0673   -0.0554   -0.0124   -0.0564   -0.0574   -0.0198    0.0383
          54    0.0141   -0.0491   -0.0193   -0.0133   -0.0335   -0.0474   -0.0316    0.0048
          55    0.0571   -0.0069   -0.0100   -0.0109   -0.0747    0.1675   -0.0464   -0.0403
          56   -0.0517    0.0029    0.0086    0.0071    0.0676   -0.1443    0.0426    0.0300
          57    0.0152   -0.0101   -0.0125   -0.0058   -0.0308    0.0675   -0.0109   -0.0117
          58   -0.0249   -0.0168   -0.0052   -0.0032   -0.0169    0.0410    0.0289    0.0269
          59   -0.0906   -0.0721    0.0047   -0.0151   -0.0941    0.1937    0.0982    0.0481
          60   -0.0011    0.0011    0.0005   -0.0002    0.0092   -0.0158   -0.0042   -0.0022
          61    0.1126    0.0865   -0.0378    0.0329   -0.0041   -0.0586    0.1394   -0.0109
          62    0.0642    0.0479   -0.0162    0.0146   -0.0022   -0.0175    0.0516    0.0013
          63    0.0385    0.0326   -0.0176    0.0114   -0.0004   -0.0222    0.0488   -0.0108


   Root No.      33        34        35        36        37        38        39        40

                33 A      34 A      35 A      36 A      37 A      38 A      39 A      40 A   

                1229.0    1270.8    1305.4    1333.9    1376.1    1377.0    1399.2    1410.4
  
           1    0.0472    0.0186   -0.0189   -0.0194   -0.0306   -0.0182    0.0265   -0.0108
           2    0.0075   -0.0189    0.0157   -0.0172    0.0203   -0.0129    0.0204    0.0085
           3    0.0167    0.0035   -0.0020   -0.0041   -0.0196   -0.0047    0.0117   -0.0034
           4    0.0038   -0.0317    0.0242    0.0336    0.0007    0.0092   -0.0163    0.0296
           5    0.0196   -0.0254   -0.0058    0.0282   -0.0005    0.0073   -0.0112   -0.0219
           6   -0.0102    0.0007    0.0061    0.0017    0.0030    0.0004   -0.0023    0.0018
           7   -0.0155   -0.0076   -0.0282   -0.0066    0.0029   -0.0008    0.0052   -0.0273
           8   -0.0008    0.0245    0.0656   -0.0142    0.0085   -0.0069    0.0143    0.0045
           9   -0.0007   -0.0083   -0.0163    0.0022    0.0001    0.0005   -0.0001   -0.0097
          10    0.0077    0.0380    0.0112    0.0391   -0.0033   -0.0235   -0.0027    0.0056
          11   -0.0096   -0.0003   -0.0115    0.0075   -0.0163    0.0093   -0.0275   -0.0129
          12    0.0039    0.0102    0.0051    0.0095    0.0018   -0.0093    0.0059    0.0043
          13    0.0166    0.0213   -0.0133   -0.0092    0.0398    0.0272   -0.0071   -0.0019
          14   -0.0054    0.0150   -0.0067    0.0006    0.0107   -0.0159   -0.0369   -0.0011
          15    0.0090    0.0100   -0.0063   -0.0061    0.0191    0.0024   -0.0135   -0.0012
          16    0.0136   -0.0045   -0.0013   -0.0065    0.0054    0.0156   -0.0026    0.0042
          17    0.0063    0.0071    0.0006   -0.0135   -0.0258    0.0104    0.0111   -0.0027
          18    0.0052    0.0004   -0.0024    0.0033    0.0108    0.0027   -0.0056    0.0025
          19   -0.0232    0.0069    0.0068    0.0164   -0.0138    0.0010   -0.0048    0.0064
          20   -0.0079   -0.0135    0.0051   -0.0012   -0.0095   -0.0089    0.0071   -0.0026
          21   -0.0077    0.0009    0.0027    0.0054   -0.0038    0.0016   -0.0012    0.0026
          22    0.0119   -0.0125   -0.0012   -0.0106    0.0193    0.0190   -0.0052    0.0057
          23    0.0204    0.0100   -0.0072    0.0035    0.0151    0.0173   -0.0112    0.0068
          24   -0.0015   -0.0093    0.0019   -0.0059    0.0044    0.0040    0.0009    0.0008
          25   -0.0126   -0.0110    0.0033   -0.0027   -0.0113   -0.0208    0.0083   -0.0076
          26    0.0031   -0.0166    0.0009   -0.0101    0.0015   -0.0084    0.0098   -0.0059
          27   -0.0040    0.0006    0.0002    0.0009   -0.0034   -0.0053    0.0006   -0.0016
          28   -0.1202   -0.0307    0.0176    0.0193    0.0400    0.0246   -0.0314    0.0187
          29   -0.0244    0.0253   -0.0241    0.0279   -0.0173    0.0070   -0.0331   -0.0103
          30   -0.0414   -0.0144    0.0115    0.0081    0.0070    0.0097   -0.0075    0.0072
          31   -0.0264    0.0070    0.0407   -0.0611   -0.0084    0.0232   -0.0108    0.0719
          32   -0.0379   -0.0034   -0.1709   -0.0136   -0.0281    0.0140   -0.0329    0.0104
          33   -0.0224    0.0052    0.0232   -0.0690   -0.0218    0.0356   -0.0297    0.1182
          34   -0.0304    0.0088    0.0345   -0.0825   -0.0225    0.0404   -0.0324    0.1357
          35   -0.0076   -0.0334   -0.1552    0.0037   -0.0244    0.0137   -0.0288   -0.0040
          36    0.0033    0.0062    0.0374    0.0113    0.0148   -0.0136    0.0200   -0.0386
          37   -0.0727    0.0736    0.0027   -0.0736    0.0352   -0.0147    0.0304   -0.1110
          38   -0.0435    0.0588   -0.0785   -0.0551   -0.0296   -0.0239    0.0213    0.1067
          39   -0.0075   -0.0012    0.0337    0.0018    0.0309    0.0069   -0.0004   -0.1168
          40   -0.1264    0.0493   -0.0024   -0.0614    0.0577   -0.0043    0.0122   -0.1032
          41   -0.0390    0.0347   -0.1105   -0.0537   -0.0289   -0.0185    0.0190    0.1008
          42    0.0131   -0.0001   -0.0416   -0.0041   -0.0373   -0.0083    0.0028    0.1228
          43   -0.0326   -0.0781    0.0231   -0.0789   -0.0046    0.0487   -0.0257   -0.0266
          44   -0.0315   -0.0272   -0.0708    0.0500    0.1187   -0.0852    0.1004    0.0592
          45   -0.0135   -0.0271   -0.0154   -0.0011    0.0545   -0.0298    0.0506    0.0248
          46   -0.0321   -0.0806    0.0165   -0.0653    0.0318    0.0162    0.0185   -0.0021
          47   -0.0287   -0.0255   -0.0575    0.0357    0.0826   -0.0610    0.0704    0.0407
          48    0.0096   -0.0069    0.0574   -0.0599   -0.0909    0.0812   -0.0912   -0.0558
          49   -0.0308   -0.0628    0.0224   -0.0083   -0.0707   -0.1128   -0.0449   -0.0036
          50   -0.0468    0.0072   -0.0024    0.0503   -0.0444    0.0856    0.0750   -0.0016
          51   -0.0420   -0.0013   -0.0003    0.0532   -0.0500    0.1196    0.1176   -0.0021
          52   -0.0142   -0.0550    0.0172    0.0037   -0.0602   -0.0468    0.0119    0.0002
          53   -0.0271    0.0056   -0.0045    0.0567   -0.0366    0.1504    0.1443   -0.0000
          54   -0.0041   -0.0325    0.0111   -0.0118   -0.0295   -0.0803   -0.0442   -0.0007
          55   -0.0040   -0.0854    0.0209   -0.0154   -0.0290   -0.0297    0.0379   -0.0089
          56   -0.0273    0.0628   -0.0058    0.0267    0.0011    0.0154   -0.0288    0.0102
          57    0.0040   -0.0290    0.0059   -0.0079   -0.0066   -0.0110    0.0125   -0.0038
          58   -0.0298    0.0093    0.0046    0.0120   -0.0183   -0.0192    0.0029   -0.0039
          59   -0.0682    0.0757    0.0058    0.0538   -0.0225    0.0082   -0.0172    0.0133
          60   -0.0009   -0.0085    0.0011   -0.0044   -0.0021   -0.0073    0.0026   -0.0032
          61   -0.0688    0.0358    0.0094    0.0061   -0.0583   -0.0289    0.0161   -0.0129
          62   -0.0139    0.0334   -0.0022    0.0120   -0.0196   -0.0034   -0.0019   -0.0009
          63   -0.0266    0.0056    0.0076   -0.0002   -0.0195   -0.0119    0.0087   -0.0044


   Root No.      41        42        43        44        45        46        47        48

                41 A      42 A      43 A      44 A      45 A      46 A      47 A      48 A   

                1423.8    1427.5    1448.9    1840.4    1901.7    2866.5    2942.0    2965.9
  
           1    0.0040    0.0098    0.0234    0.0014   -0.0152    0.0211    0.0013    0.0003
           2    0.0179   -0.0263    0.0678   -0.0020    0.0189   -0.0017   -0.0001   -0.0000
           3   -0.0023    0.0080   -0.0019   -0.0006   -0.0132   -0.0597   -0.0040   -0.0007
           4   -0.0056   -0.0082   -0.0191   -0.0007   -0.0042    0.0007    0.0003    0.0006
           5    0.0144    0.0238   -0.0040    0.0025    0.0062    0.0001   -0.0006   -0.0008
           6    0.0006   -0.0010   -0.0006   -0.0000   -0.0020    0.0038   -0.0016   -0.0109
           7   -0.0281   -0.0124   -0.0029   -0.0010   -0.0065   -0.0000   -0.0001   -0.0061
           8   -0.0180   -0.0064   -0.0090   -0.0004   -0.0026   -0.0001    0.0000    0.0021
           9   -0.0078   -0.0049    0.0008   -0.0004   -0.0015   -0.0002    0.0003    0.0182
          10    0.0321   -0.0166    0.0069   -0.0041   -0.0336   -0.0001   -0.0000    0.0084
          11    0.0153   -0.0290    0.0186   -0.0037   -0.0191   -0.0001    0.0000   -0.0064
          12    0.0064    0.0019   -0.0028   -0.0002   -0.0071    0.0002    0.0001   -0.0288
          13    0.0132   -0.0188   -0.0510   -0.0269    0.0088   -0.0021    0.0201   -0.0000
          14   -0.0097    0.0084   -0.0196    0.0155   -0.0053   -0.0021    0.0128   -0.0002
          15    0.0029   -0.0051   -0.0218   -0.0093    0.0042    0.0048   -0.0505    0.0004
          16   -0.0179    0.0160    0.0062    0.0327    0.2298   -0.0006    0.0000   -0.0000
          17   -0.0251    0.0349   -0.0628    0.0032   -0.0234    0.0009   -0.0002   -0.0000
          18    0.0010   -0.0051    0.0226    0.0148    0.1129   -0.0005   -0.0001   -0.0000
          19   -0.0195    0.0179    0.0428    0.1033   -0.0226   -0.0000   -0.0000    0.0000
          20    0.0069   -0.0039   -0.0112   -0.2055    0.0352    0.0001   -0.0011    0.0000
          21   -0.0065    0.0055    0.0145    0.0502   -0.0110   -0.0001    0.0000    0.0000
          22   -0.0155    0.0107    0.0221   -0.0440   -0.1961    0.0006   -0.0001    0.0001
          23   -0.0166    0.0101    0.0434   -0.0350    0.0017    0.0001   -0.0000    0.0000
          24   -0.0026    0.0022   -0.0020   -0.0125   -0.0933    0.0001    0.0000   -0.0000
          25    0.0214   -0.0163   -0.0333   -0.0333    0.0269   -0.0001    0.0002    0.0000
          26    0.0202   -0.0179   -0.0332    0.2349   -0.0258   -0.0002    0.0003   -0.0000
          27    0.0039   -0.0028   -0.0053   -0.0357    0.0118    0.0001   -0.0002   -0.0000
          28   -0.0094   -0.0113   -0.0292   -0.0009    0.0139   -0.2576   -0.0140   -0.0033
          29   -0.0167    0.0271   -0.0525    0.0038    0.0053    0.0218    0.0048    0.0002
          30   -0.0057   -0.0017   -0.0163    0.0000    0.0034    0.7283    0.0467    0.0068
          31    0.0583    0.0506   -0.0039   -0.0002   -0.0031   -0.0006    0.0016    0.1099
          32    0.0775    0.0252    0.0285   -0.0001   -0.0021    0.0000    0.0002    0.0215
          33    0.1222    0.0830    0.0081    0.0012    0.0078    0.0004   -0.0011   -0.0737
          34    0.1312    0.0885    0.0075    0.0003    0.0033    0.0003   -0.0005   -0.0379
          35    0.0575    0.0145    0.0231   -0.0005   -0.0029   -0.0001   -0.0006   -0.0481
          36   -0.0606   -0.0301   -0.0113   -0.0008   -0.0054    0.0006   -0.0022   -0.1453
          37    0.0366    0.0327    0.0518   -0.0003    0.0019    0.0072   -0.0084   -0.0355
          38   -0.0623   -0.0793    0.0024   -0.0001   -0.0000   -0.0148    0.0076    0.0439
          39    0.0545    0.0664    0.0232    0.0017    0.0046   -0.0252    0.0143    0.0778
          40    0.0391    0.0241    0.0492   -0.0014   -0.0020   -0.0058    0.0023    0.0268
          41   -0.0636   -0.0790    0.0031   -0.0006    0.0028    0.0144   -0.0024   -0.0340
          42   -0.0607   -0.0700   -0.0253   -0.0019   -0.0091   -0.0224    0.0030    0.0526
          43   -0.0357   -0.0216    0.0233    0.0036    0.0282    0.0003    0.0001   -0.0462
          44   -0.0073    0.0704   -0.0208   -0.0013   -0.0007    0.0008    0.0003   -0.1001
          45   -0.0178    0.0391   -0.0133    0.0023    0.0137   -0.0016   -0.0006    0.2062
          46   -0.0404    0.0117    0.0044    0.0023    0.0179    0.0006    0.0002   -0.0548
          47   -0.0027    0.0479   -0.0144   -0.0015   -0.0087   -0.0025   -0.0006    0.1776
          48   -0.0021   -0.0698    0.0308    0.0010    0.0062   -0.0020   -0.0005    0.1403
          49   -0.0302    0.0418    0.0290   -0.0461   -0.0022   -0.0028    0.0128   -0.0001
          50    0.0047    0.0019    0.0013    0.0070   -0.0109    0.0284   -0.2811    0.0033
          51    0.0179   -0.0101    0.0024   -0.0148   -0.0037   -0.0255    0.1984   -0.0026
          52   -0.0111    0.0189    0.0426   -0.0070   -0.0001    0.0265   -0.2583    0.0016
          53    0.0299   -0.0245    0.0225   -0.0036    0.0023   -0.0094    0.1324   -0.0005
          54   -0.0206    0.0251    0.0234    0.0006   -0.0036   -0.0373    0.4100   -0.0019
          55    0.0324   -0.0241   -0.0238   -0.1194    0.0284   -0.0003    0.0056   -0.0001
          56   -0.0366    0.0316    0.0438   -0.0679    0.0025   -0.0007    0.0089   -0.0002
          57    0.0134   -0.0105   -0.0103   -0.0214    0.0078   -0.0001   -0.0008    0.0000
          58    0.0103   -0.0066   -0.0087   -0.1253    0.0465   -0.0003   -0.0001    0.0000
          59   -0.0364    0.0309    0.0834   -0.0242    0.0445    0.0000   -0.0001    0.0000
          60    0.0079   -0.0058   -0.0168   -0.0301    0.0087   -0.0000   -0.0008    0.0000
          61    0.0073    0.0081   -0.0854   -0.0331    0.0203    0.0010    0.0002    0.0001
          62   -0.0077    0.0100   -0.0016   -0.0240    0.1346   -0.0018   -0.0007   -0.0003
          63    0.0052    0.0009   -0.0355   -0.0113   -0.0413   -0.0002    0.0002    0.0003


   Root No.      49        50        51        52        53        54        55        56

                49 A      50 A      51 A      52 A      53 A      54 A      55 A      56 A   

                2974.2    2988.6    3026.5    3050.5    3057.0    3060.4    3066.8    3071.7
  
           1    0.0005    0.0003   -0.0003   -0.0002   -0.0002   -0.0005    0.0001    0.0000
           2    0.0001   -0.0001   -0.0006   -0.0003   -0.0000    0.0000    0.0003    0.0001
           3   -0.0012   -0.0009    0.0000    0.0001   -0.0002   -0.0002   -0.0001   -0.0001
           4    0.0018    0.0011    0.0003   -0.0004   -0.0002   -0.0174   -0.0072    0.0001
           5   -0.0023   -0.0015   -0.0007    0.0003    0.0003    0.0232    0.0090   -0.0001
           6   -0.0301   -0.0181    0.0014   -0.0000   -0.0001   -0.0063   -0.0027    0.0001
           7   -0.0035    0.0093   -0.0001   -0.0050    0.0002    0.0115   -0.0249    0.0004
           8    0.0013   -0.0034    0.0000   -0.0014    0.0001    0.0049   -0.0096    0.0002
           9    0.0107   -0.0283    0.0002   -0.0013    0.0000    0.0024   -0.0054    0.0001
          10   -0.0049    0.0033   -0.0000   -0.0013    0.0000    0.0002   -0.0002    0.0002
          11    0.0037   -0.0026   -0.0001    0.0360   -0.0004    0.0006   -0.0038   -0.0001
          12    0.0168   -0.0115    0.0000   -0.0085    0.0001   -0.0002    0.0008    0.0000
          13   -0.0001    0.0001    0.0142    0.0001   -0.0005    0.0003    0.0001    0.0006
          14   -0.0006   -0.0004   -0.0376   -0.0001    0.0024   -0.0005   -0.0002   -0.0020
          15    0.0010    0.0004    0.0021    0.0000   -0.0006   -0.0004   -0.0002    0.0004
          16    0.0002    0.0000    0.0001    0.0005   -0.0001    0.0002    0.0005   -0.0022
          17   -0.0000   -0.0000    0.0003    0.0003    0.0001   -0.0001   -0.0001    0.0003
          18    0.0001   -0.0001    0.0000    0.0001   -0.0001    0.0001    0.0002   -0.0011
          19    0.0000    0.0000    0.0035    0.0002    0.0203   -0.0001   -0.0001   -0.0133
          20    0.0000    0.0000    0.0039    0.0003    0.0262   -0.0001   -0.0002   -0.0211
          21    0.0000    0.0000    0.0007    0.0000    0.0037   -0.0000   -0.0000   -0.0020
          22   -0.0001    0.0000   -0.0001   -0.0001    0.0022   -0.0001    0.0001    0.0102
          23   -0.0000    0.0000   -0.0001   -0.0003   -0.0060    0.0001   -0.0004   -0.0273
          24    0.0000   -0.0000   -0.0000    0.0001    0.0030   -0.0001    0.0002    0.0138
          25   -0.0000    0.0000   -0.0001   -0.0003   -0.0298    0.0004   -0.0001   -0.0182
          26    0.0000   -0.0000    0.0001    0.0001    0.0056   -0.0001    0.0000    0.0066
          27    0.0000   -0.0000   -0.0000   -0.0001   -0.0092    0.0001   -0.0000   -0.0059
          28   -0.0074   -0.0048    0.0018    0.0002   -0.0003   -0.0018   -0.0008   -0.0003
          29    0.0004    0.0002   -0.0013   -0.0001    0.0002    0.0005    0.0002    0.0001
          30    0.0139    0.0090   -0.0049   -0.0004    0.0007    0.0028    0.0013    0.0003
          31    0.0649   -0.1745    0.0017    0.0447   -0.0016   -0.1160    0.2519   -0.0042
          32    0.0099   -0.0335    0.0003    0.0085   -0.0002   -0.0175    0.0409   -0.0007
          33   -0.0416    0.1125   -0.0011   -0.0356    0.0012    0.0892   -0.1945    0.0032
          34   -0.0240    0.0630   -0.0004    0.0089   -0.0003   -0.0222    0.0485   -0.0008
          35   -0.0252    0.0747   -0.0005    0.0154   -0.0004   -0.0344    0.0776   -0.0013
          36   -0.0868    0.2258   -0.0011    0.0489   -0.0015   -0.1190    0.2599   -0.0042
          37   -0.0972   -0.0575    0.0005    0.0027    0.0010    0.0853    0.0335   -0.0002
          38    0.1248    0.0778   -0.0025   -0.0038   -0.0013   -0.1102   -0.0444    0.0002
          39    0.2154    0.1292   -0.0025   -0.0073   -0.0027   -0.2265   -0.0903    0.0005
          40    0.0740    0.0437   -0.0067    0.0034    0.0018    0.1267    0.0507   -0.0005
          41   -0.0970   -0.0599    0.0086   -0.0053   -0.0023   -0.1669   -0.0691    0.0007
          42    0.1459    0.0867   -0.0144    0.0087    0.0042    0.3005    0.1222   -0.0013
          43    0.0255   -0.0159    0.0003   -0.0842    0.0010   -0.0019    0.0084    0.0003
          44    0.0591   -0.0410    0.0005   -0.1441    0.0016   -0.0043    0.0157    0.0002
          45   -0.1201    0.0819   -0.0012    0.3696   -0.0040    0.0108   -0.0402   -0.0004
          46    0.0336   -0.0238   -0.0002    0.1012   -0.0011    0.0032   -0.0116   -0.0002
          47   -0.1056    0.0724    0.0006   -0.2870    0.0032   -0.0078    0.0308    0.0010
          48   -0.0823    0.0552    0.0006   -0.2673    0.0030   -0.0071    0.0285    0.0008
          49   -0.0002   -0.0001    0.0071    0.0000    0.0022    0.0001   -0.0000   -0.0015
          50    0.0096    0.0058    0.3878    0.0006   -0.0265    0.0041    0.0013    0.0193
          51   -0.0075   -0.0046   -0.3216   -0.0005    0.0224   -0.0037   -0.0012   -0.0162
          52    0.0037    0.0008   -0.1766   -0.0004    0.0085   -0.0054   -0.0020   -0.0065
          53   -0.0013   -0.0000    0.0658    0.0002   -0.0021    0.0018    0.0007    0.0017
          54   -0.0040   -0.0000    0.3002    0.0007   -0.0134    0.0076    0.0028    0.0106
          55   -0.0002   -0.0002   -0.0336   -0.0029   -0.2450    0.0014    0.0016    0.1705
          56   -0.0004   -0.0003   -0.0472   -0.0037   -0.3077    0.0017    0.0020    0.2186
          57   -0.0000   -0.0000   -0.0064   -0.0005   -0.0455    0.0003    0.0003    0.0314
          58   -0.0001   -0.0000   -0.0018    0.0036    0.3529   -0.0042    0.0007    0.2035
          59    0.0000    0.0000    0.0009   -0.0007   -0.0693    0.0008   -0.0002   -0.0446
          60   -0.0000    0.0000   -0.0008    0.0011    0.1092   -0.0013    0.0002    0.0636
          61   -0.0002    0.0001   -0.0000   -0.0008   -0.0226    0.0004   -0.0016   -0.0969
          62    0.0004   -0.0002    0.0001    0.0043    0.0690   -0.0011    0.0050    0.3213
          63   -0.0003    0.0001   -0.0000   -0.0020   -0.0332    0.0006   -0.0024   -0.1513


   Root No.      57

                57 A   

                3081.1
  
           1   -0.0004
           2    0.0001
           3   -0.0003
           4    0.0001
           5   -0.0001
           6    0.0000
           7    0.0002
           8    0.0001
           9    0.0000
          10    0.0002
          11   -0.0001
          12    0.0000
          13   -0.0005
          14    0.0017
          15   -0.0004
          16   -0.0026
          17   -0.0001
          18   -0.0012
          19    0.0102
          20    0.0180
          21    0.0014
          22    0.0094
          23   -0.0269
          24    0.0131
          25    0.0259
          26   -0.0076
          27    0.0083
          28   -0.0004
          29    0.0002
          30    0.0006
          31   -0.0015
          32   -0.0002
          33    0.0012
          34   -0.0002
          35   -0.0004
          36   -0.0014
          37   -0.0002
          38    0.0004
          39    0.0007
          40   -0.0004
          41    0.0005
          42   -0.0010
          43    0.0004
          44    0.0004
          45   -0.0010
          46   -0.0004
          47    0.0015
          48    0.0012
          49    0.0012
          50   -0.0157
          51    0.0131
          52    0.0050
          53   -0.0013
          54   -0.0082
          55   -0.1326
          56   -0.1708
          57   -0.0241
          58   -0.2877
          59    0.0571
          60   -0.0889
          61   -0.0897
          62    0.3069
          63   -0.1433


           MASS-WEIGHTED COORDINATE ANALYSIS (NORMAL COORDINATES)


   Root No.       1         2         3         4         5         6         7         8

                 1 A       2 A       3 A       4 A       5 A       6 A       7 A       8 A   

                  87.7     119.2     187.0     332.4     367.0     432.0     497.0     522.5
  
           1    0.0306   -0.0778   -0.0087   -0.1005   -0.2119   -0.0709   -0.0912    0.1836
           2   -0.0258   -0.0017    0.0166    0.0120    0.3202   -0.0392   -0.1501    0.0841
           3   -0.1229    0.0335    0.1187    0.4096   -0.0310    0.1787   -0.0695    0.1937
           4    0.0258   -0.0842   -0.0036   -0.0841   -0.2792   -0.0525   -0.1809    0.2158
           5    0.0172   -0.0064   -0.0022   -0.0225   -0.1312    0.0553   -0.1095   -0.1649
           6    0.0253    0.4951   -0.0201   -0.1450   -0.1252   -0.0378   -0.0359    0.0283
           7   -0.1134    0.0697    0.0042   -0.0327    0.0414   -0.0398   -0.3177   -0.0544
           8    0.0522   -0.0481   -0.0095   -0.0568   -0.2782    0.0644   -0.0739   -0.1434
           9    0.4175   -0.2467   -0.0649   -0.0848    0.0485   -0.0266   -0.0939    0.0214
          10    0.1335    0.0253    0.0663   -0.0163    0.1941   -0.0461   -0.2205   -0.1889
          11   -0.0876   -0.0466   -0.0674   -0.0621    0.0714    0.0193    0.0002   -0.2860
[...]
 FREQUENCY          1410.39         C  2 -- H 13         +20.7% ( 48.9%)      4.1%
 TRANSITION DIPOLE   0.0353         C  2 -- H 14         +19.7% ( 47.7%)      5.9%
 TRAVEL (Ang.)       0.3829         C  3 -- H 12         +11.5% ( 36.5%)      3.9%
 REDUCED MASS        0.3261         C  3 -- H 11         +11.2% ( 35.9%)      5.0%
 EFFECTIVE MASS      3.1728
 FORCE CONSTANT      0.3822

 VIBRATION         41   41A           ATOM PAIR      ENERGY CONTRIBUTION    RADIAL
 FREQUENCY          1423.79         C  3 -- H 12         +10.5% ( 41.8%)      5.4%
 TRANSITION DIPOLE   0.0764         C  3 -- H 11         +10.4% ( 41.6%)      6.3%
 TRAVEL (Ang.)       0.3150         C  4 -- C  6         +10.1% ( 41.0%)     99.9%
 REDUCED MASS        0.4774         C  3 -- C  4          +8.5% ( 37.7%)     23.9%
 EFFECTIVE MASS      6.2493
 FORCE CONSTANT      0.5702

 VIBRATION         42   42A           ATOM PAIR      ENERGY CONTRIBUTION    RADIAL
 FREQUENCY          1427.47         C  4 -- C  6         +12.6% ( 46.5%)     83.2%
 TRANSITION DIPOLE   0.0594         C  1 -- C  6         +10.2% ( 41.9%)     82.9%
 TRAVEL (Ang.)       0.2961         C  4 -- H 16          +5.9% ( 31.7%)      7.2%
 REDUCED MASS        0.5388         C  2 -- H 13          +5.8% ( 31.4%)      4.9%
 EFFECTIVE MASS      6.6636
 FORCE CONSTANT      0.6469

 VIBRATION         43   43A           ATOM PAIR      ENERGY CONTRIBUTION    RADIAL
 FREQUENCY          1448.95         C  1 -- C  6         +14.7% ( 58.9%)     79.8%
 TRANSITION DIPOLE   0.1869         C  1 -- C  5         +11.7% ( 52.5%)     87.1%
 TRAVEL (Ang.)       0.1717         C  5 -- C  7          +8.9% ( 45.9%)     91.5%
 REDUCED MASS        1.5789         C  8 -- C  9          +8.9% ( 45.7%)     99.5%
 EFFECTIVE MASS     10.5322
 FORCE CONSTANT      1.9530

 VIBRATION         44   44A           ATOM PAIR      ENERGY CONTRIBUTION    RADIAL
 FREQUENCY          1840.42         C  7 -- C  9         +42.9% ( 96.9%)     99.9%
 TRANSITION DIPOLE   0.2305         C  8 -- C  9         +15.0% ( 57.3%)     62.2%
 TRAVEL (Ang.)       0.0843         C  5 -- C  7         +13.6% ( 54.5%)     48.3%
 REDUCED MASS        5.1544         C  9 -- H 20         +13.0% ( 53.3%)      4.4%
 EFFECTIVE MASS     11.8847         C  7 -- H 19         +12.5% ( 52.3%)      5.3%
 FORCE CONSTANT     10.2863

 VIBRATION         45   45A           ATOM PAIR      ENERGY CONTRIBUTION    RADIAL
 FREQUENCY          1901.70         C  6 -- C  8         +42.3% ( 96.3%)     99.3%
 TRANSITION DIPOLE   0.5507         C  4 -- C  6         +17.1% ( 61.2%)     50.1%
 TRAVEL (Ang.)       0.0812         C  1 -- C  6         +16.5% ( 60.2%)     29.5%
 REDUCED MASS        5.3719         C  8 -- C  9         +10.8% ( 48.6%)     26.3%
 EFFECTIVE MASS     11.8911         C  8 -- H 21         +10.1% ( 47.0%)      5.9%
 FORCE CONSTANT     11.4462

 VIBRATION         46   46A           ATOM PAIR      ENERGY CONTRIBUTION    RADIAL
 FREQUENCY          2866.45         C  1 -- H 10         +96.0% ( 99.6%)    100.0%
 TRANSITION DIPOLE   0.0733         C  1 -- C  5          +1.0% ( 10.2%)      8.3%
 TRAVEL (Ang.)       0.1605         C  1 -- C  2          +1.0% ( 10.2%)      9.4%
 REDUCED MASS        0.9133         C  1 -- C  6          +1.0% ( 10.0%)      7.8%
 EFFECTIVE MASS      1.4392
 FORCE CONSTANT      4.4213

 VIBRATION         47   47A           ATOM PAIR      ENERGY CONTRIBUTION    RADIAL
 FREQUENCY          2942.00         C  5 -- H 18         +64.7% ( 83.3%)     97.9%
 TRANSITION DIPOLE   0.0339         C  5 -- H 17         +32.4% ( 59.0%)     94.0%
 TRAVEL (Ang.)       0.2020         C  5 -- C  7          +1.1% ( 10.9%)      0.1%
 REDUCED MASS        0.5616         C  1 -- C  5          +1.1% ( 10.8%)      0.5%
 EFFECTIVE MASS      1.5289
 FORCE CONSTANT      2.8640

 VIBRATION         48   48A           ATOM PAIR      ENERGY CONTRIBUTION    RADIAL
 FREQUENCY          2965.88         C  4 -- H 15         +32.1% ( 59.0%)     96.5%
 TRANSITION DIPOLE   0.0378         C  4 -- H 16         +31.9% ( 58.8%)     96.4%
 TRAVEL (Ang.)       0.2937         C  3 -- H 12         +14.6% ( 39.7%)     96.9%
 REDUCED MASS        0.2635         C  3 -- H 11         +10.8% ( 34.3%)     95.2%
 EFFECTIVE MASS      1.5563
 FORCE CONSTANT      1.3657

 VIBRATION         49   49A           ATOM PAIR      ENERGY CONTRIBUTION    RADIAL
 FREQUENCY          2974.23         C  2 -- H 13         +42.6% ( 67.8%)     97.9%
 TRANSITION DIPOLE   0.0131         C  2 -- H 14         +22.9% ( 49.7%)     94.2%
 TRAVEL (Ang.)       0.2818         C  4 -- H 16         +11.6% ( 35.3%)     96.7%
 REDUCED MASS        0.2856         C  4 -- H 15         +11.3% ( 34.9%)     96.6%
 EFFECTIVE MASS      1.5380
 FORCE CONSTANT      1.4885

 VIBRATION         50   50A           ATOM PAIR      ENERGY CONTRIBUTION    RADIAL
 FREQUENCY          2988.60         C  3 -- H 12         +36.4% ( 62.3%)     97.4%
 TRANSITION DIPOLE   0.0491         C  3 -- H 11         +27.3% ( 54.0%)     95.7%
 TRAVEL (Ang.)       0.2938         C  2 -- H 13         +15.4% ( 40.6%)     98.1%
 REDUCED MASS        0.2614         C  2 -- H 14          +8.2% ( 29.5%)     94.4%
 EFFECTIVE MASS      1.5244
 FORCE CONSTANT      1.3757

 VIBRATION         51   51A           ATOM PAIR      ENERGY CONTRIBUTION    RADIAL
 FREQUENCY          3026.52         C  5 -- H 17         +66.2% ( 80.3%)     99.1%
 TRANSITION DIPOLE   0.0654         C  5 -- H 18         +31.4% ( 55.3%)     94.5%
 TRAVEL (Ang.)       0.2059         C  7 -- H 19          +1.0% (  9.7%)    100.0%
 REDUCED MASS        0.5257         C  5 -- C  7          +0.7% (  8.1%)     19.1%
 EFFECTIVE MASS      1.2890
 FORCE CONSTANT      2.8371

 VIBRATION         52   52A           ATOM PAIR      ENERGY CONTRIBUTION    RADIAL
 FREQUENCY          3050.51         C  4 -- H 15         +48.4% ( 68.6%)     97.7%
 TRANSITION DIPOLE   0.0926         C  4 -- H 16         +48.3% ( 68.5%)     97.6%
 TRAVEL (Ang.)       0.2177         C  3 -- H 11          +1.0% (  9.9%)     98.1%
 REDUCED MASS        0.4663         C  3 -- H 12          +0.8% (  8.8%)     96.6%
 EFFECTIVE MASS      1.2818
 FORCE CONSTANT      2.5567

 VIBRATION         53   53A           ATOM PAIR      ENERGY CONTRIBUTION    RADIAL
 FREQUENCY          3056.99         C  7 -- H 19         +50.0% ( 71.8%)    100.0%
 TRANSITION DIPOLE   0.2622         C  9 -- H 20         +45.1% ( 68.2%)    100.0%
 TRAVEL (Ang.)       0.2232         C  8 -- H 21          +2.1% ( 14.6%)     99.9%
 REDUCED MASS        0.4428         C  7 -- C  9          +1.1% ( 10.6%)      0.0%
 EFFECTIVE MASS      1.4645
 FORCE CONSTANT      2.4379

 VIBRATION         54   54A           ATOM PAIR      ENERGY CONTRIBUTION    RADIAL
 FREQUENCY          3060.38         C  2 -- H 14         +55.2% ( 73.4%)     99.0%
 TRANSITION DIPOLE   0.0395         C  2 -- H 13         +28.0% ( 52.2%)     94.7%
 TRAVEL (Ang.)       0.2383         C  3 -- H 11          +8.9% ( 29.4%)     98.4%
 REDUCED MASS        0.3879         C  3 -- H 12          +6.4% ( 24.9%)     96.5%
 EFFECTIVE MASS      1.2871
 FORCE CONSTANT      2.1404

 VIBRATION         55   55A           ATOM PAIR      ENERGY CONTRIBUTION    RADIAL
 FREQUENCY          3066.81         C  3 -- H 11         +47.3% ( 67.8%)     98.5%
 TRANSITION DIPOLE   0.0545         C  3 -- H 12         +34.2% ( 57.6%)     96.6%
 TRAVEL (Ang.)       0.2502         C  2 -- H 14         +10.3% ( 31.6%)     99.1%
 REDUCED MASS        0.3513         C  2 -- H 13          +5.0% ( 22.0%)     94.5%
 EFFECTIVE MASS      1.2829
 FORCE CONSTANT      1.9467

 VIBRATION         56   56A           ATOM PAIR      ENERGY CONTRIBUTION    RADIAL
 FREQUENCY          3071.73         C  8 -- H 21         +50.1% ( 71.9%)    100.0%
 TRANSITION DIPOLE   0.2911         C  7 -- H 19         +28.7% ( 54.4%)     99.9%
 TRAVEL (Ang.)       0.2464         C  9 -- H 20         +17.6% ( 42.7%)     99.8%
 REDUCED MASS        0.3616         C  8 -- C  9          +1.1% ( 10.6%)      2.0%
 EFFECTIVE MASS      1.5441
 FORCE CONSTANT      2.0102

 VIBRATION         57   57A           ATOM PAIR      ENERGY CONTRIBUTION    RADIAL
 FREQUENCY          3081.09         C  8 -- H 21         +44.7% ( 67.8%)    100.0%
 TRANSITION DIPOLE   0.4036         C  9 -- H 20         +34.3% ( 59.4%)    100.0%
 TRAVEL (Ang.)       0.2511         C  7 -- H 19         +17.3% ( 42.2%)     99.8%
 REDUCED MASS        0.3470         C  8 -- C  9          +1.3% ( 11.6%)     93.1%
 EFFECTIVE MASS      1.5812
 FORCE CONSTANT      1.9408

      SYMMETRY NUMBER FOR POINT-GROUP C1  =  1


          SYSTEM IS A GROUND STATE



 InChI=1S/C9H12/c1-2-5-9-7-3-6-8(9)4-1/h1-2,4,9H,3,5-7H2


          MOLECULE IS NOT LINEAR

          THERE ARE 57 GENUINE VIBRATIONS IN THIS SYSTEM
          THIS THERMODYNAMICS CALCULATION IS LIMITED TO
          MOLECULES WHICH HAVE NO INTERNAL ROTATIONS




                    CALCULATED THERMODYNAMIC PROPERTIES
                                          *
   TEMP. (K)   PARTITION FUNCTION   H.O.F.    ENTHALPY  HEAT CAPACITY ENTROPY
                                   KCAL/MOL   CAL/MOLE    CAL/K/MOL  CAL/K/MOL


 298.00  VIB.     0.3173D+02                  2977.3494    24.5868    16.8611
         ROT.     0.3829D+06                   888.2803     2.9808    28.5276
         INT.     0.1215D+08                  3865.6297    27.5676    45.3887
         TRA.     0.1274D+28                  1480.4672     4.9680    40.2640
         TOT.                       10.324    5346.0968    32.5356    85.6528

 200.00  VIB.     0.6882D+01                  1140.5180    13.3377     9.5358
         ROT.     0.2106D+06                   596.1613     2.9808    27.3389
         INT.     0.1449D+07                  1736.6793    16.3185    36.8747
         TRA.     0.7004D+27                   993.6021     4.9680    38.2829
         TOT.                        7.708    2730.2814    21.2866    75.1576

 210.00  VIB.     0.7954D+01                  1278.8946    14.3445    10.2107
         ROT.     0.2265D+06                   625.9693     2.9808    27.4844
         INT.     0.1802D+07                  1904.8639    17.3253    37.6951
         TRA.     0.7536D+27                  1043.2822     4.9680    38.5253
         TOT.                        7.926    2948.1461    22.2933    76.2204

 220.00  VIB.     0.9215D+01                  1427.5430    15.3918    10.9021
         ROT.     0.2429D+06                   655.7774     2.9808    27.6230
         INT.     0.2238D+07                  2083.3204    18.3726    38.5251
         TRA.     0.8081D+27                  1092.9623     4.9680    38.7564
         TOT.                        8.154    3176.2827    23.3406    77.2815

 230.00  VIB.     0.1070D+02                  1586.8567    16.4771    11.6101
         ROT.     0.2597D+06                   685.5855     2.9808    27.7555
         INT.     0.2779D+07                  2272.4422    19.4579    39.3656
         TRA.     0.8638D+27                  1142.6424     4.9680    38.9773
         TOT.                        8.393    3415.0846    24.4259    78.3428

 240.00  VIB.     0.1246D+02                  1757.2013    17.5974    12.3349
         ROT.     0.2768D+06                   715.3935     2.9808    27.8824
         INT.     0.3449D+07                  2472.5948    20.5782    40.2173
         TRA.     0.9207D+27                  1192.3226     4.9680    39.1887
         TOT.                        8.642    3664.9174    25.5462    79.4060

 250.00  VIB.     0.1455D+02                  1938.9088    18.7490    13.0765
         ROT.     0.2943D+06                   745.2016     2.9808    28.0041
         INT.     0.4281D+07                  2684.1104    21.7298    41.0806
         TRA.     0.9789D+27                  1242.0027     4.9680    39.3915
         TOT.                        8.904    3926.1131    26.6979    80.4721

 260.00  VIB.     0.1703D+02                  2132.2737    19.9282    13.8347
         ROT.     0.3121D+06                   775.0097     2.9808    28.1210
         INT.     0.5315D+07                  2907.2834    22.9090    41.9557
         TRA.     0.1038D+28                  1291.6828     4.9680    39.5863
         TOT.                        9.176    4198.9661    27.8770    81.5421

 270.00  VIB.     0.1999D+02                  2337.5504    21.1307    14.6093
         ROT.     0.3303D+06                   804.8177     2.9808    28.2335
         INT.     0.6600D+07                  3142.3682    24.1115    42.8428
         TRA.     0.1099D+28                  1341.3629     4.9680    39.7738
         TOT.                        9.461    4483.7310    29.0795    82.6166

 280.00  VIB.     0.2352D+02                  2554.9519    22.3524    15.3998
         ROT.     0.3488D+06                   834.6258     2.9808    28.3419
         INT.     0.8202D+07                  3389.5777    25.3332    43.7417
         TRA.     0.1160D+28                  1391.0430     4.9680    39.9545
         TOT.                        9.758    4780.6206    30.3013    83.6962

 290.00  VIB.     0.2774D+02                  2784.6493    23.5892    16.2057
         ROT.     0.3676D+06                   864.4339     2.9808    28.4465
         INT.     0.1020D+08                  3649.0832    26.5700    44.6522
         TRA.     0.1223D+28                  1440.7231     4.9680    40.1289
         TOT.                       10.067    5089.8063    31.5380    84.7811

 300.00  VIB.     0.3282D+02                  3026.7732    24.8371    17.0264
         ROT.     0.3868D+06                   894.2419     2.9808    28.5475
         INT.     0.1269D+08                  3921.0151    27.8179    45.5740
         TRA.     0.1287D+28                  1490.4032     4.9680    40.2973
         TOT.                       10.389    5411.4183    32.7859    85.8712

 310.00  VIB.     0.3892D+02                  3281.4143    26.0921    17.8613
         ROT.     0.4063D+06                   924.0500     2.9808    28.6453
         INT.     0.1581D+08                  4205.4643    29.0729    46.5066
         TRA.     0.1352D+28                  1540.0833     4.9680    40.4602
         TOT.                       10.723    5745.5476    34.0409    86.9667

 320.00  VIB.     0.4627D+02                  3548.6263    27.3506    18.7095
         ROT.     0.4261D+06                   953.8580     2.9808    28.7399
         INT.     0.1972D+08                  4502.4844    30.3314    47.4495
         TRA.     0.1418D+28                  1589.7634     4.9680    40.6179
         TOT.                       11.070    6092.2478    35.2995    88.0674

 330.00  VIB.     0.5516D+02                  3828.4278    28.6094    19.5704
         ROT.     0.4463D+06                   983.6661     2.9808    28.8316
         INT.     0.2462D+08                  4812.0939    31.5902    48.4021
         TRA.     0.1485D+28                  1639.4435     4.9680    40.7708
         TOT.                       11.429    6451.5374    36.5582    89.1729

 340.00  VIB.     0.6592D+02                  4120.8052    29.8653    20.4432
         ROT.     0.4667D+06                  1013.4742     2.9808    28.9206
         INT.     0.3076D+08                  5134.2794    32.8461    49.3638
         TRA.     0.1553D+28                  1689.1236     4.9680    40.9191
         TOT.                       11.801    6823.4030    37.8142    90.2829

 350.00  VIB.     0.7896D+02                  4425.7157    31.1156    21.3269
         ROT.     0.4874D+06                  1043.2822     2.9808    29.0070
         INT.     0.3849D+08                  5468.9980    34.0964    50.3340
         TRA.     0.1622D+28                  1738.8037     4.9680    41.0631
         TOT.                       12.185    7207.8017    39.0644    91.3971

 360.00  VIB.     0.9482D+02                  4743.0901    32.3577    22.2209
         ROT.     0.5085D+06                  1073.0903     2.9808    29.0910
         INT.     0.4821D+08                  5816.1804    35.3385    51.3119
         TRA.     0.1692D+28                  1788.4838     4.9680    41.2031
         TOT.                       12.582    7604.6643    40.3065    92.5150

 370.00  VIB.     0.1141D+03                  5072.8358    33.5895    23.1243
         ROT.     0.5298D+06                  1102.8984     2.9808    29.1727
         INT.     0.6046D+08                  6175.7342    36.5703    52.2970
         TRA.     0.1762D+28                  1838.1639     4.9680    41.3392
         TOT.                       12.991    8013.8981    41.5383    93.6362

 380.00  VIB.     0.1377D+03                  5414.8397    34.8091    24.0363
         ROT.     0.5514D+06                  1132.7064     2.9808    29.2522
         INT.     0.7592D+08                  6547.5462    37.7899    53.2885
         TRA.     0.1834D+28                  1887.8440     4.9680    41.4717
         TOT.                       13.413    8435.3902    42.7579    94.7602

 390.00  VIB.     0.1664D+03                  5768.9709    36.0147    24.9561
         ROT.     0.5733D+06                  1162.5145     2.9808    29.3296
         INT.     0.9543D+08                  6931.4854    38.9955    54.2857
         TRA.     0.1907D+28                  1937.5242     4.9680    41.6007
         TOT.                       13.846    8869.0095    43.9635    95.8864

 400.00  VIB.     0.2017D+03                  6135.0832    37.2051    25.8830
         ROT.     0.5955D+06                  1192.3226     2.9808    29.4051
         INT.     0.1201D+09                  7327.4058    40.1859    55.2880
         TRA.     0.1981D+28                  1987.2043     4.9680    41.7265
         TOT.                       14.292    9314.6101    45.1539    97.0145

   *: NOTE: HEATS OF FORMATION ARE RELATIVE TO THE
            ELEMENTS IN THEIR STANDARD STATE AT 298K
              (=  Standard Enthalpy of Formation).

            Hvib:  Zero-point energy is not included.
                   frequencies of less than zero cm-1 are not included.
            Hrot = (3/2)RT
            Htra = (3/2)RT + pV = (5/2)RT

            Heat capacity is Cp, not Cv

          For more information, see: HTTP://OpenMOPAC.net/Manual/thermochemistry.html


           FORCE CONSTANT IN CARTESIAN COORDINATES (Millidynes/A)

    ATOM   CHEMICAL       X               Y               Z
   NUMBER   SYMBOL  FORCE CONSTANT  FORCE CONSTANT  FORCE CONSTANT

      1       C        8.535720        9.010129        8.098688
      2       C        7.943758        8.402292        8.384721
      3       C        8.910832        7.498362        8.247727
      4       C        7.928903        9.296577        8.095270
      5       C        8.629629        8.658211        8.053147
      6       C       14.162074        8.551787        5.611867
      7       C        9.237412       14.435631        3.141355
      8       C       12.338644       10.108363        5.180288
      9       C       10.376925       13.995906        3.144396
     10       H        1.117709        0.667017        4.110806
     11       H        3.542766        0.794588        2.161661
     12       H        0.911529        1.093225        4.452187
     13       H        1.253418        1.593927        3.591552
     14       H        1.274354        1.708791        3.523940
     15       H        0.871322        1.341378        4.162576
     16       H        0.922811        3.034331        2.398921
     17       H        0.669425        3.349730        2.338151
     18       H        1.766060        0.913829        3.542386
     19       H        2.390221        3.441776        0.432826
     20       H        4.609263        0.905640        0.754168
     21       H        0.966730        4.110860        1.189189

 **********************
 *                    *
 * JOB ENDED NORMALLY *
 *                    *
 **********************



 TOTAL JOB TIME:             2.44 SECONDS

 == MOPAC DONE ==
