 *******************************************************************************
 **                                                                           **
 **                              MOPAC v23.1.2                                **
 **                                                                           **
 *******************************************************************************
 **          Digital Object Identifier (DOI): 10.5281/zenodo.6511958          **
 **    Visit the DOI location for information on how to cite this program.    **
 *******************************************************************************

                              PM3 CALCULATION RESULTS

 *******************************************************************************
 *  CALCULATION DONE: (MAX THREADS = 1)              Tue Jun  3 16:28:49 2025  *
 *  PM3        - The PM3 Hamiltonian to be used
 *  PRECISE    - TIGHTER CRITERIA TO BE USED
 *  NOSYM      - POINT-GROUP SYMMETRY SET TO C1
 *  THREADS=1  - MULTI-THREADING NOT USED
 *  T=         - A TIME OF 172800.0 SECONDS REQUESTED
 *  DUMP=N     - RESTART FILE WRITTEN EVERY 7200.0 SECONDS REQUESTED
 *******************************************************************************
pm3  precise nosym THREADS=1
 InChI=1S/C7H12/c1-6-3-4-7(2)5-6/h7H,1,3-5H2,2H3

   ATOM   CHEMICAL          X               Y               Z
  NUMBER   SYMBOL      (ANGSTROMS)     (ANGSTROMS)     (ANGSTROMS)

     1       C         -0.98480000  *  -0.21850000  *  -0.36240000  *
     2       C         -0.35300000  *  -1.13910000  *   0.69310000  *
     3       C          0.03850000  *   0.88750000  *  -0.63370000  *
     4       C          1.15720000  *  -0.99620000  *   0.53500000  *
     5       C         -2.34230000  *   0.33480000  *   0.08050000  *
     6       C          1.32680000  *   0.29790000  *  -0.17990000  *
     7       C          2.51520000  *   0.87270000  *  -0.39060000  *
     8       H         -1.12840000  *  -0.80580000  *  -1.29790000  *
     9       H         -0.67310000  *  -2.19390000  *   0.54900000  *
    10       H         -0.64080000  *  -0.81370000  *   1.71800000  *
    11       H          1.56850000  *  -1.82320000  *  -0.08350000  *
    12       H          1.65780000  *  -0.97360000  *   1.52740000  *
    13       H         -0.17100000  *   1.80600000  *  -0.04250000  *
    14       H          0.07230000  *   1.13280000  *  -1.71780000  *
    15       H         -2.24150000  *   0.92970000  *   1.01370000  *
    16       H         -2.76280000  *   0.98480000  *  -0.71590000  *
    17       H         -3.04960000  *  -0.50200000  *   0.26270000  *
    18       H          2.58430000  *   1.81960000  *  -0.91700000  *
    19       H          3.42670000  *   0.40020000  *  -0.03810000  *



          CARTESIAN COORDINATES 

    NO.       ATOM           X           Y           Z

     1         C         -0.9848     -0.2185     -0.3624
     2         C         -0.3530     -1.1391      0.6931
     3         C          0.0385      0.8875     -0.6337
     4         C          1.1572     -0.9962      0.5350
     5         C         -2.3423      0.3348      0.0805
     6         C          1.3268      0.2979     -0.1799
     7         C          2.5152      0.8727     -0.3906
     8         H         -1.1284     -0.8058     -1.2979
     9         H         -0.6731     -2.1939      0.5490
    10         H         -0.6408     -0.8137      1.7180
    11         H          1.5685     -1.8232     -0.0835
    12         H          1.6578     -0.9736      1.5274
    13         H         -0.1710      1.8060     -0.0425
    14         H          0.0723      1.1328     -1.7178
    15         H         -2.2415      0.9297      1.0137
    16         H         -2.7628      0.9848     -0.7159
    17         H         -3.0496     -0.5020      0.2627
    18         H          2.5843      1.8196     -0.9170
    19         H          3.4267      0.4002     -0.0381

  H: (PM3): J. J. P. STEWART, J. COMP. CHEM. 10, 209 (1989).
  C: (PM3): J. J. P. STEWART, J. COMP. CHEM. 10, 209 (1989).

           Empirical Formula: C7 H12  =    19 atoms



      MOLECULAR POINT GROUP   :   C1  


      RHF CALCULATION, NO. OF DOUBLY OCCUPIED LEVELS = 20


          Geometry optimization using EF

          DIAGONAL MATRIX USED AS START HESSIAN

 CYCLE:     1 TIME:   0.008 TIME LEFT:  2.00D  GRAD.:    52.610 HEAT: -8.155278
 CYCLE:     2 TIME:   0.008 TIME LEFT:  2.00D  GRAD.:    97.657 HEAT: -8.238218
 CYCLE:     3 TIME:   0.004 TIME LEFT:  2.00D  GRAD.:    58.964 HEAT: -8.782414
 CYCLE:     4 TIME:   0.008 TIME LEFT:  2.00D  GRAD.:    62.573 HEAT: -8.900861
 CYCLE:     5 TIME:   0.008 TIME LEFT:  2.00D  GRAD.:    21.993 HEAT: -9.744886
 CYCLE:     6 TIME:   0.016 TIME LEFT:  2.00D  GRAD.:    18.530 HEAT: -9.862726
 CYCLE:     7 TIME:   0.008 TIME LEFT:  2.00D  GRAD.:    18.955 HEAT: -9.923949
 CYCLE:     8 TIME:   0.004 TIME LEFT:  2.00D  GRAD.:    21.553 HEAT: -9.953942
 CYCLE:     9 TIME:   0.004 TIME LEFT:  2.00D  GRAD.:    22.461 HEAT: -9.968588
 CYCLE:    10 TIME:   0.012 TIME LEFT:  2.00D  GRAD.:    20.402 HEAT: -10.00068
 CYCLE:    11 TIME:   0.012 TIME LEFT:  2.00D  GRAD.:    20.748 HEAT: -10.03021
 CYCLE:    12 TIME:   0.008 TIME LEFT:  2.00D  GRAD.:     7.686 HEAT: -10.13681
 CYCLE:    13 TIME:   0.008 TIME LEFT:  2.00D  GRAD.:     5.055 HEAT: -10.15576
 CYCLE:    14 TIME:   0.004 TIME LEFT:  2.00D  GRAD.:     6.197 HEAT: -10.16244
 CYCLE:    15 TIME:   0.004 TIME LEFT:  2.00D  GRAD.:     4.673 HEAT: -10.17424
 CYCLE:    16 TIME:   0.008 TIME LEFT:  2.00D  GRAD.:     5.429 HEAT: -10.17581
 CYCLE:    17 TIME:   0.004 TIME LEFT:  2.00D  GRAD.:     2.585 HEAT: -10.18532
 CYCLE:    18 TIME:   0.008 TIME LEFT:  2.00D  GRAD.:     2.366 HEAT: -10.18642
 CYCLE:    19 TIME:   0.004 TIME LEFT:  2.00D  GRAD.:     2.200 HEAT: -10.18769
 CYCLE:    20 TIME:   0.008 TIME LEFT:  2.00D  GRAD.:     1.673 HEAT: -10.18895
 CYCLE:    21 TIME:   0.004 TIME LEFT:  2.00D  GRAD.:     1.450 HEAT: -10.18982
 CYCLE:    22 TIME:   0.004 TIME LEFT:  2.00D  GRAD.:     1.387 HEAT: -10.19065
 CYCLE:    23 TIME:   0.008 TIME LEFT:  2.00D  GRAD.:     0.871 HEAT: -10.19179
 CYCLE:    24 TIME:   0.004 TIME LEFT:  2.00D  GRAD.:     1.382 HEAT: -10.19285
 CYCLE:    25 TIME:   0.008 TIME LEFT:  2.00D  GRAD.:     1.111 HEAT: -10.19410
 CYCLE:    26 TIME:   0.004 TIME LEFT:  2.00D  GRAD.:     1.148 HEAT: -10.19503
 CYCLE:    27 TIME:   0.008 TIME LEFT:  2.00D  GRAD.:     1.278 HEAT: -10.19599
 CYCLE:    28 TIME:   0.004 TIME LEFT:  2.00D  GRAD.:     0.888 HEAT: -10.19730
 CYCLE:    29 TIME:   0.004 TIME LEFT:  2.00D  GRAD.:     0.930 HEAT: -10.19885
 CYCLE:    30 TIME:   0.008 TIME LEFT:  2.00D  GRAD.:     1.241 HEAT: -10.20062
 CYCLE:    31 TIME:   0.004 TIME LEFT:  2.00D  GRAD.:     1.256 HEAT: -10.20236
 CYCLE:    32 TIME:   0.008 TIME LEFT:  2.00D  GRAD.:     0.995 HEAT: -10.20411
 CYCLE:    33 TIME:   0.004 TIME LEFT:  2.00D  GRAD.:     0.779 HEAT: -10.20562
 CYCLE:    34 TIME:   0.008 TIME LEFT:  2.00D  GRAD.:     0.796 HEAT: -10.20680
 CYCLE:    35 TIME:   0.004 TIME LEFT:  2.00D  GRAD.:     0.714 HEAT: -10.20793
 CYCLE:    36 TIME:   0.008 TIME LEFT:  2.00D  GRAD.:     0.702 HEAT: -10.20913
 CYCLE:    37 TIME:   0.004 TIME LEFT:  2.00D  GRAD.:     0.787 HEAT: -10.21046
 CYCLE:    38 TIME:   0.008 TIME LEFT:  2.00D  GRAD.:     0.780 HEAT: -10.21180
 CYCLE:    39 TIME:   0.004 TIME LEFT:  2.00D  GRAD.:     0.660 HEAT: -10.21296
 CYCLE:    40 TIME:   0.008 TIME LEFT:  2.00D  GRAD.:     0.520 HEAT: -10.21372
 CYCLE:    41 TIME:   0.004 TIME LEFT:  2.00D  GRAD.:     0.449 HEAT: -10.21428
 CYCLE:    42 TIME:   0.004 TIME LEFT:  2.00D  GRAD.:     0.371 HEAT: -10.21475
 CYCLE:    43 TIME:   0.008 TIME LEFT:  2.00D  GRAD.:     0.270 HEAT: -10.21499
 CYCLE:    44 TIME:   0.004 TIME LEFT:  2.00D  GRAD.:     0.225 HEAT: -10.21511
 CYCLE:    45 TIME:   0.008 TIME LEFT:  2.00D  GRAD.:     0.210 HEAT: -10.21520
 CYCLE:    46 TIME:   0.004 TIME LEFT:  2.00D  GRAD.:     0.173 HEAT: -10.21528
 CYCLE:    47 TIME:   0.008 TIME LEFT:  2.00D  GRAD.:     0.114 HEAT: -10.21534
 CYCLE:    48 TIME:   0.004 TIME LEFT:  2.00D  GRAD.:     0.092 HEAT: -10.21536
 CYCLE:    49 TIME:   0.004 TIME LEFT:  2.00D  GRAD.:     0.081 HEAT: -10.21538
 CYCLE:    50 TIME:   0.008 TIME LEFT:  2.00D  GRAD.:     0.093 HEAT: -10.21540
 CYCLE:    51 TIME:   0.004 TIME LEFT:  2.00D  GRAD.:     0.063 HEAT: -10.21541
 CYCLE:    52 TIME:   0.004 TIME LEFT:  2.00D  GRAD.:     0.108 HEAT: -10.21542
 CYCLE:    53 TIME:   0.008 TIME LEFT:  2.00D  GRAD.:     0.056 HEAT: -10.21543
 CYCLE:    54 TIME:   0.004 TIME LEFT:  2.00D  GRAD.:     0.039 HEAT: -10.21544

     GRADIENT =  0.03905 IS LESS THAN CUTOFF =  0.05000



 -------------------------------------------------------------------------------
 pm3  precise nosym THREADS=1
 InChI=1S/C7H12/c1-6-3-4-7(2)5-6/h7H,1,3-5H2,2H3



     GEOMETRY OPTIMISED USING EIGENVECTOR FOLLOWING (EF).     
     SCF FIELD WAS ACHIEVED                                   


                              PM3 CALCULATION
                                                       MOPAC v23.1.2 MacOS
                                                       Tue Jun  3 16:28:49 2025




          FINAL HEAT OF FORMATION =        -10.21544 KCAL/MOL =     -42.74141 KJ/MOL


          COSMO AREA              =        151.16 SQUARE ANGSTROMS
          COSMO VOLUME            =        145.83 CUBIC ANGSTROMS

          GRADIENT NORM           =          0.03905          =       0.00896 PER ATOM
          IONIZATION POTENTIAL    =          9.694318 EV
          HOMO LUMO ENERGIES (EV) =         -9.694  1.165
          NO. OF FILLED LEVELS    =         20
          MOLECULAR WEIGHT        =         96.1718         POINT GROUP:  C1  

          MOLECULAR DIMENSIONS (Angstroms)

            Atom       Atom       Distance
            H    19    H    17     6.58197
            H    12    H    14     4.03177
            H    15    H    11     3.15883


          SCF CALCULATIONS        =         60

          WALL-CLOCK TIME         =      0.352 SECONDS
          COMPUTATION TIME        =      0.188 SECONDS




   ATOM   CHEMICAL          X               Y               Z
  NUMBER   SYMBOL      (ANGSTROMS)     (ANGSTROMS)     (ANGSTROMS)

     1       C         -1.00510634  *  -0.23087349  *  -0.37055944  *
     2       C         -0.36853992  *  -1.16075910  *   0.67105363  *
     3       C          0.03944338  *   0.85921460  *  -0.65007766  *
     4       C          1.14295293  *  -0.97699282  *   0.54891227  *
     5       C         -2.32485436  *   0.34322653  *   0.10054461  *
     6       C          1.34861785  *   0.31041064  *  -0.18275152  *
     7       C          2.52893288  *   0.88563361  *  -0.38881267  *
     8       H         -1.18458109  *  -0.80767192  *  -1.30887679  *
     9       H         -0.66894941  *  -2.21201590  *   0.51336087  *
    10       H         -0.71253344  *  -0.90175227  *   1.69096213  *
    11       H          1.60861678  *  -1.80902757  *  -0.01298097  *
    12       H          1.63870266  *  -0.96256406  *   1.53703849  *
    13       H         -0.19377322  *   1.79488598  *  -0.10487312  *
    14       H          0.07248004  *   1.13128999  *  -1.72105863  *
    15       H         -2.21226282  *   0.93150468  *   1.02181160  *
    16       H         -2.76319789  *   1.00411063  *  -0.65830539  *
    17       H         -3.05151318  *  -0.45301756  *   0.30726677  *
    18       H          2.63764679  *   1.81831445  *  -0.93327367  *
    19       H          3.45848664  *   0.45874085  *  -0.02570959  *

                             CARTESIAN COORDINATES

   1    C       -1.005106341    -0.230873485    -0.370559440
   2    C       -0.368539923    -1.160759101     0.671053626
   3    C        0.039443384     0.859214596    -0.650077665
   4    C        1.142952931    -0.976992824     0.548912274
   5    C       -2.324854357     0.343226531     0.100544609
   6    C        1.348617846     0.310410644    -0.182751524
   7    C        2.528932877     0.885633611    -0.388812670
   8    H       -1.184581092    -0.807671915    -1.308876786
   9    H       -0.668949413    -2.212015899     0.513360868
  10    H       -0.712533438    -0.901752271     1.690962130
  11    H        1.608616782    -1.809027573    -0.012980971
  12    H        1.638702663    -0.962564063     1.537038490
  13    H       -0.193773223     1.794885980    -0.104873119
  14    H        0.072480038     1.131289993    -1.721058628
  15    H       -2.212262816     0.931504685     1.021811603
  16    H       -2.763197886     1.004110633    -0.658305390
  17    H       -3.051513184    -0.453017557     0.307266773
  18    H        2.637646794     1.818314454    -0.933273672
  19    H        3.458486639     0.458740846    -0.025709592


           Empirical Formula: C7 H12  =    19 atoms



      MOLECULAR POINT GROUP   :   C1  


                  EIGENVALUES  
 -41.01078 -32.81087 -29.64701 -26.21310 -22.86051 -19.82165 -18.45079 -16.99116
 -16.19182 -14.76103 -14.55453 -14.27155 -13.76794 -13.24100 -12.84940 -12.32505
 -12.18631 -11.93049 -11.31046  -9.69432   1.16500   3.38904   3.49147   3.55499
   3.70065   3.80920   3.94710   4.06550   4.08212   4.23801   4.34787   4.38883
   4.43613   4.71880   4.77560   4.96434   5.18078   5.21223   5.70894   6.04913


              NET ATOMIC CHARGES AND DIPOLE CONTRIBUTIONS

  ATOM NO.   TYPE          CHARGE      No. of ELECS.   s-Pop       p-Pop       
    1          C          -0.077028        4.0770     1.17925     2.89778
    2          C          -0.098247        4.0982     1.16670     2.93155
    3          C          -0.060263        4.0603     1.15337     2.90690
    4          C          -0.057183        4.0572     1.14981     2.90738
    5          C          -0.107051        4.1071     1.14057     2.96648
    6          C          -0.108909        4.1089     1.20287     2.90604
    7          C          -0.182104        4.1821     1.17702     3.00508
    8          H           0.062489        0.9375     0.93751
    9          H           0.050565        0.9494     0.94943
   10          H           0.053181        0.9468     0.94682
   11          H           0.057258        0.9427     0.94274
   12          H           0.058046        0.9420     0.94195
   13          H           0.062198        0.9378     0.93780
   14          H           0.058287        0.9417     0.94171
   15          H           0.041688        0.9583     0.95831
   16          H           0.038835        0.9612     0.96117
   17          H           0.039077        0.9609     0.96092
   18          H           0.084612        0.9154     0.91539
   19          H           0.084547        0.9155     0.91545
 DIPOLE           X         Y         Z       TOTAL
 POINT-CHG.    -0.395    -0.170     0.067     0.435
 HYBRID         0.030     0.027     0.007     0.041
 SUM           -0.365    -0.142     0.074     0.398


          ATOMIC ORBITAL ELECTRON POPULATIONS

     Atom    s        px        py        pz   
    1  C   1.17925   0.94856   0.96305   0.98617
    2  C   1.16670   0.95113   0.98979   0.99063
    3  C   1.15337   0.92893   0.97404   1.00392
    4  C   1.14981   0.95820   0.95507   0.99411
    5  C   1.14057   0.96227   1.00015   1.00406
    6  C   1.20287   0.95748   0.96716   0.98141
    7  C   1.17702   0.96106   1.00899   1.03503
    8  H   0.93751
    9  H   0.94943
   10  H   0.94682
   11  H   0.94274
   12  H   0.94195
   13  H   0.93780
   14  H   0.94171
   15  H   0.95831
   16  H   0.96117
   17  H   0.96092
   18  H   0.91539
   19  H   0.91545
 *******************************************************************************
 **                                                                           **
 **                              MOPAC v23.1.2                                **
 **                                                                           **
 *******************************************************************************
 **          Digital Object Identifier (DOI): 10.5281/zenodo.6511958          **
 **    Visit the DOI location for information on how to cite this program.    **
 *******************************************************************************

                              PM3 CALCULATION RESULTS

 *******************************************************************************
 *  CALCULATION DONE: (MAX THREADS = 1)              Tue Jun  3 16:28:49 2025  *
 *  PM3        - The PM3 Hamiltonian to be used
 *  OLDGEO     - PREVIOUS GEOMETRY TO BE USED
 *  PRECISE    - TIGHTER CRITERIA TO BE USED
 *  NOSYM      - POINT-GROUP SYMMETRY SET TO C1
 *  THREADS=1  - MULTI-THREADING NOT USED
 *  T=         - A TIME OF 172800.0 SECONDS REQUESTED
 *  DUMP=N     - RESTART FILE WRITTEN EVERY 7200.0 SECONDS REQUESTED
 *  THERMO     - THERMODYNAMIC QUANTITIES TO BE CALCULATED
 *******************************************************************************
oldgeo thermo nosym precise THREADS=1  pm3
 InChI=1S/C7H12/c1-6-3-4-7(2)5-6/h7H,1,3-5H2,2H3

   ATOM   CHEMICAL          X               Y               Z
  NUMBER   SYMBOL      (ANGSTROMS)     (ANGSTROMS)     (ANGSTROMS)

     1       C         -1.00510634  *  -0.23087349  *  -0.37055944  *
     2       C         -0.36853992  *  -1.16075910  *   0.67105363  *
     3       C          0.03944338  *   0.85921460  *  -0.65007766  *
     4       C          1.14295293  *  -0.97699282  *   0.54891227  *
     5       C         -2.32485436  *   0.34322653  *   0.10054461  *
     6       C          1.34861785  *   0.31041064  *  -0.18275152  *
     7       C          2.52893288  *   0.88563361  *  -0.38881267  *
     8       H         -1.18458109  *  -0.80767192  *  -1.30887679  *
     9       H         -0.66894941  *  -2.21201590  *   0.51336087  *
    10       H         -0.71253344  *  -0.90175227  *   1.69096213  *
    11       H          1.60861678  *  -1.80902757  *  -0.01298097  *
    12       H          1.63870266  *  -0.96256406  *   1.53703849  *
    13       H         -0.19377322  *   1.79488598  *  -0.10487312  *
    14       H          0.07248004  *   1.13128999  *  -1.72105863  *
    15       H         -2.21226282  *   0.93150468  *   1.02181160  *
    16       H         -2.76319789  *   1.00411063  *  -0.65830539  *
    17       H         -3.05151318  *  -0.45301756  *   0.30726677  *
    18       H          2.63764679  *   1.81831445  *  -0.93327367  *
    19       H          3.45848664  *   0.45874085  *  -0.02570959  *



          CARTESIAN COORDINATES 

    NO.       ATOM           X           Y           Z

     1         C         -1.0051     -0.2309     -0.3706
     2         C         -0.3685     -1.1608      0.6711
     3         C          0.0394      0.8592     -0.6501
     4         C          1.1430     -0.9770      0.5489
     5         C         -2.3249      0.3432      0.1005
     6         C          1.3486      0.3104     -0.1828
     7         C          2.5289      0.8856     -0.3888
     8         H         -1.1846     -0.8077     -1.3089
     9         H         -0.6689     -2.2120      0.5134
    10         H         -0.7125     -0.9018      1.6910
    11         H          1.6086     -1.8090     -0.0130
    12         H          1.6387     -0.9626      1.5370
    13         H         -0.1938      1.7949     -0.1049
    14         H          0.0725      1.1313     -1.7211
    15         H         -2.2123      0.9315      1.0218
    16         H         -2.7632      1.0041     -0.6583
    17         H         -3.0515     -0.4530      0.3073
    18         H          2.6376      1.8183     -0.9333
    19         H          3.4585      0.4587     -0.0257

  H: (PM3): J. J. P. STEWART, J. COMP. CHEM. 10, 209 (1989).
  C: (PM3): J. J. P. STEWART, J. COMP. CHEM. 10, 209 (1989).

           Empirical Formula: C7 H12  =    19 atoms



      MOLECULAR POINT GROUP   :   C1  


      RHF CALCULATION, NO. OF DOUBLY OCCUPIED LEVELS = 20



          HEAT OF FORMATION =     -10.215442 KCALS/MOLE


          CARTESIAN COORDINATE DERIVATIVES

   NUMBER  ATOM         X            Y            Z

     1       C      0.000855     0.005749     0.000611
     2       C     -0.000342    -0.000838     0.005061
     3       C     -0.000112     0.003907     0.004354
     4       C      0.000738     0.003633     0.005362
     5       C     -0.002855    -0.000463    -0.001090
     6       C     -0.001648    -0.002695    -0.000108
     7       C     -0.001823     0.008189    -0.003053
     8       H     -0.000588     0.013712     0.000405
     9       H     -0.001420    -0.004018    -0.000522
    10       H      0.008808    -0.012429    -0.006335
    11       H     -0.003389    -0.007955     0.007657
    12       H      0.000267     0.003242     0.006039
    13       H      0.004888     0.003329     0.000739
    14       H     -0.000436    -0.007172     0.004942
    15       H     -0.003240     0.003811    -0.000115
    16       H     -0.006368    -0.014635     0.000558
    17       H      0.006632     0.003120    -0.008545
    18       H     -0.000087     0.002131    -0.005165
    19       H      0.000117    -0.000618    -0.010793



          GRADIENT NORM =   0.03953

          MOLECULAR WEIGHT =   96.17



          ROTATIONAL CONSTANTS IN CM(-1)

          A =    0.17232558   B =    0.06620629   C =    0.05139534



           PRINCIPAL MOMENTS OF INERTIA IN UNITS OF 10**(-40)*GRAM-CM**2

          A =      162.4411   B =      422.8110   C =      544.6554


          ORIENTATION OF MOLECULE IN FORCE CALCULATION

    NO.       ATOM         X         Y         Z

     1          C      -0.5701   -1.0901    0.0677
     2          C       0.9645   -1.0901    0.0677
     3          C      -0.9870    0.3876    0.0677
     4          C       1.3972    0.2591   -0.5030
     5          C      -1.1456   -1.8510    1.2437
     6          C       0.2058    1.1564   -0.4010
     7          C       0.2070    2.4544   -0.6869
     8          H      -0.9319   -1.5671   -0.8741
     9          H       1.3699   -1.9337   -0.5190
    10          H       1.3571   -1.2243    1.0941
    11          H       1.7132    0.1699   -1.5599
    12          H       2.2648    0.6781    0.0393
    13          H      -1.2807    0.7270    1.0805
    14          H      -1.8652    0.5665   -0.5796
    15          H      -0.8301   -1.4227    2.2052
    16          H      -2.2430   -1.8395    1.2246
    17          H      -0.8243   -2.9005    1.2316
    18          H      -0.6827    3.0712   -0.6080
    19          H       1.0977    2.9792   -1.0175


    FIRST DERIVATIVES WILL BE USED IN THE CALCULATION OF SECOND DERIVATIVES

          ESTIMATED TIME TO COMPLETE CALCULATION =        1.78 SECONDS

    FOR POINT-GROUP C1   THERE ARE   1 UNIQUE SYMMETRY FUNCTIONS.

 STEP:   1 TIME =     0.02 SECS, INTEGRAL =      0.02 TIME LEFT: 172799.98
 STEP:   2 TIME =     0.02 SECS, INTEGRAL =      0.03 TIME LEFT: 172799.96
 STEP:   3 TIME =     0.02 SECS, INTEGRAL =      0.05 TIME LEFT: 172799.95
 STEP:   4 TIME =     0.02 SECS, INTEGRAL =      0.06 TIME LEFT: 172799.93
 STEP:   5 TIME =     0.01 SECS, INTEGRAL =      0.07 TIME LEFT: 172799.92
 STEP:   6 TIME =     0.01 SECS, INTEGRAL =      0.09 TIME LEFT: 172799.91
 STEP:   7 TIME =     0.01 SECS, INTEGRAL =      0.10 TIME LEFT: 172799.89
 STEP:   8 TIME =     0.01 SECS, INTEGRAL =      0.11 TIME LEFT: 172799.88
 STEP:   9 TIME =     0.02 SECS, INTEGRAL =      0.12 TIME LEFT: 172799.87
 STEP:  10 TIME =     0.02 SECS, INTEGRAL =      0.14 TIME LEFT: 172799.85
 STEP:  11 TIME =     0.02 SECS, INTEGRAL =      0.16 TIME LEFT: 172799.84
 STEP:  12 TIME =     0.02 SECS, INTEGRAL =      0.17 TIME LEFT: 172799.82
 STEP:  13 TIME =     0.01 SECS, INTEGRAL =      0.18 TIME LEFT: 172799.81
 STEP:  14 TIME =     0.01 SECS, INTEGRAL =      0.20 TIME LEFT: 172799.80
 STEP:  15 TIME =     0.02 SECS, INTEGRAL =      0.21 TIME LEFT: 172799.78
 STEP:  16 TIME =     0.02 SECS, INTEGRAL =      0.23 TIME LEFT: 172799.77
 STEP:  17 TIME =     0.01 SECS, INTEGRAL =      0.24 TIME LEFT: 172799.75
 STEP:  18 TIME =     0.02 SECS, INTEGRAL =      0.25 TIME LEFT: 172799.74
 STEP:  19 TIME =     0.02 SECS, INTEGRAL =      0.27 TIME LEFT: 172799.72
 STEP:  20 TIME =     0.01 SECS, INTEGRAL =      0.28 TIME LEFT: 172799.71
 STEP:  21 TIME =     0.02 SECS, INTEGRAL =      0.30 TIME LEFT: 172799.70
 STEP:  22 TIME =     0.02 SECS, INTEGRAL =      0.31 TIME LEFT: 172799.68
 STEP:  23 TIME =     0.02 SECS, INTEGRAL =      0.33 TIME LEFT: 172799.66
 STEP:  24 TIME =     0.02 SECS, INTEGRAL =      0.34 TIME LEFT: 172799.65
 STEP:  25 TIME =     0.01 SECS, INTEGRAL =      0.36 TIME LEFT: 172799.64
 STEP:  26 TIME =     0.01 SECS, INTEGRAL =      0.37 TIME LEFT: 172799.62
 STEP:  27 TIME =     0.01 SECS, INTEGRAL =      0.38 TIME LEFT: 172799.61
 STEP:  28 TIME =     0.02 SECS, INTEGRAL =      0.39 TIME LEFT: 172799.60
 STEP:  29 TIME =     0.02 SECS, INTEGRAL =      0.41 TIME LEFT: 172799.58
 STEP:  30 TIME =     0.01 SECS, INTEGRAL =      0.42 TIME LEFT: 172799.57
 STEP:  31 TIME =     0.02 SECS, INTEGRAL =      0.44 TIME LEFT: 172799.55
 STEP:  32 TIME =     0.02 SECS, INTEGRAL =      0.45 TIME LEFT: 172799.54
 STEP:  33 TIME =     0.01 SECS, INTEGRAL =      0.46 TIME LEFT: 172799.53
 STEP:  34 TIME =     0.02 SECS, INTEGRAL =      0.48 TIME LEFT: 172799.51
 STEP:  35 TIME =     0.02 SECS, INTEGRAL =      0.50 TIME LEFT: 172799.50
 STEP:  36 TIME =     0.02 SECS, INTEGRAL =      0.51 TIME LEFT: 172799.48
 STEP:  37 TIME =     0.02 SECS, INTEGRAL =      0.53 TIME LEFT: 172799.46
 STEP:  38 TIME =     0.02 SECS, INTEGRAL =      0.54 TIME LEFT: 172799.45
 STEP:  39 TIME =     0.02 SECS, INTEGRAL =      0.56 TIME LEFT: 172799.43
 STEP:  40 TIME =     0.01 SECS, INTEGRAL =      0.57 TIME LEFT: 172799.42
 STEP:  41 TIME =     0.01 SECS, INTEGRAL =      0.58 TIME LEFT: 172799.41
 STEP:  42 TIME =     0.01 SECS, INTEGRAL =      0.59 TIME LEFT: 172799.40
 STEP:  43 TIME =     0.01 SECS, INTEGRAL =      0.61 TIME LEFT: 172799.39
 STEP:  44 TIME =     0.01 SECS, INTEGRAL =      0.62 TIME LEFT: 172799.38
 STEP:  45 TIME =     0.02 SECS, INTEGRAL =      0.63 TIME LEFT: 172799.36
 STEP:  46 TIME =     0.02 SECS, INTEGRAL =      0.65 TIME LEFT: 172799.34
 STEP:  47 TIME =     0.02 SECS, INTEGRAL =      0.66 TIME LEFT: 172799.33
 STEP:  48 TIME =     0.02 SECS, INTEGRAL =      0.68 TIME LEFT: 172799.31
 STEP:  49 TIME =     0.02 SECS, INTEGRAL =      0.70 TIME LEFT: 172799.30
 STEP:  50 TIME =     0.01 SECS, INTEGRAL =      0.71 TIME LEFT: 172799.29
 STEP:  51 TIME =     0.02 SECS, INTEGRAL =      0.72 TIME LEFT: 172799.27
 STEP:  52 TIME =     0.01 SECS, INTEGRAL =      0.73 TIME LEFT: 172799.26
 STEP:  53 TIME =     0.02 SECS, INTEGRAL =      0.75 TIME LEFT: 172799.24
 STEP:  54 TIME =     0.02 SECS, INTEGRAL =      0.77 TIME LEFT: 172799.23
 STEP:  55 TIME =     0.02 SECS, INTEGRAL =      0.78 TIME LEFT: 172799.21
 STEP:  56 TIME =     0.02 SECS, INTEGRAL =      0.80 TIME LEFT: 172799.20
 STEP:  57 TIME =     0.02 SECS, INTEGRAL =      0.81 TIME LEFT: 172799.18

(To convert to Hartree/Bohr^2, multiply by (10^(-21) x N x a0^2)/(4.184 x 627.51) =  0.0642)


           FORCE MATRIX IN MILLIDYNES/ANGSTROM


                  C  1       C  2       C  3       C  4       C  5       C  6
 ------------------------------------------------------------------------------
     C    1  14.459197
     C    2   3.747817  14.363886
     C    3   3.729327   0.754625  14.667222
     C    4   0.753682   3.993663   0.748099  14.710112
     C    5   4.365124   0.610030   0.605679   0.044059  14.431541
     C    6   0.830857   0.848092   4.694656   4.680929   0.044840  19.031450
     C    7   0.052466   0.053121   0.747302   0.745732   0.009560  10.862406
     H    8   4.270255   0.424451   0.424592   0.013379   0.421350   0.016011
     H    9   0.441139   4.568374   0.040474   0.436952   0.015968   0.039646
     H   10   0.454815   4.492241   0.010855   0.442158   0.056772   0.016224
     H   11   0.014416   0.442710   0.024669   4.489373   0.002566   0.429108
     H   12   0.037259   0.437207   0.028786   4.526241   0.005004   0.439685
     H   13   0.454223   0.011878   4.454019   0.023439   0.054914   0.427134
     H   14   0.438055   0.038284   4.530774   0.029884   0.017381   0.441084
     H   15   0.468804   0.023046   0.023213   0.001717   4.703131   0.001771
     H   16   0.452772   0.048712   0.017771   0.007506   4.744473   0.002490
     H   17   0.452746   0.018687   0.048121   0.002031   4.743949   0.007457
     H   18   0.003056   0.007066   0.089285   0.126595   0.000986   0.479699
     H   19   0.007417   0.002699   0.126748   0.089045   0.001436   0.479751


                  C  7       H  8       H  9       H 10       H 11       H 12
 ------------------------------------------------------------------------------
     C    7  18.090839
     H    8   0.002227   4.726881
     H    9   0.006679   0.032707   5.181799
     H   10   0.002213   0.038090   0.581293   5.110340
     H   11   0.024191   0.001193   0.031083   0.036631   5.088002
     H   12   0.023934   0.001258   0.018091   0.031109   0.573436   5.131695
     H   13   0.023946   0.036016   0.001392   0.001135   0.001242   0.003066
     H   14   0.024144   0.031924   0.004348   0.001066   0.003114   0.001214
     H   15   0.000839   0.046104   0.001170   0.028100   0.000428   0.000259
     H   16   0.001194   0.030881   0.002074   0.002820   0.000533   0.001130
     H   17   0.002185   0.030426   0.003256   0.006690   0.000346   0.000378
     H   18   5.110886   0.000370   0.001042   0.000451   0.014532   0.011451
     H   19   5.110772   0.000450   0.000538   0.000358   0.011725   0.010775


                  H 13       H 14       H 15       H 16       H 17       H 18
 ------------------------------------------------------------------------------
     H   13   5.065928
     H   14   0.570974   5.135564
     H   15   0.027735   0.001247   5.448252
     H   16   0.007085   0.002714   0.573895   5.477845
     H   17   0.002848   0.002454   0.573302   0.570031   5.477522
     H   18   0.011815   0.010821   0.000162   0.000203   0.000256   5.493325
     H   19   0.014730   0.011036   0.000129   0.000170   0.000309   0.410815


                  H 19
 ------------------
     H   19   5.493136


          HEAT OF FORMATION =     -10.215442 KCALS/MOLE

          ZERO POINT ENERGY     107.181 KCAL/MOL


           NORMAL COORDINATE ANALYSIS (Total motion = 1 Angstrom)


   Root No.       1         2         3         4         5         6         7         8

                 1 A       2 A       3 A       4 A       5 A       6 A       7 A       8 A   

                  63.5      96.7     182.7     299.2     410.5     441.5     454.4     568.6
  
           1   -0.0018   -0.0095    0.0091   -0.0190   -0.0243    0.0047    0.0046    0.0165
           2    0.0121   -0.0028   -0.0053    0.0073    0.0188    0.0023    0.0078    0.0508
           3    0.0023   -0.0069   -0.0002    0.0037   -0.0095   -0.0106    0.0577    0.0205
           4   -0.0019   -0.0090    0.0093   -0.0200   -0.0253    0.0047    0.0044    0.0221
           5    0.0005   -0.0210    0.0042    0.0135   -0.0061   -0.0060   -0.0001    0.0022
           6    0.0030   -0.0450    0.0103    0.0128    0.0170   -0.0046   -0.0129    0.0007
           7    0.0163   -0.0055    0.0008   -0.0293    0.0091   -0.0077    0.0104   -0.0418
           8    0.0167   -0.0023   -0.0080    0.0094    0.0237    0.0009    0.0101    0.0225
           9    0.0576   -0.0126   -0.0088   -0.0122   -0.0150   -0.0007   -0.0180    0.0099
          10    0.0066    0.0107    0.0018   -0.0207    0.0167   -0.0057    0.0094    0.0121
          11    0.0065    0.0115    0.0026    0.0054   -0.0242   -0.0057    0.0064   -0.0099
          12    0.0218    0.0470   -0.0014    0.0100    0.0047   -0.0021   -0.0105   -0.0050
          13   -0.0117    0.0167   -0.0074    0.0408    0.0275    0.0054   -0.0291    0.0115
          14   -0.0287    0.0180    0.0063   -0.0404   -0.0082    0.0108   -0.0432    0.0202
          15   -0.0296    0.0206   -0.0010    0.0027   -0.0026   -0.0084    0.0157   -0.0232
          16    0.0034   -0.0002   -0.0016   -0.0193    0.0316    0.0187    0.0172   -0.0160
          17    0.0051   -0.0001   -0.0017    0.0082   -0.0015    0.0157    0.0146   -0.0426
          18    0.0052    0.0081   -0.0029    0.0002   -0.0077    0.0940   -0.0078   -0.0041
          19   -0.0105   -0.0058   -0.0094    0.0507   -0.0312   -0.0079   -0.0046   -0.0043
          20   -0.0087   -0.0044   -0.0004    0.0052    0.0017   -0.0110    0.0173   -0.0460
          21   -0.0571   -0.0124    0.0035   -0.0148    0.0069   -0.0254   -0.0049    0.0130
          22   -0.0047   -0.0396    0.0167   -0.0197   -0.0354    0.0066   -0.0038    0.0325
          23    0.0536   -0.0137   -0.0100    0.0066    0.0277    0.0027    0.0015    0.0730
          24   -0.0177    0.0104   -0.0007    0.0043   -0.0093   -0.0115    0.0608    0.0008
          25   -0.0080   -0.0391    0.0196   -0.0136   -0.0296    0.0068   -0.0454   -0.0330
          26    0.0061    0.0167    0.0018    0.0083   -0.0304   -0.0044    0.0129   -0.0058
          27   -0.0091   -0.1205    0.0211    0.0247    0.0497   -0.0057   -0.0678   -0.0276
          28   -0.0037    0.0161    0.0065   -0.0246   -0.0503    0.0034    0.0587    0.0562
          29   -0.0171   -0.1098    0.0187    0.0248    0.0127   -0.0067   -0.0452   -0.0298
          30    0.0012   -0.0662    0.0133    0.0168    0.0302   -0.0043   -0.0413   -0.0175
          31    0.0308    0.0891   -0.0032   -0.0174    0.0212   -0.1392    0.0093    0.0425
          32    0.0154    0.0660   -0.0040    0.0010   -0.0469    0.0038    0.0085   -0.0040
          33    0.0284    0.0659   -0.0024    0.0112    0.0082   -0.0447   -0.0109    0.0040
          34   -0.0067   -0.0328    0.0029   -0.0222    0.0248    0.0741    0.0132   -0.0160
          35    0.0047   -0.0036    0.0098    0.0092   -0.0438   -0.0488   -0.0026    0.0270
          36    0.0446    0.1291   -0.0088    0.0102    0.0062   -0.1002   -0.0098    0.0131
          37    0.0849   -0.0228   -0.0082   -0.0547    0.0056   -0.1351   -0.0637   -0.0937
          38   -0.0007   -0.0018   -0.0091    0.0108    0.0325   -0.0256    0.0516    0.0567
          39    0.0834   -0.0177   -0.0111   -0.0212   -0.0194   -0.0304   -0.0556   -0.0175
          40   -0.0209    0.0052    0.0037   -0.0144    0.0226    0.0659    0.0531   -0.0190
          41    0.0431   -0.0010   -0.0161   -0.0002    0.0480    0.0043   -0.0312   -0.0086
          42    0.1158   -0.0271   -0.0150   -0.0350   -0.0271   -0.1025   -0.0896   -0.0331
          43   -0.0085    0.0512    0.1904    0.0856    0.0596    0.0083   -0.0676   -0.0080
          44   -0.0711    0.0264   -0.1423   -0.0765   -0.0202    0.0188   -0.0989   -0.0161
          45   -0.0118    0.0056    0.0004    0.0040   -0.0075   -0.0127    0.0508   -0.0015
          46   -0.0115    0.0163   -0.0075    0.0403    0.0273    0.0054   -0.0291    0.0117
          47   -0.0158    0.0310    0.2351   -0.0585   -0.0392    0.0142   -0.0471    0.0128
          48   -0.0311    0.0542    0.1263    0.0627    0.0483   -0.0069   -0.0273   -0.0461
          49   -0.0231    0.0035   -0.2260    0.0583    0.0581    0.0026   -0.0286    0.0212
          50   -0.0317    0.0139   -0.0586   -0.0352    0.0007    0.0101   -0.0434    0.0235
          51   -0.0718    0.0244   -0.1303   -0.0600   -0.0402    0.0001   -0.0344   -0.0658
          52   -0.0135   -0.0135   -0.0143    0.0897   -0.0777   -0.0224   -0.0193    0.0157
          53   -0.0111   -0.0115   -0.0074    0.0639   -0.0653   -0.0236   -0.0041   -0.0277
          54   -0.0715   -0.0430    0.0044   -0.0471    0.0268   -0.0914    0.0052    0.0878
          55   -0.0199   -0.0031   -0.0125    0.0938   -0.0749   -0.0227   -0.0215   -0.0109
          56   -0.0184   -0.0012    0.0080   -0.0572    0.0738   -0.0284    0.0424   -0.0685
          57   -0.0980   -0.0000    0.0088   -0.0007    0.0080   -0.0927   -0.0098   -0.0382


   Root No.       9        10        11        12        13        14        15        16

                 9 A      10 A      11 A      12 A      13 A      14 A      15 A      16 A   

                 605.1     616.6     801.6     909.1     912.3     926.5     946.0     957.3
  
           1    0.0198   -0.0231    0.0119   -0.0034   -0.0019   -0.0145   -0.0065   -0.0048
           2    0.0152    0.0028    0.0011   -0.0047   -0.0136   -0.0037    0.0030    0.0023
           3    0.0095    0.0018    0.0059    0.0001   -0.0088   -0.0129    0.0024    0.0015
           4    0.0145   -0.0090   -0.0011   -0.0292    0.0114    0.0373    0.0072    0.0031
           5   -0.0302    0.0450   -0.0167    0.0177    0.0031   -0.0221   -0.0033    0.0051
           6    0.0110   -0.0189   -0.0197    0.0162    0.0009    0.0025    0.0001    0.0202
           7   -0.0040   -0.0103    0.0034    0.0344   -0.0172   -0.0041    0.0455   -0.0044
           8    0.0109   -0.0057    0.0045   -0.0209    0.0168    0.0230    0.0020   -0.0162
           9   -0.0022    0.0035    0.0198    0.0392    0.0222    0.0055   -0.0099   -0.0044
          10   -0.0236    0.0393   -0.0110    0.0024   -0.0173    0.0183   -0.0455   -0.0021
          11   -0.0194    0.0253   -0.0145    0.0056    0.0030    0.0015    0.0125   -0.0053
          12    0.0121   -0.0177   -0.0253   -0.0025    0.0024   -0.0042    0.0045   -0.0258
          13    0.0101   -0.0127    0.0049    0.0061   -0.0037   -0.0257   -0.0103   -0.0150
          14    0.0088   -0.0073    0.0018    0.0059   -0.0175   -0.0169    0.0147    0.0082
          15   -0.0115    0.0110   -0.0012   -0.0180   -0.0012    0.0063   -0.0008   -0.0062
          16   -0.0122    0.0118   -0.0032   -0.0021    0.0058   -0.0059    0.0004    0.0032
          17    0.0082   -0.0293    0.0076   -0.0031   -0.0035    0.0006   -0.0141    0.0065
          18   -0.0106    0.0119    0.0082   -0.0177   -0.0096   -0.0044    0.0028    0.0124
          19   -0.0046    0.0045   -0.0026   -0.0112    0.0355   -0.0234    0.0037    0.0113
          20    0.0124   -0.0371    0.0085   -0.0009   -0.0041    0.0053   -0.0264    0.0097
          21   -0.0007    0.0064   -0.0003   -0.0047   -0.0116    0.0015    0.0048    0.0119
          22    0.0285   -0.0320   -0.0088   -0.0043    0.0168   -0.0115   -0.0394    0.0560
          23    0.0282   -0.0073    0.0198    0.0416    0.0188    0.0446    0.0060   -0.0107
          24   -0.0015    0.0109    0.0040   -0.0252   -0.0304   -0.0351    0.0136   -0.0158
          25   -0.0159   -0.0044    0.0394   -0.0825    0.0492    0.0672    0.0593   -0.0822
          26   -0.0177    0.0340   -0.0801    0.0376    0.0363   -0.0174    0.0252   -0.0060
          27   -0.0314    0.0030    0.1045   -0.0511   -0.0217    0.0159   -0.0017   -0.0257
          28    0.0461   -0.0235   -0.0409   -0.0012    0.0190    0.0265    0.0089    0.0842
          29   -0.0789    0.0764    0.1190   -0.0536   -0.0087   -0.0183    0.0224   -0.0298
          30   -0.0083   -0.0095    0.0172   -0.0058   -0.0042    0.0068    0.0027   -0.0174
          31   -0.0814    0.0223    0.1199    0.0124   -0.0149    0.0180   -0.0605    0.0896
          32   -0.0411    0.0474    0.0569   -0.0635   -0.0018   -0.0077    0.0651   -0.0172
          33   -0.0044   -0.0257    0.0117    0.0058    0.0032   -0.0040   -0.0030    0.0041
          34    0.0041    0.0527   -0.0817    0.0019   -0.0350    0.0103   -0.0886   -0.0551
          35   -0.0176    0.0172   -0.0336    0.0262    0.0434    0.0447    0.0789    0.0300
          36   -0.0375   -0.0316    0.1089   -0.0193   -0.0003   -0.0239    0.0206    0.0349
          37    0.0308    0.0213   -0.0778   -0.1078   -0.0789   -0.0353    0.0552    0.0088
          38    0.0239    0.0002    0.0110    0.0101    0.0246    0.0314    0.0329   -0.0578
          39    0.0044    0.0118   -0.0076   -0.0159    0.0001   -0.0070   -0.0191    0.0147
          40   -0.0317   -0.0179    0.0412    0.1112    0.0146    0.0271    0.0857   -0.0218
          41   -0.0119    0.0259   -0.0294   -0.0894    0.0142    0.0684    0.0495   -0.0099
          42    0.0299    0.0234   -0.0434   -0.0879   -0.0240   -0.0269   -0.0499    0.0219
          43   -0.0013   -0.0091   -0.0148    0.0350    0.0286    0.0558    0.0086    0.0446
          44   -0.0054   -0.0114   -0.0035    0.0542    0.0613    0.0487   -0.0342    0.0151
          45   -0.0018    0.0115    0.0074   -0.0476   -0.0447   -0.0469    0.0137   -0.0277
          46    0.0106   -0.0132    0.0050    0.0066   -0.0040   -0.0267   -0.0105   -0.0150
          47    0.0098   -0.0165    0.0199    0.0192    0.0149   -0.0608   -0.0544   -0.0540
          48   -0.0279    0.0212   -0.0306    0.0048    0.0289    0.1277    0.0437    0.0799
          49    0.0108   -0.0058   -0.0119    0.0041   -0.0360    0.0103    0.0570    0.0487
          50    0.0090   -0.0050   -0.0029    0.0062   -0.0268   -0.0065    0.0343    0.0270
          51   -0.0254    0.0033    0.0037    0.0187    0.0918    0.0485   -0.0896   -0.0392
          52   -0.0446   -0.0431   -0.0101    0.0243   -0.0583    0.0367   -0.0150   -0.0274
          53   -0.0220   -0.0841    0.0065    0.0477   -0.1430    0.0931   -0.0571   -0.0332
          54   -0.1785   -0.1747   -0.0665    0.0008    0.0535   -0.0198    0.0136   -0.0784
          55    0.0431    0.0464    0.0121    0.0373   -0.0510    0.0362    0.0054   -0.0265
          56    0.0530   -0.0013    0.0100   -0.0328    0.1549   -0.0737   -0.0307    0.0243
          57    0.1923    0.1780    0.0405    0.0720    0.0163    0.0310    0.0087   -0.0669


   Root No.      17        18        19        20        21        22        23        24

                17 A      18 A      19 A      20 A      21 A      22 A      23 A      24 A   

                 975.1    1010.7    1015.1    1064.4    1092.1    1108.5    1116.2    1136.4
  
           1    0.0060    0.0006    0.0056   -0.0086    0.0038    0.0162   -0.0151    0.0119
           2   -0.0064   -0.0027    0.0040    0.0056    0.0032    0.0256   -0.0104   -0.0137
           3    0.0007   -0.0059    0.0127    0.0012   -0.0044   -0.0152   -0.0062   -0.0098
           4   -0.0106    0.0015   -0.0073    0.0016   -0.0019   -0.0113    0.0049   -0.0246
           5    0.0116    0.0061    0.0035   -0.0327   -0.0055   -0.0019   -0.0184   -0.0170
           6    0.0108    0.0125    0.0006    0.0047    0.0063   -0.0013    0.0464   -0.0095
           7    0.0088   -0.0043    0.0045    0.0034    0.0030    0.0087   -0.0064   -0.0039
           8    0.0227    0.0049   -0.0027   -0.0120   -0.0026   -0.0115    0.0024    0.0258
           9   -0.0152   -0.0059   -0.0124   -0.0102    0.0094   -0.0160    0.0049    0.0155
          10   -0.0162   -0.0055   -0.0061    0.0159    0.0041   -0.0043    0.0114    0.0100
          11   -0.0040   -0.0069    0.0008    0.0296    0.0097    0.0031    0.0121    0.0162
          12   -0.0097   -0.0151    0.0018    0.0008    0.0098   -0.0127   -0.0391   -0.0023
          13    0.0169    0.0043   -0.0075    0.0105   -0.0003   -0.0048    0.0117   -0.0039
          14   -0.0224    0.0019   -0.0085   -0.0058    0.0001   -0.0107    0.0048    0.0053
          15   -0.0020    0.0067   -0.0113   -0.0034    0.0086    0.0366   -0.0045    0.0078
          16    0.0039    0.0048    0.0028   -0.0042   -0.0097    0.0011    0.0018    0.0014
          17   -0.0055    0.0039    0.0004    0.0014   -0.0078    0.0015    0.0002   -0.0019
          18    0.0065    0.0179    0.0100    0.0099   -0.0349    0.0097    0.0034   -0.0000
          19   -0.0092   -0.0105   -0.0041    0.0074    0.0056    0.0009    0.0013   -0.0009
          20   -0.0088   -0.0070   -0.0080   -0.0005    0.0032   -0.0058    0.0019   -0.0035
          21    0.0213   -0.0342   -0.0145   -0.0068    0.0144   -0.0033   -0.0027    0.0015
          22    0.0290    0.0344    0.0631   -0.1010    0.0553    0.1017   -0.0881    0.2490
          23   -0.0008   -0.0553    0.0335    0.0591    0.0223    0.2305   -0.0273   -0.1712
          24   -0.0102    0.0084   -0.0249    0.0080   -0.0334   -0.1510    0.0301   -0.0220
          25   -0.0395   -0.0415   -0.0596   -0.1544   -0.0747    0.0346    0.0459   -0.0461
          26    0.0252    0.0068   -0.0314   -0.1591   -0.0520    0.0294    0.0578   -0.0559
          27   -0.0304   -0.0204    0.0158    0.0812    0.0234   -0.0155   -0.0340    0.0279
          28    0.0306    0.0467    0.0490    0.0218    0.0308   -0.1258   -0.0652   -0.0941
          29   -0.0169   -0.0215    0.0470    0.0158    0.0110   -0.0817   -0.1693   -0.0457
          30   -0.0098   -0.0095   -0.0148    0.0026   -0.0037    0.0318    0.0543    0.0133
          31    0.0269    0.0514   -0.0339   -0.0218   -0.0774    0.0144    0.0225   -0.0139
          32   -0.0115   -0.0139    0.1088    0.0252    0.1466   -0.0047    0.2134    0.0190
          33    0.0047    0.0034   -0.0145   -0.0087   -0.0256   -0.0062   -0.0526   -0.0096
          34   -0.0509   -0.0383    0.0194   -0.0293    0.0543   -0.0298   -0.0028   -0.0083
          35    0.0226    0.0107   -0.0915    0.2063   -0.0908    0.0284   -0.0410    0.0942
          36    0.0259    0.0257    0.0332   -0.0647    0.0060    0.0057    0.0258   -0.0353
          37    0.0567   -0.0115    0.0614    0.0230   -0.0676    0.0122   -0.0001    0.0012
          38    0.0484   -0.1059    0.0633   -0.0125   -0.1295   -0.0622    0.0662    0.1077
          39   -0.0105    0.0306   -0.0181   -0.0037    0.0319    0.0018   -0.0148   -0.0119
          40    0.0209    0.0245   -0.0305   -0.0111    0.0631   -0.0220   -0.0195    0.0086
          41    0.0928    0.1392   -0.0596   -0.0128    0.1282   -0.0509   -0.0424   -0.0128
          42   -0.0101   -0.0059    0.0208    0.0082   -0.0368    0.0130    0.0088   -0.0094
          43   -0.0088   -0.0240    0.0517   -0.0114   -0.0103   -0.0382   -0.0164    0.0015
          44    0.0455   -0.0306    0.0622    0.0170   -0.0155   -0.0436   -0.0092   -0.0349
          45   -0.0231    0.0296   -0.0600   -0.0064    0.0191    0.0639    0.0099    0.0234
          46    0.0175    0.0045   -0.0071    0.0105    0.0000   -0.0044    0.0117   -0.0028
          47    0.0732    0.0074   -0.0101    0.0383   -0.0014   -0.0126    0.0236   -0.0287
          48   -0.0655   -0.0300    0.0537   -0.0433   -0.0028    0.0223   -0.0417    0.0208
          49   -0.0747   -0.0052    0.0019   -0.0297   -0.0026   -0.0220   -0.0041    0.0236
          50   -0.0494   -0.0014   -0.0052   -0.0173   -0.0007   -0.0151   -0.0001    0.0119
          51    0.1166   -0.0099    0.0425    0.0379    0.0042    0.0334   -0.0158   -0.0388
          52   -0.0064    0.0322    0.0153   -0.0022   -0.0127   -0.0029    0.0030   -0.0023
          53    0.0056    0.0349    0.0080   -0.0181   -0.0155   -0.0147    0.0046   -0.0058
          54   -0.0793    0.1211    0.0728    0.0263   -0.0442    0.0152   -0.0008   -0.0011
          55    0.0049    0.0364    0.0146   -0.0054   -0.0131    0.0059   -0.0014    0.0040
          56   -0.0814    0.0257   -0.0002    0.0303   -0.0043   -0.0059    0.0126   -0.0111
          57   -0.0552    0.1437    0.0497    0.0074   -0.0477    0.0118    0.0056    0.0036


   Root No.      25        26        27        28        29        30        31        32

                25 A      26 A      27 A      28 A      29 A      30 A      31 A      32 A   

                1173.7    1231.1    1243.7    1277.8    1294.8    1334.8    1353.7    1376.5
  
           1   -0.0253   -0.0008   -0.0311    0.0156    0.0541    0.0131   -0.0143   -0.0122
           2   -0.0288   -0.0202    0.0006   -0.0284   -0.0427    0.0167   -0.0098   -0.0196
           3   -0.0381    0.0291    0.0260    0.0088    0.0017   -0.0128    0.0068    0.0075
           4    0.0130   -0.0073   -0.0182   -0.0317   -0.0181   -0.0228    0.0126    0.0174
           5    0.0069   -0.0105   -0.0164   -0.0296    0.0135   -0.0195    0.0054    0.0129
           6    0.0110   -0.0037   -0.0013    0.0113    0.0013    0.0096   -0.0051   -0.0049
           7   -0.0035   -0.0133   -0.0061    0.0019   -0.0131    0.0091    0.0067    0.0108
           8    0.0025   -0.0311   -0.0105    0.0297    0.0148    0.0146    0.0090    0.0360
           9    0.0123    0.0001   -0.0014   -0.0085   -0.0028   -0.0029   -0.0045   -0.0074
          10   -0.0008    0.0062    0.0080   -0.0025    0.0057   -0.0026   -0.0123   -0.0022
          11   -0.0063    0.0192   -0.0163    0.0376   -0.0209    0.0163    0.0358   -0.0168
          12    0.0051   -0.0063    0.0058   -0.0069    0.0044   -0.0022   -0.0079    0.0058
          13    0.0076    0.0029    0.0091   -0.0018   -0.0110    0.0004   -0.0005   -0.0096
          14    0.0097    0.0084    0.0028    0.0058    0.0085    0.0001   -0.0025   -0.0115
          15    0.0278   -0.0069   -0.0056   -0.0010   -0.0001   -0.0028    0.0046    0.0160
          16    0.0014   -0.0221    0.0263    0.0051    0.0154   -0.0187    0.0243   -0.0258
          17    0.0002   -0.0007   -0.0046    0.0089   -0.0085   -0.0150   -0.0114   -0.0015
          18    0.0012    0.0081   -0.0054   -0.0032   -0.0015    0.0074   -0.0030    0.0059
          19   -0.0011    0.0083   -0.0065   -0.0007   -0.0052    0.0038   -0.0037    0.0027
          20    0.0034    0.0041    0.0058   -0.0032   -0.0024   -0.0209   -0.0177   -0.0061
          21   -0.0006   -0.0035    0.0003    0.0009    0.0017    0.0038    0.0047    0.0008
          22    0.0148    0.0312    0.0928   -0.0233   -0.0934   -0.0134    0.0148    0.0113
          23    0.0654    0.0858    0.0264    0.0463    0.0768   -0.0273    0.0069    0.0173
          24   -0.1043   -0.0369   -0.0349   -0.0144   -0.0021    0.0199   -0.0129   -0.0200
          25   -0.0505    0.0340    0.1150    0.0571   -0.0681    0.0427   -0.0021   -0.0405
          26   -0.0097   -0.0021    0.0661    0.0212    0.0250    0.0294   -0.0557   -0.0109
          27   -0.0101    0.0113   -0.0267   -0.0022   -0.0443   -0.0150    0.0650   -0.0082
          28    0.1695   -0.0342    0.0601    0.0798   -0.0456    0.0638   -0.0025   -0.0496
          29    0.0682   -0.0184    0.0652    0.0367    0.0356    0.0389   -0.0722   -0.0101
          30   -0.0432    0.0068   -0.0219   -0.0222    0.0123   -0.0165   -0.0050    0.0165
          31    0.0059    0.0551   -0.0311    0.0616   -0.0444    0.0621   -0.0686    0.0654
          32    0.0024   -0.0571    0.0767   -0.0417    0.0527   -0.0058   -0.0890    0.0361
          33    0.0063    0.0128   -0.0143    0.0161   -0.0154    0.0153   -0.0073    0.0157
          34    0.0108    0.0486   -0.0325    0.0536   -0.0398    0.0478   -0.0359    0.0394
          35   -0.0267   -0.0475    0.1094   -0.0367    0.0688   -0.0222   -0.0634    0.0036
          36    0.0055   -0.0198   -0.0254   -0.0331    0.0048   -0.0462    0.0934   -0.0651
          37    0.0086    0.0726   -0.0214   -0.0575   -0.0451    0.0395   -0.0661    0.0495
          38    0.1411    0.1063   -0.0500   -0.0605    0.0259   -0.0288   -0.0205   -0.0805
          39   -0.0335   -0.0227    0.0092    0.0072   -0.0137    0.0172   -0.0110    0.0375
          40    0.0036    0.0585   -0.0216   -0.0509   -0.0399    0.0249   -0.0483    0.0241
          41   -0.0455    0.1627   -0.0034   -0.0239    0.0528   -0.0429   -0.0142   -0.0764
          42   -0.0124   -0.0420    0.0206    0.0442    0.0399   -0.0347    0.0570   -0.0475
          43   -0.0636    0.0225    0.0172    0.0186    0.0137   -0.0159    0.0174    0.0541
          44   -0.0806    0.0286    0.0296    0.0031   -0.0070   -0.0353    0.0270    0.0601
          45    0.0870   -0.0238   -0.0217   -0.0079   -0.0015    0.0212   -0.0174   -0.0426
          46    0.0079    0.0059    0.0122    0.0005   -0.0106   -0.0030    0.0030    0.0017
          47    0.0030    0.0214    0.0423   -0.0017   -0.0330   -0.0331    0.0288    0.0797
          48   -0.0600   -0.0275   -0.0587   -0.0144    0.0374    0.0368   -0.0398   -0.0861
          49   -0.0041    0.0314    0.0120    0.0259    0.0330   -0.0287    0.0223    0.0804
          50    0.0064    0.0198    0.0067    0.0147    0.0213   -0.0132    0.0078    0.0250
          51   -0.0540   -0.0508   -0.0191   -0.0328   -0.0431    0.0516   -0.0356   -0.0780
          52    0.0057    0.0088    0.0319   -0.0574    0.0447    0.0779    0.0594    0.0081
          53    0.0145    0.0081    0.0662   -0.0973    0.0776    0.0996    0.0809    0.0041
          54   -0.0030   -0.0015   -0.0210    0.0343   -0.0272   -0.0412   -0.0323   -0.0031
          55   -0.0041   -0.0243   -0.0146    0.0601   -0.0360   -0.0869   -0.0473   -0.0203
          56    0.0091    0.0589    0.0232   -0.1093    0.0528    0.1333    0.0584    0.0308
          57   -0.0012   -0.0076   -0.0028    0.0104   -0.0032   -0.0081   -0.0011   -0.0017


   Root No.      33        34        35        36        37        38        39        40

                33 A      34 A      35 A      36 A      37 A      38 A      39 A      40 A   

                1394.2    1403.8    1413.0    1417.8    1421.3    1430.1    1906.9    2889.9
  
           1    0.0093    0.0040   -0.0020   -0.0103    0.0126    0.0306   -0.0059   -0.0198
           2   -0.0081    0.0080    0.0015   -0.0213   -0.0005    0.0365   -0.0070   -0.0261
           3    0.0002   -0.0078    0.0006    0.0169   -0.0031   -0.0325    0.0037   -0.0514
           4   -0.0153   -0.0021    0.0002    0.0167   -0.0284   -0.0079    0.0048   -0.0007
           5    0.0020   -0.0067    0.0085    0.0086    0.0358   -0.0098   -0.0056    0.0019
           6    0.0003    0.0032   -0.0036   -0.0068   -0.0134    0.0057    0.0008    0.0043
           7   -0.0288   -0.0011    0.0067   -0.0282    0.0083   -0.0340   -0.0209    0.0019
           8    0.0126   -0.0077   -0.0060    0.0049   -0.0029   -0.0284   -0.0254   -0.0001
           9    0.0075    0.0019   -0.0015    0.0061   -0.0021    0.0165    0.0106    0.0049
          10    0.0265   -0.0001   -0.0059   -0.0358   -0.0022   -0.0312    0.0206    0.0000
          11    0.0024    0.0044   -0.0055    0.0094   -0.0225    0.0153   -0.0275   -0.0000
          12   -0.0088   -0.0013    0.0033    0.0082    0.0085    0.0042    0.0010   -0.0003
          13   -0.0057   -0.0176   -0.0242    0.0121    0.0006   -0.0224    0.0009    0.0012
          14    0.0036   -0.0261    0.0186    0.0174   -0.0056   -0.0262    0.0013    0.0016
          15   -0.0006   -0.0188   -0.0027   -0.0255    0.0009    0.0409   -0.0015    0.0010
          16    0.0000    0.0039   -0.0002    0.0437   -0.0079    0.0495    0.0004    0.0000
          17    0.0021    0.0000    0.0001   -0.0029    0.0009   -0.0020    0.2611    0.0002
          18   -0.0006   -0.0008    0.0003   -0.0099    0.0015   -0.0119   -0.0573   -0.0001
          19   -0.0002   -0.0003    0.0000   -0.0071    0.0006   -0.0067   -0.0002    0.0000
          20    0.0044    0.0006    0.0005   -0.0012    0.0012    0.0013   -0.2004   -0.0000
          21   -0.0009   -0.0001   -0.0001    0.0020   -0.0004    0.0013    0.0440    0.0000
          22   -0.0230   -0.0046   -0.0056    0.0077   -0.0217   -0.0458   -0.0009    0.2393
          23    0.0196   -0.0124    0.0044    0.0359    0.0055   -0.0407    0.0008    0.3151
          24   -0.0015    0.0050    0.0005   -0.0186    0.0066    0.0358   -0.0038    0.6225
          25    0.0456   -0.0021    0.0120   -0.0298    0.1133    0.0002    0.0025    0.0080
          26   -0.0059    0.0111   -0.0162   -0.0361   -0.0723   -0.0002   -0.0049   -0.0268
          27    0.0443   -0.0198    0.0350    0.0243    0.2040   -0.0021   -0.0073   -0.0180
          28    0.0525    0.0095    0.0047   -0.0413    0.1256    0.0203    0.0000   -0.0091
          29   -0.0375    0.0251   -0.0388   -0.0346   -0.1967    0.0101    0.0031    0.0044
          30   -0.0256    0.0010   -0.0077    0.0109   -0.0816   -0.0023    0.0044   -0.0333
          31   -0.1189   -0.0079    0.0285    0.0854    0.0459    0.0556   -0.0007   -0.0005
          32   -0.0432   -0.0080    0.0201    0.0306    0.0614    0.0214    0.0220    0.0005
          33   -0.0376   -0.0017    0.0085    0.0334    0.0102    0.0236   -0.0064    0.0013
          34   -0.0654   -0.0043    0.0140    0.0414    0.0226    0.0232   -0.0052    0.0015
          35    0.0074   -0.0037    0.0061   -0.0066    0.0382   -0.0041    0.0305    0.0006
          36    0.1138    0.0100   -0.0321   -0.0851   -0.0680   -0.0564   -0.0044    0.0011
          37    0.1465   -0.0140   -0.0355    0.0721   -0.0266    0.0502    0.0002    0.0098
          38   -0.0529    0.0257    0.0241   -0.0455    0.0166    0.0371    0.0216   -0.0090
          39    0.0659   -0.0117   -0.0207    0.0435   -0.0160    0.0137   -0.0028   -0.0368
          40    0.0764   -0.0060   -0.0179    0.0260   -0.0105    0.0273    0.0057   -0.0301
          41   -0.0631    0.0153    0.0202   -0.0427    0.0203    0.0087    0.0305    0.0018
          42   -0.1344    0.0120    0.0332   -0.0670    0.0257   -0.0488   -0.0088   -0.0224
          43    0.0344   -0.0907    0.2408   -0.0535   -0.0501    0.0797   -0.0004   -0.0072
          44   -0.0289   -0.1006   -0.1949   -0.0593    0.0307    0.0912   -0.0011   -0.0097
          45    0.0016    0.0645    0.0068    0.0395    0.0017   -0.0584    0.0001   -0.0133
          46   -0.0024   -0.0058   -0.0051    0.0038   -0.0025   -0.0099    0.0006   -0.0105
          47   -0.0036    0.3000   -0.0618   -0.0238    0.0218    0.0337    0.0006    0.0022
          48   -0.0188    0.1171   -0.1666    0.0722    0.0440   -0.0980   -0.0011   -0.0033
          49    0.0234    0.2829    0.0682   -0.0240    0.0037    0.0415    0.0000    0.0050
          50    0.0101    0.0771    0.0262   -0.0001   -0.0003    0.0040    0.0009   -0.0093
          51    0.0215    0.1060    0.1872    0.0577   -0.0319   -0.0919   -0.0003   -0.0032
          52   -0.0116   -0.0003   -0.0001    0.0117   -0.0029    0.0087    0.1472    0.0000
          53   -0.0136    0.0003    0.0004    0.0256   -0.0038    0.0224   -0.0380   -0.0000
          54    0.0054    0.0000    0.0002   -0.0082    0.0018   -0.0073   -0.0273   -0.0000
          55    0.0115    0.0021   -0.0000    0.0059   -0.0006    0.0115   -0.1471    0.0001
          56   -0.0152   -0.0030    0.0004   -0.0205    0.0027   -0.0259   -0.0226    0.0001
          57    0.0008    0.0001   -0.0003    0.0030   -0.0008    0.0031    0.0411    0.0000


   Root No.      41        42        43        44        45        46        47        48

                41 A      42 A      43 A      44 A      45 A      46 A      47 A      48 A   

                2965.1    2965.7    2980.4    3047.6    3050.6    3061.3    3075.9    3084.7
  
           1    0.0006   -0.0011   -0.0007   -0.0004   -0.0004    0.0004   -0.0005   -0.0003
           2    0.0007   -0.0016   -0.0009    0.0005   -0.0001   -0.0003   -0.0007    0.0002
           3    0.0012   -0.0030   -0.0019   -0.0003    0.0001   -0.0002   -0.0013   -0.0000
           4    0.0012    0.0001   -0.0018   -0.0001   -0.0039    0.0196    0.0010   -0.0001
           5    0.0080    0.0008   -0.0110   -0.0001    0.0060   -0.0268   -0.0011    0.0005
           6    0.0228    0.0023   -0.0320   -0.0001   -0.0012    0.0043    0.0002   -0.0006
           7   -0.0002   -0.0129   -0.0006   -0.0335   -0.0055   -0.0020   -0.0007   -0.0004
           8   -0.0001   -0.0069   -0.0004    0.0129    0.0021    0.0008    0.0004   -0.0001
           9   -0.0008   -0.0512   -0.0026    0.0027    0.0005    0.0001    0.0001    0.0005
          10   -0.0093    0.0007   -0.0061   -0.0058    0.0286    0.0066    0.0002    0.0000
          11   -0.0097    0.0007   -0.0063   -0.0018    0.0087    0.0016    0.0000   -0.0000
          12   -0.0327    0.0024   -0.0215    0.0017   -0.0086   -0.0020   -0.0000    0.0000
          13    0.0000   -0.0002   -0.0000    0.0007    0.0001    0.0004   -0.0221   -0.0452
          14    0.0001   -0.0001   -0.0002    0.0004   -0.0001    0.0015   -0.0296    0.0339
          15    0.0000    0.0000   -0.0000    0.0007   -0.0000    0.0013   -0.0318   -0.0002
          16    0.0001    0.0001    0.0000   -0.0004    0.0003    0.0000   -0.0000    0.0000
          17   -0.0002    0.0002    0.0000   -0.0002   -0.0004    0.0004    0.0000   -0.0000
          18    0.0000   -0.0002   -0.0001    0.0001    0.0000   -0.0001    0.0000   -0.0000
          19   -0.0000   -0.0000   -0.0000   -0.0000    0.0000    0.0000    0.0000   -0.0000
          20    0.0000   -0.0001   -0.0000    0.0001    0.0001   -0.0000    0.0000   -0.0000
          21   -0.0001   -0.0001   -0.0001   -0.0000   -0.0000    0.0000   -0.0000    0.0000
          22   -0.0075    0.0117    0.0106    0.0010   -0.0003    0.0023    0.0037   -0.0011
          23   -0.0073    0.0211    0.0107    0.0031    0.0003    0.0015    0.0048    0.0009
          24   -0.0145    0.0334    0.0204    0.0042    0.0002    0.0034    0.0164    0.0001
          25    0.0602    0.0062   -0.0826    0.0016    0.0301   -0.1397   -0.0059    0.0019
          26   -0.1190   -0.0133    0.1691   -0.0035   -0.0632    0.3064    0.0127   -0.0035
          27   -0.0801   -0.0086    0.1090   -0.0026   -0.0503    0.2379    0.0101   -0.0031
          28   -0.0771   -0.0071    0.1061    0.0018    0.0216   -0.0983   -0.0034    0.0034
          29    0.0234    0.0027   -0.0379   -0.0005   -0.0030    0.0166    0.0009   -0.0002
          30   -0.1941   -0.0191    0.2737    0.0052    0.0623   -0.2917   -0.0145    0.0074
          31   -0.0850    0.0067   -0.0568    0.0147   -0.0677   -0.0160   -0.0004   -0.0001
          32    0.0240   -0.0016    0.0121   -0.0072    0.0331    0.0068    0.0001   -0.0000
          33    0.2782   -0.0215    0.1830   -0.0649    0.3009    0.0714    0.0018    0.0002
          34    0.1958   -0.0152    0.1302    0.0592   -0.2734   -0.0634   -0.0016   -0.0001
          35    0.0923   -0.0073    0.0636    0.0296   -0.1371   -0.0331   -0.0009   -0.0000
          36    0.1167   -0.0088    0.0756    0.0426   -0.1973   -0.0457   -0.0012   -0.0001
          37   -0.0016   -0.1249   -0.0063    0.0640    0.0101    0.0028    0.0013    0.0011
          38    0.0019    0.1458    0.0075   -0.0966   -0.0154   -0.0043   -0.0012   -0.0026
          39    0.0057    0.4236    0.0212   -0.3117   -0.0494   -0.0141   -0.0084   -0.0052
          40    0.0047    0.2783    0.0123    0.3380    0.0533    0.0165    0.0070    0.0018
          41   -0.0010   -0.0598   -0.0028   -0.0625   -0.0100   -0.0029   -0.0014   -0.0006
          42    0.0034    0.1930    0.0084    0.2785    0.0440    0.0136    0.0059    0.0017
          43    0.0002    0.0002   -0.0002   -0.0032    0.0000   -0.0057    0.1329   -0.0234
          44   -0.0001   -0.0006    0.0001   -0.0041    0.0000   -0.0077    0.1804    0.0173
          45   -0.0007    0.0013    0.0013   -0.0097    0.0001   -0.0174    0.3991   -0.0003
          46    0.0017    0.0009   -0.0024   -0.0063   -0.0018   -0.0019    0.2082    0.4436
          47    0.0000   -0.0001   -0.0000    0.0007    0.0000    0.0008   -0.0206    0.0062
          48    0.0001   -0.0003   -0.0001    0.0000   -0.0001    0.0006   -0.0081    0.0182
          49    0.0002    0.0011   -0.0002    0.0003   -0.0005    0.0042   -0.0781    0.1198
          50   -0.0005   -0.0037    0.0006    0.0005    0.0015   -0.0107    0.1930   -0.4282
          51    0.0001   -0.0001   -0.0002    0.0004    0.0001    0.0002   -0.0095   -0.0154
          52   -0.0005    0.0007   -0.0001   -0.0010   -0.0004    0.0002    0.0000   -0.0000
          53    0.0002   -0.0004   -0.0000    0.0000    0.0000   -0.0002   -0.0000   -0.0000
          54   -0.0004    0.0004   -0.0003    0.0001    0.0001   -0.0000    0.0000   -0.0000
          55    0.0004   -0.0009    0.0000   -0.0000    0.0012   -0.0004   -0.0001    0.0002
          56    0.0003   -0.0006    0.0001   -0.0001    0.0001   -0.0004   -0.0001    0.0001
          57    0.0001   -0.0005    0.0001    0.0000   -0.0002    0.0002    0.0000   -0.0001


   Root No.      49        50        51

                49 A      50 A      51 A   

                3144.5    3147.1    3178.4
  
           1   -0.0000    0.0000   -0.0003
           2   -0.0001   -0.0000   -0.0004
           3    0.0000   -0.0000    0.0003
           4    0.0001    0.0000   -0.0000
           5   -0.0001   -0.0000    0.0001
           6   -0.0000   -0.0000   -0.0002
           7    0.0001    0.0001    0.0001
           8    0.0000    0.0005   -0.0000
           9   -0.0001   -0.0001   -0.0002
          10   -0.0001    0.0001    0.0000
          11    0.0000   -0.0005    0.0000
          12    0.0001    0.0001   -0.0000
          13    0.0000    0.0000   -0.0104
          14   -0.0000   -0.0000   -0.0138
          15    0.0000    0.0000    0.0175
          16    0.0000   -0.0005    0.0000
          17    0.0065   -0.0000    0.0000
          18   -0.0014    0.0001   -0.0000
          19   -0.0005   -0.0632    0.0000
          20   -0.0462    0.0036    0.0000
          21    0.0103    0.0145   -0.0000
          22   -0.0000   -0.0000    0.0003
          23    0.0000   -0.0000    0.0004
          24    0.0000   -0.0000    0.0030
          25   -0.0003   -0.0001    0.0003
          26    0.0006    0.0002   -0.0009
          27    0.0004    0.0002   -0.0007
          28   -0.0001   -0.0001    0.0005
          29   -0.0000    0.0000   -0.0004
          30   -0.0003   -0.0002    0.0032
          31    0.0003    0.0002   -0.0000
          32    0.0000   -0.0005    0.0000
          33   -0.0011   -0.0004    0.0001
          34    0.0001    0.0006    0.0000
          35    0.0000   -0.0004    0.0000
          36    0.0001    0.0004    0.0000
          37   -0.0003    0.0002   -0.0006
          38    0.0005    0.0003    0.0002
          39    0.0011   -0.0004    0.0029
          40    0.0000    0.0005   -0.0006
          41   -0.0000    0.0005    0.0000
          42    0.0001    0.0002   -0.0006
          43   -0.0000    0.0000   -0.0959
          44   -0.0000   -0.0000   -0.1299
          45   -0.0000    0.0000   -0.2551
          46    0.0002   -0.0000    0.3296
          47   -0.0000   -0.0000   -0.0140
          48   -0.0000    0.0000    0.0208
          49   -0.0001   -0.0000   -0.1064
          50    0.0003    0.0002    0.3119
          51   -0.0000    0.0000    0.0187
          52   -0.3900    0.3800    0.0001
          53    0.2553   -0.2713   -0.0001
          54    0.0379   -0.0320   -0.0000
          55    0.3953    0.3753   -0.0002
          56    0.2179    0.2292   -0.0001
          57   -0.1433   -0.1410    0.0001


           MASS-WEIGHTED COORDINATE ANALYSIS (NORMAL COORDINATES)


   Root No.       1         2         3         4         5         6         7         8

                 1 A       2 A       3 A       4 A       5 A       6 A       7 A       8 A   

                  63.5      96.7     182.7     299.2     410.5     441.5     454.4     568.6
  
           1   -0.0144   -0.0816    0.0687   -0.1554   -0.2275    0.0344    0.0387    0.1291
           2    0.0973   -0.0243   -0.0398    0.0600    0.1766    0.0165    0.0664    0.3984
           3    0.0184   -0.0596   -0.0013    0.0305   -0.0893   -0.0772    0.4892    0.1608
           4   -0.0153   -0.0775    0.0696   -0.1642   -0.2374    0.0342    0.0370    0.1736
           5    0.0043   -0.1807    0.0318    0.1106   -0.0570   -0.0437   -0.0010    0.0169
           6    0.0238   -0.3876    0.0771    0.1050    0.1590   -0.0333   -0.1095    0.0058
           7    0.1310   -0.0475    0.0062   -0.2402    0.0853   -0.0559    0.0883   -0.3279
           8    0.1343   -0.0195   -0.0598    0.0769    0.2221    0.0068    0.0860    0.1761
           9    0.4619   -0.1090   -0.0663   -0.1001   -0.1403   -0.0052   -0.1524    0.0774
          10    0.0526    0.0926    0.0138   -0.1693    0.1567   -0.0415    0.0795    0.0949
          11    0.0522    0.0994    0.0198    0.0445   -0.2274   -0.0415    0.0545   -0.0773
          12    0.1750    0.4048   -0.0105    0.0822    0.0442   -0.0155   -0.0895   -0.0389
          13   -0.0938    0.1440   -0.0553    0.3341    0.2575    0.0393   -0.2470    0.0902
          14   -0.2303    0.1552    0.0473   -0.3307   -0.0768    0.0790   -0.3663    0.1587
          15   -0.2379    0.1777   -0.0072    0.0223   -0.0244   -0.0614    0.1333   -0.1820
          16    0.0277   -0.0019   -0.0121   -0.1583    0.2963    0.1364    0.1458   -0.1252
          17    0.0408   -0.0007   -0.0130    0.0671   -0.0140    0.1144    0.1242   -0.3338
          18    0.0421    0.0694   -0.0220    0.0020   -0.0719    0.6862   -0.0660   -0.0323
          19   -0.0844   -0.0500   -0.0708    0.4150   -0.2926   -0.0574   -0.0393   -0.0340
          20   -0.0696   -0.0375   -0.0026    0.0424    0.0162   -0.0804    0.1470   -0.3605
          21   -0.4579   -0.1065    0.0265   -0.1211    0.0643   -0.1854   -0.0415    0.1022
          22   -0.0109   -0.0989    0.0363   -0.0469   -0.0962    0.0140   -0.0093    0.0739
          23    0.1246   -0.0342   -0.0218    0.0158    0.0752    0.0058    0.0036    0.1659
          24   -0.0413    0.0259   -0.0015    0.0102   -0.0252   -0.0243    0.1496    0.0019
          25   -0.0186   -0.0975    0.0427   -0.0323   -0.0803    0.0143   -0.1115   -0.0749
          26    0.0141    0.0416    0.0038    0.0198   -0.0826   -0.0094    0.0316   -0.0132
          27   -0.0212   -0.3009    0.0460    0.0585    0.1349   -0.0120   -0.1668   -0.0626
          28   -0.0085    0.0402    0.0141   -0.0584   -0.1368    0.0073    0.1442    0.1278
          29   -0.0399   -0.2740    0.0407    0.0588    0.0345   -0.0141   -0.1112   -0.0677
          30    0.0029   -0.1652    0.0289    0.0399    0.0820   -0.0090   -0.1015   -0.0396
          31    0.0716    0.2223   -0.0071   -0.0412    0.0576   -0.2943    0.0229    0.0966
          32    0.0358    0.1648   -0.0088    0.0023   -0.1274    0.0081    0.0210   -0.0091
          33    0.0661    0.1646   -0.0051    0.0266    0.0223   -0.0946   -0.0269    0.0091
          34   -0.0157   -0.0818    0.0063   -0.0527    0.0675    0.1566    0.0324   -0.0364
          35    0.0109   -0.0089    0.0214    0.0218   -0.1189   -0.1032   -0.0063    0.0614
          36    0.1037    0.3222   -0.0192    0.0241    0.0170   -0.2118   -0.0240    0.0297
          37    0.1973   -0.0569   -0.0178   -0.1297    0.0151   -0.2857   -0.1566   -0.2128
          38   -0.0016   -0.0046   -0.0199    0.0257    0.0882   -0.0541    0.1268    0.1288
          39    0.1938   -0.0441   -0.0241   -0.0503   -0.0526   -0.0644   -0.1367   -0.0396
          40   -0.0487    0.0129    0.0081   -0.0342    0.0614    0.1394    0.1305   -0.0433
          41    0.1001   -0.0025   -0.0350   -0.0005    0.1305    0.0091   -0.0766   -0.0195
          42    0.2691   -0.0677   -0.0328   -0.0831   -0.0738   -0.2168   -0.2203   -0.0752
          43   -0.0199    0.1278    0.4148    0.2032    0.1619    0.0175   -0.1661   -0.0183
          44   -0.1653    0.0660   -0.3101   -0.1816   -0.0548    0.0397   -0.2431   -0.0367
          45   -0.0274    0.0140    0.0008    0.0095   -0.0203   -0.0269    0.1249   -0.0034
          46   -0.0268    0.0406   -0.0164    0.0957    0.0742    0.0114   -0.0715    0.0266
          47   -0.0367    0.0773    0.5121   -0.1388   -0.1065    0.0301   -0.1158    0.0292
          48   -0.0723    0.1353    0.2751    0.1489    0.1312   -0.0146   -0.0672   -0.1047
          49   -0.0538    0.0088   -0.4923    0.1383    0.1578    0.0056   -0.0704    0.0481
          50   -0.0737    0.0348   -0.1276   -0.0835    0.0020    0.0213   -0.1066    0.0534
          51   -0.1668    0.0609   -0.2838   -0.1424   -0.1092    0.0001   -0.0845   -0.1494
          52   -0.0314   -0.0337   -0.0311    0.2128   -0.2110   -0.0474   -0.0474    0.0356
          53   -0.0259   -0.0288   -0.0161    0.1517   -0.1775   -0.0498   -0.0101   -0.0630
          54   -0.1662   -0.1074    0.0095   -0.1118    0.0729   -0.1934    0.0127    0.1994
          55   -0.0464   -0.0078   -0.0271    0.2227   -0.2036   -0.0479   -0.0529   -0.0249
          56   -0.0428   -0.0029    0.0174   -0.1357    0.2006   -0.0602    0.1043   -0.1557
          57   -0.2277   -0.0001    0.0192   -0.0016    0.0218   -0.1961   -0.0242   -0.0867


   Root No.       9        10        11        12        13        14        15        16

                 9 A      10 A      11 A      12 A      13 A      14 A      15 A      16 A   

                 605.1     616.6     801.6     909.1     912.3     926.5     946.0     957.3
  
           1    0.1765   -0.1806    0.1181   -0.0312   -0.0177   -0.1399   -0.0607   -0.0532
           2    0.1354    0.0218    0.0107   -0.0422   -0.1293   -0.0359    0.0281    0.0258
           3    0.0842    0.0144    0.0583    0.0009   -0.0834   -0.1244    0.0222    0.0170
           4    0.1291   -0.0702   -0.0104   -0.2647    0.1082    0.3607    0.0665    0.0340
           5   -0.2684    0.3514   -0.1657    0.1608    0.0295   -0.2140   -0.0305    0.0565
           6    0.0982   -0.1475   -0.1954    0.1469    0.0082    0.0241    0.0014    0.2242
           7   -0.0358   -0.0802    0.0339    0.3113   -0.1634   -0.0398    0.4219   -0.0484
           8    0.0969   -0.0442    0.0443   -0.1891    0.1590    0.2220    0.0183   -0.1798
           9   -0.0198    0.0277    0.1962    0.3551    0.2101    0.0535   -0.0916   -0.0488
          10   -0.2099    0.3068   -0.1094    0.0215   -0.1639    0.1771   -0.4218   -0.0232
          11   -0.1721    0.1977   -0.1441    0.0510    0.0280    0.0147    0.1164   -0.0592
          12    0.1078   -0.1382   -0.2504   -0.0227    0.0231   -0.0404    0.0420   -0.2861
          13    0.0902   -0.0992    0.0486    0.0553   -0.0355   -0.2487   -0.0954   -0.1667
          14    0.0782   -0.0568    0.0179    0.0534   -0.1655   -0.1632    0.1368    0.0908
          15   -0.1026    0.0863   -0.0115   -0.1632   -0.0113    0.0611   -0.0077   -0.0685
          16   -0.1087    0.0924   -0.0314   -0.0190    0.0553   -0.0570    0.0036    0.0351
          17    0.0728   -0.2292    0.0752   -0.0284   -0.0329    0.0061   -0.1310    0.0725
          18   -0.0940    0.0930    0.0808   -0.1600   -0.0913   -0.0424    0.0256    0.1373
          19   -0.0406    0.0349   -0.0258   -0.1014    0.3361   -0.2264    0.0344    0.1254
          20    0.1101   -0.2902    0.0839   -0.0081   -0.0385    0.0516   -0.2454    0.1074
          21   -0.0066    0.0501   -0.0026   -0.0422   -0.1098    0.0146    0.0444    0.1325
          22    0.0734   -0.0724   -0.0253   -0.0113    0.0462   -0.0321   -0.1058    0.1803
          23    0.0727   -0.0165    0.0569    0.1093    0.0517    0.1250    0.0162   -0.0343
          24   -0.0039    0.0247    0.0116   -0.0660   -0.0836   -0.0982    0.0367   -0.0508
          25   -0.0410   -0.0099    0.1130   -0.2165    0.1350    0.1881    0.1594   -0.2645
          26   -0.0455    0.0770   -0.2299    0.0988    0.0996   -0.0487    0.0679   -0.0193
          27   -0.0810    0.0069    0.2999   -0.1342   -0.0596    0.0446   -0.0045   -0.0826
          28    0.1189   -0.0531   -0.1172   -0.0031    0.0522    0.0743    0.0238    0.2709
          29   -0.2032    0.1729    0.3414   -0.1407   -0.0239   -0.0513    0.0603   -0.0959
          30   -0.0214   -0.0215    0.0494   -0.0153   -0.0115    0.0191    0.0072   -0.0559
          31   -0.2098    0.0506    0.3440    0.0325   -0.0408    0.0503   -0.1627    0.2885
          32   -0.1060    0.1073    0.1633   -0.1667   -0.0049   -0.0216    0.1749   -0.0554
          33   -0.0115   -0.0581    0.0337    0.0152    0.0087   -0.0111   -0.0080    0.0133
          34    0.0105    0.1194   -0.2345    0.0050   -0.0960    0.0287   -0.2381   -0.1773
          35   -0.0452    0.0390   -0.0964    0.0688    0.1191    0.1252    0.2120    0.0965
          36   -0.0967   -0.0714    0.3123   -0.0507   -0.0009   -0.0669    0.0555    0.1125
          37    0.0793    0.0483   -0.2232   -0.2830   -0.2165   -0.0987    0.1485    0.0282
          38    0.0615    0.0004    0.0314    0.0264    0.0677    0.0879    0.0883   -0.1861
          39    0.0113    0.0268   -0.0218   -0.0418    0.0004   -0.0197   -0.0513    0.0474
          40   -0.0817   -0.0406    0.1181    0.2919    0.0401    0.0760    0.2305   -0.0700
          41   -0.0307    0.0585   -0.0843   -0.2346    0.0389    0.1914    0.1330   -0.0320
          42    0.0770    0.0529   -0.1246   -0.2308   -0.0658   -0.0754   -0.1342    0.0703
          43   -0.0034   -0.0205   -0.0425    0.0919    0.0785    0.1562    0.0231    0.1436
          44   -0.0139   -0.0258   -0.0101    0.1422    0.1683    0.1362   -0.0920    0.0484
          45   -0.0046    0.0261    0.0212   -0.1248   -0.1228   -0.1312    0.0369   -0.0891
          46    0.0272   -0.0299    0.0144    0.0172   -0.0110   -0.0748   -0.0281   -0.0484
          47    0.0254   -0.0373    0.0570    0.0503    0.0410   -0.1703   -0.1461   -0.1738
          48   -0.0719    0.0481   -0.0877    0.0126    0.0794    0.3576    0.1176    0.2571
          49    0.0278   -0.0131   -0.0340    0.0108   -0.0989    0.0287    0.1532    0.1568
          50    0.0231   -0.0114   -0.0085    0.0162   -0.0735   -0.0181    0.0922    0.0869
          51   -0.0655    0.0076    0.0106    0.0490    0.2522    0.1359   -0.2409   -0.1263
          52   -0.1150   -0.0976   -0.0290    0.0639   -0.1600    0.1029   -0.0402   -0.0881
          53   -0.0568   -0.1903    0.0187    0.1253   -0.3927    0.2606   -0.1536   -0.1067
          54   -0.4598   -0.3955   -0.1906    0.0020    0.1468   -0.0555    0.0366   -0.2522
          55    0.1110    0.1051    0.0347    0.0979   -0.1402    0.1013    0.0144   -0.0853
          56    0.1366   -0.0029    0.0287   -0.0861    0.4252   -0.2063   -0.0824    0.0783
          57    0.4954    0.4028    0.1162    0.1889    0.0448    0.0869    0.0234   -0.2152


   Root No.      17        18        19        20        21        22        23        24

                17 A      18 A      19 A      20 A      21 A      22 A      23 A      24 A   

                 975.1    1010.7    1015.1    1064.4    1092.1    1108.5    1116.2    1136.4
  
           1    0.0615    0.0060    0.0654   -0.0732    0.0366    0.1336   -0.1258    0.0993
           2   -0.0662   -0.0272    0.0466    0.0476    0.0309    0.2113   -0.0863   -0.1144
           3    0.0073   -0.0595    0.1473    0.0102   -0.0424   -0.1254   -0.0516   -0.0816
           4   -0.1089    0.0147   -0.0851    0.0136   -0.0182   -0.0932    0.0411   -0.2058
           5    0.1192    0.0612    0.0409   -0.2791   -0.0533   -0.0159   -0.1530   -0.1419
           6    0.1109    0.1257    0.0069    0.0403    0.0610   -0.0111    0.3852   -0.0791
           7    0.0902   -0.0428    0.0518    0.0290    0.0285    0.0721   -0.0534   -0.0326
           8    0.2334    0.0497   -0.0318   -0.1020   -0.0249   -0.0952    0.0199    0.2150
           9   -0.1567   -0.0597   -0.1436   -0.0871    0.0905   -0.1326    0.0407    0.1298
          10   -0.1670   -0.0557   -0.0712    0.1356    0.0396   -0.0359    0.0949    0.0831
          11   -0.0408   -0.0691    0.0095    0.2525    0.0929    0.0255    0.1006    0.1353
          12   -0.0997   -0.1522    0.0208    0.0072    0.0943   -0.1052   -0.3251   -0.0190
          13    0.1737    0.0436   -0.0876    0.0897   -0.0025   -0.0398    0.0975   -0.0323
          14   -0.2309    0.0195   -0.0984   -0.0497    0.0006   -0.0881    0.0396    0.0442
          15   -0.0210    0.0675   -0.1310   -0.0291    0.0824    0.3030   -0.0372    0.0652
          16    0.0401    0.0480    0.0331   -0.0356   -0.0935    0.0089    0.0149    0.0119
          17   -0.0567    0.0393    0.0048    0.0117   -0.0754    0.0127    0.0015   -0.0157
          18    0.0667    0.1799    0.1161    0.0847   -0.3354    0.0799    0.0279   -0.0004
          19   -0.0951   -0.1060   -0.0478    0.0633    0.0537    0.0073    0.0106   -0.0079
          20   -0.0903   -0.0701   -0.0929   -0.0044    0.0306   -0.0483    0.0156   -0.0292
[...]
 TRANSITION DIPOLE   0.0323         C  3 -- H 14         +18.4% ( 45.6%)      5.8%
 TRAVEL (Ang.)       0.3999         C  4 -- H 11         +12.5% ( 37.6%)      5.1%
 REDUCED MASS        0.3024         C  4 -- H 12         +12.2% ( 37.3%)      6.1%
 EFFECTIVE MASS      3.0430
 FORCE CONSTANT      0.3463

 VIBRATION         34   34A           ATOM PAIR      ENERGY CONTRIBUTION    RADIAL
 FREQUENCY          1403.83         C  5 -- H 16         +40.7% ( 56.4%)      1.5%
 TRANSITION DIPOLE   0.0473         C  5 -- H 17         +38.1% ( 54.6%)      2.1%
 TRAVEL (Ang.)       0.3482         C  5 -- H 15          +9.6% ( 27.4%)     56.9%
 REDUCED MASS        0.3961         C  1 -- C  5          +5.8% ( 21.3%)     16.1%
 EFFECTIVE MASS      1.7180
 FORCE CONSTANT      0.4600

 VIBRATION         35   35A           ATOM PAIR      ENERGY CONTRIBUTION    RADIAL
 FREQUENCY          1412.99         C  5 -- H 15         +48.3% ( 61.1%)      0.0%
 TRANSITION DIPOLE   0.0512         C  5 -- H 17         +20.6% ( 39.9%)      9.8%
 TRAVEL (Ang.)       0.3612         C  5 -- H 16         +16.5% ( 35.6%)     12.8%
 REDUCED MASS        0.3657         C  1 -- C  5          +4.4% ( 18.5%)      0.9%
 EFFECTIVE MASS      1.6624
 FORCE CONSTANT      0.4302

 VIBRATION         36   36A           ATOM PAIR      ENERGY CONTRIBUTION    RADIAL
 FREQUENCY          1417.84         C  4 -- C  6         +14.0% ( 50.8%)     76.2%
 TRANSITION DIPOLE   0.1338         C  3 -- C  6         +11.0% ( 45.0%)     62.1%
 TRAVEL (Ang.)       0.2453         C  1 -- C  5          +7.8% ( 37.9%)     97.6%
 REDUCED MASS        0.7905         C  4 -- H 11          +6.9% ( 35.6%)      6.9%
 EFFECTIVE MASS      7.0453
 FORCE CONSTANT      0.9363

 VIBRATION         37   37A           ATOM PAIR      ENERGY CONTRIBUTION    RADIAL
 FREQUENCY          1421.25         C  2 -- H 10         +30.1% ( 58.1%)      4.7%
 TRANSITION DIPOLE   0.0318         C  2 -- H  9         +29.0% ( 57.0%)      6.1%
 TRAVEL (Ang.)       0.3042         C  2 -- C  4         +12.6% ( 37.5%)     59.7%
 REDUCED MASS        0.5126         C  1 -- C  2         +10.0% ( 33.4%)     54.1%
 EFFECTIVE MASS      3.0910
 FORCE CONSTANT      0.6101

 VIBRATION         38   38A           ATOM PAIR      ENERGY CONTRIBUTION    RADIAL
 FREQUENCY          1430.15         C  1 -- C  5         +14.2% ( 55.2%)     97.3%
 TRANSITION DIPOLE   0.1490         C  3 -- C  6         +10.9% ( 48.3%)     93.7%
 TRAVEL (Ang.)       0.1924         C  1 -- C  3         +10.4% ( 47.3%)     18.7%
 REDUCED MASS        1.2735         C  4 -- C  6          +8.6% ( 42.9%)     81.3%
 EFFECTIVE MASS      8.6052
 FORCE CONSTANT      1.5347

 VIBRATION         39   39A           ATOM PAIR      ENERGY CONTRIBUTION    RADIAL
 FREQUENCY          1906.89         C  6 -- C  7         +44.2% ( 98.7%)    100.0%
 TRANSITION DIPOLE   0.3588         C  3 -- C  6         +18.3% ( 63.5%)     39.6%
 TRAVEL (Ang.)       0.0787         C  4 -- C  6         +18.3% ( 63.5%)     39.4%
 REDUCED MASS        5.7052         C  7 -- H 19          +9.1% ( 44.7%)     11.7%
 EFFECTIVE MASS     11.8908
 FORCE CONSTANT     12.2230

 VIBRATION         40   40A           ATOM PAIR      ENERGY CONTRIBUTION    RADIAL
 FREQUENCY          2889.90         C  1 -- H  8         +95.7% ( 99.5%)    100.0%
 TRANSITION DIPOLE   0.0382         C  1 -- C  3          +1.1% ( 10.4%)      8.5%
 TRAVEL (Ang.)       0.1601         C  1 -- C  2          +1.0% ( 10.4%)      8.7%
 REDUCED MASS        0.9098         C  1 -- C  5          +1.0% ( 10.3%)      8.8%
 EFFECTIVE MASS      1.4491
 FORCE CONSTANT      4.4766

 VIBRATION         41   41A           ATOM PAIR      ENERGY CONTRIBUTION    RADIAL
 FREQUENCY          2965.11         C  4 -- H 11         +38.3% ( 64.4%)     97.2%
 TRANSITION DIPOLE   0.0242         C  4 -- H 12         +28.0% ( 55.0%)     95.5%
 TRAVEL (Ang.)       0.2749         C  2 -- H 10         +19.8% ( 46.3%)     97.6%
 REDUCED MASS        0.3009         C  2 -- H  9         +11.4% ( 35.2%)     94.3%
 EFFECTIVE MASS      1.5489
 FORCE CONSTANT      1.5588

 VIBRATION         42   42A           ATOM PAIR      ENERGY CONTRIBUTION    RADIAL
 FREQUENCY          2965.73         C  3 -- H 13         +61.5% ( 81.3%)     97.8%
 TRANSITION DIPOLE   0.0543         C  3 -- H 14         +35.4% ( 61.6%)     94.6%
 TRAVEL (Ang.)       0.2049         C  3 -- C  6          +1.1% ( 10.8%)      0.1%
 REDUCED MASS        0.5417         C  1 -- C  3          +1.1% ( 10.8%)      0.1%
 EFFECTIVE MASS      1.5305
 FORCE CONSTANT      2.8074

 VIBRATION         43   43A           ATOM PAIR      ENERGY CONTRIBUTION    RADIAL
 FREQUENCY          2980.41         C  2 -- H 10         +42.2% ( 67.1%)     97.9%
 TRANSITION DIPOLE   0.0530         C  2 -- H  9         +24.0% ( 50.6%)     94.6%
 TRAVEL (Ang.)       0.2720         C  4 -- H 11         +17.8% ( 43.7%)     97.5%
 REDUCED MASS        0.3058         C  4 -- H 12         +13.3% ( 37.6%)     95.8%
 EFFECTIVE MASS      1.5250
 FORCE CONSTANT      1.6002

 VIBRATION         44   44A           ATOM PAIR      ENERGY CONTRIBUTION    RADIAL
 FREQUENCY          3047.60         C  3 -- H 14         +61.6% ( 77.5%)     98.9%
 TRANSITION DIPOLE   0.0966         C  3 -- H 13         +33.6% ( 57.2%)     95.2%
 TRAVEL (Ang.)       0.2135         C  4 -- H 12          +1.9% ( 13.7%)     98.7%
 REDUCED MASS        0.4853         C  4 -- H 11          +1.4% ( 11.5%)     96.9%
 EFFECTIVE MASS      1.2833
 FORCE CONSTANT      2.6554

 VIBRATION         45   45A           ATOM PAIR      ENERGY CONTRIBUTION    RADIAL
 FREQUENCY          3050.55         C  4 -- H 12         +53.1% ( 71.9%)     98.4%
 TRANSITION DIPOLE   0.0580         C  4 -- H 11         +37.8% ( 60.6%)     96.4%
 TRAVEL (Ang.)       0.2287         C  2 -- H  9          +3.0% ( 17.1%)     98.8%
 REDUCED MASS        0.4227         C  3 -- H 14          +2.0% ( 13.8%)     98.7%
 EFFECTIVE MASS      1.2865
 FORCE CONSTANT      2.3173

 VIBRATION         46   46A           ATOM PAIR      ENERGY CONTRIBUTION    RADIAL
 FREQUENCY          3061.32         C  2 -- H  9         +60.9% ( 77.0%)     98.9%
 TRANSITION DIPOLE   0.0501         C  2 -- H 10         +32.9% ( 56.5%)     95.1%
 TRAVEL (Ang.)       0.2162         C  4 -- H 12          +2.5% ( 15.7%)     98.5%
 REDUCED MASS        0.4714         C  4 -- H 11          +1.9% ( 13.5%)     96.7%
 EFFECTIVE MASS      1.2873
 FORCE CONSTANT      2.6031

 VIBRATION         47   47A           ATOM PAIR      ENERGY CONTRIBUTION    RADIAL
 FREQUENCY          3075.94         C  5 -- H 15         +68.5% ( 85.4%)     99.0%
 TRANSITION DIPOLE   0.0070         C  5 -- H 16         +15.2% ( 40.2%)     83.1%
 TRAVEL (Ang.)       0.2010         C  5 -- H 17         +15.0% ( 40.0%)     82.9%
 REDUCED MASS        0.5424         C  1 -- C  5          +1.0% ( 10.3%)      0.0%
 EFFECTIVE MASS      1.5022
 FORCE CONSTANT      3.0237

 VIBRATION         48   48A           ATOM PAIR      ENERGY CONTRIBUTION    RADIAL
 FREQUENCY          3084.71         C  5 -- H 17         +49.1% ( 72.3%)     97.1%
 TRANSITION DIPOLE   0.0085         C  5 -- H 16         +48.9% ( 72.2%)     97.1%
 TRAVEL (Ang.)       0.2071         C  1 -- C  5          +1.0% ( 10.5%)      0.0%
 REDUCED MASS        0.5097         C  5 -- H 15          +1.0% ( 10.2%)      0.0%
 EFFECTIVE MASS      1.5081
 FORCE CONSTANT      2.8576

 VIBRATION         49   49A           ATOM PAIR      ENERGY CONTRIBUTION    RADIAL
 FREQUENCY          3144.53         C  7 -- H 19         +49.8% ( 70.6%)     95.4%
 TRANSITION DIPOLE   0.3131         C  7 -- H 18         +48.6% ( 69.7%)     95.1%
 TRAVEL (Ang.)       0.2100         C  6 -- C  7          +1.5% ( 12.4%)    100.0%
 REDUCED MASS        0.4861
 EFFECTIVE MASS      1.3873
 FORCE CONSTANT      2.8319

 VIBRATION         50   50A           ATOM PAIR      ENERGY CONTRIBUTION    RADIAL
 FREQUENCY          3147.08         C  7 -- H 18         +50.0% ( 72.4%)     97.1%
 TRANSITION DIPOLE   0.1933         C  7 -- H 19         +48.7% ( 71.6%)     97.0%
 TRAVEL (Ang.)       0.2001         C  6 -- C  7          +1.3% ( 11.7%)      0.0%
 REDUCED MASS        0.5349
 EFFECTIVE MASS      1.6060
 FORCE CONSTANT      3.1214

 VIBRATION         51   51A           ATOM PAIR      ENERGY CONTRIBUTION    RADIAL
 FREQUENCY          3178.44         C  5 -- H 16         +35.4% ( 57.3%)     97.4%
 TRANSITION DIPOLE   0.0273         C  5 -- H 17         +35.3% ( 57.2%)     97.4%
 TRAVEL (Ang.)       0.2539         C  5 -- H 15         +29.0% ( 51.8%)     96.3%
 REDUCED MASS        0.3292         C  1 -- C  5          +0.3% (  5.1%)     99.2%
 EFFECTIVE MASS      1.1364
 FORCE CONSTANT      1.9592

      SYMMETRY NUMBER FOR POINT-GROUP C1  =  1


          SYSTEM IS A GROUND STATE



 InChI=1S/C7H12/c1-6-3-4-7(2)5-6/h7H,1,3-5H2,2H3


          MOLECULE IS NOT LINEAR

          THERE ARE 51 GENUINE VIBRATIONS IN THIS SYSTEM
          THIS THERMODYNAMICS CALCULATION IS LIMITED TO
          MOLECULES WHICH HAVE NO INTERNAL ROTATIONS




                    CALCULATED THERMODYNAMIC PROPERTIES
                                          *
   TEMP. (K)   PARTITION FUNCTION   H.O.F.    ENTHALPY  HEAT CAPACITY ENTROPY
                                   KCAL/MOL   CAL/MOLE    CAL/K/MOL  CAL/K/MOL


 298.00  VIB.     0.4642D+02                  2863.6512    22.1048    17.2357
         ROT.     0.2182D+06                   888.2803     2.9808    27.4097
         INT.     0.1013D+08                  3751.9315    25.0856    44.6454
         TRA.     0.9118D+27                  1480.4672     4.9680    39.5994
         TOT.                      -10.215    5232.3987    30.0536    84.2448

 200.00  VIB.     0.1019D+02                  1175.3507    12.7033    10.4902
         ROT.     0.1200D+06                   596.1613     2.9808    26.2210
         INT.     0.1223D+07                  1771.5120    15.6841    36.7112
         TRA.     0.5013D+27                   993.6021     4.9680    37.6183
         TOT.                      -12.683    2765.1141    20.6521    74.3295

 210.00  VIB.     0.1182D+02                  1306.6023    13.5522    11.1304
         ROT.     0.1291D+06                   625.9693     2.9808    26.3665
         INT.     0.1526D+07                  1932.5717    16.5330    37.4968
         TRA.     0.5394D+27                  1043.2822     4.9680    37.8607
         TOT.                      -12.472    2975.8539    21.5010    75.3575

 220.00  VIB.     0.1373D+02                  1446.4946    14.4313    11.7810
         ROT.     0.1384D+06                   655.7774     2.9808    26.5051
         INT.     0.1901D+07                  2102.2720    17.4121    38.2861
         TRA.     0.5784D+27                  1092.9623     4.9680    38.0918
         TOT.                      -12.253    3195.2344    22.3801    76.3779

 230.00  VIB.     0.1597D+02                  1595.3242    15.3394    12.4424
         ROT.     0.1479D+06                   685.5855     2.9808    26.6376
         INT.     0.2363D+07                  2280.9096    18.3202    39.0801
         TRA.     0.6182D+27                  1142.6424     4.9680    38.3126
         TOT.                      -12.024    3423.5521    23.2882    77.3927

 240.00  VIB.     0.1860D+02                  1753.3727    16.2747    13.1149
         ROT.     0.1577D+06                   715.3935     2.9808    26.7645
         INT.     0.2934D+07                  2468.7663    19.2555    39.8794
         TRA.     0.6590D+27                  1192.3226     4.9680    38.5241
         TOT.                      -11.787    3661.0888    24.2235    78.4035

 250.00  VIB.     0.2170D+02                  1920.9020    17.2351    13.7987
         ROT.     0.1677D+06                   745.2016     2.9808    26.8862
         INT.     0.3638D+07                  2666.1036    20.2159    40.6849
         TRA.     0.7006D+27                  1242.0027     4.9680    38.7269
         TOT.                      -11.540    3908.1063    25.1839    79.4117

 260.00  VIB.     0.2535D+02                  2098.1494    18.2179    14.4938
         ROT.     0.1778D+06                   775.0097     2.9808    27.0031
         INT.     0.4507D+07                  2873.1590    21.1987    41.4968
         TRA.     0.7431D+27                  1291.6828     4.9680    38.9217
         TOT.                      -11.283    4164.8418    26.1667    80.4185

 270.00  VIB.     0.2965D+02                  2285.3248    19.2202    15.2000
         ROT.     0.1882D+06                   804.8177     2.9808    27.1156
         INT.     0.5580D+07                  3090.1425    22.2010    42.3156
         TRA.     0.7864D+27                  1341.3629     4.9680    39.1092
         TOT.                      -11.016    4431.5054    27.1690    81.4248

 280.00  VIB.     0.3475D+02                  2482.6086    20.2391    15.9174
         ROT.     0.1987D+06                   834.6258     2.9808    27.2240
         INT.     0.6905D+07                  3317.2344    23.2199    43.1414
         TRA.     0.8304D+27                  1391.0430     4.9680    39.2899
         TOT.                      -10.740    4708.2774    28.1879    82.4313

 290.00  VIB.     0.4079D+02                  2690.1507    21.2713    16.6456
         ROT.     0.2095D+06                   864.4339     2.9808    27.3286
         INT.     0.8543D+07                  3554.5846    24.2521    43.9742
         TRA.     0.8753D+27                  1440.7231     4.9680    39.4642
         TOT.                      -10.453    4995.3077    29.2202    83.4384

 300.00  VIB.     0.4795D+02                  2908.0699    22.3140    17.3843
         ROT.     0.2204D+06                   894.2419     2.9808    27.4296
         INT.     0.1057D+08                  3802.3118    25.2948    44.8139
         TRA.     0.9210D+27                  1490.4032     4.9680    39.6326
         TOT.                      -10.155    5292.7150    30.2628    84.4465

 310.00  VIB.     0.5646D+02                  3136.4543    23.3639    18.1330
         ROT.     0.2315D+06                   924.0500     2.9808    27.5274
         INT.     0.1307D+08                  4060.5042    26.3447    45.6604
         TRA.     0.9674D+27                  1540.0833     4.9680    39.7955
         TOT.                       -9.847    5600.5875    31.3127    85.4560

 320.00  VIB.     0.6659D+02                  3375.3625    24.4183    18.8915
         ROT.     0.2428D+06                   953.8580     2.9808    27.6220
         INT.     0.1617D+08                  4329.2206    27.3991    46.5135
         TRA.     0.1015D+28                  1589.7634     4.9680    39.9533
         TOT.                       -9.529    5918.9840    32.3671    86.4667

 330.00  VIB.     0.7867D+02                  3624.8252    25.4743    19.6590
         ROT.     0.2543D+06                   983.6661     2.9808    27.7137
         INT.     0.2000D+08                  4608.4913    28.4551    47.3727
         TRA.     0.1063D+28                  1639.4435     4.9680    40.1062
         TOT.                       -9.200    6247.9348    33.4232    87.4789

 340.00  VIB.     0.9309D+02                  3884.8465    26.5296    20.4352
         ROT.     0.2659D+06                  1013.4742     2.9808    27.8027
         INT.     0.2475D+08                  4898.3206    29.5104    48.2379
         TRA.     0.1111D+28                  1689.1236     4.9680    40.2545
         TOT.                       -8.860    6587.4443    34.4784    88.4924

 350.00  VIB.     0.1103D+03                  4155.4061    27.5816    21.2194
         ROT.     0.2777D+06                  1043.2822     2.9808    27.8891
         INT.     0.3064D+08                  5198.6884    30.5625    49.1085
         TRA.     0.1161D+28                  1738.8037     4.9680    40.3985
         TOT.                       -8.510    6937.4921    35.5305    89.5070

 360.00  VIB.     0.1310D+03                  4436.4618    28.6284    22.0111
         ROT.     0.2897D+06                  1073.0903     2.9808    27.9731
         INT.     0.3794D+08                  5509.5521    31.6093    49.9842
         TRA.     0.1211D+28                  1788.4838     4.9680    40.5384
         TOT.                       -8.150    7298.0359    36.5773    90.5226

 370.00  VIB.     0.1557D+03                  4727.9511    29.6681    22.8097
         ROT.     0.3019D+06                  1102.8984     2.9808    28.0548
         INT.     0.4700D+08                  5830.8495    32.6489    50.8644
         TRA.     0.1261D+28                  1838.1639     4.9680    40.6745
         TOT.                       -7.779    7669.0134    37.6169    91.5390

 380.00  VIB.     0.1854D+03                  5029.7940    30.6989    23.6146
         ROT.     0.3142D+06                  1132.7064     2.9808    28.1343
         INT.     0.5825D+08                  6162.5004    33.6797    51.7488
         TRA.     0.1313D+28                  1887.8440     4.9680    40.8070
         TOT.                       -7.397    8050.3445    38.6477    92.5559

 390.00  VIB.     0.2211D+03                  5341.8946    31.7194    24.4252
         ROT.     0.3267D+06                  1162.5145     2.9808    28.2117
         INT.     0.7222D+08                  6504.4091    34.7002    52.6369
         TRA.     0.1365D+28                  1937.5242     4.9680    40.9361
         TOT.                       -7.006    8441.9333    39.6682    93.5730

 400.00  VIB.     0.2640D+03                  5664.1437    32.7284    25.2410
         ROT.     0.3393D+06                  1192.3226     2.9808    28.2872
         INT.     0.8958D+08                  6856.4663    35.7092    53.5282
         TRA.     0.1418D+28                  1987.2043     4.9680    41.0619
         TOT.                       -6.604    8843.6706    40.6772    94.5900

   *: NOTE: HEATS OF FORMATION ARE RELATIVE TO THE
            ELEMENTS IN THEIR STANDARD STATE AT 298K
              (=  Standard Enthalpy of Formation).

            Hvib:  Zero-point energy is not included.
                   frequencies of less than zero cm-1 are not included.
            Hrot = (3/2)RT
            Htra = (3/2)RT + pV = (5/2)RT

            Heat capacity is Cp, not Cv

          For more information, see: HTTP://OpenMOPAC.net/Manual/thermochemistry.html


           FORCE CONSTANT IN CARTESIAN COORDINATES (Millidynes/A)

    ATOM   CHEMICAL       X               Y               Z
   NUMBER   SYMBOL  FORCE CONSTANT  FORCE CONSTANT  FORCE CONSTANT

      1       C        7.997934        8.435149        8.529157
      2       C        7.832345        8.680035        8.272614
      3       C        9.311002        7.906850        8.110233
      4       C        9.304728        8.047387        8.055125
      5       C        8.413445        8.389612        8.191169
      6       C        8.452678       16.037865        3.691552
      7       C        8.801719       14.859291        2.932671
      8       H        1.128583        1.430152        3.492612
      9       H        1.259950        3.202863        2.036940
     10       H        1.272787        0.748708        4.446678
     11       H        0.947938        0.734839        4.662815
     12       H        3.266401        1.313846        1.821969
     13       H        0.900563        1.138236        4.319316
     14       H        3.338039        0.807099        2.261492
     15       H        1.108740        1.468337        4.196131
     16       H        5.382172        0.675299        0.712374
     17       H        1.105663        4.954024        0.709374
     18       H        3.875770        2.182819        0.389303
     19       H        3.883704        1.758549        0.804752

 **********************
 *                    *
 * JOB ENDED NORMALLY *
 *                    *
 **********************



 TOTAL JOB TIME:             1.61 SECONDS

 == MOPAC DONE ==
