 *******************************************************************************
 **                                                                           **
 **                              MOPAC v23.1.2                                **
 **                                                                           **
 *******************************************************************************
 **          Digital Object Identifier (DOI): 10.5281/zenodo.6511958          **
 **    Visit the DOI location for information on how to cite this program.    **
 *******************************************************************************

                              PM3 CALCULATION RESULTS

 *******************************************************************************
 *  CALCULATION DONE: (MAX THREADS = 1)              Tue Jun  3 16:27:11 2025  *
 *  PM3        - The PM3 Hamiltonian to be used
 *  PRECISE    - TIGHTER CRITERIA TO BE USED
 *  NOSYM      - POINT-GROUP SYMMETRY SET TO C1
 *  THREADS=1  - MULTI-THREADING NOT USED
 *  T=         - A TIME OF 172800.0 SECONDS REQUESTED
 *  DUMP=N     - RESTART FILE WRITTEN EVERY 7200.0 SECONDS REQUESTED
 *******************************************************************************
pm3  precise nosym THREADS=1
 InChI=1S/C10H12/c1-8-6-9-4-2-3-5-10(9)7-8/h2-4,7,10H,5-6H2,1H3

   ATOM   CHEMICAL          X               Y               Z
  NUMBER   SYMBOL      (ANGSTROMS)     (ANGSTROMS)     (ANGSTROMS)

     1       C         -0.35090000  *  -0.52260000  *  -0.76380000  *
     2       C         -1.49580000  *  -1.34980000  *  -0.15440000  *
     3       C          1.01090000  *   1.26210000  *   0.26930000  *
     4       C          3.19400000  *  -0.20560000  *   0.51460000  *
     5       C         -0.34650000  *   0.85610000  *  -0.18580000  *
     6       C          1.76140000  *  -0.02480000  *   0.11740000  *
     7       C          1.01510000  *  -1.00300000  *  -0.40410000  *
     8       C         -2.78220000  *  -0.55310000  *  -0.20340000  *
     9       C         -1.48220000  *   1.49860000  *   0.10760000  *
    10       C         -2.76670000  *   0.78120000  *  -0.04420000  *
    11       H         -0.46010000  *  -0.46810000  *  -1.86910000  *
    12       H         -1.61870000  *  -2.30010000  *  -0.71630000  *
    13       H         -1.27030000  *  -1.59180000  *   0.90750000  *
    14       H          0.99830000  *   1.57640000  *   1.33500000  *
    15       H          1.43020000  *   2.05430000  *  -0.38610000  *
    16       H          3.60240000  *   0.74210000  *   0.92430000  *
    17       H          3.27100000  *  -0.99510000  *   1.29140000  *
    18       H          3.79420000  *  -0.50170000  *  -0.37120000  *
    19       H          1.38270000  *  -2.00460000  *  -0.60510000  *
    20       H         -3.72690000  *  -1.07090000  *  -0.31080000  *
    21       H         -1.46280000  *   2.48850000  *   0.54520000  *
    22       H         -3.69710000  *   1.33210000  *   0.00190000  *



          CARTESIAN COORDINATES 

    NO.       ATOM           X           Y           Z

     1         C         -0.3509     -0.5226     -0.7638
     2         C         -1.4958     -1.3498     -0.1544
     3         C          1.0109      1.2621      0.2693
     4         C          3.1940     -0.2056      0.5146
     5         C         -0.3465      0.8561     -0.1858
     6         C          1.7614     -0.0248      0.1174
     7         C          1.0151     -1.0030     -0.4041
     8         C         -2.7822     -0.5531     -0.2034
     9         C         -1.4822      1.4986      0.1076
    10         C         -2.7667      0.7812     -0.0442
    11         H         -0.4601     -0.4681     -1.8691
    12         H         -1.6187     -2.3001     -0.7163
    13         H         -1.2703     -1.5918      0.9075
    14         H          0.9983      1.5764      1.3350
    15         H          1.4302      2.0543     -0.3861
    16         H          3.6024      0.7421      0.9243
    17         H          3.2710     -0.9951      1.2914
    18         H          3.7942     -0.5017     -0.3712
    19         H          1.3827     -2.0046     -0.6051
    20         H         -3.7269     -1.0709     -0.3108
    21         H         -1.4628      2.4885      0.5452
    22         H         -3.6971      1.3321      0.0019

  H: (PM3): J. J. P. STEWART, J. COMP. CHEM. 10, 209 (1989).
  C: (PM3): J. J. P. STEWART, J. COMP. CHEM. 10, 209 (1989).

           Empirical Formula: C10 H12  =    22 atoms



      MOLECULAR POINT GROUP   :   C1  


      RHF CALCULATION, NO. OF DOUBLY OCCUPIED LEVELS = 26


          Geometry optimization using EF

          DIAGONAL MATRIX USED AS START HESSIAN

 CYCLE:     1 TIME:   0.008 TIME LEFT:  2.00D  GRAD.:    81.517 HEAT:  34.56384
 CYCLE:     2 TIME:   0.016 TIME LEFT:  2.00D  GRAD.:    49.672 HEAT:  32.82961
 CYCLE:     3 TIME:   0.012 TIME LEFT:  2.00D  GRAD.:    38.991 HEAT:  32.25041
 CYCLE:     4 TIME:   0.008 TIME LEFT:  2.00D  GRAD.:    25.471 HEAT:  31.80543
 CYCLE:     5 TIME:   0.008 TIME LEFT:  2.00D  GRAD.:    48.468 HEAT:  31.72836
 CYCLE:     6 TIME:   0.004 TIME LEFT:  2.00D  GRAD.:    37.200 HEAT:  31.46406
 CYCLE:     7 TIME:   0.008 TIME LEFT:  2.00D  GRAD.:    36.434 HEAT:  31.41108
 CYCLE:     8 TIME:   0.012 TIME LEFT:  2.00D  GRAD.:    20.018 HEAT:  31.09499
 CYCLE:     9 TIME:   0.012 TIME LEFT:  2.00D  GRAD.:    13.702 HEAT:  30.97615
 CYCLE:    10 TIME:   0.008 TIME LEFT:  2.00D  GRAD.:    22.984 HEAT:  30.94657
 CYCLE:    11 TIME:   0.008 TIME LEFT:  2.00D  GRAD.:    21.275 HEAT:  30.84044
 CYCLE:    12 TIME:   0.008 TIME LEFT:  2.00D  GRAD.:    26.165 HEAT:  30.83686
 CYCLE:    13 TIME:   0.004 TIME LEFT:  2.00D  GRAD.:    19.875 HEAT:  30.69205
 CYCLE:    14 TIME:   0.012 TIME LEFT:  2.00D  GRAD.:    13.859 HEAT:  30.61049
 CYCLE:    15 TIME:   0.008 TIME LEFT:  2.00D  GRAD.:     9.058 HEAT:  30.55736
 CYCLE:    16 TIME:   0.004 TIME LEFT:  2.00D  GRAD.:    13.943 HEAT:  30.53900
 CYCLE:    17 TIME:   0.012 TIME LEFT:  2.00D  GRAD.:     9.315 HEAT:  30.49646
 CYCLE:    18 TIME:   0.008 TIME LEFT:  2.00D  GRAD.:    12.854 HEAT:  30.48914
 CYCLE:    19 TIME:   0.004 TIME LEFT:  2.00D  GRAD.:     5.473 HEAT:  30.43460
 CYCLE:    20 TIME:   0.016 TIME LEFT:  2.00D  GRAD.:     6.532 HEAT:  30.42756
 CYCLE:    21 TIME:   0.008 TIME LEFT:  2.00D  GRAD.:     3.599 HEAT:  30.40661
 CYCLE:    22 TIME:   0.008 TIME LEFT:  2.00D  GRAD.:     5.392 HEAT:  30.38843
 CYCLE:    23 TIME:   0.004 TIME LEFT:  2.00D  GRAD.:     3.699 HEAT:  30.36185
 CYCLE:    24 TIME:   0.008 TIME LEFT:  2.00D  GRAD.:     4.821 HEAT:  30.34525
 CYCLE:    25 TIME:   0.008 TIME LEFT:  2.00D  GRAD.:     4.683 HEAT:  30.33472
 CYCLE:    26 TIME:   0.008 TIME LEFT:  2.00D  GRAD.:     5.130 HEAT:  30.32470
 CYCLE:    27 TIME:   0.008 TIME LEFT:  2.00D  GRAD.:     3.365 HEAT:  30.30719
 CYCLE:    28 TIME:   0.008 TIME LEFT:  2.00D  GRAD.:     4.267 HEAT:  30.27935
 CYCLE:    29 TIME:   0.004 TIME LEFT:  2.00D  GRAD.:     5.348 HEAT:  30.26148
 CYCLE:    30 TIME:   0.008 TIME LEFT:  2.00D  GRAD.:     4.066 HEAT:  30.24573
 CYCLE:    31 TIME:   0.008 TIME LEFT:  2.00D  GRAD.:     4.924 HEAT:  30.23848
 CYCLE:    32 TIME:   0.008 TIME LEFT:  2.00D  GRAD.:     3.315 HEAT:  30.22576
 CYCLE:    33 TIME:   0.004 TIME LEFT:  2.00D  GRAD.:     2.280 HEAT:  30.21879
 CYCLE:    34 TIME:   0.012 TIME LEFT:  2.00D  GRAD.:     2.018 HEAT:  30.21249
 CYCLE:    35 TIME:   0.004 TIME LEFT:  2.00D  GRAD.:     1.453 HEAT:  30.20937
 CYCLE:    36 TIME:   0.008 TIME LEFT:  2.00D  GRAD.:     1.035 HEAT:  30.20754
 CYCLE:    37 TIME:   0.008 TIME LEFT:  2.00D  GRAD.:     0.888 HEAT:  30.20643
 CYCLE:    38 TIME:   0.012 TIME LEFT:  2.00D  GRAD.:     0.792 HEAT:  30.20540
 CYCLE:    39 TIME:   0.012 TIME LEFT:  2.00D  GRAD.:     0.679 HEAT:  30.20420
 CYCLE:    40 TIME:   0.008 TIME LEFT:  2.00D  GRAD.:     0.648 HEAT:  30.20277
 CYCLE:    41 TIME:   0.008 TIME LEFT:  2.00D  GRAD.:     0.556 HEAT:  30.20199
 CYCLE:    42 TIME:   0.008 TIME LEFT:  2.00D  GRAD.:     0.541 HEAT:  30.20142
 CYCLE:    43 TIME:   0.016 TIME LEFT:  2.00D  GRAD.:     0.486 HEAT:  30.20091
 CYCLE:    44 TIME:   0.008 TIME LEFT:  2.00D  GRAD.:     0.492 HEAT:  30.20022
 CYCLE:    45 TIME:   0.012 TIME LEFT:  2.00D  GRAD.:     0.445 HEAT:  30.19943
 CYCLE:    46 TIME:   0.008 TIME LEFT:  2.00D  GRAD.:     0.323 HEAT:  30.19905
 CYCLE:    47 TIME:   0.008 TIME LEFT:  2.00D  GRAD.:     0.267 HEAT:  30.19886
 CYCLE:    48 TIME:   0.008 TIME LEFT:  2.00D  GRAD.:     0.248 HEAT:  30.19871
 CYCLE:    49 TIME:   0.008 TIME LEFT:  2.00D  GRAD.:     0.273 HEAT:  30.19849
 CYCLE:    50 TIME:   0.008 TIME LEFT:  2.00D  GRAD.:     0.265 HEAT:  30.19829
 CYCLE:    51 TIME:   0.008 TIME LEFT:  2.00D  GRAD.:     0.249 HEAT:  30.19811
 CYCLE:    52 TIME:   0.012 TIME LEFT:  2.00D  GRAD.:     0.287 HEAT:  30.19792
 CYCLE:    53 TIME:   0.008 TIME LEFT:  2.00D  GRAD.:     0.352 HEAT:  30.19766
 CYCLE:    54 TIME:   0.008 TIME LEFT:  2.00D  GRAD.:     0.496 HEAT:  30.19713
 CYCLE:    55 TIME:   0.008 TIME LEFT:  2.00D  GRAD.:     0.587 HEAT:  30.19644
 CYCLE:    56 TIME:   0.008 TIME LEFT:  2.00D  GRAD.:     0.636 HEAT:  30.19561
 CYCLE:    57 TIME:   0.012 TIME LEFT:  2.00D  GRAD.:     0.511 HEAT:  30.19495
 CYCLE:    58 TIME:   0.008 TIME LEFT:  2.00D  GRAD.:     0.467 HEAT:  30.19391
 CYCLE:    59 TIME:   0.008 TIME LEFT:  2.00D  GRAD.:     0.527 HEAT:  30.19336
 CYCLE:    60 TIME:   0.008 TIME LEFT:  2.00D  GRAD.:     0.734 HEAT:  30.19255
 CYCLE:    61 TIME:   0.008 TIME LEFT:  2.00D  GRAD.:     0.579 HEAT:  30.19180
 CYCLE:    62 TIME:   0.008 TIME LEFT:  2.00D  GRAD.:     0.555 HEAT:  30.19073
 CYCLE:    63 TIME:   0.008 TIME LEFT:  2.00D  GRAD.:     0.813 HEAT:  30.18957
 CYCLE:    64 TIME:   0.012 TIME LEFT:  2.00D  GRAD.:     1.031 HEAT:  30.18788
 CYCLE:    65 TIME:   0.008 TIME LEFT:  2.00D  GRAD.:     2.378 HEAT:  30.18661
 CYCLE:    66 TIME:   0.008 TIME LEFT:  2.00D  GRAD.:     1.631 HEAT:  30.18139
 CYCLE:    67 TIME:   0.008 TIME LEFT:  2.00D  GRAD.:     1.620 HEAT:  30.17557
 CYCLE:    68 TIME:   0.012 TIME LEFT:  2.00D  GRAD.:     3.768 HEAT:  30.16395
 CYCLE:    69 TIME:   0.008 TIME LEFT:  2.00D  GRAD.:     3.307 HEAT:  30.16852
 CYCLE:    70 TIME:   0.008 TIME LEFT:  2.00D  GRAD.:     1.675 HEAT:  30.15470
 CYCLE:    71 TIME:   0.008 TIME LEFT:  2.00D  GRAD.:     3.624 HEAT:  30.14817
 CYCLE:    72 TIME:   0.008 TIME LEFT:  2.00D  GRAD.:     2.928 HEAT:  30.13894
 CYCLE:    73 TIME:   0.008 TIME LEFT:  2.00D  GRAD.:    10.372 HEAT:  30.13061
 CYCLE:    74 TIME:   0.008 TIME LEFT:  2.00D  GRAD.:     4.562 HEAT:  30.10658
 CYCLE:    75 TIME:   0.004 TIME LEFT:  2.00D  GRAD.:     1.929 HEAT:  30.08269
 CYCLE:    76 TIME:   0.008 TIME LEFT:  2.00D  GRAD.:     4.866 HEAT:  30.06697
 CYCLE:    77 TIME:   0.008 TIME LEFT:  2.00D  GRAD.:     4.467 HEAT:  30.05495
 CYCLE:    78 TIME:   0.008 TIME LEFT:  2.00D  GRAD.:     2.167 HEAT:  30.03670
 CYCLE:    79 TIME:   0.008 TIME LEFT:  2.00D  GRAD.:     4.608 HEAT:  30.03277
 CYCLE:    80 TIME:   0.008 TIME LEFT:  2.00D  GRAD.:     3.150 HEAT:  30.02362
 CYCLE:    81 TIME:   0.008 TIME LEFT:  2.00D  GRAD.:     1.334 HEAT:  30.00683
 CYCLE:    82 TIME:   0.008 TIME LEFT:  2.00D  GRAD.:     2.030 HEAT:  29.98049
 CYCLE:    83 TIME:   0.008 TIME LEFT:  2.00D  GRAD.:     8.103 HEAT:  29.97969
 CYCLE:    84 TIME:   0.008 TIME LEFT:  2.00D  GRAD.:     1.645 HEAT:  29.95828
 CYCLE:    85 TIME:   0.008 TIME LEFT:  2.00D  GRAD.:     1.937 HEAT:  29.94936
 CYCLE:    86 TIME:   0.008 TIME LEFT:  2.00D  GRAD.:     4.683 HEAT:  29.93401
 CYCLE:    87 TIME:   0.008 TIME LEFT:  2.00D  GRAD.:     3.112 HEAT:  29.92125
 CYCLE:    88 TIME:   0.008 TIME LEFT:  2.00D  GRAD.:     2.745 HEAT:  29.88241
 CYCLE:    89 TIME:   0.008 TIME LEFT:  2.00D  GRAD.:     2.996 HEAT:  29.85853
 CYCLE:    90 TIME:   0.008 TIME LEFT:  2.00D  GRAD.:     2.787 HEAT:  29.84370
 CYCLE:    91 TIME:   0.016 TIME LEFT:  2.00D  GRAD.:     5.398 HEAT:  29.83971
 CYCLE:    92 TIME:   0.012 TIME LEFT:  2.00D  GRAD.:     2.769 HEAT:  29.82573
 CYCLE:    93 TIME:   0.008 TIME LEFT:  2.00D  GRAD.:     1.468 HEAT:  29.81705
 CYCLE:    94 TIME:   0.008 TIME LEFT:  2.00D  GRAD.:     2.006 HEAT:  29.80651
 CYCLE:    95 TIME:   0.008 TIME LEFT:  2.00D  GRAD.:     3.154 HEAT:  29.79875
 CYCLE:    96 TIME:   0.008 TIME LEFT:  2.00D  GRAD.:     2.748 HEAT:  29.79074
 CYCLE:    97 TIME:   0.008 TIME LEFT:  2.00D  GRAD.:     1.845 HEAT:  29.78093
 CYCLE:    98 TIME:   0.012 TIME LEFT:  2.00D  GRAD.:     1.939 HEAT:  29.77299
 CYCLE:    99 TIME:   0.008 TIME LEFT:  2.00D  GRAD.:     1.817 HEAT:  29.76868
 CYCLE:   100 TIME:   0.008 TIME LEFT:  2.00D  GRAD.:     2.092 HEAT:  29.76286
 CYCLE:   101 TIME:   0.008 TIME LEFT:  2.00D  GRAD.:     1.867 HEAT:  29.76074
 CYCLE:   102 TIME:   0.008 TIME LEFT:  2.00D  GRAD.:     2.191 HEAT:  29.75672
 CYCLE:   103 TIME:   0.008 TIME LEFT:  2.00D  GRAD.:     1.029 HEAT:  29.75419
 CYCLE:   104 TIME:   0.008 TIME LEFT:  2.00D  GRAD.:     0.849 HEAT:  29.75127
 CYCLE:   105 TIME:   0.008 TIME LEFT:  2.00D  GRAD.:     0.671 HEAT:  29.74909
 CYCLE:   106 TIME:   0.008 TIME LEFT:  2.00D  GRAD.:     1.172 HEAT:  29.74781
 CYCLE:   107 TIME:   0.008 TIME LEFT:  2.00D  GRAD.:     0.418 HEAT:  29.74701
 CYCLE:   108 TIME:   0.008 TIME LEFT:  2.00D  GRAD.:     0.323 HEAT:  29.74669
 CYCLE:   109 TIME:   0.008 TIME LEFT:  2.00D  GRAD.:     0.360 HEAT:  29.74633
 CYCLE:   110 TIME:   0.004 TIME LEFT:  2.00D  GRAD.:     0.354 HEAT:  29.74615
 CYCLE:   111 TIME:   0.008 TIME LEFT:  2.00D  GRAD.:     0.346 HEAT:  29.74593
 CYCLE:   112 TIME:   0.008 TIME LEFT:  2.00D  GRAD.:     0.255 HEAT:  29.74583
 CYCLE:   113 TIME:   0.016 TIME LEFT:  2.00D  GRAD.:     0.443 HEAT:  29.74586
 CYCLE:   114 TIME:   0.016 TIME LEFT:  2.00D  GRAD.:     0.132 HEAT:  29.74564
 CYCLE:   115 TIME:   0.004 TIME LEFT:  2.00D  GRAD.:     0.131 HEAT:  29.74557
 CYCLE:   116 TIME:   0.012 TIME LEFT:  2.00D  GRAD.:     0.122 HEAT:  29.74551
 CYCLE:   117 TIME:   0.008 TIME LEFT:  2.00D  GRAD.:     0.104 HEAT:  29.74545
 CYCLE:   118 TIME:   0.008 TIME LEFT:  2.00D  GRAD.:     0.085 HEAT:  29.74542
 CYCLE:   119 TIME:   0.004 TIME LEFT:  2.00D  GRAD.:     0.047 HEAT:  29.74541

     GRADIENT =  0.04715 IS LESS THAN CUTOFF =  0.05000



 -------------------------------------------------------------------------------
 pm3  precise nosym THREADS=1
 InChI=1S/C10H12/c1-8-6-9-4-2-3-5-10(9)7-8/h2-4,7,10H,5-6H2,1H3



     GEOMETRY OPTIMISED USING EIGENVECTOR FOLLOWING (EF).     
     SCF FIELD WAS ACHIEVED                                   


                              PM3 CALCULATION
                                                       MOPAC v23.1.2 MacOS
                                                       Tue Jun  3 16:27:12 2025




          FINAL HEAT OF FORMATION =         29.74541 KCAL/MOL =     124.45480 KJ/MOL


          COSMO AREA              =        178.92 SQUARE ANGSTROMS
          COSMO VOLUME            =        180.49 CUBIC ANGSTROMS

          GRADIENT NORM           =          0.04715          =       0.01005 PER ATOM
          IONIZATION POTENTIAL    =          8.773298 EV
          HOMO LUMO ENERGIES (EV) =         -8.773  0.277
          NO. OF FILLED LEVELS    =         26
          MOLECULAR WEIGHT        =        132.2048         POINT GROUP:  C1  

          MOLECULAR DIMENSIONS (Angstroms)

            Atom       Atom       Distance
            H    20    H    18     7.72598
            H    21    H    19     5.19802
            H    16    H    11     3.25838


          SCF CALCULATIONS        =        132

          WALL-CLOCK TIME         =      1.012 SECONDS
          COMPUTATION TIME        =      0.614 SECONDS




   ATOM   CHEMICAL          X               Y               Z
  NUMBER   SYMBOL      (ANGSTROMS)     (ANGSTROMS)     (ANGSTROMS)

     1       C         -0.35940411  *  -0.55704552  *  -0.69463193  *
     2       C         -1.54148428  *  -1.35592094  *  -0.16521105  *
     3       C          1.05358412  *   1.25064947  *   0.15473254  *
     4       C          3.20243292  *  -0.15701489  *   0.52665805  *
     5       C         -0.35687284  *   0.85206320  *  -0.14863532  *
     6       C          1.79120802  *  -0.06522458  *   0.11518075  *
     7       C          1.00506623  *  -1.06509774  *  -0.32094742  *
     8       C         -2.78585520  *  -0.53068691  *  -0.17697223  *
     9       C         -1.49446390  *   1.50803496  *   0.10823133  *
    10       C         -2.75697713  *   0.80608567  *  -0.06890418  *
    11       H         -0.42311696  *  -0.50703529  *  -1.81028385  *
    12       H         -1.68009301  *  -2.27118821  *  -0.77207159  *
    13       H         -1.35677963  *  -1.70454566  *   0.87094876  *
    14       H          1.14634198  *   1.74387903  *   1.13987401  *
    15       H          1.45357531  *   1.95874142  *  -0.59542520  *
    16       H          3.32861272  *   0.18912670  *   1.56141129  *
    17       H          3.58098731  *  -1.18532265  *   0.46654270  *
    18       H          3.83440643  *   0.47281231  *  -0.11400363  *
    19       H          1.27826284  *  -2.11392378  *  -0.42989769  *
    20       H         -3.73425547  *  -1.07204728  *  -0.25375062  *
    21       H         -1.51135412  *   2.53142815  *   0.49337299  *
    22       H         -3.67414940  *   1.40302361  *  -0.07341280  *

                             CARTESIAN COORDINATES

   1    C       -0.359404112    -0.557045517    -0.694631928
   2    C       -1.541484283    -1.355920940    -0.165211046
   3    C        1.053584119     1.250649475     0.154732545
   4    C        3.202432923    -0.157014886     0.526658053
   5    C       -0.356872838     0.852063203    -0.148635320
   6    C        1.791208021    -0.065224578     0.115180749
   7    C        1.005066225    -1.065097739    -0.320947422
   8    C       -2.785855195    -0.530686908    -0.176972230
   9    C       -1.494463896     1.508034957     0.108231329
  10    C       -2.756977133     0.806085669    -0.068904176
  11    H       -0.423116957    -0.507035291    -1.810283845
  12    H       -1.680093007    -2.271188212    -0.772071590
  13    H       -1.356779630    -1.704545664     0.870948758
  14    H        1.146341979     1.743879033     1.139874011
  15    H        1.453575309     1.958741421    -0.595425199
  16    H        3.328612720     0.189126699     1.561411292
  17    H        3.580987314    -1.185322653     0.466542702
  18    H        3.834406426     0.472812309    -0.114003629
  19    H        1.278262835    -2.113923777    -0.429897692
  20    H       -3.734255467    -1.072047283    -0.253750623
  21    H       -1.511354119     2.531428149     0.493372987
  22    H       -3.674149398     1.403023605    -0.073412798


           Empirical Formula: C10 H12  =    22 atoms



      MOLECULAR POINT GROUP   :   C1  


                  EIGENVALUES  
 -41.75101 -35.86959 -31.01890 -30.21276 -25.91360 -25.23903 -21.40912 -20.03060
 -18.65850 -17.20543 -16.96704 -15.76064 -15.63244 -14.93404 -14.57443 -14.29733
 -13.78034 -13.61816 -13.35091 -12.92386 -12.43447 -12.21469 -11.72065 -11.16101
  -9.62662  -8.77330   0.27680   0.95525   2.03338   3.15463   3.27986   3.36037
   3.61204   3.71557   3.80791   3.83354   3.92965   4.11987   4.20704   4.30144
   4.34230   4.39405   4.53130   4.60281   4.75544   4.82424   5.04937   5.53591
   5.60898   5.90988   6.11973   6.25666


              NET ATOMIC CHARGES AND DIPOLE CONTRIBUTIONS

  ATOM NO.   TYPE          CHARGE      No. of ELECS.   s-Pop       p-Pop       
    1          C          -0.009591        4.0096     1.15706     2.85253
    2          C          -0.049452        4.0495     1.14505     2.90440
    3          C          -0.007189        4.0072     1.13655     2.87064
    4          C          -0.051940        4.0519     1.11766     2.93428
    5          C          -0.118566        4.1186     1.20927     2.90930
    6          C          -0.132573        4.1326     1.20590     2.92667
    7          C          -0.152983        4.1530     1.20135     2.95163
    8          C          -0.140409        4.1404     1.19798     2.94242
    9          C          -0.111185        4.1112     1.17325     2.93793
   10          C          -0.108044        4.1080     1.17929     2.92875
   11          H           0.077280        0.9227     0.92272
   12          H           0.054674        0.9453     0.94533
   13          H           0.062136        0.9379     0.93786
   14          H           0.063924        0.9361     0.93608
   15          H           0.065661        0.9343     0.93434
   16          H           0.045921        0.9541     0.95408
   17          H           0.043125        0.9569     0.95687
   18          H           0.045301        0.9547     0.95470
   19          H           0.117122        0.8829     0.88288
   20          H           0.098546        0.9015     0.90145
   21          H           0.107272        0.8927     0.89273
   22          H           0.100966        0.8990     0.89903
 DIPOLE           X         Y         Z       TOTAL
 POINT-CHG.     0.488    -0.136     0.099     0.516
 HYBRID        -0.019     0.021    -0.006     0.029
 SUM            0.469    -0.115     0.093     0.492


          ATOMIC ORBITAL ELECTRON POPULATIONS

     Atom    s        px        py        pz   
    1  C   1.15706   0.93019   0.92699   0.99536
    2  C   1.14505   0.92889   0.96504   1.01046
    3  C   1.13655   0.91561   0.94850   1.00654
    4  C   1.11766   0.92568   1.00960   0.99900
    5  C   1.20927   0.95379   0.96335   0.99215
    6  C   1.20590   0.96270   0.95995   1.00402
    7  C   1.20135   0.95672   0.97763   1.01728
    8  C   1.19798   0.97811   0.95869   1.00562
    9  C   1.17325   0.92933   0.98439   1.02421
   10  C   1.17929   0.96509   0.95115   1.01250
   11  H   0.92272
   12  H   0.94533
   13  H   0.93786
   14  H   0.93608
   15  H   0.93434
   16  H   0.95408
   17  H   0.95687
   18  H   0.95470
   19  H   0.88288
   20  H   0.90145
   21  H   0.89273
   22  H   0.89903
 *******************************************************************************
 **                                                                           **
 **                              MOPAC v23.1.2                                **
 **                                                                           **
 *******************************************************************************
 **          Digital Object Identifier (DOI): 10.5281/zenodo.6511958          **
 **    Visit the DOI location for information on how to cite this program.    **
 *******************************************************************************

                              PM3 CALCULATION RESULTS

 *******************************************************************************
 *  CALCULATION DONE: (MAX THREADS = 1)              Tue Jun  3 16:27:12 2025  *
 *  PM3        - The PM3 Hamiltonian to be used
 *  OLDGEO     - PREVIOUS GEOMETRY TO BE USED
 *  PRECISE    - TIGHTER CRITERIA TO BE USED
 *  NOSYM      - POINT-GROUP SYMMETRY SET TO C1
 *  THREADS=1  - MULTI-THREADING NOT USED
 *  T=         - A TIME OF 172800.0 SECONDS REQUESTED
 *  DUMP=N     - RESTART FILE WRITTEN EVERY 7200.0 SECONDS REQUESTED
 *  THERMO     - THERMODYNAMIC QUANTITIES TO BE CALCULATED
 *******************************************************************************
oldgeo thermo nosym precise THREADS=1  pm3
 InChI=1S/C10H12/c1-8-6-9-4-2-3-5-10(9)7-8/h2-4,7,10H,5-6H2,1H3

   ATOM   CHEMICAL          X               Y               Z
  NUMBER   SYMBOL      (ANGSTROMS)     (ANGSTROMS)     (ANGSTROMS)

     1       C         -0.35940411  *  -0.55704552  *  -0.69463193  *
     2       C         -1.54148428  *  -1.35592094  *  -0.16521105  *
     3       C          1.05358412  *   1.25064947  *   0.15473254  *
     4       C          3.20243292  *  -0.15701489  *   0.52665805  *
     5       C         -0.35687284  *   0.85206320  *  -0.14863532  *
     6       C          1.79120802  *  -0.06522458  *   0.11518075  *
     7       C          1.00506623  *  -1.06509774  *  -0.32094742  *
     8       C         -2.78585520  *  -0.53068691  *  -0.17697223  *
     9       C         -1.49446390  *   1.50803496  *   0.10823133  *
    10       C         -2.75697713  *   0.80608567  *  -0.06890418  *
    11       H         -0.42311696  *  -0.50703529  *  -1.81028385  *
    12       H         -1.68009301  *  -2.27118821  *  -0.77207159  *
    13       H         -1.35677963  *  -1.70454566  *   0.87094876  *
    14       H          1.14634198  *   1.74387903  *   1.13987401  *
    15       H          1.45357531  *   1.95874142  *  -0.59542520  *
    16       H          3.32861272  *   0.18912670  *   1.56141129  *
    17       H          3.58098731  *  -1.18532265  *   0.46654270  *
    18       H          3.83440643  *   0.47281231  *  -0.11400363  *
    19       H          1.27826284  *  -2.11392378  *  -0.42989769  *
    20       H         -3.73425547  *  -1.07204728  *  -0.25375062  *
    21       H         -1.51135412  *   2.53142815  *   0.49337299  *
    22       H         -3.67414940  *   1.40302361  *  -0.07341280  *



          CARTESIAN COORDINATES 

    NO.       ATOM           X           Y           Z

     1         C         -0.3594     -0.5570     -0.6946
     2         C         -1.5415     -1.3559     -0.1652
     3         C          1.0536      1.2506      0.1547
     4         C          3.2024     -0.1570      0.5267
     5         C         -0.3569      0.8521     -0.1486
     6         C          1.7912     -0.0652      0.1152
     7         C          1.0051     -1.0651     -0.3209
     8         C         -2.7859     -0.5307     -0.1770
     9         C         -1.4945      1.5080      0.1082
    10         C         -2.7570      0.8061     -0.0689
    11         H         -0.4231     -0.5070     -1.8103
    12         H         -1.6801     -2.2712     -0.7721
    13         H         -1.3568     -1.7045      0.8709
    14         H          1.1463      1.7439      1.1399
    15         H          1.4536      1.9587     -0.5954
    16         H          3.3286      0.1891      1.5614
    17         H          3.5810     -1.1853      0.4665
    18         H          3.8344      0.4728     -0.1140
    19         H          1.2783     -2.1139     -0.4299
    20         H         -3.7343     -1.0720     -0.2538
    21         H         -1.5114      2.5314      0.4934
    22         H         -3.6741      1.4030     -0.0734

  H: (PM3): J. J. P. STEWART, J. COMP. CHEM. 10, 209 (1989).
  C: (PM3): J. J. P. STEWART, J. COMP. CHEM. 10, 209 (1989).

           Empirical Formula: C10 H12  =    22 atoms



      MOLECULAR POINT GROUP   :   C1  


      RHF CALCULATION, NO. OF DOUBLY OCCUPIED LEVELS = 26



          HEAT OF FORMATION =      29.745410 KCALS/MOLE


          CARTESIAN COORDINATE DERIVATIVES

   NUMBER  ATOM         X            Y            Z

     1       C      0.003169    -0.001352     0.000564
     2       C      0.000256     0.000064     0.000069
     3       C      0.002438    -0.000513     0.000460
     4       C      0.001418     0.032042     0.017438
     5       C      0.000261    -0.002160    -0.000745
     6       C     -0.000733     0.001618     0.004603
     7       C      0.000325    -0.004580    -0.001882
     8       C      0.001227    -0.001067     0.001525
     9       C      0.000095    -0.000105    -0.001064
    10       C     -0.003480     0.000110    -0.003344
    11       H      0.000044     0.002585     0.005728
    12       H      0.000364    -0.000325     0.000875
    13       H      0.004210     0.000509    -0.001052
    14       H      0.001634    -0.002137    -0.000017
    15       H     -0.000490    -0.001118    -0.003272
    16       H      0.005354    -0.006363    -0.005500
    17       H      0.002889     0.001996    -0.006069
    18       H     -0.016125    -0.015492     0.000130
    19       H      0.000250    -0.003087    -0.000958
    20       H      0.003733     0.000511     0.003242
    21       H     -0.003425     0.000413    -0.006188
    22       H     -0.003413    -0.001549    -0.004542



          GRADIENT NORM =   0.04778

          MOLECULAR WEIGHT =  132.20



          ROTATIONAL CONSTANTS IN CM(-1)

          A =    0.10958580   B =    0.03224282   C =    0.02604888



           PRINCIPAL MOMENTS OF INERTIA IN UNITS OF 10**(-40)*GRAM-CM**2

          A =      255.4414   B =      868.1856   C =     1074.6238


          ORIENTATION OF MOLECULE IN FORCE CALCULATION

    NO.       ATOM         X         Y         Z

     1          C       0.2353   -0.8693   -0.0587
     2          C       1.7571   -0.8693   -0.0587
     3          C      -1.5157    0.8394   -0.0587
     4          C      -2.3165    0.4913   -2.5031
     5          C      -0.3164    0.3296    0.6775
     6          C      -1.4117    0.1442   -1.3940
     7          C      -0.4278   -0.7723   -1.4042
     8          C       2.2864   -0.4887    1.2846
     9          C       0.3123    0.8548    1.7355
    10          C       1.5998    0.2995    2.1253
    11          H      -0.1295   -1.7976    0.4476
    12          H       2.1341   -1.8675   -0.3530
    13          H       2.1571   -0.1604   -0.8115
    14          H      -1.5040    1.9396   -0.1666
    15          H      -2.4591    0.5796    0.4576
    16          H      -2.2363    1.5585   -2.7504
    17          H      -2.0917   -0.0830   -3.4108
    18          H      -3.3609    0.2915   -2.2279
    19          H      -0.1273   -1.4022   -2.2405
    20          H       3.2806   -0.8650    1.5462
    21          H      -0.0779    1.7151    2.2864
    22          H       1.9973    0.5777    3.1062


    FIRST DERIVATIVES WILL BE USED IN THE CALCULATION OF SECOND DERIVATIVES

          ESTIMATED TIME TO COMPLETE CALCULATION =        2.06 SECONDS

    FOR POINT-GROUP C1   THERE ARE   1 UNIQUE SYMMETRY FUNCTIONS.

 STEP:   1 TIME =     0.02 SECS, INTEGRAL =      0.02 TIME LEFT: 172799.97
 STEP:   2 TIME =     0.02 SECS, INTEGRAL =      0.04 TIME LEFT: 172799.95
 STEP:   3 TIME =     0.02 SECS, INTEGRAL =      0.06 TIME LEFT: 172799.93
 STEP:   4 TIME =     0.02 SECS, INTEGRAL =      0.08 TIME LEFT: 172799.91
 STEP:   5 TIME =     0.02 SECS, INTEGRAL =      0.11 TIME LEFT: 172799.89
 STEP:   6 TIME =     0.02 SECS, INTEGRAL =      0.13 TIME LEFT: 172799.86
 STEP:   7 TIME =     0.02 SECS, INTEGRAL =      0.15 TIME LEFT: 172799.84
 STEP:   8 TIME =     0.02 SECS, INTEGRAL =      0.18 TIME LEFT: 172799.82
 STEP:   9 TIME =     0.02 SECS, INTEGRAL =      0.20 TIME LEFT: 172799.79
 STEP:  10 TIME =     0.02 SECS, INTEGRAL =      0.22 TIME LEFT: 172799.77
 STEP:  11 TIME =     0.02 SECS, INTEGRAL =      0.24 TIME LEFT: 172799.75
 STEP:  12 TIME =     0.02 SECS, INTEGRAL =      0.26 TIME LEFT: 172799.73
 STEP:  13 TIME =     0.02 SECS, INTEGRAL =      0.28 TIME LEFT: 172799.71
 STEP:  14 TIME =     0.02 SECS, INTEGRAL =      0.30 TIME LEFT: 172799.69
 STEP:  15 TIME =     0.02 SECS, INTEGRAL =      0.32 TIME LEFT: 172799.67
 STEP:  16 TIME =     0.02 SECS, INTEGRAL =      0.34 TIME LEFT: 172799.65
 STEP:  17 TIME =     0.02 SECS, INTEGRAL =      0.37 TIME LEFT: 172799.62
 STEP:  18 TIME =     0.02 SECS, INTEGRAL =      0.39 TIME LEFT: 172799.60
 STEP:  19 TIME =     0.02 SECS, INTEGRAL =      0.41 TIME LEFT: 172799.58
 STEP:  20 TIME =     0.02 SECS, INTEGRAL =      0.44 TIME LEFT: 172799.55
 STEP:  21 TIME =     0.02 SECS, INTEGRAL =      0.46 TIME LEFT: 172799.54
 STEP:  22 TIME =     0.02 SECS, INTEGRAL =      0.48 TIME LEFT: 172799.52
 STEP:  23 TIME =     0.02 SECS, INTEGRAL =      0.50 TIME LEFT: 172799.50
 STEP:  24 TIME =     0.02 SECS, INTEGRAL =      0.52 TIME LEFT: 172799.47
 STEP:  25 TIME =     0.02 SECS, INTEGRAL =      0.54 TIME LEFT: 172799.45
 STEP:  26 TIME =     0.02 SECS, INTEGRAL =      0.56 TIME LEFT: 172799.43
 STEP:  27 TIME =     0.02 SECS, INTEGRAL =      0.58 TIME LEFT: 172799.41
 STEP:  28 TIME =     0.02 SECS, INTEGRAL =      0.61 TIME LEFT: 172799.39
 STEP:  29 TIME =     0.02 SECS, INTEGRAL =      0.63 TIME LEFT: 172799.36
 STEP:  30 TIME =     0.02 SECS, INTEGRAL =      0.65 TIME LEFT: 172799.34
 STEP:  31 TIME =     0.02 SECS, INTEGRAL =      0.67 TIME LEFT: 172799.32
 STEP:  32 TIME =     0.02 SECS, INTEGRAL =      0.69 TIME LEFT: 172799.30
 STEP:  33 TIME =     0.02 SECS, INTEGRAL =      0.71 TIME LEFT: 172799.28
 STEP:  34 TIME =     0.02 SECS, INTEGRAL =      0.73 TIME LEFT: 172799.26
 STEP:  35 TIME =     0.02 SECS, INTEGRAL =      0.75 TIME LEFT: 172799.24
 STEP:  36 TIME =     0.02 SECS, INTEGRAL =      0.77 TIME LEFT: 172799.22
 STEP:  37 TIME =     0.02 SECS, INTEGRAL =      0.79 TIME LEFT: 172799.20
 STEP:  38 TIME =     0.02 SECS, INTEGRAL =      0.81 TIME LEFT: 172799.18
 STEP:  39 TIME =     0.02 SECS, INTEGRAL =      0.83 TIME LEFT: 172799.16
 STEP:  40 TIME =     0.02 SECS, INTEGRAL =      0.85 TIME LEFT: 172799.14
 STEP:  41 TIME =     0.02 SECS, INTEGRAL =      0.87 TIME LEFT: 172799.12
 STEP:  42 TIME =     0.02 SECS, INTEGRAL =      0.89 TIME LEFT: 172799.10
 STEP:  43 TIME =     0.02 SECS, INTEGRAL =      0.92 TIME LEFT: 172799.07
 STEP:  44 TIME =     0.02 SECS, INTEGRAL =      0.94 TIME LEFT: 172799.05
 STEP:  45 TIME =     0.02 SECS, INTEGRAL =      0.96 TIME LEFT: 172799.03
 STEP:  46 TIME =     0.02 SECS, INTEGRAL =      0.99 TIME LEFT: 172799.00
 STEP:  47 TIME =     0.02 SECS, INTEGRAL =      1.01 TIME LEFT: 172798.98
 STEP:  48 TIME =     0.02 SECS, INTEGRAL =      1.03 TIME LEFT: 172798.96
 STEP:  49 TIME =     0.02 SECS, INTEGRAL =      1.05 TIME LEFT: 172798.94
 STEP:  50 TIME =     0.02 SECS, INTEGRAL =      1.08 TIME LEFT: 172798.91
 STEP:  51 TIME =     0.02 SECS, INTEGRAL =      1.10 TIME LEFT: 172798.89
 STEP:  52 TIME =     0.02 SECS, INTEGRAL =      1.12 TIME LEFT: 172798.87
 STEP:  53 TIME =     0.02 SECS, INTEGRAL =      1.14 TIME LEFT: 172798.85
 STEP:  54 TIME =     0.02 SECS, INTEGRAL =      1.17 TIME LEFT: 172798.82
 STEP:  55 TIME =     0.02 SECS, INTEGRAL =      1.19 TIME LEFT: 172798.80
 STEP:  56 TIME =     0.02 SECS, INTEGRAL =      1.21 TIME LEFT: 172798.78
 STEP:  57 TIME =     0.02 SECS, INTEGRAL =      1.23 TIME LEFT: 172798.76
 STEP:  58 TIME =     0.02 SECS, INTEGRAL =      1.26 TIME LEFT: 172798.73
 STEP:  59 TIME =     0.02 SECS, INTEGRAL =      1.28 TIME LEFT: 172798.71
 STEP:  60 TIME =     0.02 SECS, INTEGRAL =      1.30 TIME LEFT: 172798.69
 STEP:  61 TIME =     0.02 SECS, INTEGRAL =      1.33 TIME LEFT: 172798.66
 STEP:  62 TIME =     0.02 SECS, INTEGRAL =      1.35 TIME LEFT: 172798.64
 STEP:  63 TIME =     0.02 SECS, INTEGRAL =      1.37 TIME LEFT: 172798.62
 STEP:  64 TIME =     0.02 SECS, INTEGRAL =      1.39 TIME LEFT: 172798.60
 STEP:  65 TIME =     0.02 SECS, INTEGRAL =      1.42 TIME LEFT: 172798.57
 STEP:  66 TIME =     0.02 SECS, INTEGRAL =      1.44 TIME LEFT: 172798.55

(To convert to Hartree/Bohr^2, multiply by (10^(-21) x N x a0^2)/(4.184 x 627.51) =  0.0642)


           FORCE MATRIX IN MILLIDYNES/ANGSTROM


                  C  1       C  2       C  3       C  4       C  5       C  6
 ------------------------------------------------------------------------------
     C    1  15.111241
     C    2   4.098115  14.639601
     C    3   0.747151   0.045583  14.868724
     C    4   0.129938   0.017380   0.506334  14.856617
     C    5   4.154228   0.643514   4.607817   0.050655  19.065521
     C    6   1.176111   0.042123   4.258785   5.455513   1.056836  18.743472
     C    7   4.440667   0.557826   1.112183   0.716495   1.024610  10.129462
     C    8   0.704136   4.770765   0.015527   0.003410   0.156342   0.007692
     C    9   0.770759   0.114793   0.642141   0.009096  10.222044   0.049764
     C   10   0.121420   0.832321   0.135919   0.001868   1.190835   0.011120
     H   11   4.157664   0.433351   0.020209   0.018012   0.403063   0.033625
     H   12   0.440120   4.488751   0.007471   0.000637   0.048926   0.001237
     H   13   0.452644   4.420861   0.004423   0.000829   0.016452   0.002988
     H   14   0.037843   0.003482   4.509652   0.012996   0.442199   0.441781
     H   15   0.023751   0.003734   4.473886   0.009900   0.428433   0.437072
     H   16   0.017476   0.003119   0.015058   4.705009   0.002304   0.450698
     H   17   0.003073   0.000802   0.042463   4.751107   0.008190   0.473010
     H   18   0.018061   0.001808   0.012748   4.701024   0.002382   0.450185
     H   19   0.409968   0.007597   0.108379   0.056401   0.042225   0.458317
     H   20   0.044153   0.426141   0.008949   0.000891   0.016005   0.001913
     H   21   0.114382   0.009894   0.066339   0.001147   0.461465   0.003653
     H   22   0.005339   0.121046   0.009059   0.000520   0.047844   0.001498


                  C  7       C  8       C  9       C 10       H 11       H 12
 ------------------------------------------------------------------------------
     C    7  18.197870
     C    8   0.050974  17.813795
     C    9   0.052652   1.110538  18.374697
     C   10   0.008551  10.169656   5.482201  18.206492
     H   11   0.397403   0.013272   0.027890   0.017184   4.616522
     H   12   0.010315   0.441207   0.010249   0.048251   0.035133   5.083033
     H   13   0.018404   0.410340   0.019489   0.033318   0.045302   0.569146
     H   14   0.037591   0.001784   0.017437   0.012181   0.001596   0.001104
     H   15   0.033487   0.002064   0.023288   0.016899   0.001812   0.000304
     H   16   0.033272   0.000739   0.000829   0.000175   0.002231   0.000122
     H   17   0.026554   0.000362   0.001952   0.000404   0.000492   0.000137
     H   18   0.030833   0.000332   0.000989   0.000127   0.003008   0.000114
     H   19   5.028831   0.001844   0.006553   0.001601   0.009998   0.002880
     H   20   0.008293   4.856891   0.123124   0.443739   0.004053   0.034743
     H   21   0.010652   0.046472   4.888895   0.434585   0.014670   0.001322
     H   22   0.001109   0.445134   0.431541   4.868066   0.000757   0.012327


                  H 13       H 14       H 15       H 16       H 17       H 18
 ------------------------------------------------------------------------------
     H   13   5.021773
     H   14   0.000695   5.108348
     H   15   0.000425   0.553440   5.075877
     H   16   0.000216   0.007624   0.001165   5.413028
     H   17   0.000123   0.001465   0.001191   0.557567   5.454787
     H   18   0.000120   0.001029   0.003975   0.572346   0.559681   5.410588
     H   19   0.003034   0.014033   0.015323   0.007009   0.012535   0.007015
     H   20   0.014651   0.000865   0.001161   0.000210   0.000150   0.000097
     H   21   0.000783   0.008420   0.009454   0.000192   0.000264   0.000190
     H   22   0.016848   0.000906   0.001047   0.000093   0.000119   0.000082


                  H 19       H 20       H 21       H 22
 ------------------------------------------------------
     H   19   5.427913
     H   20   0.000644   5.230534
     H   21   0.001554   0.008187   5.262524
     H   22   0.000302   0.065786   0.027574   5.236779


          HEAT OF FORMATION =      29.745410 KCALS/MOLE

          ZERO POINT ENERGY     118.879 KCAL/MOL


           NORMAL COORDINATE ANALYSIS (Total motion = 1 Angstrom)


   Root No.       1         2         3         4         5         6         7         8

                 1 A       2 A       3 A       4 A       5 A       6 A       7 A       8 A   

                  92.5     101.4     153.2     205.2     265.3     348.4     410.8     443.0
  
           1    0.0008   -0.0120    0.0096   -0.0034    0.0113    0.0196   -0.0107   -0.0010
           2   -0.0038   -0.0181    0.0107   -0.0044   -0.0224    0.0336    0.0067   -0.0218
           3    0.0007    0.0100   -0.0172   -0.0030   -0.0109   -0.0113    0.0261   -0.0044
           4    0.0010   -0.0116    0.0088   -0.0033    0.0138    0.0209   -0.0153    0.0075
           5    0.0081   -0.0279   -0.0345   -0.0321    0.0059   -0.0162   -0.0029   -0.0029
           6   -0.0044    0.0072    0.0227    0.0106    0.0098    0.0025   -0.0110    0.0066
           7   -0.0054   -0.0251   -0.0133    0.0216    0.0225   -0.0131   -0.0065    0.0014
           8   -0.0097   -0.0338   -0.0180    0.0246   -0.0077   -0.0072   -0.0108    0.0059
           9    0.0043    0.0205    0.0068   -0.0133   -0.0182   -0.0019   -0.0155    0.0153
          10    0.0106    0.0345   -0.0321   -0.0141   -0.0224    0.0007   -0.0015    0.0017
          11    0.0111    0.0381   -0.0085   -0.0072    0.0467    0.0128    0.0048   -0.0053
          12   -0.0027   -0.0097    0.0148    0.0054    0.0360   -0.0096    0.0238   -0.0061
          13   -0.0044   -0.0123    0.0071   -0.0048    0.0096    0.0227   -0.0062    0.0014
          14   -0.0080   -0.0188    0.0046   -0.0116   -0.0196    0.0419    0.0257   -0.0217
          15    0.0037    0.0108   -0.0105    0.0046   -0.0171   -0.0248    0.0021   -0.0045
          16   -0.0007    0.0012   -0.0000    0.0099    0.0058   -0.0311    0.0416   -0.0110
          17   -0.0040   -0.0006    0.0086    0.0129   -0.0209   -0.0266    0.0001    0.0158
          18    0.0017    0.0052   -0.0060   -0.0076   -0.0090    0.0056   -0.0177    0.0121
          19   -0.0018   -0.0000    0.0292    0.0056   -0.0066   -0.0205    0.0291   -0.0124
          20   -0.0051   -0.0020    0.0396    0.0084   -0.0353   -0.0163   -0.0110    0.0123
          21    0.0017    0.0042   -0.0264   -0.0072   -0.0098    0.0049    0.0080    0.0007
          22    0.0031    0.0065   -0.0059    0.0135   -0.0067    0.0120   -0.0008    0.0155
          23    0.0106    0.0190   -0.0189    0.0369    0.0114    0.0096    0.0105    0.0367
          24   -0.0059   -0.0142    0.0239   -0.0165    0.0198    0.0001   -0.0258   -0.0048
          25   -0.0059   -0.0009    0.0068   -0.0254   -0.0088   -0.0035   -0.0005    0.0171
          26   -0.0065    0.0062    0.0152   -0.0346    0.0049   -0.0044    0.0164    0.0155
          27    0.0039   -0.0087   -0.0161    0.0282   -0.0194    0.0137    0.0025   -0.0357
          28   -0.0006    0.0143    0.0005    0.0005   -0.0144   -0.0079   -0.0164   -0.0247
          29    0.0025    0.0338    0.0127    0.0089    0.0175   -0.0186   -0.0287   -0.0321
          30   -0.0013   -0.0220   -0.0010   -0.0009    0.0078    0.0109   -0.0014    0.0254
          31    0.0088   -0.0199   -0.0250   -0.0223    0.0242    0.0091   -0.0192    0.0057
          32   -0.0070   -0.0182    0.0104   -0.0036   -0.0245    0.0562    0.0223   -0.0353
          33    0.0003    0.0035   -0.0410   -0.0142   -0.0060    0.0265    0.0478   -0.0263
          34    0.0077   -0.0205   -0.0151   -0.0242    0.0391   -0.0159   -0.0311    0.0157
          35    0.0113   -0.0422   -0.0538   -0.0614    0.0155   -0.0482   -0.0134   -0.0169
          36   -0.0067    0.0437    0.0567    0.0808    0.0107    0.0607    0.0031    0.0626
          37   -0.0072   -0.0102    0.0505    0.0169    0.0096    0.0652   -0.0288    0.0027
          38    0.0120   -0.0606   -0.0665   -0.0940    0.0184   -0.0731   -0.0242   -0.0422
          39   -0.0050   -0.0231    0.0148   -0.0367    0.0195   -0.0260   -0.0382   -0.0316
          40   -0.0098   -0.0590   -0.0519    0.0727    0.0474   -0.0646   -0.0697    0.0167
          41   -0.0092   -0.0308   -0.0158    0.0233   -0.0087   -0.0089   -0.0095    0.0074
          42    0.0095    0.0491    0.0265   -0.0252   -0.0317   -0.0188    0.0010    0.0306
          43   -0.0056   -0.0189   -0.0002    0.0032    0.0163    0.0155   -0.0041    0.0048
          44   -0.0161   -0.0769   -0.0598    0.0732    0.0208   -0.0409   -0.0759    0.0139
          45    0.0009    0.0103    0.0102   -0.0232   -0.0151    0.0345   -0.0415    0.0254
          46    0.2178    0.0374   -0.0295   -0.0330   -0.0091    0.0380   -0.0246   -0.0034
          47   -0.0412    0.0487   -0.0155   -0.0092    0.0598    0.0181    0.0089   -0.0104
          48   -0.1634    0.0367   -0.0148   -0.0087    0.0944    0.0229    0.0344   -0.0282
          49   -0.1511    0.0679   -0.0699   -0.0269   -0.0697    0.0166   -0.0512    0.0255
          50   -0.1672    0.0766   -0.0338   -0.0153    0.0932    0.0335    0.0165   -0.0226
          51    0.0701   -0.0257    0.0216    0.0074   -0.0038   -0.0187    0.0054    0.0099
          52   -0.0164    0.0264   -0.0247   -0.0057   -0.0166   -0.0139    0.0160   -0.0019
          53    0.2666    0.0215    0.0098   -0.0171    0.0560    0.0339   -0.0053   -0.0106
          54    0.0786   -0.0529    0.0567    0.0306    0.0664   -0.0513    0.0862   -0.0243
          55   -0.0028    0.0139    0.0531    0.0003   -0.0254   -0.0308    0.0494   -0.0247
          56   -0.0057    0.0142    0.0710    0.0048   -0.0519   -0.0305   -0.0269    0.0266
          57    0.0018   -0.0030   -0.0413   -0.0064   -0.0036    0.0120    0.0276   -0.0146
          58    0.0076    0.0171   -0.0162    0.0462   -0.0109    0.0225    0.0101    0.0352
          59    0.0191    0.0402   -0.0321    0.1023    0.0115    0.0356    0.0288    0.0791
          60   -0.0108   -0.0232    0.0448   -0.0448    0.0357   -0.0012   -0.0411   -0.0181
          61   -0.0103   -0.0042    0.0028   -0.0501   -0.0231   -0.0212    0.0299    0.0630
          62   -0.0100    0.0101    0.0178   -0.0606    0.0153   -0.0396    0.0289    0.0834
          63    0.0063   -0.0169   -0.0228    0.0517   -0.0456    0.0558    0.0039   -0.1091
          64    0.0006    0.0323   -0.0019    0.0209   -0.0295   -0.0180   -0.0282   -0.0854
          65    0.0035    0.0666    0.0297    0.0360    0.0270   -0.0399   -0.0780   -0.1018
          66   -0.0020   -0.0385   -0.0048   -0.0166    0.0110    0.0213    0.0173    0.0693


   Root No.       9        10        11        12        13        14        15        16

                 9 A      10 A      11 A      12 A      13 A      14 A      15 A      16 A   

                 462.7     475.8     540.2     618.1     674.8     756.2     804.7     859.4
  
           1   -0.0108   -0.0213   -0.0274    0.0163    0.0081    0.0080    0.0118    0.0010
           2   -0.0059    0.0035   -0.0160    0.0173   -0.0392    0.0132   -0.0071   -0.0321
           3   -0.0038    0.0174   -0.0190    0.0039    0.0415   -0.0083    0.0073   -0.0116
           4   -0.0068   -0.0182   -0.0484    0.0173    0.0157    0.0049    0.0079    0.0245
           5    0.0098    0.0149    0.0040   -0.0042   -0.0178   -0.0132    0.0064   -0.0357
           6    0.0204    0.0296   -0.0090   -0.0238   -0.0047    0.0017   -0.0310   -0.0078
           7    0.0014   -0.0110    0.0410    0.0199    0.0164    0.0066   -0.0241   -0.0320
           8   -0.0119   -0.0071   -0.0198   -0.0268   -0.0032   -0.0016    0.0167    0.0129
           9   -0.0023   -0.0255    0.0140   -0.0027   -0.0031    0.0003   -0.0141   -0.0139
          10   -0.0195   -0.0212    0.0069   -0.0252   -0.0263   -0.0005    0.0010    0.0064
          11    0.0028    0.0124   -0.0079    0.0094    0.0115   -0.0015    0.0018    0.0005
          12   -0.0240   -0.0181    0.0003   -0.0321   -0.0270    0.0004   -0.0001    0.0038
          13    0.0146   -0.0172    0.0565   -0.0062    0.0313   -0.0030   -0.0037   -0.0071
          14    0.0019    0.0022    0.0139   -0.0224    0.0064    0.0021   -0.0026    0.0189
          15   -0.0061    0.0111   -0.0054    0.0546   -0.0202    0.0125   -0.0181    0.0146
          16    0.0196   -0.0271   -0.0087   -0.0083   -0.0179   -0.0017    0.0003    0.0021
          17    0.0434   -0.0344   -0.0211   -0.0020    0.0074   -0.0036    0.0017    0.0016
          18   -0.0342   -0.0190    0.0062   -0.0270   -0.0101    0.0006   -0.0002    0.0029
          19   -0.0336    0.0148    0.0065   -0.0058    0.0044    0.0010    0.0020   -0.0110
          20   -0.0163    0.0105   -0.0003    0.0010    0.0229    0.0009    0.0018   -0.0091
          21   -0.0023   -0.0081   -0.0364    0.0062    0.0393   -0.0058    0.0289   -0.0143
          22    0.0165    0.0370   -0.0450   -0.0205    0.0013   -0.0134   -0.0456   -0.0037
          23    0.0053    0.0027    0.0217    0.0026   -0.0029   -0.0218    0.0062    0.0086
          24    0.0177    0.0104   -0.0120   -0.0101   -0.0041    0.0052   -0.0019   -0.0019
          25    0.0163    0.0273    0.0144    0.0048   -0.0166   -0.0067    0.0189    0.0075
          26   -0.0162   -0.0135    0.0126    0.0317    0.0049    0.0100   -0.0392    0.0226
          27    0.0053   -0.0024    0.0264    0.0303    0.0038    0.0116   -0.0121    0.0224
          28    0.0225    0.0299    0.0046    0.0026   -0.0174   -0.0197    0.0186    0.0133
          29    0.0047   -0.0131    0.0117    0.0060   -0.0024   -0.0233    0.0064    0.0084
          30    0.0221    0.0167    0.0394    0.0081   -0.0160    0.0041    0.0503    0.0156
          31   -0.0116   -0.0340   -0.0687    0.0449    0.0132    0.0093    0.0692   -0.0049
          32   -0.0014   -0.0001   -0.0042   -0.0025   -0.0247    0.0043   -0.0100   -0.0483
          33    0.0037    0.0002   -0.0288   -0.0100    0.0687   -0.0233    0.0441   -0.0505
          34    0.0066   -0.0188   -0.0201   -0.0130    0.0701    0.0139   -0.0025    0.1272
          35    0.0188    0.0221    0.0139   -0.0338    0.0228    0.0123   -0.0200    0.0198
          36    0.0091    0.0063   -0.0052    0.0305   -0.0663   -0.0696    0.0359   -0.0609
          37   -0.0158   -0.0401   -0.0738    0.0565   -0.0529    0.0226    0.0458   -0.0334
          38    0.0264    0.0311    0.0146   -0.0622    0.0474    0.0493   -0.0547    0.0422
          39    0.0310    0.0324   -0.0139   -0.0553    0.0181    0.0672   -0.0667    0.0321
          40   -0.0869    0.0272    0.0089    0.0690   -0.0123   -0.0074   -0.0545   -0.0557
          41   -0.0054   -0.0121   -0.0216   -0.0270   -0.0024   -0.0015    0.0164    0.0092
          42    0.0802   -0.0799   -0.0005    0.0009    0.0104    0.0037   -0.0196   -0.0654
          43    0.0175   -0.0225    0.0758   -0.0034    0.0496    0.0101   -0.0240   -0.0614
          44   -0.1289    0.0498   -0.0412    0.0066   -0.0332   -0.0164   -0.0002    0.0267
          45   -0.0273   -0.0206    0.0668   -0.0307    0.0432    0.0002   -0.0210   -0.0595
          46   -0.0689    0.0114    0.0265   -0.0271   -0.0345    0.0117   -0.0098   -0.0095
          47   -0.0031    0.0199   -0.0078    0.0107    0.0099   -0.0004    0.0032   -0.0004
          48   -0.0620    0.0211    0.0074   -0.0285   -0.0380    0.0084    0.0026   -0.0039
          49   -0.0343   -0.0351    0.0207   -0.0365   -0.0267    0.0049   -0.0163   -0.0032
          50   -0.0187    0.0409   -0.0056    0.0172    0.0084    0.0033    0.0046   -0.0047
          51   -0.0145   -0.0389    0.0016   -0.0401   -0.0254   -0.0013   -0.0053    0.0049
          52   -0.0034   -0.0293   -0.0009   -0.0261   -0.0287   -0.0049    0.0074    0.0140
          53   -0.0266    0.0366    0.0023    0.0130    0.0120    0.0056   -0.0026   -0.0104
          54    0.0188   -0.0314   -0.0242   -0.0312   -0.0334   -0.0124    0.0233    0.0261
          55   -0.1002    0.0873    0.0435   -0.0067    0.0814   -0.0319    0.0646   -0.0261
          56   -0.0870    0.0518    0.0481   -0.0337    0.0846   -0.0331    0.0542    0.0469
          57    0.0269   -0.0130   -0.0594    0.0317    0.0208    0.0078    0.0121   -0.0629
          58    0.0264    0.0539   -0.0348   -0.0490    0.0106    0.0954   -0.0428   -0.0018
          59    0.0155    0.0203    0.0201   -0.0515    0.0327    0.1969   -0.0067    0.0235
          60   -0.0052   -0.0294   -0.0525    0.0228    0.0107   -0.0937   -0.0309    0.0155
          61    0.0055    0.0622   -0.0151    0.0401   -0.0470    0.0787    0.0365    0.0254
          62   -0.0239    0.0077    0.0019    0.0672   -0.0200    0.0989    0.0130    0.0001
          63    0.0102   -0.0099    0.0220    0.0000    0.0201   -0.0661   -0.0818    0.0728
          64    0.0246    0.0218    0.0337    0.0118   -0.0097    0.0896    0.0816    0.0174
          65    0.0257   -0.0069   -0.0069   -0.0523    0.0110    0.1425    0.0975   -0.0642
          66    0.0153    0.0183    0.0323    0.0211   -0.0229   -0.0868   -0.0007    0.0357


   Root No.      17        18        19        20        21        22        23        24

                17 A      18 A      19 A      20 A      21 A      22 A      23 A      24 A   

                 866.4     876.9     930.7     949.0     954.2     981.3    1000.3    1014.1
  
           1   -0.0002   -0.0088    0.0002   -0.0018    0.0052   -0.0038    0.0018   -0.0002
           2    0.0092   -0.0019   -0.0021   -0.0150    0.0201    0.0049    0.0089    0.0203
           3   -0.0029   -0.0059   -0.0017    0.0067    0.0004    0.0021   -0.0000   -0.0048
           4   -0.0013    0.0063   -0.0018   -0.0003   -0.0034    0.0084   -0.0044    0.0021
           5    0.0041    0.0138    0.0103    0.0190   -0.0191   -0.0128   -0.0035   -0.0207
           6   -0.0006    0.0028   -0.0000    0.0005   -0.0014   -0.0086   -0.0022   -0.0061
           7   -0.0126    0.0179    0.0172    0.0019    0.0098   -0.0043    0.0071    0.0154
           8   -0.0245    0.0144    0.0189   -0.0226   -0.0150   -0.0012   -0.0266    0.0101
           9    0.0172   -0.0068   -0.0136   -0.0231   -0.0196    0.0133   -0.0223   -0.0074
          10    0.0094    0.0067   -0.0082   -0.0031   -0.0045   -0.0163    0.0244    0.0112
          11    0.0123    0.0036   -0.0108    0.0138    0.0112   -0.0088   -0.0242    0.0127
          12   -0.0070    0.0026    0.0069    0.0206    0.0208    0.0048    0.0022   -0.0016
          13    0.0040   -0.0047   -0.0105    0.0055   -0.0002   -0.0011    0.0140   -0.0133
          14    0.0009    0.0039   -0.0122    0.0052   -0.0072    0.0042   -0.0032   -0.0124
          15   -0.0029    0.0086    0.0125   -0.0008   -0.0027   -0.0013   -0.0041    0.0128
          16    0.0087   -0.0011   -0.0015   -0.0038   -0.0032    0.0118   -0.0121   -0.0140
          17    0.0087   -0.0008   -0.0003    0.0068    0.0056    0.0073    0.0131   -0.0150
          18   -0.0048    0.0022    0.0009    0.0071    0.0046   -0.0046   -0.0001    0.0041
          19   -0.0179   -0.0289   -0.0089   -0.0005   -0.0075   -0.0007   -0.0265   -0.0015
          20   -0.0212   -0.0299   -0.0067    0.0133    0.0012   -0.0135    0.0255    0.0003
          21    0.0001   -0.0097    0.0062   -0.0001    0.0065   -0.0162    0.0221    0.0087
          22   -0.0045    0.0208   -0.0093    0.0071   -0.0059    0.0110    0.0115    0.0095
          23   -0.0084   -0.0013   -0.0132   -0.0015    0.0002    0.0157    0.0039    0.0210
          24    0.0057    0.0037    0.0052    0.0009    0.0001   -0.0010    0.0015   -0.0053
          25    0.0112   -0.0204    0.0162    0.0012   -0.0045    0.0041   -0.0050    0.0130
          26    0.0141   -0.0058    0.0209    0.0133   -0.0161    0.0007    0.0026    0.0048
          27   -0.0135    0.0237   -0.0176    0.0009   -0.0000   -0.0036    0.0028   -0.0170
          28   -0.0040   -0.0048    0.0003   -0.0090    0.0133   -0.0097   -0.0020   -0.0101
          29   -0.0054   -0.0038   -0.0008   -0.0189    0.0212   -0.0136   -0.0045   -0.0129
          30    0.0038   -0.0160   -0.0003    0.0013    0.0018    0.0133    0.0049    0.0159
          31    0.0167    0.0208    0.0418    0.0143   -0.0135   -0.0460   -0.0275   -0.0585
          32    0.0333   -0.0026   -0.0300   -0.0338    0.0531    0.0704    0.0145    0.0048
          33    0.0543    0.0128   -0.0220   -0.0176    0.0493    0.0904   -0.0103   -0.0746
          34   -0.0220   -0.0157   -0.0241    0.0032   -0.0259    0.0347   -0.0282   -0.0048
          35   -0.0041   -0.0059   -0.0068   -0.0011   -0.0025    0.0058   -0.0035   -0.0006
          36    0.0002    0.0394    0.0257    0.0703   -0.0834   -0.0345   -0.0308   -0.0802
          37    0.0275    0.0316    0.0431   -0.0123    0.0084   -0.0526   -0.0196   -0.0277
          38   -0.0019   -0.0225   -0.0148   -0.0334    0.0328    0.0069    0.0031    0.0209
          39    0.0094   -0.0160    0.0014   -0.0533    0.0518   -0.0236   -0.0044    0.0151
          40    0.0972   -0.0648   -0.0399    0.0023    0.0150    0.0642    0.0557   -0.0417
          41   -0.0273    0.0155    0.0260   -0.0292   -0.0157    0.0068   -0.0271    0.0098
          42   -0.0231    0.0124    0.0739   -0.0924   -0.0187    0.0932   -0.0138    0.0013
          43   -0.0389    0.0468    0.0023   -0.0151   -0.0116   -0.0530   -0.0332    0.0433
          44    0.0882   -0.0659   -0.0786   -0.0081   -0.0316    0.0224   -0.0238   -0.0491
          45    0.0199    0.0100   -0.0856   -0.0487   -0.0676   -0.0645   -0.0977    0.0162
          46   -0.0765   -0.0268    0.0577   -0.0227   -0.0119    0.0524    0.0664   -0.0561
          47    0.0030   -0.0019   -0.0048   -0.0050   -0.0057   -0.0061   -0.0018    0.0048
          48   -0.0676   -0.0271    0.0501   -0.0625   -0.0508    0.0331    0.1141   -0.0516
          49   -0.0204    0.0042    0.0188    0.0960    0.0946    0.0294   -0.0636   -0.0023
          50   -0.0237   -0.0178    0.0128   -0.0533   -0.0492    0.0089    0.0390   -0.0216
          51    0.0081    0.0152   -0.0012    0.0854    0.0816    0.0038   -0.0553    0.0169
          52    0.0393    0.0176   -0.0317   -0.0155   -0.0202   -0.0483    0.0470    0.0348
          53   -0.0408   -0.0201    0.0289   -0.0118   -0.0065    0.0346   -0.0037   -0.0323
          54    0.0743    0.0292   -0.0580   -0.0485   -0.0557   -0.0902    0.1003    0.0592
          55    0.0769    0.1146    0.0513   -0.0596    0.0241    0.0315   -0.0764    0.0443
          56    0.0755    0.1512    0.0621   -0.0057    0.0233    0.0139    0.0854   -0.0232
          57   -0.0385   -0.0947   -0.0238   -0.0065    0.0021   -0.0259   -0.0377    0.0430
          58    0.0331   -0.0098    0.0351   -0.0086    0.0122   -0.0297   -0.0019   -0.0316
          59    0.0634   -0.0533    0.0670   -0.0356    0.0314   -0.0451   -0.0259   -0.0439
          60   -0.0341    0.0467   -0.0476    0.0130   -0.0252    0.0650    0.0098    0.0545
          61   -0.0484    0.0762   -0.0712   -0.0031   -0.0025    0.0034   -0.0227   -0.0451
          62   -0.0582    0.0923   -0.0917   -0.0167    0.0266   -0.0020    0.0139   -0.0485
          63    0.0569   -0.0597    0.0960    0.0449   -0.0662    0.0004   -0.0277    0.0242
          64   -0.0004    0.0094   -0.0076    0.0549   -0.0579    0.0220    0.0003   -0.0001
          65    0.0133    0.0234   -0.0182    0.0737   -0.0804    0.0863    0.0267    0.0823
          66   -0.0030   -0.0293    0.0077   -0.0509    0.0594   -0.0271   -0.0047   -0.0145


   Root No.      25        26        27        28        29        30        31        32

                25 A      26 A      27 A      28 A      29 A      30 A      31 A      32 A   

                1030.9    1051.2    1055.0    1065.8    1089.0    1104.8    1151.8    1162.2
  
           1   -0.0102    0.0052    0.0037   -0.0078   -0.0134    0.0377   -0.0085   -0.0238
           2   -0.0063   -0.0032    0.0029    0.0136   -0.0161    0.0221    0.0075   -0.0052
           3    0.0113    0.0074    0.0016   -0.0020    0.0061   -0.0117   -0.0010   -0.0058
           4    0.0095   -0.0031    0.0035    0.0110   -0.0011   -0.0339   -0.0064    0.0028
           5    0.0004   -0.0061    0.0070    0.0020    0.0034   -0.0211   -0.0029   -0.0085
           6   -0.0309    0.0243    0.0053    0.0001   -0.0129    0.0183    0.0028   -0.0065
           7    0.0071    0.0093    0.0088    0.0090    0.0018    0.0028   -0.0029    0.0010
           8    0.0057    0.0021    0.0072   -0.0140   -0.0041   -0.0024   -0.0007   -0.0057
           9   -0.0036   -0.0060   -0.0030   -0.0041    0.0025    0.0007   -0.0043   -0.0083
          10    0.0043    0.0032    0.0115   -0.0005    0.0020   -0.0038    0.0052    0.0106
          11   -0.0012   -0.0007    0.0120   -0.0099    0.0027   -0.0000   -0.0026   -0.0052
          12   -0.0017   -0.0031   -0.0059    0.0069   -0.0013   -0.0022    0.0053    0.0099
          13   -0.0121   -0.0133   -0.0003   -0.0116    0.0061   -0.0065    0.0026   -0.0041
          14   -0.0075   -0.0106    0.0005   -0.0026    0.0135    0.0042   -0.0035    0.0056
          15    0.0130    0.0066   -0.0017    0.0069   -0.0062    0.0006   -0.0055   -0.0011
          16   -0.0031   -0.0043   -0.0219    0.0081   -0.0057    0.0066   -0.0073   -0.0176
          17   -0.0026   -0.0017   -0.0228    0.0167   -0.0070    0.0030    0.0039    0.0075
          18    0.0022    0.0043    0.0105   -0.0088    0.0024    0.0003   -0.0056   -0.0114
          19    0.0054    0.0045    0.0079   -0.0142    0.0058   -0.0010   -0.0072   -0.0145
          20    0.0092    0.0084    0.0077    0.0008    0.0060   -0.0063    0.0070    0.0181
          21   -0.0244   -0.0159   -0.0066    0.0106   -0.0023    0.0054   -0.0107   -0.0182
          22    0.0136   -0.0149   -0.0141   -0.0205   -0.0029   -0.0009    0.0001    0.0084
          23   -0.0166    0.0222   -0.0107   -0.0013    0.0092    0.0034    0.0024   -0.0013
          24    0.0250   -0.0243    0.0013   -0.0016    0.0039    0.0024    0.0048    0.0014
          25    0.0006    0.0099    0.0030    0.0174    0.0128    0.0037    0.0031   -0.0069
          26    0.0044   -0.0011   -0.0078   -0.0188   -0.0148   -0.0065   -0.0008    0.0070
          27   -0.0017   -0.0113   -0.0005   -0.0102    0.0028   -0.0038   -0.0012    0.0037
          28    0.0051   -0.0063    0.0011   -0.0052   -0.0102   -0.0060    0.0002    0.0048
          29    0.0096   -0.0099    0.0036    0.0044    0.0077    0.0027   -0.0013   -0.0004
          30    0.0106   -0.0028   -0.0114   -0.0152   -0.0086   -0.0032   -0.0034    0.0061
          31    0.0099    0.0758   -0.0416   -0.0920    0.0303    0.2282    0.1223    0.1028
          32    0.0496    0.0571    0.0489    0.0410   -0.0471   -0.0531   -0.0341   -0.0167
          33    0.1267    0.1702    0.0520   -0.0143   -0.0182   -0.0119    0.0172    0.0626
          34   -0.0362    0.0054    0.1003    0.1122   -0.1042    0.0131   -0.0446    0.0908
          35   -0.0129    0.0031    0.0204    0.0221   -0.0204    0.0042   -0.0064    0.0125
          36   -0.0485    0.0069    0.0874    0.0685   -0.0657   -0.0106   -0.0310    0.0298
          37   -0.0468    0.0933   -0.0747   -0.0246    0.1017   -0.2096   -0.0607    0.0432
          38   -0.0438    0.0456   -0.0050    0.0092   -0.0047    0.0002   -0.0063    0.0002
          39   -0.1024    0.1253   -0.0476   -0.0123    0.0352   -0.0567   -0.0287    0.0236
          40   -0.0535   -0.0288    0.0340   -0.0066    0.0363    0.0042    0.0079    0.0350
          41    0.0005   -0.0005    0.0176   -0.0225   -0.0004   -0.0032    0.0008   -0.0023
          42   -0.0592   -0.0302    0.1165   -0.0853    0.0461   -0.0074    0.0121    0.0348
          43    0.0501    0.0394   -0.0368    0.0553   -0.0286    0.0130    0.0042    0.0193
          44   -0.0179   -0.0235   -0.0356   -0.0072   -0.0027   -0.0003    0.0019   -0.0074
          45    0.0644    0.0371   -0.1057    0.0812   -0.0528    0.0199    0.0099    0.0232
          46   -0.0015   -0.0038   -0.0575    0.0445   -0.0121   -0.0011    0.0183    0.0384
          47    0.0001    0.0007    0.0058   -0.0043    0.0011    0.0001   -0.0012   -0.0021
          48    0.0027    0.0012   -0.0490    0.0446   -0.0111   -0.0030    0.0199    0.0426
          49   -0.0110   -0.0141   -0.0163    0.0118   -0.0023   -0.0043    0.0155    0.0316
          50    0.0029    0.0043   -0.0150    0.0065   -0.0036    0.0047   -0.0083   -0.0178
          51   -0.0080   -0.0105    0.0044    0.0004    0.0016   -0.0059    0.0128    0.0260
          52    0.0101    0.0088    0.0368   -0.0090    0.0067   -0.0087    0.0117    0.0260
          53   -0.0052   -0.0042   -0.0317    0.0123   -0.0064    0.0063   -0.0079   -0.0177
          54    0.0177    0.0163    0.0636   -0.0140    0.0112   -0.0154    0.0220    0.0500
          55   -0.0851   -0.1038   -0.0329    0.0299   -0.0168   -0.0191    0.0516    0.1114
          56   -0.0010    0.0302   -0.0137    0.0161   -0.0130    0.0368   -0.0372   -0.0847
          57   -0.0493   -0.0706   -0.0049    0.0161    0.0038   -0.0337    0.0436    0.1042
          58    0.0429   -0.0476    0.0046   -0.0143   -0.0144   -0.0059   -0.0123    0.0108
          59    0.0615   -0.0524    0.0386    0.0661    0.0497   -0.0331    0.1152   -0.0494
          60    0.0253   -0.0087    0.0013    0.0673    0.0970   -0.0366    0.2098   -0.0707
          61   -0.0399    0.0229    0.0404    0.0947    0.1576    0.0965   -0.0332    0.0063
          62   -0.0129   -0.0289    0.0021   -0.0283   -0.0104   -0.0063   -0.0028    0.0063
          63   -0.0023    0.0396    0.0098    0.0576    0.0995    0.0621   -0.0260    0.0163
          64   -0.0763    0.0695    0.0052   -0.0310   -0.0981   -0.0913    0.1723   -0.0482
          65    0.0383   -0.0241   -0.0284   -0.0017    0.0526    0.0566   -0.1214    0.0387
          66    0.0372   -0.0308   -0.0046   -0.0034    0.0154    0.0164   -0.0391    0.0171


   Root No.      33        34        35        36        37        38        39        40

                33 A      34 A      35 A      36 A      37 A      38 A      39 A      40 A   

                1176.4    1196.9    1266.9    1296.4    1348.1    1361.5    1380.9    1390.0
  
           1   -0.0004    0.0227   -0.0188    0.0122    0.0154   -0.0160    0.0127    0.0001
           2    0.0017   -0.0163    0.0099    0.0060   -0.0149    0.0237    0.0107    0.0004
           3    0.0159   -0.0238    0.0220    0.0427    0.0004    0.0218    0.0329    0.0008
           4    0.0133    0.0010    0.0240    0.0342    0.0176   -0.0053    0.0038   -0.0003
           5   -0.0020    0.0064   -0.0040    0.0079    0.0059   -0.0028   -0.0103   -0.0001
           6   -0.0034    0.0049    0.0040    0.0288    0.0141   -0.0018   -0.0375   -0.0005
           7   -0.0035   -0.0074    0.0290   -0.0078   -0.0153   -0.0009    0.0165   -0.0003
           8   -0.0096    0.0080   -0.0072    0.0052   -0.0001   -0.0120   -0.0067    0.0010
           9   -0.0221   -0.0055    0.0328   -0.0005   -0.0224   -0.0283    0.0085    0.0008
          10    0.0017    0.0016    0.0016   -0.0025    0.0146    0.0220   -0.0012   -0.0251
          11    0.0021   -0.0016   -0.0039    0.0017   -0.0093   -0.0117    0.0004   -0.0343
          12    0.0089    0.0001   -0.0060   -0.0005    0.0088    0.0180   -0.0011    0.0088
          13   -0.0258    0.0089   -0.0186    0.0196   -0.0089    0.0235   -0.0064    0.0004
          14    0.0136   -0.0307    0.0184   -0.0085    0.0103   -0.0238   -0.0068   -0.0006
          15   -0.0124   -0.0081   -0.0110    0.0073    0.0044   -0.0033   -0.0157   -0.0003
          16   -0.0003   -0.0057    0.0014   -0.0117   -0.0019    0.0024   -0.0025   -0.0009
          17   -0.0052    0.0077    0.0059    0.0026    0.0138    0.0044    0.0048   -0.0008
          18   -0.0154    0.0029    0.0199   -0.0209    0.0257    0.0137    0.0052   -0.0004
          19    0.0018   -0.0044   -0.0059   -0.0169   -0.0096   -0.0059   -0.0070    0.0001
          20   -0.0027    0.0047   -0.0007   -0.0018    0.0006    0.0009   -0.0017   -0.0005
          21    0.0044    0.0042   -0.0178   -0.0338   -0.0173   -0.0109   -0.0180   -0.0003
          22   -0.0001    0.0051   -0.0033   -0.0227   -0.0116    0.0026    0.0058    0.0002
          23    0.0009    0.0041    0.0057    0.0020   -0.0031    0.0011   -0.0072   -0.0001
          24    0.0079    0.0164    0.0136   -0.0128   -0.0162    0.0050   -0.0064    0.0000
          25   -0.0140   -0.0161   -0.0085    0.0205    0.0059   -0.0005   -0.0301   -0.0004
          26    0.0032    0.0141   -0.0132   -0.0100    0.0017    0.0008    0.0092    0.0002
          27   -0.0086   -0.0023   -0.0202    0.0066    0.0071    0.0001   -0.0137   -0.0001
          28    0.0064   -0.0083   -0.0095   -0.0111    0.0100   -0.0065    0.0210    0.0001
          29    0.0063    0.0074    0.0105    0.0001   -0.0059    0.0025   -0.0018    0.0000
          30    0.0137    0.0042    0.0036   -0.0135   -0.0006   -0.0020    0.0188    0.0002
          31   -0.0260   -0.0840    0.0278   -0.0198   -0.0195    0.0203   -0.0088   -0.0001
          32   -0.0272    0.0740   -0.0393   -0.0242    0.0033   -0.0133   -0.0187   -0.0003
          33   -0.0571    0.0681   -0.0379   -0.0368    0.0079   -0.0200   -0.0371   -0.0005
          34   -0.0136   -0.0924    0.0110   -0.0792   -0.0788    0.0648   -0.0705    0.0005
          35   -0.0033   -0.0142    0.0068   -0.0136   -0.0273    0.0276   -0.0856   -0.0003
          36   -0.0386   -0.0449   -0.0611   -0.0427    0.0158   -0.0280    0.1818    0.0015
          37   -0.0036   -0.0467   -0.0058   -0.0586   -0.0503    0.0372   -0.0653    0.0003
          38   -0.0159   -0.0092   -0.0335   -0.0060    0.0308   -0.0355    0.1625    0.0010
          39   -0.0269   -0.0358   -0.0434   -0.0342    0.0061   -0.0157    0.1130    0.0010
          40    0.1019   -0.0451    0.0232   -0.0645    0.1054   -0.1065   -0.0638    0.0025
          41    0.0048    0.0073   -0.0235    0.0116   -0.0050    0.0075   -0.0022    0.0003
          42    0.1456   -0.0246   -0.1026    0.0194   -0.0031    0.0752    0.0013   -0.0004
          43    0.0771   -0.0073   -0.0160   -0.0264    0.0425   -0.0201   -0.0195    0.0001
          44   -0.0020    0.0109   -0.0659    0.0623   -0.0859    0.1236    0.0519   -0.0043
          45    0.1273   -0.0013   -0.0852    0.0019    0.0284    0.0232   -0.0186   -0.0014
          46    0.0106    0.0078   -0.0199    0.0617   -0.0702   -0.1063    0.0234    0.0092
          47   -0.0011    0.0007   -0.0022    0.0026   -0.0058   -0.0076   -0.0036   -0.0623
          48    0.0038    0.0128   -0.0152    0.0474   -0.0332   -0.0475   -0.0056   -0.2127
          49    0.0352    0.0000   -0.0459    0.0614   -0.0716   -0.0783   -0.0087    0.2877
          50   -0.0192    0.0005    0.0251   -0.0355    0.0413    0.0451    0.0066    0.2882
          51    0.0311   -0.0004   -0.0383    0.0432   -0.0485   -0.0480   -0.0085   -0.1131
          52    0.0043    0.0050   -0.0074    0.0269   -0.0215   -0.0321    0.0058    0.0100
          53   -0.0082   -0.0009    0.0116   -0.0352    0.0489    0.0744   -0.0223    0.1919
          54    0.0065    0.0125   -0.0207    0.0630   -0.0585   -0.0856    0.0040    0.2189
          55   -0.0650    0.0706    0.0201    0.0161    0.0528    0.0023    0.0097   -0.0004
          56    0.0422   -0.0377   -0.0185   -0.0165   -0.0356   -0.0032   -0.0087    0.0009
          57   -0.0532    0.0627    0.0055   -0.0125    0.0317   -0.0035   -0.0067   -0.0016
          58    0.0072    0.0129    0.0053   -0.0198   -0.0135    0.0034    0.0050    0.0002
          59   -0.0229   -0.0352   -0.0440   -0.0135    0.0164   -0.0100    0.0143    0.0001
          60   -0.0505   -0.0677   -0.0869   -0.0542    0.0146   -0.0132    0.0332    0.0004
          61    0.0470    0.1339    0.0329   -0.0209   -0.0289    0.0247    0.0383    0.0008
          62   -0.0021    0.0073   -0.0165   -0.0103    0.0034   -0.0023    0.0059    0.0001
          63    0.0442    0.1161    0.0116   -0.0251   -0.0190    0.0215    0.0414    0.0009
          64    0.0742    0.0784    0.0774   -0.0397   -0.0389    0.0071    0.0039    0.0002
          65   -0.0449   -0.0500   -0.0546    0.0175    0.0277   -0.0067    0.0120    0.0001
          66    0.0017   -0.0141   -0.0136   -0.0092    0.0096   -0.0052    0.0248    0.0002


   Root No.      41        42        43        44        45        46        47        48

                41 A      42 A      43 A      44 A      45 A      46 A      47 A      48 A   

                1391.7    1395.3    1408.2    1442.9    1479.6    1835.5    1863.8    1914.4
  
           1   -0.0038   -0.0056    0.0404    0.0575   -0.0493   -0.0004    0.0063   -0.0010
           2   -0.0098   -0.0224   -0.0121   -0.0186    0.0224   -0.0003   -0.0088   -0.0138
           3   -0.0156   -0.0343    0.0148    0.0232   -0.0131    0.0025   -0.0010   -0.0160
           4    0.0118    0.0199   -0.0283   -0.0501    0.0251   -0.0025    0.0022    0.0007
           5   -0.0005    0.0026    0.0100   -0.0078   -0.0017   -0.0124    0.0029    0.0039
           6   -0.0009    0.0098    0.0212   -0.0424    0.0059   -0.0267    0.0074    0.0059
           7    0.0156    0.0333    0.0217   -0.0026   -0.0077   -0.0050   -0.0154   -0.0223
           8   -0.0083   -0.0288   -0.0133   -0.0092   -0.0205    0.0030    0.0086    0.0040
           9    0.0081   -0.0063    0.0034   -0.0211   -0.0551   -0.0026   -0.0080   -0.0189
          10    0.0133   -0.0017   -0.0047   -0.0066   -0.0511   -0.0033   -0.0281    0.0107
          11   -0.0143    0.0034   -0.0009    0.0003    0.0155    0.0016    0.0138   -0.0049
          12   -0.0183    0.0108   -0.0134   -0.0137   -0.0721   -0.0031   -0.0274    0.0113
          13   -0.0130   -0.0285   -0.0242   -0.0115    0.0150    0.0209    0.0306    0.1097
          14    0.0156    0.0343    0.0115    0.0278   -0.0144    0.0078    0.0199    0.0770
          15    0.0037    0.0091   -0.0110    0.0218   -0.0022    0.0253    0.0453    0.1804
          16   -0.0022   -0.0005   -0.0051   -0.0035    0.0232    0.0175    0.1527   -0.0572
          17   -0.0028    0.0011    0.0121    0.0154    0.0280   -0.0154   -0.1285    0.0436
          18   -0.0100    0.0036    0.0153    0.0255    0.1109    0.0025    0.0299   -0.0195
          19    0.0020   -0.0001   -0.0080   -0.0098    0.0319   -0.0137   -0.1249    0.0426
          20    0.0030    0.0081   -0.0023   -0.0041   -0.0274    0.0119    0.1079   -0.0406
          21    0.0092    0.0155   -0.0162   -0.0272    0.0030   -0.0036   -0.0177    0.0001
          22   -0.0015   -0.0055   -0.0043    0.0171   -0.0034   -0.0890    0.0097    0.0089
          23    0.0015    0.0028   -0.0099    0.0140   -0.0007    0.1260   -0.0160   -0.0172
          24    0.0019    0.0002   -0.0248    0.0437   -0.0042    0.1574   -0.0213   -0.0229
          25    0.0044    0.0115   -0.0269    0.0408   -0.0018   -0.0464   -0.0292   -0.1035
          26   -0.0039   -0.0079    0.0106   -0.0244    0.0031    0.0097   -0.0174   -0.0556
          27   -0.0007    0.0007   -0.0096    0.0055    0.0018   -0.0236   -0.0423   -0.1436
          28   -0.0024   -0.0028    0.0346   -0.0458    0.0019    0.1417   -0.0107   -0.0007
          29    0.0012    0.0004   -0.0123    0.0170   -0.0007   -0.1342    0.0150    0.0141
          30   -0.0012   -0.0039    0.0144   -0.0179    0.0004   -0.1103    0.0171    0.0246
          31    0.0049    0.0058   -0.0471   -0.0529    0.0418    0.0018    0.0024    0.0090
          32    0.0030    0.0102    0.0080    0.0010   -0.0082   -0.0003    0.0092   -0.0034
          33    0.0135    0.0320   -0.0116   -0.0206   -0.0042   -0.0002    0.0155    0.0044
          34   -0.0432   -0.0624    0.0614    0.0340   -0.0065   -0.0203   -0.0028   -0.0089
          35   -0.0248   -0.0226    0.0636   -0.0002   -0.0099   -0.0114    0.0018    0.0010
          36    0.0234   -0.0027   -0.0862    0.0403    0.0008   -0.0417    0.0031    0.0020
          37   -0.0350   -0.0455    0.0772    0.0576   -0.0287   -0.0043   -0.0002    0.0010
          38    0.0331    0.0181   -0.1021    0.0138    0.0136    0.0028   -0.0027   -0.0027
          39    0.0114   -0.0067   -0.0454    0.0374   -0.0059   -0.0035    0.0009   -0.0005
          40   -0.0440   -0.1155   -0.0515    0.0082   -0.0023    0.0016    0.0094    0.0119
          41   -0.0032   -0.0082   -0.0067   -0.0022   -0.0072    0.0034    0.0098    0.0070
          42    0.0158    0.0767    0.0115    0.0287    0.0483    0.0074    0.0427    0.0090
          43   -0.0129   -0.0216   -0.0098    0.0106    0.0188    0.0009    0.0085   -0.0066
          44    0.0478    0.1423    0.0503    0.0126    0.0270    0.0018    0.0084    0.0045
          45   -0.0080    0.0032   -0.0112    0.0183    0.0261    0.0044    0.0265    0.0031
          46   -0.1944    0.0642    0.0031    0.0145    0.0728   -0.0013   -0.0114    0.0038
          47    0.0461   -0.0214    0.0089    0.0064    0.0351    0.0012    0.0104   -0.0040
          48    0.1487   -0.0716    0.0385    0.0282    0.0999   -0.0014   -0.0125    0.0040
          49    0.0780   -0.0433    0.0172    0.0078    0.0620    0.0043    0.0331   -0.0097
          50   -0.0904    0.0479   -0.0165   -0.0084   -0.0515   -0.0031   -0.0248    0.0080
          51    0.0675   -0.0376    0.0067   -0.0012    0.0137    0.0019    0.0126   -0.0021
          52   -0.0267    0.0066    0.0068    0.0073    0.0186   -0.0019   -0.0158    0.0057
          53    0.2137   -0.0757    0.0113   -0.0017   -0.0251    0.0005    0.0041   -0.0014
          54    0.0347   -0.0260    0.0336    0.0301    0.1206   -0.0011   -0.0092    0.0029
          55   -0.0068    0.0097    0.0328    0.0440    0.0164   -0.0007   -0.0017    0.0045
          56    0.0061   -0.0007   -0.0213   -0.0329   -0.0205    0.0048    0.0501   -0.0248
          57    0.0037    0.0271    0.0118    0.0114   -0.0093    0.0103    0.1126   -0.0480
          58   -0.0002   -0.0042   -0.0114    0.0219   -0.0025   -0.1033    0.0115    0.0118
          59   -0.0047   -0.0043    0.0430   -0.0329   -0.0040    0.0247   -0.0007    0.0025
          60   -0.0115   -0.0162    0.0755   -0.0434   -0.0103   -0.0757    0.0126    0.0174
          61   -0.0136   -0.0346    0.0052   -0.0368    0.0102   -0.0348    0.0270    0.0743
          62   -0.0029   -0.0057    0.0103   -0.0223    0.0014    0.0039   -0.0283   -0.0952
          63   -0.0152   -0.0356    0.0164   -0.0584    0.0130   -0.0185   -0.0033   -0.0241
          64    0.0045    0.0007   -0.0280    0.0553   -0.0072   -0.0775    0.0208    0.0459
          65   -0.0043   -0.0039    0.0311   -0.0571    0.0065   -0.0015   -0.0048   -0.0166
          66   -0.0027   -0.0048    0.0298   -0.0407    0.0021   -0.0956    0.0139    0.0167


   Root No.      49        50        51        52        53        54        55        56

                49 A      50 A      51 A      52 A      53 A      54 A      55 A      56 A   

                2859.7    2952.8    2971.3    3033.1    3043.4    3057.4    3067.5    3072.9
  
           1   -0.0219   -0.0011   -0.0002    0.0006   -0.0004    0.0002   -0.0000   -0.0001
           2   -0.0568   -0.0029   -0.0001   -0.0002    0.0003    0.0001   -0.0001    0.0001
           3    0.0309    0.0015    0.0001    0.0000   -0.0001    0.0002    0.0000   -0.0000
           4   -0.0006   -0.0034    0.0000    0.0231   -0.0001   -0.0017   -0.0000    0.0013
           5    0.0047   -0.0547   -0.0001   -0.0149    0.0001    0.0017   -0.0000   -0.0013
           6   -0.0013    0.0180    0.0000   -0.0295    0.0002    0.0017   -0.0000   -0.0015
           7   -0.0001    0.0001   -0.0345    0.0001    0.0276    0.0001   -0.0002   -0.0000
           8    0.0002    0.0001   -0.0450   -0.0001   -0.0299   -0.0001    0.0003   -0.0000
           9   -0.0000   -0.0000    0.0221   -0.0000   -0.0116   -0.0001    0.0000   -0.0002
          10    0.0000   -0.0000   -0.0001    0.0000   -0.0003   -0.0000   -0.0371    0.0000
          11   -0.0001    0.0000   -0.0002   -0.0000   -0.0003    0.0000   -0.0399   -0.0000
          12    0.0001    0.0000    0.0000   -0.0000    0.0002    0.0000    0.0178   -0.0000
          13    0.0002   -0.0003   -0.0003   -0.0003    0.0005   -0.0000    0.0000    0.0010
          14   -0.0010    0.0001   -0.0002    0.0001   -0.0002    0.0001    0.0000    0.0009
          15   -0.0008    0.0001   -0.0002   -0.0000    0.0003    0.0001   -0.0000    0.0019
          16   -0.0009   -0.0000   -0.0001   -0.0000    0.0004   -0.0000   -0.0001   -0.0000
          17    0.0003   -0.0000   -0.0000    0.0000   -0.0006    0.0000   -0.0001    0.0000
          18   -0.0002   -0.0000    0.0002    0.0000   -0.0006   -0.0000    0.0000   -0.0000
          19    0.0007   -0.0001   -0.0001    0.0001   -0.0001   -0.0000   -0.0001   -0.0000
          20   -0.0005   -0.0000   -0.0002   -0.0000    0.0000   -0.0000   -0.0001    0.0000
[...]

 VIBRATION         43   43A           ATOM PAIR      ENERGY CONTRIBUTION    RADIAL
 FREQUENCY          1408.18         C  9 -- C 10         +10.0% ( 45.4%)     99.1%
 TRANSITION DIPOLE   0.0880         C  1 -- C  2          +9.9% ( 45.2%)     89.9%
 TRAVEL (Ang.)       0.2576         C  1 -- C  5          +8.4% ( 41.5%)     16.4%
 REDUCED MASS        0.7216         C  2 -- H 13          +7.1% ( 38.1%)      5.0%
 EFFECTIVE MASS      8.0689
 FORCE CONSTANT      0.8430

 VIBRATION         44   44A           ATOM PAIR      ENERGY CONTRIBUTION    RADIAL
 FREQUENCY          1442.95         C  1 -- C  2         +12.5% ( 55.0%)     72.3%
 TRANSITION DIPOLE   0.1294         C  2 -- C  8         +10.9% ( 51.4%)     92.0%
 TRAVEL (Ang.)       0.1849         C  9 -- C 10          +9.9% ( 48.8%)     99.8%
 REDUCED MASS        1.3676         C  1 -- C  5          +7.8% ( 43.5%)     54.4%
 EFFECTIVE MASS     10.5694
 FORCE CONSTANT      1.6777

 VIBRATION         45   45A           ATOM PAIR      ENERGY CONTRIBUTION    RADIAL
 FREQUENCY          1479.62         C  4 -- C  6         +23.4% ( 74.3%)     83.2%
 TRANSITION DIPOLE   0.0727         C  3 -- C  6         +17.0% ( 63.4%)     90.5%
 TRAVEL (Ang.)       0.1303         C  6 -- C  7         +12.9% ( 55.3%)     13.7%
 REDUCED MASS        2.6825         C  4 -- H 16          +7.5% ( 42.0%)      3.3%
 EFFECTIVE MASS     10.7280
 FORCE CONSTANT      3.4602

 VIBRATION         46   46A           ATOM PAIR      ENERGY CONTRIBUTION    RADIAL
 FREQUENCY          1835.54         C  8 -- C 10         +42.6% ( 96.6%)     99.9%
 TRANSITION DIPOLE   0.2464         C  9 -- C 10         +14.8% ( 56.9%)     61.7%
 TRAVEL (Ang.)       0.0851         C  2 -- C  8         +13.5% ( 54.3%)     47.9%
 REDUCED MASS        5.0743         C 10 -- H 22         +12.8% ( 53.0%)      4.5%
 EFFECTIVE MASS     11.8833         C  8 -- H 20         +12.4% ( 52.2%)      5.4%
 FORCE CONSTANT     10.0728

 VIBRATION         47   47A           ATOM PAIR      ENERGY CONTRIBUTION    RADIAL
 FREQUENCY          1863.77         C  6 -- C  7         +38.8% ( 92.5%)     97.9%
 TRANSITION DIPOLE   0.3498         C  4 -- C  6         +16.5% ( 60.3%)     62.7%
 TRAVEL (Ang.)       0.0892         C  3 -- C  6         +14.9% ( 57.3%)      3.5%
 REDUCED MASS        4.5485         C  1 -- C  7          +9.3% ( 45.3%)     20.7%
 EFFECTIVE MASS     11.8650
 FORCE CONSTANT      9.3090

 VIBRATION         48   48A           ATOM PAIR      ENERGY CONTRIBUTION    RADIAL
 FREQUENCY          1914.36         C  5 -- C  9         +38.9% ( 92.2%)     99.3%
 TRANSITION DIPOLE   0.2963         C  3 -- C  5         +15.9% ( 59.0%)     51.3%
 TRAVEL (Ang.)       0.0873         C  1 -- C  5         +15.5% ( 58.2%)     27.4%
 REDUCED MASS        4.6218         C  9 -- C 10          +9.5% ( 45.5%)     27.4%
 EFFECTIVE MASS     11.9083
 FORCE CONSTANT      9.9796

 VIBRATION         49   49A           ATOM PAIR      ENERGY CONTRIBUTION    RADIAL
 FREQUENCY          2859.73         C  1 -- H 11         +96.6% ( 99.8%)    100.0%
 TRANSITION DIPOLE   0.0911         C  1 -- C  2          +1.0% ( 10.1%)      8.6%
 TRAVEL (Ang.)       0.1599         C  1 -- C  5          +1.0% ( 10.0%)      9.3%
 REDUCED MASS        0.9222         C  1 -- C  7          +1.0% ( 10.0%)      9.2%
 EFFECTIVE MASS      1.4328
 FORCE CONSTANT      4.4436

 VIBRATION         50   50A           ATOM PAIR      ENERGY CONTRIBUTION    RADIAL
 FREQUENCY          2952.81         C  2 -- H 13         +58.9% ( 79.6%)     97.5%
 TRANSITION DIPOLE   0.0523         C  2 -- H 12         +38.5% ( 64.3%)     95.2%
 TRAVEL (Ang.)       0.2067         C  2 -- C  8          +1.1% ( 11.0%)      0.0%
 REDUCED MASS        0.5344         C  1 -- C  2          +1.1% ( 10.9%)      0.2%
 EFFECTIVE MASS      1.5359
 FORCE CONSTANT      2.7451

 VIBRATION         51   51A           ATOM PAIR      ENERGY CONTRIBUTION    RADIAL
 FREQUENCY          2971.29         C  3 -- H 15         +54.9% ( 76.8%)     97.3%
 TRANSITION DIPOLE   0.0618         C  3 -- H 14         +43.0% ( 67.9%)     96.0%
 TRAVEL (Ang.)       0.2079         C  3 -- C  6          +1.1% ( 10.8%)      0.0%
 REDUCED MASS        0.5249         C  3 -- C  5          +1.1% ( 10.8%)      0.0%
 EFFECTIVE MASS      1.5350
 FORCE CONSTANT      2.7302

 VIBRATION         52   52A           ATOM PAIR      ENERGY CONTRIBUTION    RADIAL
 FREQUENCY          3033.07         C  2 -- H 12         +59.7% ( 76.2%)     98.7%
 TRANSITION DIPOLE   0.0800         C  2 -- H 13         +37.8% ( 60.6%)     96.0%
 TRAVEL (Ang.)       0.2123         C  8 -- H 20          +1.2% ( 10.8%)    100.0%
 REDUCED MASS        0.4934         C  2 -- C  8          +0.7% (  8.0%)     19.8%
 EFFECTIVE MASS      1.2833
 FORCE CONSTANT      2.6743

 VIBRATION         53   53A           ATOM PAIR      ENERGY CONTRIBUTION    RADIAL
 FREQUENCY          3043.41         C  3 -- H 14         +55.8% ( 73.8%)     98.2%
 TRANSITION DIPOLE   0.1226         C  3 -- H 15         +42.7% ( 64.6%)     96.5%
 TRAVEL (Ang.)       0.2124         C  3 -- C  5          +0.7% (  8.4%)     38.5%
 REDUCED MASS        0.4911         C  3 -- C  6          +0.7% (  8.4%)     36.5%
 EFFECTIVE MASS      1.2856
 FORCE CONSTANT      2.6798

 VIBRATION         54   54A           ATOM PAIR      ENERGY CONTRIBUTION    RADIAL
 FREQUENCY          3057.45         C  8 -- H 20         +51.5% ( 72.9%)    100.0%
 TRANSITION DIPOLE   0.2675         C 10 -- H 22         +43.9% ( 67.2%)    100.0%
 TRAVEL (Ang.)       0.2220         C  9 -- H 21          +1.6% ( 12.7%)     99.9%
 REDUCED MASS        0.4476         C  8 -- C 10          +1.1% ( 10.6%)      0.1%
 EFFECTIVE MASS      1.4638
 FORCE CONSTANT      2.4654

 VIBRATION         55   55A           ATOM PAIR      ENERGY CONTRIBUTION    RADIAL
 FREQUENCY          3067.51         C  4 -- H 18         +50.8% ( 73.5%)     97.3%
 TRANSITION DIPOLE   0.0292         C  4 -- H 16         +47.3% ( 70.9%)     96.8%
 TRAVEL (Ang.)       0.2076         C  4 -- C  6          +1.0% ( 10.2%)      0.0%
 REDUCED MASS        0.5099         C  4 -- H 17          +1.0% ( 10.2%)      1.2%
 EFFECTIVE MASS      1.5034
 FORCE CONSTANT      2.8271

 VIBRATION         56   56A           ATOM PAIR      ENERGY CONTRIBUTION    RADIAL
 FREQUENCY          3072.95         C  9 -- H 21         +42.2% ( 66.0%)    100.0%
 TRANSITION DIPOLE   0.2855         C  8 -- H 20         +30.5% ( 56.2%)     99.9%
 TRAVEL (Ang.)       0.2599         C 10 -- H 22         +23.6% ( 49.3%)     99.8%
 REDUCED MASS        0.3250         C  8 -- C 10          +1.1% ( 10.7%)     99.3%
 EFFECTIVE MASS      1.5496
 FORCE CONSTANT      1.8079

 VIBRATION         57   57A           ATOM PAIR      ENERGY CONTRIBUTION    RADIAL
 FREQUENCY          3078.05         C  4 -- H 17         +60.9% ( 80.5%)     98.7%
 TRANSITION DIPOLE   0.0447         C  4 -- H 16         +20.7% ( 46.9%)     87.2%
 TRAVEL (Ang.)       0.2146         C  4 -- H 18         +17.3% ( 43.0%)     84.3%
 REDUCED MASS        0.4755         C  4 -- C  6          +1.0% ( 10.5%)      0.0%
 EFFECTIVE MASS      1.5133
 FORCE CONSTANT      2.6546

 VIBRATION         58   58A           ATOM PAIR      ENERGY CONTRIBUTION    RADIAL
 FREQUENCY          3082.22         C  9 -- H 21         +53.2% ( 74.0%)    100.0%
 TRANSITION DIPOLE   0.4060         C 10 -- H 22         +29.5% ( 55.1%)    100.0%
 TRAVEL (Ang.)       0.2377         C  8 -- H 20         +13.7% ( 37.5%)     99.8%
 REDUCED MASS        0.3872         C  9 -- C 10          +1.4% ( 11.8%)     86.6%
 EFFECTIVE MASS      1.5767
 FORCE CONSTANT      2.1672

 VIBRATION         59   59A           ATOM PAIR      ENERGY CONTRIBUTION    RADIAL
 FREQUENCY          3128.82         C  7 -- H 19         +96.5% ( 99.9%)    100.0%
 TRANSITION DIPOLE   0.3726         C  6 -- C  7          +1.8% ( 13.6%)     49.4%
 TRAVEL (Ang.)       0.1523         C  1 -- C  7          +1.6% ( 13.0%)     23.2%
 REDUCED MASS        0.9287
 EFFECTIVE MASS      1.5554
 FORCE CONSTANT      5.3565

 VIBRATION         60   60A           ATOM PAIR      ENERGY CONTRIBUTION    RADIAL
 FREQUENCY          3166.11         C  4 -- H 17         +37.9% ( 59.3%)     97.7%
 TRANSITION DIPOLE   0.0642         C  4 -- H 16         +31.0% ( 53.6%)     96.7%
 TRAVEL (Ang.)       0.2542         C  4 -- H 18         +30.8% ( 53.5%)     96.7%
 REDUCED MASS        0.3296         C  4 -- C  6          +0.3% (  5.5%)     99.4%
 EFFECTIVE MASS      1.1397
 FORCE CONSTANT      1.9468

      SYMMETRY NUMBER FOR POINT-GROUP C1  =  1


          SYSTEM IS A GROUND STATE



 InChI=1S/C10H12/c1-8-6-9-4-2-3-5-10(9)7-8/h2-4,7,10H,5-6H2,1H3


          MOLECULE IS NOT LINEAR

          THERE ARE 60 GENUINE VIBRATIONS IN THIS SYSTEM
          THIS THERMODYNAMICS CALCULATION IS LIMITED TO
          MOLECULES WHICH HAVE NO INTERNAL ROTATIONS




                    CALCULATED THERMODYNAMIC PROPERTIES
                                          *
   TEMP. (K)   PARTITION FUNCTION   H.O.F.    ENTHALPY  HEAT CAPACITY ENTROPY
                                   KCAL/MOL   CAL/MOLE    CAL/K/MOL  CAL/K/MOL


 298.00  VIB.     0.8895D+02                  3745.7956    28.9910    21.4885
         ROT.     0.5507D+06                   888.2803     2.9808    29.2496
         INT.     0.4898D+08                  4634.0759    31.9718    50.7380
         TRA.     0.1470D+28                  1480.4672     4.9680    40.5480
         TOT.                       29.745    6114.5431    36.9398    91.2860

 200.00  VIB.     0.1240D+02                  1505.0942    17.0492    12.5289
         ROT.     0.3028D+06                   596.1613     2.9808    28.0609
         INT.     0.3755D+07                  2101.2555    20.0300    40.5898
         TRA.     0.8080D+27                   993.6021     4.9680    38.5668
         TOT.                       26.726    3094.8576    24.9980    79.1566

 210.00  VIB.     0.1501D+02                  1681.1414    18.1653    13.3876
         ROT.     0.3258D+06                   625.9693     2.9808    28.2063
         INT.     0.4888D+07                  2307.1107    21.1461    41.5939
         TRA.     0.8694D+27                  1043.2822     4.9680    38.8092
         TOT.                       26.981    3350.3929    26.1142    80.4031

 220.00  VIB.     0.1820D+02                  1868.5009    19.3114    14.2590
         ROT.     0.3493D+06                   655.7774     2.9808    28.3450
         INT.     0.6358D+07                  2524.2783    22.2922    42.6040
         TRA.     0.9322D+27                  1092.9623     4.9680    39.0403
         TOT.                       27.248    3617.2406    27.2603    81.6443

 230.00  VIB.     0.2213D+02                  2067.4640    20.4857    15.1432
         ROT.     0.3734D+06                   685.5855     2.9808    28.4775
         INT.     0.8264D+07                  2753.0494    23.4665    43.6207
         TRA.     0.9965D+27                  1142.6424     4.9680    39.2612
         TOT.                       27.527    3895.6919    28.4345    82.8819

 240.00  VIB.     0.2697D+02                  2278.3005    21.6857    16.0403
         ROT.     0.3980D+06                   715.3935     2.9808    28.6044
         INT.     0.1074D+08                  2993.6940    24.6665    44.6447
         TRA.     0.1062D+28                  1192.3226     4.9680    39.4726
         TOT.                       27.817    4186.0166    29.6345    84.1173

 250.00  VIB.     0.3295D+02                  2501.2539    22.9085    16.9503
         ROT.     0.4232D+06                   745.2016     2.9808    28.7261
         INT.     0.1394D+08                  3246.4555    25.8893    45.6764
         TRA.     0.1129D+28                  1242.0027     4.9680    39.6754
         TOT.                       28.119    4488.4581    30.8574    85.3518

 260.00  VIB.     0.4035D+02                  2736.5369    24.1511    17.8730
         ROT.     0.4488D+06                   775.0097     2.9808    28.8430
         INT.     0.1811D+08                  3511.5465    27.1319    46.7159
         TRA.     0.1198D+28                  1291.6828     4.9680    39.8703
         TOT.                       28.434    4803.2293    32.0999    86.5862

 270.00  VIB.     0.4952D+02                  2984.3290    25.4098    18.8080
         ROT.     0.4749D+06                   804.8177     2.9808    28.9555
         INT.     0.2352D+08                  3789.1467    28.3906    47.7634
         TRA.     0.1267D+28                  1341.3629     4.9680    40.0578
         TOT.                       28.761    5130.5096    33.3586    87.8212

 280.00  VIB.     0.6092D+02                  3244.7753    26.6813    19.7550
         ROT.     0.5016D+06                   834.6258     2.9808    29.0639
         INT.     0.3056D+08                  4079.4011    29.6621    48.8189
         TRA.     0.1338D+28                  1391.0430     4.9680    40.2384
         TOT.                       29.101    5470.4441    34.6301    89.0573

 290.00  VIB.     0.7511D+02                  3517.9856    27.9620    20.7136
         ROT.     0.5287D+06                   864.4339     2.9808    29.1685
         INT.     0.3971D+08                  4382.4194    30.9428    49.8821
         TRA.     0.1411D+28                  1440.7231     4.9680    40.4128
         TOT.                       29.454    5823.1425    35.9108    90.2949

 300.00  VIB.     0.9281D+02                  3804.0352    29.2486    21.6832
         ROT.     0.5563D+06                   894.2419     2.9808    29.2695
         INT.     0.5163D+08                  4698.2771    32.2294    50.9528
         TRA.     0.1484D+28                  1490.4032     4.9680    40.5812
         TOT.                       29.820    6188.6803    37.1974    91.5340

 310.00  VIB.     0.1149D+03                  4102.9661    30.5378    22.6633
         ROT.     0.5843D+06                   924.0500     2.9808    29.3673
         INT.     0.6715D+08                  5027.0161    33.5186    52.0306
         TRA.     0.1559D+28                  1540.0833     4.9680    40.7441
         TOT.                       30.198    6567.0994    38.4866    92.7747

 320.00  VIB.     0.1426D+03                  4414.7886    31.8264    23.6532
         ROT.     0.6128D+06                   953.8580     2.9808    29.4619
         INT.     0.8740D+08                  5368.6466    34.8072    53.1151
         TRA.     0.1635D+28                  1589.7634     4.9680    40.9018
         TOT.                       30.589    6958.4100    39.7752    94.0169

 330.00  VIB.     0.1774D+03                  4739.4832    33.1117    24.6522
         ROT.     0.6418D+06                   983.6661     2.9808    29.5536
         INT.     0.1138D+09                  5723.1493    36.0925    54.2059
         TRA.     0.1713D+28                  1639.4435     4.9680    41.0547
         TOT.                       30.993    7362.5928    41.0605    95.2606

 340.00  VIB.     0.2210D+03                  5077.0031    34.3911    25.6597
         ROT.     0.6711D+06                  1013.4742     2.9808    29.6426
         INT.     0.1483D+09                  6090.4773    37.3719    55.3024
         TRA.     0.1791D+28                  1689.1236     4.9680    41.2030
         TOT.                       31.410    7779.6009    42.3399    96.5054

 350.00  VIB.     0.2759D+03                  5427.2770    35.6621    26.6750
         ROT.     0.7010D+06                  1043.2822     2.9808    29.7290
         INT.     0.1934D+09                  6470.5592    38.6429    56.4040
         TRA.     0.1871D+28                  1738.8037     4.9680    41.3470
         TOT.                       31.840    8209.3629    43.6109    97.7510

 360.00  VIB.     0.3452D+03                  5790.2107    36.9227    27.6974
         ROT.     0.7312D+06                  1073.0903     2.9808    29.8130
         INT.     0.2524D+09                  6863.3010    39.9035    57.5103
         TRA.     0.1951D+28                  1788.4838     4.9680    41.4870
         TOT.                       32.283    8651.7848    44.8715    98.9973

 370.00  VIB.     0.4326D+03                  6165.6906    38.1711    28.7260
         ROT.     0.7619D+06                  1102.8984     2.9808    29.8947
         INT.     0.3296D+09                  7268.5889    41.1519    58.6207
         TRA.     0.2033D+28                  1838.1639     4.9680    41.6231
         TOT.                       32.738    9106.7529    46.1199   100.2438

 380.00  VIB.     0.5431D+03                  6553.5856    39.4055    29.7604
         ROT.     0.7930D+06                  1132.7064     2.9808    29.9741
         INT.     0.4307D+09                  7686.2920    42.3863    59.7346
         TRA.     0.2116D+28                  1887.8440     4.9680    41.7556
         TOT.                       33.205    9574.1361    47.3543   101.4902

 390.00  VIB.     0.6831D+03                  6953.7498    40.6247    30.7998
         ROT.     0.8245D+06                  1162.5145     2.9808    30.0516
         INT.     0.5632D+09                  8116.2643    43.6055    60.8514
         TRA.     0.2200D+28                  1937.5242     4.9680    41.8846
         TOT.                       33.685   10053.7885    48.5735   102.7360

 400.00  VIB.     0.8605D+03                  7366.0246    41.8274    31.8435
         ROT.     0.8564D+06                  1192.3226     2.9808    30.1270
         INT.     0.7369D+09                  8558.3471    44.8082    61.9706
         TRA.     0.2285D+28                  1987.2043     4.9680    42.0104
         TOT.                       34.176   10545.5514    49.7762   103.9810

   *: NOTE: HEATS OF FORMATION ARE RELATIVE TO THE
            ELEMENTS IN THEIR STANDARD STATE AT 298K
              (=  Standard Enthalpy of Formation).

            Hvib:  Zero-point energy is not included.
                   frequencies of less than zero cm-1 are not included.
            Hrot = (3/2)RT
            Htra = (3/2)RT + pV = (5/2)RT

            Heat capacity is Cp, not Cv

          For more information, see: HTTP://OpenMOPAC.net/Manual/thermochemistry.html


           FORCE CONSTANT IN CARTESIAN COORDINATES (Millidynes/A)

    ATOM   CHEMICAL       X               Y               Z
   NUMBER   SYMBOL  FORCE CONSTANT  FORCE CONSTANT  FORCE CONSTANT

      1       C        9.162654        8.350286        8.509209
      2       C        8.308871        8.333461        8.675999
      3       C        8.775213        8.900023        7.938536
      4       C        8.502210        8.227688        8.948938
      5       C        8.963981        7.263406       11.951064
      6       C       10.318284        8.414623        9.543177
      7       C        8.991047        8.904577        9.367455
      8       C       10.050220        6.663705       10.030838
      9       C        9.354624        7.926515       10.322361
     10       C        9.725346        6.736694       10.960358
     11       H        1.093902        3.319144        1.403970
     12       H        1.183153        4.262364        0.921031
     13       H        1.205144        2.505646        2.540621
     14       H        0.660609        4.971666        0.700723
     15       H        3.763275        0.923744        1.577958
     16       H        0.682264        5.091345        0.866292
     17       H        0.914575        2.004817        3.814330
     18       H        4.817525        0.811708        1.001969
     19       H        0.895382        2.081789        3.432272
     20       H        4.314937        1.000376        0.950588
     21       H        1.209576        3.342308        1.715691
     22       H        1.254612        0.779664        4.236799

 **********************
 *                    *
 * JOB ENDED NORMALLY *
 *                    *
 **********************



 TOTAL JOB TIME:             3.61 SECONDS

 == MOPAC DONE ==
