 *******************************************************************************
 **                                                                           **
 **                              MOPAC v23.1.2                                **
 **                                                                           **
 *******************************************************************************
 **          Digital Object Identifier (DOI): 10.5281/zenodo.6511958          **
 **    Visit the DOI location for information on how to cite this program.    **
 *******************************************************************************

                              PM3 CALCULATION RESULTS

 *******************************************************************************
 *  CALCULATION DONE: (MAX THREADS = 1)              Tue Jun  3 16:33:56 2025  *
 *  PM3        - The PM3 Hamiltonian to be used
 *  PRECISE    - TIGHTER CRITERIA TO BE USED
 *  NOSYM      - POINT-GROUP SYMMETRY SET TO C1
 *  THREADS=1  - MULTI-THREADING NOT USED
 *  T=         - A TIME OF 172800.0 SECONDS REQUESTED
 *  DUMP=N     - RESTART FILE WRITTEN EVERY 7200.0 SECONDS REQUESTED
 *******************************************************************************
pm3  precise nosym THREADS=1
 InChI=1S/C10H10/c1-8-6-9-4-2-3-5-10(9)7-8/h2-5H,1,6-7H2

   ATOM   CHEMICAL          X               Y               Z
  NUMBER   SYMBOL      (ANGSTROMS)     (ANGSTROMS)     (ANGSTROMS)

     1       C          1.03720000  *  -0.09600000  *  -1.25470000  *
     2       C          1.03630000  *   0.33810000  *   1.21290000  *
     3       C          1.86100000  *   0.21730000  *  -0.03750000  *
     4       C         -0.32810000  *  -0.15800000  *  -0.67390000  *
     5       C         -0.32860000  *   0.08140000  *   0.68710000  *
     6       C         -1.51660000  *  -0.42150000  *  -1.35860000  *
     7       C         -1.51760000  *   0.06730000  *   1.41980000  *
     8       C         -2.72070000  *  -0.43950000  *  -0.63790000  *
     9       C         -2.72120000  *  -0.19580000  *   0.74770000  *
    10       C          3.18780000  *   0.37210000  *  -0.06430000  *
    11       H          1.11000000  *   0.72020000  *  -2.00470000  *
    12       H          1.32620000  *  -1.07690000  *  -1.68850000  *
    13       H          1.10870000  *   1.36120000  *   1.63940000  *
    14       H          1.32480000  *  -0.43600000  *   1.95560000  *
    15       H         -1.51070000  *  -0.60830000  *  -2.42470000  *
    16       H         -1.51250000  *   0.25540000  *   2.48570000  *
    17       H         -3.65240000  *  -0.64170000  *  -1.15020000  *
    18       H         -3.65330000  *  -0.21120000  *   1.29760000  *
    19       H          3.73510000  *   0.27400000  *  -0.99650000  *
    20       H          3.73440000  *   0.59800000  *   0.84590000  *



          CARTESIAN COORDINATES 

    NO.       ATOM           X           Y           Z

     1         C          1.0372     -0.0960     -1.2547
     2         C          1.0363      0.3381      1.2129
     3         C          1.8610      0.2173     -0.0375
     4         C         -0.3281     -0.1580     -0.6739
     5         C         -0.3286      0.0814      0.6871
     6         C         -1.5166     -0.4215     -1.3586
     7         C         -1.5176      0.0673      1.4198
     8         C         -2.7207     -0.4395     -0.6379
     9         C         -2.7212     -0.1958      0.7477
    10         C          3.1878      0.3721     -0.0643
    11         H          1.1100      0.7202     -2.0047
    12         H          1.3262     -1.0769     -1.6885
    13         H          1.1087      1.3612      1.6394
    14         H          1.3248     -0.4360      1.9556
    15         H         -1.5107     -0.6083     -2.4247
    16         H         -1.5125      0.2554      2.4857
    17         H         -3.6524     -0.6417     -1.1502
    18         H         -3.6533     -0.2112      1.2976
    19         H          3.7351      0.2740     -0.9965
    20         H          3.7344      0.5980      0.8459

  H: (PM3): J. J. P. STEWART, J. COMP. CHEM. 10, 209 (1989).
  C: (PM3): J. J. P. STEWART, J. COMP. CHEM. 10, 209 (1989).

           Empirical Formula: C10 H10  =    20 atoms



      MOLECULAR POINT GROUP   :   C1  


      RHF CALCULATION, NO. OF DOUBLY OCCUPIED LEVELS = 25


          Geometry optimization using EF

          DIAGONAL MATRIX USED AS START HESSIAN

 CYCLE:     1 TIME:   0.008 TIME LEFT:  2.00D  GRAD.:    93.998 HEAT:  34.63935
 CYCLE:     2 TIME:   0.016 TIME LEFT:  2.00D  GRAD.:    63.236 HEAT:  33.44771
 CYCLE:     3 TIME:   0.008 TIME LEFT:  2.00D  GRAD.:    82.742 HEAT:  33.41833
 CYCLE:     4 TIME:   0.008 TIME LEFT:  2.00D  GRAD.:    68.944 HEAT:  32.97575
 CYCLE:     5 TIME:   0.004 TIME LEFT:  2.00D  GRAD.:    49.079 HEAT:  32.71654
 CYCLE:     6 TIME:   0.012 TIME LEFT:  2.00D  GRAD.:    24.006 HEAT:  32.16585
 CYCLE:     7 TIME:   0.012 TIME LEFT:  2.00D  GRAD.:    15.281 HEAT:  32.01670
 CYCLE:     8 TIME:   0.008 TIME LEFT:  2.00D  GRAD.:    17.900 HEAT:  31.96398
 CYCLE:     9 TIME:   0.004 TIME LEFT:  2.00D  GRAD.:    17.970 HEAT:  31.91444
 CYCLE:    10 TIME:   0.008 TIME LEFT:  2.00D  GRAD.:    15.714 HEAT:  31.85424
 CYCLE:    11 TIME:   0.012 TIME LEFT:  2.00D  GRAD.:    11.516 HEAT:  31.81319
 CYCLE:    12 TIME:   0.004 TIME LEFT:  2.00D  GRAD.:     8.539 HEAT:  31.78343
 CYCLE:    13 TIME:   0.012 TIME LEFT:  2.00D  GRAD.:     7.958 HEAT:  31.76810
 CYCLE:    14 TIME:   0.008 TIME LEFT:  2.00D  GRAD.:     5.118 HEAT:  31.74975
 CYCLE:    15 TIME:   0.004 TIME LEFT:  2.00D  GRAD.:     5.413 HEAT:  31.73349
 CYCLE:    16 TIME:   0.008 TIME LEFT:  2.00D  GRAD.:     5.055 HEAT:  31.72602
 CYCLE:    17 TIME:   0.008 TIME LEFT:  2.00D  GRAD.:     5.737 HEAT:  31.72094
 CYCLE:    18 TIME:   0.008 TIME LEFT:  2.00D  GRAD.:     5.211 HEAT:  31.71585
 CYCLE:    19 TIME:   0.008 TIME LEFT:  2.00D  GRAD.:     4.782 HEAT:  31.71515
 CYCLE:    20 TIME:   0.004 TIME LEFT:  2.00D  GRAD.:     3.412 HEAT:  31.71227
 CYCLE:    21 TIME:   0.008 TIME LEFT:  2.00D  GRAD.:     2.934 HEAT:  31.71113
 CYCLE:    22 TIME:   0.004 TIME LEFT:  2.00D  GRAD.:     1.952 HEAT:  31.71015
 CYCLE:    23 TIME:   0.008 TIME LEFT:  2.00D  GRAD.:     4.416 HEAT:  31.71402
 CYCLE:    24 TIME:   0.004 TIME LEFT:  2.00D  GRAD.:     1.890 HEAT:  31.70999
 CYCLE:    25 TIME:   0.008 TIME LEFT:  2.00D  GRAD.:     2.859 HEAT:  31.71107
 CYCLE:    26 TIME:   0.008 TIME LEFT:  2.00D  GRAD.:     0.648 HEAT:  31.70907
 CYCLE:    27 TIME:   0.008 TIME LEFT:  2.00D  GRAD.:     0.771 HEAT:  31.70907
 CYCLE:    28 TIME:   0.004 TIME LEFT:  2.00D  GRAD.:     0.361 HEAT:  31.70891
 CYCLE:    29 TIME:   0.008 TIME LEFT:  2.00D  GRAD.:     0.444 HEAT:  31.70888
 CYCLE:    30 TIME:   0.004 TIME LEFT:  2.00D  GRAD.:     0.218 HEAT:  31.70881
 CYCLE:    31 TIME:   0.008 TIME LEFT:  2.00D  GRAD.:     0.394 HEAT:  31.70879
 CYCLE:    32 TIME:   0.008 TIME LEFT:  2.00D  GRAD.:     0.099 HEAT:  31.70875
 CYCLE:    33 TIME:   0.004 TIME LEFT:  2.00D  GRAD.:     0.101 HEAT:  31.70875
 CYCLE:    34 TIME:   0.008 TIME LEFT:  2.00D  GRAD.:     0.062 HEAT:  31.70875
 CYCLE:    35 TIME:   0.004 TIME LEFT:  2.00D  GRAD.:     0.064 HEAT:  31.70875
 CYCLE:    36 TIME:   0.008 TIME LEFT:  2.00D  GRAD.:     0.042 HEAT:  31.70874

     GRADIENT =  0.04248 IS LESS THAN CUTOFF =  0.05000



 -------------------------------------------------------------------------------
 pm3  precise nosym THREADS=1
 InChI=1S/C10H10/c1-8-6-9-4-2-3-5-10(9)7-8/h2-5H,1,6-7H2



     GEOMETRY OPTIMISED USING EIGENVECTOR FOLLOWING (EF).     
     SCF FIELD WAS ACHIEVED                                   


                              PM3 CALCULATION
                                                       MOPAC v23.1.2 MacOS
                                                       Tue Jun  3 16:33:56 2025




          FINAL HEAT OF FORMATION =         31.70874 KCAL/MOL =     132.66938 KJ/MOL


          COSMO AREA              =        173.84 SQUARE ANGSTROMS
          COSMO VOLUME            =        172.98 CUBIC ANGSTROMS

          GRADIENT NORM           =          0.04248          =       0.00950 PER ATOM
          IONIZATION POTENTIAL    =          9.199114 EV
          HOMO LUMO ENERGIES (EV) =         -9.199  0.350
          NO. OF FILLED LEVELS    =         25
          MOLECULAR WEIGHT        =        130.1890         POINT GROUP:  C1  

          MOLECULAR DIMENSIONS (Angstroms)

            Atom       Atom       Distance
            H    20    H    17     7.81543
            H    16    H    12     5.04629
            H    11    H    14     2.37781


          SCF CALCULATIONS        =         44

          WALL-CLOCK TIME         =      0.281 SECONDS
          COMPUTATION TIME        =      0.178 SECONDS




   ATOM   CHEMICAL          X               Y               Z
  NUMBER   SYMBOL      (ANGSTROMS)     (ANGSTROMS)     (ANGSTROMS)

     1       C          1.03729067  *  -0.09287893  *  -1.23633807  *
     2       C          1.03644226  *   0.33435850  *   1.19465443  *
     3       C          1.89358067  *   0.22107293  *  -0.03817384  *
     4       C         -0.35146645  *  -0.16315457  *  -0.68510091  *
     5       C         -0.35197154  *   0.08042375  *   0.69944445  *
     6       C         -1.53224226  *  -0.42356393  *  -1.35800862  *
     7       C         -1.53331644  *   0.06542977  *   1.41989919  *
     8       C         -2.72377454  *  -0.43818849  *  -0.62951690  *
     9       C         -2.72431723  *  -0.19713633  *   0.73928465  *
    10       C          3.21214374  *   0.37557790  *  -0.06490009  *
    11       H          1.12649666  *   0.68797483  *  -2.01477723  *
    12       H          1.33560473  *  -1.04717360  *  -1.70957377  *
    13       H          1.12543944  *   1.33373695  *   1.66045713  *
    14       H          1.33415988  *  -0.40156942  *   1.96497282  *
    15       H         -1.53238126  *  -0.61356123  *  -2.43558547  *
    16       H         -1.53431904  *   0.25492376  *   2.49755807  *
    17       H         -3.66773932  *  -0.64223544  *  -1.14535918  *
    18       H         -3.66872189  *  -0.21267453  *   1.29304926  *
    19       H          3.79298133  *   0.28530045  *  -0.97746304  *
    20       H          3.79243828  *   0.60192038  *   0.82409736  *

                             CARTESIAN COORDINATES

   1    C        1.037290665    -0.092878930    -1.236338071
   2    C        1.036442261     0.334358500     1.194654427
   3    C        1.893580671     0.221072927    -0.038173842
   4    C       -0.351466451    -0.163154572    -0.685100915
   5    C       -0.351971542     0.080423748     0.699444447
   6    C       -1.532242262    -0.423563935    -1.358008620
   7    C       -1.533316440     0.065429773     1.419899187
   8    C       -2.723774540    -0.438188491    -0.629516901
   9    C       -2.724317229    -0.197136325     0.739284647
  10    C        3.212143742     0.375577897    -0.064900091
  11    H        1.126496665     0.687974835    -2.014777230
  12    H        1.335604734    -1.047173595    -1.709573772
  13    H        1.125439443     1.333736945     1.660457128
  14    H        1.334159883    -0.401569422     1.964972824
  15    H       -1.532381258    -0.613561230    -2.435585472
  16    H       -1.534319041     0.254923758     2.497558065
  17    H       -3.667739321    -0.642235440    -1.145359182
  18    H       -3.668721894    -0.212674531     1.293049255
  19    H        3.792981327     0.285300452    -0.977463038
  20    H        3.792438276     0.601920383     0.824097357


           Empirical Formula: C10 H10  =    20 atoms



      MOLECULAR POINT GROUP   :   C1  


                  EIGENVALUES  
 -41.49003 -35.93221 -30.89232 -29.60739 -26.51398 -24.61539 -21.10247 -20.24149
 -18.77360 -17.55491 -16.40259 -15.74955 -15.73080 -14.89926 -14.71251 -14.03979
 -13.76513 -13.76459 -12.76541 -12.69351 -12.27302 -12.16700 -10.12651  -9.63659
  -9.19911   0.35025   0.40849   1.04347   2.75782   3.10149   3.11811   3.46849
   3.47612   3.59170   3.59518   3.90839   3.94048   4.04923   4.16670   4.42508
   4.42591   4.52755   4.99266   5.05019   5.28774   5.32825   5.53653   5.92169
   6.16324   6.40085


              NET ATOMIC CHARGES AND DIPOLE CONTRIBUTIONS

  ATOM NO.   TYPE          CHARGE      No. of ELECS.   s-Pop       p-Pop       
    1          C          -0.004618        4.0046     1.13461     2.87001
    2          C          -0.004608        4.0046     1.13461     2.87000
    3          C          -0.116634        4.1166     1.20688     2.90975
    4          C          -0.088216        4.0882     1.18723     2.90099
    5          C          -0.088211        4.0882     1.18723     2.90099
    6          C          -0.085940        4.0859     1.17170     2.91424
    7          C          -0.085939        4.0859     1.17170     2.91424
    8          C          -0.103691        4.1037     1.17918     2.92451
    9          C          -0.103692        4.1037     1.17918     2.92451
   10          C          -0.172407        4.1724     1.17633     2.99608
   11          H           0.067158        0.9328     0.93284
   12          H           0.067161        0.9328     0.93284
   13          H           0.067156        0.9328     0.93284
   14          H           0.067163        0.9328     0.93284
   15          H           0.105787        0.8942     0.89421
   16          H           0.105784        0.8942     0.89422
   17          H           0.101393        0.8986     0.89861
   18          H           0.101394        0.8986     0.89861
   19          H           0.085479        0.9145     0.91452
   20          H           0.085482        0.9145     0.91452
 DIPOLE           X         Y         Z       TOTAL
 POINT-CHG.     0.081     0.010    -0.002     0.082
 HYBRID         0.020     0.002    -0.000     0.020
 SUM            0.101     0.012    -0.002     0.102


          ATOMIC ORBITAL ELECTRON POPULATIONS

     Atom    s        px        py        pz   
    1  C   1.13461   0.91013   1.00853   0.95134
    2  C   1.13461   0.91011   1.00943   0.95046
    3  C   1.20688   0.95657   0.99302   0.96016
    4  C   1.18723   0.95160   0.99987   0.94952
    5  C   1.18723   0.95159   1.00020   0.94920
    6  C   1.17170   0.92934   1.00504   0.97986
    7  C   1.17170   0.92932   1.00557   0.97935
    8  C   1.17918   0.97043   1.00416   0.94992
    9  C   1.17918   0.97046   1.00260   0.95145
   10  C   1.17633   0.94657   1.03360   1.01591
   11  H   0.93284
   12  H   0.93284
   13  H   0.93284
   14  H   0.93284
   15  H   0.89421
   16  H   0.89422
   17  H   0.89861
   18  H   0.89861
   19  H   0.91452
   20  H   0.91452
 *******************************************************************************
 **                                                                           **
 **                              MOPAC v23.1.2                                **
 **                                                                           **
 *******************************************************************************
 **          Digital Object Identifier (DOI): 10.5281/zenodo.6511958          **
 **    Visit the DOI location for information on how to cite this program.    **
 *******************************************************************************

                              PM3 CALCULATION RESULTS

 *******************************************************************************
 *  CALCULATION DONE: (MAX THREADS = 1)              Tue Jun  3 16:33:56 2025  *
 *  PM3        - The PM3 Hamiltonian to be used
 *  OLDGEO     - PREVIOUS GEOMETRY TO BE USED
 *  PRECISE    - TIGHTER CRITERIA TO BE USED
 *  NOSYM      - POINT-GROUP SYMMETRY SET TO C1
 *  THREADS=1  - MULTI-THREADING NOT USED
 *  T=         - A TIME OF 172800.0 SECONDS REQUESTED
 *  DUMP=N     - RESTART FILE WRITTEN EVERY 7200.0 SECONDS REQUESTED
 *  THERMO     - THERMODYNAMIC QUANTITIES TO BE CALCULATED
 *******************************************************************************
oldgeo thermo nosym precise THREADS=1  pm3
 InChI=1S/C10H10/c1-8-6-9-4-2-3-5-10(9)7-8/h2-5H,1,6-7H2

   ATOM   CHEMICAL          X               Y               Z
  NUMBER   SYMBOL      (ANGSTROMS)     (ANGSTROMS)     (ANGSTROMS)

     1       C          1.03729067  *  -0.09287893  *  -1.23633807  *
     2       C          1.03644226  *   0.33435850  *   1.19465443  *
     3       C          1.89358067  *   0.22107293  *  -0.03817384  *
     4       C         -0.35146645  *  -0.16315457  *  -0.68510091  *
     5       C         -0.35197154  *   0.08042375  *   0.69944445  *
     6       C         -1.53224226  *  -0.42356393  *  -1.35800862  *
     7       C         -1.53331644  *   0.06542977  *   1.41989919  *
     8       C         -2.72377454  *  -0.43818849  *  -0.62951690  *
     9       C         -2.72431723  *  -0.19713633  *   0.73928465  *
    10       C          3.21214374  *   0.37557790  *  -0.06490009  *
    11       H          1.12649666  *   0.68797483  *  -2.01477723  *
    12       H          1.33560473  *  -1.04717360  *  -1.70957377  *
    13       H          1.12543944  *   1.33373695  *   1.66045713  *
    14       H          1.33415988  *  -0.40156942  *   1.96497282  *
    15       H         -1.53238126  *  -0.61356123  *  -2.43558547  *
    16       H         -1.53431904  *   0.25492376  *   2.49755807  *
    17       H         -3.66773932  *  -0.64223544  *  -1.14535918  *
    18       H         -3.66872189  *  -0.21267453  *   1.29304926  *
    19       H          3.79298133  *   0.28530045  *  -0.97746304  *
    20       H          3.79243828  *   0.60192038  *   0.82409736  *



          CARTESIAN COORDINATES 

    NO.       ATOM           X           Y           Z

     1         C          1.0373     -0.0929     -1.2363
     2         C          1.0364      0.3344      1.1947
     3         C          1.8936      0.2211     -0.0382
     4         C         -0.3515     -0.1632     -0.6851
     5         C         -0.3520      0.0804      0.6994
     6         C         -1.5322     -0.4236     -1.3580
     7         C         -1.5333      0.0654      1.4199
     8         C         -2.7238     -0.4382     -0.6295
     9         C         -2.7243     -0.1971      0.7393
    10         C          3.2121      0.3756     -0.0649
    11         H          1.1265      0.6880     -2.0148
    12         H          1.3356     -1.0472     -1.7096
    13         H          1.1254      1.3337      1.6605
    14         H          1.3342     -0.4016      1.9650
    15         H         -1.5324     -0.6136     -2.4356
    16         H         -1.5343      0.2549      2.4976
    17         H         -3.6677     -0.6422     -1.1454
    18         H         -3.6687     -0.2127      1.2930
    19         H          3.7930      0.2853     -0.9775
    20         H          3.7924      0.6019      0.8241

  H: (PM3): J. J. P. STEWART, J. COMP. CHEM. 10, 209 (1989).
  C: (PM3): J. J. P. STEWART, J. COMP. CHEM. 10, 209 (1989).

           Empirical Formula: C10 H10  =    20 atoms



      MOLECULAR POINT GROUP   :   C1  


      RHF CALCULATION, NO. OF DOUBLY OCCUPIED LEVELS = 25



          HEAT OF FORMATION =      31.708745 KCALS/MOLE


          CARTESIAN COORDINATE DERIVATIVES

   NUMBER  ATOM         X            Y            Z

     1       C     -0.005030    -0.003093    -0.002311
     2       C     -0.000563    -0.014311    -0.015681
     3       C      0.004123     0.004707     0.002205
     4       C     -0.011465    -0.017703    -0.004221
     5       C      0.022043     0.000504     0.001230
     6       C     -0.005120     0.024390    -0.001258
     7       C      0.001802     0.020619    -0.005310
     8       C      0.030585     0.001029     0.000256
     9       C     -0.026608    -0.001672     0.003825
    10       C      0.000455    -0.002081     0.001588
    11       H     -0.001334    -0.003725     0.005399
    12       H      0.000956    -0.000023     0.004601
    13       H      0.002394    -0.000874     0.002683
    14       H     -0.005178    -0.002368     0.006982
    15       H      0.002561    -0.005440    -0.008792
    16       H     -0.007562    -0.006486    -0.002421
    17       H     -0.005131     0.000886     0.002741
    18       H      0.004869     0.001011     0.007512
    19       H     -0.001065     0.001417     0.000843
    20       H     -0.000730     0.003213     0.000129



          GRADIENT NORM =   0.06888

          MOLECULAR WEIGHT =  130.19



          ROTATIONAL CONSTANTS IN CM(-1)

          A =    0.11833263   B =    0.03346693   C =    0.02634726



           PRINCIPAL MOMENTS OF INERTIA IN UNITS OF 10**(-40)*GRAM-CM**2

          A =      236.5599   B =      836.4303   C =     1062.4541


          ORIENTATION OF MOLECULE IN FORCE CALCULATION

    NO.       ATOM         X         Y         Z

     1          C      -1.2341    1.2170   -0.0008
     2          C       1.2341    1.2170   -0.0008
     3          C       0.0000    2.0797   -0.0008
     4          C      -0.7029   -0.1813   -0.0004
     5          C       0.7029   -0.1813   -0.0001
     6          C      -1.4103   -1.3706   -0.0000
     7          C       1.4103   -1.3706    0.0008
     8          C      -0.6949   -2.5701    0.0011
     9          C       0.6949   -2.5702    0.0016
    10          C      -0.0000    3.4076   -0.0007
    11          H      -1.8657    1.4120    0.8862
    12          H      -1.8655    1.4117   -0.8879
    13          H       1.8659    1.4122    0.8861
    14          H       1.8653    1.4116   -0.8881
    15          H      -2.5045   -1.3712   -0.0005
    16          H       2.5045   -1.3712    0.0010
    17          H      -1.2380   -3.5209    0.0016
    18          H       1.2380   -3.5209    0.0026
    19          H      -0.9146    3.9922   -0.0006
    20          H       0.9145    3.9923   -0.0006


    FIRST DERIVATIVES WILL BE USED IN THE CALCULATION OF SECOND DERIVATIVES

          ESTIMATED TIME TO COMPLETE CALCULATION =        1.88 SECONDS

    FOR POINT-GROUP C1   THERE ARE   1 UNIQUE SYMMETRY FUNCTIONS.

 STEP:   1 TIME =     0.02 SECS, INTEGRAL =      0.02 TIME LEFT: 172799.98
 STEP:   2 TIME =     0.02 SECS, INTEGRAL =      0.04 TIME LEFT: 172799.96
 STEP:   3 TIME =     0.02 SECS, INTEGRAL =      0.05 TIME LEFT: 172799.94
 STEP:   4 TIME =     0.02 SECS, INTEGRAL =      0.07 TIME LEFT: 172799.92
 STEP:   5 TIME =     0.02 SECS, INTEGRAL =      0.09 TIME LEFT: 172799.90
 STEP:   6 TIME =     0.02 SECS, INTEGRAL =      0.11 TIME LEFT: 172799.88
 STEP:   7 TIME =     0.02 SECS, INTEGRAL =      0.13 TIME LEFT: 172799.86
 STEP:   8 TIME =     0.02 SECS, INTEGRAL =      0.15 TIME LEFT: 172799.84
 STEP:   9 TIME =     0.02 SECS, INTEGRAL =      0.17 TIME LEFT: 172799.82
 STEP:  10 TIME =     0.03 SECS, INTEGRAL =      0.20 TIME LEFT: 172799.79
 STEP:  11 TIME =     0.02 SECS, INTEGRAL =      0.22 TIME LEFT: 172799.77
 STEP:  12 TIME =     0.02 SECS, INTEGRAL =      0.24 TIME LEFT: 172799.75
 STEP:  13 TIME =     0.02 SECS, INTEGRAL =      0.27 TIME LEFT: 172799.73
 STEP:  14 TIME =     0.02 SECS, INTEGRAL =      0.29 TIME LEFT: 172799.70
 STEP:  15 TIME =     0.02 SECS, INTEGRAL =      0.31 TIME LEFT: 172799.68
 STEP:  16 TIME =     0.02 SECS, INTEGRAL =      0.33 TIME LEFT: 172799.66
 STEP:  17 TIME =     0.02 SECS, INTEGRAL =      0.36 TIME LEFT: 172799.64
 STEP:  18 TIME =     0.02 SECS, INTEGRAL =      0.38 TIME LEFT: 172799.61
 STEP:  19 TIME =     0.02 SECS, INTEGRAL =      0.40 TIME LEFT: 172799.59
 STEP:  20 TIME =     0.03 SECS, INTEGRAL =      0.43 TIME LEFT: 172799.57
 STEP:  21 TIME =     0.02 SECS, INTEGRAL =      0.45 TIME LEFT: 172799.54
 STEP:  22 TIME =     0.02 SECS, INTEGRAL =      0.47 TIME LEFT: 172799.52
 STEP:  23 TIME =     0.02 SECS, INTEGRAL =      0.50 TIME LEFT: 172799.50
 STEP:  24 TIME =     0.02 SECS, INTEGRAL =      0.52 TIME LEFT: 172799.47
 STEP:  25 TIME =     0.02 SECS, INTEGRAL =      0.54 TIME LEFT: 172799.45
 STEP:  26 TIME =     0.02 SECS, INTEGRAL =      0.56 TIME LEFT: 172799.43
 STEP:  27 TIME =     0.02 SECS, INTEGRAL =      0.59 TIME LEFT: 172799.41
 STEP:  28 TIME =     0.02 SECS, INTEGRAL =      0.61 TIME LEFT: 172799.39
 STEP:  29 TIME =     0.02 SECS, INTEGRAL =      0.62 TIME LEFT: 172799.37
 STEP:  30 TIME =     0.02 SECS, INTEGRAL =      0.65 TIME LEFT: 172799.34
 STEP:  31 TIME =     0.02 SECS, INTEGRAL =      0.67 TIME LEFT: 172799.32
 STEP:  32 TIME =     0.02 SECS, INTEGRAL =      0.69 TIME LEFT: 172799.30
 STEP:  33 TIME =     0.02 SECS, INTEGRAL =      0.71 TIME LEFT: 172799.29
 STEP:  34 TIME =     0.02 SECS, INTEGRAL =      0.73 TIME LEFT: 172799.27
 STEP:  35 TIME =     0.02 SECS, INTEGRAL =      0.75 TIME LEFT: 172799.24
 STEP:  36 TIME =     0.02 SECS, INTEGRAL =      0.77 TIME LEFT: 172799.22
 STEP:  37 TIME =     0.02 SECS, INTEGRAL =      0.79 TIME LEFT: 172799.20
 STEP:  38 TIME =     0.02 SECS, INTEGRAL =      0.81 TIME LEFT: 172799.18
 STEP:  39 TIME =     0.02 SECS, INTEGRAL =      0.83 TIME LEFT: 172799.16
 STEP:  40 TIME =     0.02 SECS, INTEGRAL =      0.85 TIME LEFT: 172799.14
 STEP:  41 TIME =     0.02 SECS, INTEGRAL =      0.87 TIME LEFT: 172799.12
 STEP:  42 TIME =     0.02 SECS, INTEGRAL =      0.89 TIME LEFT: 172799.11
 STEP:  43 TIME =     0.02 SECS, INTEGRAL =      0.90 TIME LEFT: 172799.09
 STEP:  44 TIME =     0.02 SECS, INTEGRAL =      0.93 TIME LEFT: 172799.07
 STEP:  45 TIME =     0.02 SECS, INTEGRAL =      0.95 TIME LEFT: 172799.04
 STEP:  46 TIME =     0.02 SECS, INTEGRAL =      0.97 TIME LEFT: 172799.02
 STEP:  47 TIME =     0.02 SECS, INTEGRAL =      0.99 TIME LEFT: 172799.00
 STEP:  48 TIME =     0.02 SECS, INTEGRAL =      1.01 TIME LEFT: 172798.98
 STEP:  49 TIME =     0.02 SECS, INTEGRAL =      1.03 TIME LEFT: 172798.96
 STEP:  50 TIME =     0.02 SECS, INTEGRAL =      1.05 TIME LEFT: 172798.95
 STEP:  51 TIME =     0.02 SECS, INTEGRAL =      1.07 TIME LEFT: 172798.92
 STEP:  52 TIME =     0.02 SECS, INTEGRAL =      1.09 TIME LEFT: 172798.90
 STEP:  53 TIME =     0.02 SECS, INTEGRAL =      1.11 TIME LEFT: 172798.88
 STEP:  54 TIME =     0.02 SECS, INTEGRAL =      1.13 TIME LEFT: 172798.86
 STEP:  55 TIME =     0.02 SECS, INTEGRAL =      1.15 TIME LEFT: 172798.84
 STEP:  56 TIME =     0.02 SECS, INTEGRAL =      1.17 TIME LEFT: 172798.82
 STEP:  57 TIME =     0.02 SECS, INTEGRAL =      1.19 TIME LEFT: 172798.80
 STEP:  58 TIME =     0.02 SECS, INTEGRAL =      1.21 TIME LEFT: 172798.78
 STEP:  59 TIME =     0.02 SECS, INTEGRAL =      1.23 TIME LEFT: 172798.76
 STEP:  60 TIME =     0.02 SECS, INTEGRAL =      1.25 TIME LEFT: 172798.74

(To convert to Hartree/Bohr^2, multiply by (10^(-21) x N x a0^2)/(4.184 x 627.51) =  0.0642)


           FORCE MATRIX IN MILLIDYNES/ANGSTROM


                  C  1       C  2       C  3       C  4       C  5       C  6
 ------------------------------------------------------------------------------
     C    1  14.935209
     C    2   0.705087  14.935533
     C    3   4.357886   4.357987  18.951742
     C    4   4.665942   0.993336   0.997244  18.320048
     C    5   0.993306   4.666358   0.997257   6.283761  18.319844
     C    6   0.559102   0.086535   0.053741   7.241416   2.398933  17.349753
     C    7   0.086533   0.559078   0.053740   2.398729   7.241374   1.831006
     C    8   0.100839   0.015153   0.008648   2.562489   1.856867   6.762660
     C    9   0.015161   0.100819   0.008648   1.856639   2.562661   2.501442
     C   10   0.719006   0.718950  10.929796   0.055162   0.055162   0.010302
     H   11   4.491574   0.026902   0.434512   0.436174   0.030085   0.016486
     H   12   4.491988   0.026883   0.434497   0.436210   0.030089   0.016481
     H   13   0.026905   4.491678   0.434515   0.030106   0.436198   0.010269
     H   14   0.026879   4.492026   0.434489   0.030069   0.436187   0.010270
     H   15   0.038763   0.008410   0.001947   0.450945   0.091777   4.879272
     H   16   0.008412   0.038767   0.001947   0.091789   0.450947   0.011507
     H   17   0.007252   0.008097   0.001732   0.089548   0.008796   0.436367
     H   18   0.008086   0.007248   0.001732   0.008805   0.089518   0.089748
     H   19   0.089799   0.127435   0.479191   0.002199   0.006333   0.001136
     H   20   0.127435   0.089794   0.479192   0.006332   0.002199   0.001653


                  C  7       C  8       C  9       C 10       H 11       H 12
 ------------------------------------------------------------------------------
     C    7  17.349936
     C    8   2.501462  17.113589
     C    9   6.762670   7.005065  17.113658
     C   10   0.010302   0.001723   0.001723  18.108803
     H   11   0.010269   0.010863   0.002529   0.021220   5.086877
     H   12   0.010268   0.010861   0.002528   0.021220   0.556424   5.087329
     H   13   0.016472   0.002524   0.010852   0.021217   0.002249   0.001261
     H   14   0.016491   0.002532   0.010864   0.021218   0.001260   0.002247
     H   15   0.011506   0.440432   0.087750   0.001010   0.005538   0.005538
     H   16   4.879424   0.087777   0.440433   0.001011   0.001054   0.001054
     H   17   0.089774   4.858886   0.438401   0.000774   0.000678   0.000678
     H   18   0.436381   0.438387   4.858909   0.000773   0.001057   0.001057
     H   19   0.001653   0.000251   0.000264   5.111065   0.011021   0.011021
     H   20   0.001136   0.000264   0.000251   5.111132   0.013157   0.013163


                  H 13       H 14       H 15       H 16       H 17       H 18
 ------------------------------------------------------------------------------
     H   13   5.087026
     H   14   0.556448   5.087347
     H   15   0.001054   0.001054   5.248783
     H   16   0.005539   0.005539   0.008770   5.248932
     H   17   0.001059   0.001059   0.039715   0.007007   5.223854
     H   18   0.000676   0.000676   0.006999   0.039707   0.043698   5.223874
     H   19   0.013154   0.013166   0.000299   0.000204   0.000180   0.000175
     H   20   0.011018   0.011021   0.000204   0.000299   0.000175   0.000180


                  H 19       H 20
 ------------------------------
     H   19   5.490414
     H   20   0.410962   5.490488


          HEAT OF FORMATION =      31.708745 KCALS/MOLE

          ZERO POINT ENERGY     105.046 KCAL/MOL


           NORMAL COORDINATE ANALYSIS (Total motion = 1 Angstrom)


   Root No.       1         2         3         4         5         6         7         8

                 1 A       2 A       3 A       4 A       5 A       6 A       7 A       8 A   

                  67.8     163.0     233.9     280.8     394.6     445.9     457.0     467.8
  
           1    0.0000    0.0000   -0.0000   -0.0286   -0.0000    0.0000    0.0194   -0.0000
           2   -0.0000   -0.0000    0.0000    0.0084    0.0000   -0.0000    0.0304   -0.0001
           3   -0.0484   -0.0477   -0.0261   -0.0000   -0.0026   -0.0049   -0.0000   -0.0007
           4   -0.0000    0.0000   -0.0000   -0.0286   -0.0000   -0.0000    0.0194   -0.0000
           5   -0.0000    0.0000   -0.0000   -0.0084    0.0000    0.0000   -0.0304    0.0001
           6   -0.0484    0.0477   -0.0260    0.0001   -0.0026   -0.0049    0.0000    0.0007
           7    0.0000    0.0000   -0.0000   -0.0183   -0.0000   -0.0000    0.0481   -0.0001
           8   -0.0000    0.0000    0.0000   -0.0000    0.0000    0.0000    0.0000   -0.0000
           9   -0.0038    0.0000   -0.0204    0.0000    0.0038    0.0997    0.0000    0.0000
          10    0.0000    0.0000   -0.0000   -0.0365    0.0000    0.0000   -0.0401    0.0001
          11   -0.0000    0.0000    0.0000   -0.0032    0.0000   -0.0000    0.0044    0.0000
          12   -0.0269    0.0010    0.0472   -0.0000    0.0539   -0.0146    0.0001    0.0413
          13    0.0000    0.0000   -0.0000   -0.0365    0.0000    0.0000   -0.0401    0.0001
          14   -0.0000   -0.0000    0.0000    0.0032    0.0000   -0.0000   -0.0044   -0.0000
          15   -0.0269   -0.0010    0.0471   -0.0000    0.0539   -0.0145   -0.0001   -0.0413
          16   -0.0000   -0.0000   -0.0000   -0.0030    0.0000    0.0000   -0.0119    0.0000
          17    0.0000    0.0000    0.0000   -0.0257   -0.0000   -0.0000   -0.0172    0.0001
          18    0.0015    0.0389    0.0351   -0.0000   -0.0511    0.0045    0.0000    0.0249
          19   -0.0000    0.0000   -0.0000   -0.0030    0.0000   -0.0000   -0.0119    0.0000
          20    0.0000   -0.0000    0.0000    0.0257   -0.0001   -0.0000    0.0172   -0.0001
          21    0.0015   -0.0389    0.0351   -0.0000   -0.0510    0.0045   -0.0001   -0.0249
          22   -0.0000   -0.0000    0.0000    0.0282   -0.0000   -0.0000    0.0185   -0.0000
          23    0.0000    0.0000   -0.0000   -0.0102    0.0000   -0.0000   -0.0042   -0.0000
          24    0.0325    0.0302   -0.0361    0.0000    0.0184   -0.0019   -0.0001   -0.0535
          25   -0.0000    0.0000    0.0000    0.0282   -0.0000   -0.0000    0.0185   -0.0001
          26    0.0000   -0.0000   -0.0000    0.0102   -0.0000   -0.0000    0.0042    0.0000
          27    0.0325   -0.0302   -0.0361    0.0000    0.0184   -0.0019    0.0001    0.0535
          28    0.0000   -0.0000    0.0000    0.0769    0.0000    0.0000   -0.0213    0.0000
          29   -0.0000    0.0000    0.0000    0.0000    0.0000    0.0001    0.0000   -0.0000
          30    0.0815   -0.0000    0.0062   -0.0000   -0.0027   -0.0275   -0.0000    0.0000
          31   -0.0370   -0.0527   -0.0411   -0.0262   -0.0425   -0.1116    0.0301   -0.0456
          32    0.0020    0.0196    0.0432    0.0139    0.0378   -0.0259    0.0641    0.0390
          33   -0.0754   -0.0901   -0.0655    0.0000   -0.0422   -0.0812    0.0000   -0.0433
          34    0.0370    0.0527    0.0411   -0.0261    0.0425    0.1117    0.0304    0.0455
          35   -0.0020   -0.0197   -0.0432    0.0139   -0.0378    0.0259    0.0640   -0.0394
          36   -0.0754   -0.0901   -0.0655   -0.0001   -0.0422   -0.0812   -0.0003   -0.0433
          37    0.0370   -0.0527    0.0410   -0.0262    0.0425    0.1116    0.0302   -0.0456
          38    0.0020   -0.0196    0.0431   -0.0140    0.0378   -0.0259   -0.0641   -0.0390
          39   -0.0754    0.0902   -0.0655    0.0001   -0.0422   -0.0812   -0.0001    0.0433
          40   -0.0370    0.0528   -0.0410   -0.0261   -0.0426   -0.1117    0.0303    0.0455
          41   -0.0020    0.0197   -0.0432   -0.0139   -0.0378    0.0259   -0.0639    0.0394
          42   -0.0754    0.0901   -0.0654    0.0002   -0.0422   -0.0812    0.0003    0.0432
          43   -0.0000   -0.0000   -0.0000   -0.0029    0.0001   -0.0000   -0.0119    0.0000
          44   -0.0000    0.0000    0.0000   -0.0613   -0.0001    0.0000   -0.0564    0.0002
          45    0.0025    0.0700    0.0520   -0.0000   -0.1812    0.0298    0.0001    0.0518
          46   -0.0000    0.0000   -0.0000   -0.0029    0.0000   -0.0000   -0.0119    0.0000
          47    0.0000   -0.0001    0.0001    0.0613   -0.0002   -0.0000    0.0564   -0.0002
          48    0.0025   -0.0701    0.0519   -0.0001   -0.1812    0.0298   -0.0002   -0.0519
          49   -0.0000   -0.0000    0.0000    0.0482   -0.0000   -0.0000    0.0356   -0.0000
          50    0.0000    0.0000   -0.0001   -0.0218    0.0000   -0.0000   -0.0142   -0.0001
          51    0.0579    0.0628   -0.0943    0.0000    0.0422    0.0015   -0.0003   -0.1684
          52   -0.0000    0.0000    0.0000    0.0482   -0.0000   -0.0000    0.0356   -0.0002
          53    0.0001   -0.0001   -0.0001    0.0218    0.0000   -0.0000    0.0142    0.0001
          54    0.0579   -0.0627   -0.0943    0.0000    0.0422    0.0014    0.0004    0.1684
          55    0.0000   -0.0000    0.0000    0.1321    0.0000    0.0000   -0.0755    0.0002
          56   -0.0000   -0.0000    0.0000    0.0842    0.0000    0.0001   -0.0818    0.0002
          57    0.1196   -0.0369    0.0189   -0.0000   -0.0058   -0.0984   -0.0000    0.0111
          58    0.0000   -0.0000    0.0000    0.1321    0.0000    0.0000   -0.0755    0.0002
          59   -0.0000    0.0000   -0.0000   -0.0842   -0.0000    0.0000    0.0818   -0.0002
          60    0.1196    0.0369    0.0189    0.0000   -0.0058   -0.0984   -0.0000   -0.0112


   Root No.       9        10        11        12        13        14        15        16

                 9 A      10 A      11 A      12 A      13 A      14 A      15 A      16 A   

                 496.2     590.1     599.2     656.8     673.4     766.6     860.1     864.2
  
           1    0.0225   -0.0367    0.0001   -0.0427    0.0000   -0.0000   -0.0001   -0.0262
           2    0.0262    0.0440   -0.0001    0.0223   -0.0000    0.0000    0.0001    0.0346
           3   -0.0000   -0.0000   -0.0047    0.0000    0.0150    0.0076   -0.0234    0.0001
           4   -0.0225   -0.0367    0.0000    0.0427   -0.0000    0.0000   -0.0001   -0.0262
           5    0.0262   -0.0440    0.0001    0.0223   -0.0000    0.0000   -0.0001   -0.0346
           6   -0.0000    0.0000    0.0047   -0.0000   -0.0150    0.0076    0.0234   -0.0001
           7   -0.0000   -0.0195    0.0000    0.0000   -0.0000    0.0000   -0.0000   -0.0005
           8    0.0716   -0.0000    0.0000   -0.0384    0.0000   -0.0000   -0.0000   -0.0000
           9   -0.0001   -0.0000   -0.0000    0.0000   -0.0000   -0.0088   -0.0000    0.0000
          10    0.0030   -0.0025    0.0000   -0.0006   -0.0000   -0.0000    0.0000    0.0138
          11   -0.0034    0.0494   -0.0001    0.0409   -0.0000    0.0000    0.0001    0.0131
          12   -0.0000   -0.0001   -0.0075    0.0000    0.0469    0.0098    0.0065   -0.0001
          13   -0.0030   -0.0025    0.0000    0.0006    0.0000    0.0000    0.0000    0.0138
          14   -0.0034   -0.0494    0.0001    0.0409   -0.0001    0.0000   -0.0000   -0.0131
          15   -0.0000    0.0000    0.0075   -0.0001   -0.0469    0.0098   -0.0065    0.0000
          16    0.0375    0.0258   -0.0000    0.0625   -0.0000    0.0000    0.0001    0.0462
          17   -0.0375    0.0491   -0.0001    0.0085   -0.0000   -0.0000   -0.0000   -0.0106
          18    0.0000    0.0000    0.0092   -0.0000   -0.0171   -0.0165    0.0266   -0.0001
          19   -0.0375    0.0258   -0.0000   -0.0625    0.0000    0.0000    0.0001    0.0462
          20   -0.0375   -0.0491    0.0001    0.0085    0.0000   -0.0000    0.0000    0.0106
          21    0.0000    0.0000   -0.0092    0.0000    0.0171   -0.0166   -0.0266    0.0002
          22    0.0008    0.0357   -0.0000    0.0048   -0.0000    0.0000   -0.0001   -0.0337
          23   -0.0647    0.0528   -0.0001   -0.0308    0.0000   -0.0000   -0.0002   -0.0561
          24    0.0000   -0.0001   -0.0092    0.0000    0.0173   -0.0249    0.0137   -0.0001
          25   -0.0008    0.0357   -0.0000   -0.0048    0.0000   -0.0000   -0.0001   -0.0337
          26   -0.0647   -0.0528    0.0001   -0.0308    0.0000   -0.0000    0.0002    0.0561
          27    0.0001    0.0001    0.0092    0.0000   -0.0173   -0.0248   -0.0137    0.0000
          28   -0.0000   -0.0118    0.0000    0.0000   -0.0000    0.0000    0.0000    0.0085
          29    0.0814   -0.0000    0.0000   -0.0484    0.0000   -0.0000   -0.0000   -0.0000
          30    0.0000    0.0000   -0.0000   -0.0000   -0.0000   -0.0003   -0.0000    0.0000
          31    0.0227   -0.0396    0.0565   -0.0418   -0.0398   -0.0173    0.0642   -0.0273
          32    0.0226    0.0487   -0.0100    0.0410    0.0529    0.0296   -0.0137    0.0581
          33    0.0003   -0.0022    0.0398   -0.0026   -0.0265   -0.0120    0.0276   -0.0050
          34    0.0225   -0.0399   -0.0564   -0.0416    0.0398    0.0173   -0.0644   -0.0265
          35    0.0226    0.0488    0.0099    0.0409   -0.0529   -0.0295    0.0141    0.0580
          36   -0.0002    0.0024    0.0398    0.0025   -0.0265   -0.0120    0.0276    0.0046
          37   -0.0227   -0.0396    0.0564    0.0417   -0.0398    0.0173    0.0642   -0.0273
          38    0.0225   -0.0487    0.0100    0.0409   -0.0529    0.0295    0.0137   -0.0581
          39    0.0003    0.0022   -0.0398   -0.0025    0.0265   -0.0120   -0.0276    0.0050
          40   -0.0225   -0.0399   -0.0564    0.0417    0.0398   -0.0173   -0.0644   -0.0264
          41    0.0226   -0.0487   -0.0099    0.0410    0.0529   -0.0296   -0.0141   -0.0579
          42   -0.0002   -0.0023   -0.0398    0.0025    0.0264   -0.0120   -0.0276   -0.0046
          43    0.0370    0.0260   -0.0001    0.0624    0.0000   -0.0001    0.0002    0.0471
          44   -0.0448    0.0281   -0.0000    0.0098   -0.0001    0.0001    0.0000    0.0422
          45    0.0000    0.0002    0.0344   -0.0001   -0.1173    0.1347   -0.1642    0.0010
          46   -0.0370    0.0260   -0.0000   -0.0624    0.0000   -0.0000    0.0001    0.0471
          47   -0.0448   -0.0281    0.0000    0.0098    0.0001    0.0001   -0.0000   -0.0422
          48    0.0000   -0.0001   -0.0344    0.0001    0.1174    0.1347    0.1642   -0.0010
          49   -0.0198   -0.0130    0.0000   -0.0372   -0.0000   -0.0001   -0.0000   -0.0138
          50   -0.0534    0.0805   -0.0001   -0.0065    0.0001    0.0002   -0.0003   -0.0683
          51   -0.0000   -0.0002   -0.0330    0.0000    0.0584    0.2197   -0.0883    0.0005
          52    0.0198   -0.0130    0.0000    0.0372   -0.0000   -0.0001   -0.0001   -0.0138
          53   -0.0534   -0.0805    0.0001   -0.0065   -0.0001    0.0002    0.0003    0.0683
          54    0.0001    0.0002    0.0330   -0.0001   -0.0584    0.2196    0.0882   -0.0007
          55    0.0029   -0.0127    0.0000   -0.0033   -0.0000   -0.0000   -0.0001   -0.0268
          56    0.0878   -0.0004    0.0000   -0.0552    0.0000   -0.0000   -0.0002   -0.0527
          57    0.0001   -0.0007   -0.2625   -0.0002   -0.0854    0.0096    0.0347   -0.0002
          58   -0.0029   -0.0127    0.0000    0.0033   -0.0000   -0.0000   -0.0001   -0.0268
          59    0.0878    0.0004   -0.0000   -0.0552    0.0000    0.0000    0.0001    0.0527
          60    0.0001    0.0007    0.2625    0.0001    0.0854    0.0096   -0.0347    0.0002


   Root No.      17        18        19        20        21        22        23        24

                17 A      18 A      19 A      20 A      21 A      22 A      23 A      24 A   

                 908.0     920.2     924.3     924.9     943.9     969.7    1001.3    1007.1
  
           1   -0.0102   -0.0000    0.0223    0.0001    0.0657    0.0000   -0.0000   -0.0000
           2    0.0363    0.0000    0.0176    0.0000    0.0084    0.0000    0.0000   -0.0000
           3   -0.0000    0.0289    0.0001   -0.0303    0.0000   -0.0199   -0.0012   -0.0144
           4    0.0102    0.0000    0.0223    0.0000   -0.0657   -0.0000    0.0000    0.0000
           5    0.0363    0.0000   -0.0176   -0.0000    0.0084   -0.0000   -0.0000   -0.0000
           6   -0.0000    0.0288   -0.0001    0.0303   -0.0000   -0.0199    0.0012   -0.0144
           7    0.0000    0.0000   -0.0092   -0.0000   -0.0000   -0.0000    0.0000    0.0000
           8   -0.0109   -0.0000    0.0000   -0.0000   -0.0188   -0.0000    0.0000    0.0000
           9    0.0000   -0.0214   -0.0000   -0.0000   -0.0000    0.0128    0.0000    0.0156
          10   -0.0173   -0.0000   -0.0021   -0.0000    0.0070   -0.0000   -0.0000   -0.0000
          11   -0.0059   -0.0000    0.0052    0.0000    0.0002    0.0000    0.0000    0.0000
          12    0.0000   -0.0108   -0.0001    0.0274   -0.0000    0.0158    0.0026    0.0161
          13    0.0173    0.0000   -0.0021    0.0000   -0.0070   -0.0000   -0.0000   -0.0000
          14   -0.0059   -0.0000   -0.0052   -0.0000    0.0002    0.0000   -0.0000    0.0000
          15    0.0000   -0.0107    0.0001   -0.0274    0.0000    0.0158   -0.0026    0.0161
          16   -0.0343   -0.0000    0.0059    0.0000    0.0170    0.0000    0.0000    0.0000
          17   -0.0184   -0.0000   -0.0022   -0.0000    0.0106   -0.0000   -0.0000   -0.0000
          18    0.0000   -0.0187    0.0000   -0.0143    0.0000   -0.0282   -0.0282   -0.0126
          19    0.0343    0.0000    0.0059    0.0000   -0.0170    0.0000   -0.0000    0.0000
          20   -0.0184   -0.0000    0.0022    0.0000    0.0106   -0.0000    0.0000   -0.0000
          21    0.0000   -0.0187   -0.0000    0.0143   -0.0000   -0.0282    0.0282   -0.0126
          22   -0.0007   -0.0000   -0.0046   -0.0000    0.0010   -0.0000   -0.0000   -0.0000
          23   -0.0064    0.0000   -0.0103   -0.0000   -0.0018    0.0000    0.0000    0.0000
          24   -0.0000    0.0168    0.0001   -0.0152    0.0000    0.0148    0.0465    0.0048
          25    0.0007   -0.0000   -0.0046   -0.0000   -0.0010   -0.0000    0.0000   -0.0000
          26   -0.0064    0.0000    0.0103    0.0000   -0.0018    0.0000   -0.0000    0.0000
          27   -0.0000    0.0168   -0.0000    0.0152   -0.0000    0.0148   -0.0465    0.0049
          28    0.0000    0.0000   -0.0636   -0.0001   -0.0000   -0.0000   -0.0000   -0.0000
          29   -0.0159   -0.0000    0.0000   -0.0000   -0.0356   -0.0000    0.0000    0.0000
          30    0.0000   -0.0099   -0.0000   -0.0000   -0.0000    0.0228   -0.0000   -0.0414
          31    0.0055   -0.0614    0.0360    0.0962    0.1024    0.0511    0.0248    0.0078
          32    0.1131    0.0590    0.0539    0.0470    0.0594   -0.0021    0.0695   -0.0930
          33   -0.0045   -0.0303    0.0019    0.0303    0.0128    0.0186    0.0013    0.0128
          34    0.0055    0.0614    0.0366   -0.0960    0.1025   -0.0511   -0.0248   -0.0078
          35    0.1133   -0.0589    0.0541   -0.0468    0.0595    0.0021   -0.0695    0.0930
          36    0.0045   -0.0303   -0.0021    0.0303   -0.0128    0.0186    0.0014    0.0127
          37   -0.0056    0.0612    0.0361    0.0962   -0.1025   -0.0511    0.0248   -0.0078
          38    0.1131    0.0591   -0.0538   -0.0469    0.0594   -0.0021   -0.0697   -0.0929
          39   -0.0045   -0.0303   -0.0020   -0.0304    0.0128    0.0186   -0.0013    0.0128
          40   -0.0054   -0.0613    0.0366   -0.0962   -0.1024    0.0511   -0.0248    0.0078
          41    0.1133   -0.0589   -0.0542    0.0468    0.0594    0.0021    0.0697    0.0930
          42    0.0045   -0.0302    0.0021   -0.0304   -0.0127    0.0186   -0.0014    0.0127
          43   -0.0356   -0.0001    0.0061   -0.0000    0.0179   -0.0001   -0.0000   -0.0000
          44   -0.0796   -0.0000   -0.0023    0.0000    0.0436    0.0001    0.0001    0.0000
          45   -0.0001    0.0834   -0.0001    0.0601   -0.0001    0.1263    0.0960    0.0555
          46    0.0356    0.0000    0.0061    0.0000   -0.0179   -0.0000    0.0000   -0.0000
          47   -0.0796    0.0000    0.0023   -0.0000    0.0436    0.0001   -0.0001    0.0000
          48   -0.0000    0.0833    0.0002   -0.0601   -0.0000    0.1262   -0.0959    0.0556
          49    0.0373    0.0001    0.0045   -0.0000   -0.0264    0.0000    0.0001    0.0000
          50   -0.0297   -0.0001   -0.0157    0.0000    0.0144   -0.0000   -0.0001   -0.0000
          51    0.0001   -0.0880   -0.0003    0.0891   -0.0001   -0.0644   -0.1699   -0.0174
          52   -0.0373    0.0000    0.0045    0.0000    0.0264    0.0000   -0.0001    0.0000
          53   -0.0297   -0.0001    0.0157   -0.0001    0.0144   -0.0001    0.0002   -0.0000
          54    0.0001   -0.0879    0.0002   -0.0892    0.0001   -0.0644    0.1699   -0.0176
          55   -0.0038   -0.0000    0.0949    0.0001   -0.0132   -0.0000    0.0000    0.0000
          56   -0.0232   -0.0001    0.2411    0.0003   -0.0605    0.0000    0.0000   -0.0000
          57   -0.0000    0.0574   -0.0001    0.0412    0.0000   -0.1040    0.0080    0.1622
          58    0.0038   -0.0000    0.0949    0.0002    0.0132    0.0000    0.0000    0.0000
          59   -0.0232    0.0000   -0.2410   -0.0004   -0.0605    0.0000   -0.0000   -0.0000
          60   -0.0000    0.0574    0.0001   -0.0411    0.0000   -0.1040   -0.0077    0.1622


   Root No.      25        26        27        28        29        30        31        32

                25 A      26 A      27 A      28 A      29 A      30 A      31 A      32 A   

                1049.9    1074.6    1085.7    1107.3    1149.5    1176.0    1189.3    1239.0
  
           1   -0.0000    0.0000   -0.0119   -0.0042    0.0019    0.0073    0.0059    0.0144
           2    0.0000    0.0000    0.0062    0.0070    0.0031    0.0133   -0.0021    0.0362
           3    0.0142   -0.0158   -0.0000   -0.0000   -0.0000    0.0000    0.0000   -0.0000
           4   -0.0000   -0.0000    0.0119   -0.0042   -0.0019    0.0073    0.0059   -0.0144
           5   -0.0000    0.0000    0.0062   -0.0070    0.0031   -0.0133    0.0021    0.0362
           6   -0.0142   -0.0158   -0.0000    0.0000   -0.0000    0.0000    0.0000   -0.0000
           7    0.0000   -0.0000    0.0000   -0.0049    0.0000    0.0113    0.0201    0.0000
           8    0.0000   -0.0000    0.0001   -0.0000   -0.0003    0.0000    0.0000    0.0064
           9   -0.0000    0.0514    0.0000   -0.0000    0.0000   -0.0000    0.0000    0.0000
          10    0.0000    0.0000    0.0032    0.0120    0.0093   -0.0041   -0.0332   -0.0003
          11   -0.0000   -0.0000   -0.0102   -0.0039    0.0044    0.0227    0.0074    0.0142
          12   -0.0367   -0.0072   -0.0000    0.0000   -0.0000   -0.0000   -0.0000   -0.0000
          13   -0.0000    0.0000   -0.0032    0.0120   -0.0093   -0.0041   -0.0332    0.0003
          14    0.0000    0.0000   -0.0102    0.0039    0.0044   -0.0227   -0.0074    0.0142
          15    0.0367   -0.0072    0.0000    0.0000   -0.0000    0.0000   -0.0000   -0.0000
          16    0.0000   -0.0000   -0.0233   -0.0263    0.0088    0.0021    0.0145   -0.0174
          17    0.0000    0.0000    0.0001    0.0085   -0.0048    0.0126   -0.0066   -0.0020
          18    0.0179    0.0024   -0.0000   -0.0000    0.0000   -0.0000    0.0000   -0.0000
          19    0.0000   -0.0000    0.0234   -0.0263   -0.0088    0.0021    0.0145    0.0174
          20   -0.0000    0.0000    0.0002   -0.0085   -0.0048   -0.0126    0.0066   -0.0020
          21   -0.0179    0.0024    0.0000    0.0000    0.0000    0.0000   -0.0000    0.0000
          22    0.0000    0.0000   -0.0217    0.0078    0.0056   -0.0115    0.0096   -0.0118
          23   -0.0000    0.0000   -0.0256    0.0006    0.0037   -0.0042   -0.0087   -0.0137
          24   -0.0124   -0.0007    0.0000    0.0000   -0.0000   -0.0000    0.0000    0.0000
          25   -0.0000   -0.0000    0.0217    0.0078   -0.0056   -0.0115    0.0096    0.0118
          26    0.0000    0.0000   -0.0256   -0.0006    0.0037    0.0042    0.0087   -0.0137
          27    0.0124   -0.0007    0.0000   -0.0000   -0.0000   -0.0000   -0.0000    0.0000
          28   -0.0000    0.0000   -0.0000    0.0007   -0.0000   -0.0047   -0.0050   -0.0000
          29   -0.0000    0.0000    0.0026    0.0000   -0.0029    0.0000   -0.0000   -0.0133
          30    0.0000   -0.0263   -0.0000    0.0000   -0.0000    0.0000   -0.0000   -0.0000
          31    0.0176    0.0839   -0.0134   -0.0044    0.0009   -0.0271   -0.0077   -0.0255
          32    0.1663    0.1463    0.0324    0.0230   -0.0075   -0.1084   -0.0797   -0.1186
          33   -0.0107    0.0130   -0.0058   -0.0031    0.0013    0.0021    0.0063    0.0050
          34   -0.0176   -0.0839   -0.0134   -0.0044    0.0009   -0.0271   -0.0077   -0.0255
          35   -0.1663   -0.1463    0.0324    0.0230   -0.0075   -0.1084   -0.0797   -0.1186
          36   -0.0107    0.0130    0.0058    0.0031   -0.0013   -0.0021   -0.0063   -0.0050
          37    0.0176   -0.0839    0.0134   -0.0044   -0.0009   -0.0271   -0.0077    0.0255
          38   -0.1663    0.1462    0.0325   -0.0230   -0.0075    0.1085    0.0797   -0.1186
          39    0.0108    0.0129   -0.0058    0.0031    0.0013   -0.0022   -0.0063    0.0050
          40   -0.0176    0.0839    0.0134   -0.0044   -0.0009   -0.0271   -0.0077    0.0255
          41    0.1663   -0.1463    0.0324   -0.0230   -0.0075    0.1084    0.0797   -0.1186
          42    0.0106    0.0130    0.0058   -0.0031   -0.0013    0.0021    0.0063   -0.0050
          43    0.0000    0.0000   -0.0255   -0.0270    0.0109    0.0023    0.0149   -0.0196
          44   -0.0000   -0.0001    0.2549    0.1702    0.1201   -0.0890    0.1705   -0.0159
          45   -0.0516   -0.0098   -0.0002   -0.0001   -0.0001    0.0001   -0.0001    0.0000
          46    0.0000   -0.0000    0.0255   -0.0270   -0.0109    0.0023    0.0149    0.0196
          47    0.0000   -0.0001    0.2550   -0.1702    0.1201    0.0890   -0.1705   -0.0159
          48    0.0516   -0.0098   -0.0002    0.0001   -0.0001   -0.0001    0.0001    0.0000
          49   -0.0000    0.0000   -0.0824    0.1906    0.2830    0.0828   -0.0587   -0.0100
          50    0.0000   -0.0000    0.0073   -0.1019   -0.1550   -0.0587    0.0306   -0.0173
          51    0.0284    0.0013   -0.0000    0.0001    0.0002    0.0001   -0.0000    0.0000
          52   -0.0000    0.0000    0.0823    0.1906   -0.2830    0.0828   -0.0587    0.0100
          53   -0.0000    0.0000    0.0073    0.1019   -0.1550    0.0587   -0.0306   -0.0173
          54   -0.0284    0.0013    0.0000   -0.0000    0.0000   -0.0000    0.0000    0.0000
          55    0.0000   -0.0000    0.0026   -0.0025   -0.0032    0.0047    0.0077   -0.0508
          56    0.0000   -0.0000    0.0073   -0.0045   -0.0087    0.0140    0.0187   -0.1012
          57    0.0035    0.0858    0.0000   -0.0000    0.0000    0.0000    0.0000   -0.0000
          58    0.0000   -0.0000   -0.0026   -0.0025    0.0032    0.0047    0.0077    0.0508
          59   -0.0000    0.0000    0.0073    0.0045   -0.0087   -0.0140   -0.0187   -0.1012
          60   -0.0036    0.0858    0.0000   -0.0000    0.0000   -0.0000   -0.0000   -0.0000


   Root No.      33        34        35        36        37        38        39        40

                33 A      34 A      35 A      36 A      37 A      38 A      39 A      40 A   

                1291.7    1313.5    1333.7    1334.2    1366.8    1390.1    1442.4    1588.5
  
           1   -0.0085    0.0043   -0.0183    0.0053    0.0350   -0.0552    0.0104   -0.0050
           2    0.0283   -0.0029   -0.0545    0.0288    0.0036    0.0061   -0.0417   -0.0279
           3   -0.0000    0.0000    0.0000   -0.0000    0.0000   -0.0000    0.0000    0.0000
           4   -0.0085   -0.0043   -0.0184   -0.0052   -0.0350   -0.0552   -0.0104   -0.0050
           5   -0.0284   -0.0029    0.0547    0.0284    0.0036   -0.0061   -0.0417    0.0279
           6    0.0000    0.0000   -0.0000   -0.0000    0.0000    0.0000    0.0000   -0.0000
           7    0.0412   -0.0000    0.0721   -0.0002    0.0000    0.0612    0.0000    0.0075
           8   -0.0000   -0.0159   -0.0001   -0.0258   -0.0061    0.0000    0.0021    0.0000
           9    0.0000   -0.0000    0.0000    0.0000   -0.0000    0.0000    0.0000   -0.0000
          10    0.0272   -0.0359   -0.0156    0.0264   -0.0040    0.0162    0.0302    0.0225
          11   -0.0221    0.0103    0.0097    0.0070   -0.0094   -0.0107    0.0501    0.0666
          12    0.0000   -0.0000   -0.0000    0.0000    0.0000    0.0000   -0.0000   -0.0000
          13    0.0273    0.0359   -0.0158   -0.0262    0.0040    0.0162   -0.0302    0.0226
          14    0.0221    0.0103   -0.0096    0.0071   -0.0094    0.0107    0.0501   -0.0666
          15   -0.0000   -0.0000   -0.0000   -0.0000    0.0000   -0.0000   -0.0000    0.0000
          16   -0.0198   -0.0187    0.0180    0.0034    0.0033   -0.0055   -0.0187   -0.0581
          17   -0.0162    0.0468    0.0155   -0.0348    0.0089   -0.0028    0.0131    0.0353
          18    0.0000   -0.0000   -0.0000    0.0000   -0.0000    0.0000   -0.0000   -0.0001
          19   -0.0197    0.0187    0.0179   -0.0035   -0.0033   -0.0056    0.0187   -0.0581
          20    0.0163    0.0468   -0.0157   -0.0347    0.0089    0.0028    0.0131   -0.0353
          21   -0.0000   -0.0000    0.0000    0.0000   -0.0000   -0.0000   -0.0000    0.0000
          22    0.0102    0.0163   -0.0120   -0.0236    0.0110    0.0004   -0.0701    0.0514
          23    0.0012   -0.0388    0.0068    0.0195   -0.0021    0.0037   -0.0191   -0.0811
          24    0.0000    0.0000   -0.0000   -0.0000    0.0000   -0.0000   -0.0000    0.0001
          25    0.0101   -0.0163   -0.0118    0.0237   -0.0110    0.0003    0.0701    0.0514
          26   -0.0012   -0.0388   -0.0067    0.0195   -0.0021   -0.0037   -0.0191    0.0811
          27    0.0000    0.0000    0.0000   -0.0000   -0.0000    0.0000    0.0000   -0.0001
          28   -0.0119    0.0000   -0.0100    0.0000    0.0000   -0.0114   -0.0000    0.0001
          29   -0.0000   -0.0129   -0.0001   -0.0347   -0.0105   -0.0000    0.0038   -0.0000
          30    0.0000   -0.0000   -0.0000   -0.0000   -0.0000   -0.0000    0.0000   -0.0000
          31   -0.1114    0.0364   -0.0644    0.0105   -0.1430    0.1116   -0.0132    0.0070
          32   -0.0236   -0.0382    0.0651   -0.0429    0.0214   -0.0379    0.0519    0.0184
          33   -0.0548    0.0271   -0.0525    0.0166   -0.1143    0.1111   -0.0332   -0.0005
          34   -0.1114    0.0364   -0.0644    0.0105   -0.1430    0.1116   -0.0132    0.0070
          35   -0.0236   -0.0382    0.0651   -0.0429    0.0214   -0.0379    0.0519    0.0184
          36    0.0547   -0.0271    0.0525   -0.0166    0.1142   -0.1111    0.0332    0.0005
          37   -0.1114   -0.0362   -0.0645   -0.0101    0.1429    0.1115    0.0132    0.0070
          38    0.0236   -0.0381   -0.0654   -0.0425    0.0214    0.0379    0.0519   -0.0185
          39    0.0548    0.0270    0.0527    0.0163   -0.1143   -0.1112   -0.0332    0.0005
          40   -0.1114   -0.0363   -0.0645   -0.0101    0.1430    0.1116    0.0132    0.0070
          41    0.0236   -0.0381   -0.0655   -0.0425    0.0215    0.0380    0.0519   -0.0184
          42   -0.0547   -0.0270   -0.0526   -0.0163    0.1142    0.1111    0.0332   -0.0004
          43   -0.0214   -0.0212    0.0198    0.0036    0.0040   -0.0060   -0.0229   -0.0694
          44    0.0035   -0.0212   -0.0173    0.0017    0.0017   -0.0105   -0.0896   -0.0172
          45   -0.0000   -0.0000    0.0000    0.0000   -0.0000    0.0000    0.0001   -0.0000
          46   -0.0214    0.0212    0.0198   -0.0038   -0.0040   -0.0060    0.0229   -0.0694
          47   -0.0036   -0.0212    0.0173    0.0016    0.0017    0.0105   -0.0896    0.0172
          48    0.0000    0.0000   -0.0000   -0.0000    0.0000   -0.0000    0.0001   -0.0000
          49   -0.0502    0.0181    0.0542   -0.0124    0.0032   -0.0004    0.0126   -0.1199
          50    0.0357   -0.0439   -0.0305    0.0139    0.0031    0.0044   -0.0763    0.0077
          51   -0.0000    0.0000    0.0000    0.0000   -0.0000   -0.0000    0.0001   -0.0001
          52   -0.0502   -0.0181    0.0542    0.0121   -0.0032   -0.0004   -0.0127   -0.1199
          53   -0.0357   -0.0439    0.0306    0.0137    0.0031   -0.0044   -0.0764   -0.0077
          54    0.0000    0.0000   -0.0000    0.0000   -0.0000    0.0000    0.0001   -0.0000
          55    0.0114    0.0851    0.0192    0.1347    0.0297    0.0130   -0.0038    0.0017
          56    0.0352    0.1292    0.0422    0.1881    0.0380    0.0361   -0.0019    0.0017
          57    0.0000    0.0000   -0.0000    0.0000    0.0000    0.0000    0.0000   -0.0000
          58    0.0113   -0.0851    0.0182   -0.1349   -0.0297    0.0130    0.0038    0.0017
          59   -0.0352    0.1293   -0.0408    0.1884    0.0380   -0.0360   -0.0019   -0.0017
          60   -0.0000    0.0000    0.0000    0.0000    0.0000   -0.0000   -0.0000    0.0000


   Root No.      41        42        43        44        45        46        47        48

                41 A      42 A      43 A      44 A      45 A      46 A      47 A      48 A   

                1607.2    1797.0    1822.3    1913.7    2969.2    2970.0    3042.0    3043.3
  
           1    0.0256   -0.0035    0.0009   -0.0167    0.0000    0.0000   -0.0207   -0.0206
           2   -0.0409   -0.0146    0.0235   -0.0207   -0.0000   -0.0000    0.0065    0.0064
           3    0.0000    0.0000   -0.0000   -0.0000   -0.0310   -0.0304   -0.0000   -0.0000
           4   -0.0256    0.0035    0.0009    0.0167    0.0000   -0.0000   -0.0202    0.0211
           5   -0.0409   -0.0146   -0.0235   -0.0207    0.0000   -0.0000   -0.0063    0.0066
           6    0.0000    0.0000    0.0000   -0.0000    0.0302   -0.0311    0.0000   -0.0000
           7   -0.0000   -0.0000   -0.0004   -0.0000    0.0000    0.0000   -0.0006    0.0000
           8    0.0013    0.0242   -0.0000    0.2461    0.0000    0.0000   -0.0000   -0.0005
           9   -0.0000    0.0000    0.0000    0.0000   -0.0000   -0.0001   -0.0000   -0.0000
          10   -0.0917    0.1017   -0.0439   -0.0227   -0.0000    0.0000    0.0001   -0.0005
          11    0.0930    0.0527   -0.1282   -0.0185   -0.0000   -0.0000    0.0005    0.0000
          12   -0.0000   -0.0000    0.0000    0.0000    0.0000   -0.0002   -0.0000   -0.0000
          13    0.0917   -0.1017   -0.0439    0.0227   -0.0000   -0.0000    0.0001    0.0005
          14    0.0930    0.0527    0.1282   -0.0185    0.0000    0.0000   -0.0005    0.0000
          15   -0.0000   -0.0000   -0.0001    0.0000   -0.0000   -0.0002    0.0000   -0.0000
          16   -0.0096   -0.0517    0.0174    0.0096    0.0000   -0.0000    0.0001    0.0001
          17   -0.0836   -0.0150    0.1437    0.0045    0.0000   -0.0000   -0.0001   -0.0000
          18    0.0000   -0.0000   -0.0001    0.0000   -0.0000   -0.0001    0.0000   -0.0000
          19    0.0097    0.0517    0.0174   -0.0096    0.0000   -0.0000    0.0001   -0.0001
          20   -0.0835   -0.0150   -0.1437    0.0045    0.0000   -0.0000    0.0001   -0.0000
          21    0.0001    0.0000    0.0001   -0.0000    0.0000   -0.0001   -0.0000   -0.0000
          22    0.0219    0.1077    0.0277   -0.0160    0.0000    0.0000   -0.0001   -0.0000
          23    0.0181   -0.0316   -0.0561    0.0055   -0.0000   -0.0000   -0.0001    0.0001
          24   -0.0000    0.0001    0.0000   -0.0000   -0.0000   -0.0000    0.0000   -0.0000
          25   -0.0219   -0.1077    0.0277    0.0160   -0.0000    0.0000   -0.0001    0.0000
          26    0.0180   -0.0316    0.0562    0.0055    0.0000   -0.0000    0.0001    0.0001
          27   -0.0000   -0.0000   -0.0000    0.0000    0.0000   -0.0000   -0.0000   -0.0000
          28   -0.0000    0.0000   -0.0005    0.0000    0.0000   -0.0000    0.0000   -0.0000
          29    0.0015   -0.0237    0.0000   -0.1881   -0.0000    0.0000    0.0000    0.0001
          30    0.0000   -0.0000    0.0000   -0.0000   -0.0000   -0.0001   -0.0000   -0.0000
          31    0.0016    0.0041   -0.0074    0.0011   -0.1386   -0.1352    0.1249    0.1219
          32   -0.0078    0.0210   -0.0134    0.0189    0.0426    0.0418   -0.0384   -0.0377
          33   -0.0201   -0.0041   -0.0010    0.0014    0.1879    0.1834   -0.2005   -0.1959
          34    0.0016    0.0040   -0.0074    0.0011    0.1383    0.1349    0.1251    0.1221
          35   -0.0078    0.0210   -0.0134    0.0188   -0.0425   -0.0416   -0.0384   -0.0377
          36    0.0201    0.0041    0.0010   -0.0014    0.1876    0.1830    0.2009    0.1963
          37   -0.0016   -0.0041   -0.0074   -0.0011   -0.1353    0.1385    0.1220   -0.1249
          38   -0.0078    0.0210    0.0134    0.0189   -0.0416    0.0428    0.0375   -0.0386
          39   -0.0201   -0.0041    0.0010    0.0014   -0.1833    0.1879    0.1958   -0.2007
          40   -0.0016   -0.0041   -0.0074   -0.0011    0.1350   -0.1383    0.1221   -0.1250
          41   -0.0078    0.0210    0.0134    0.0188    0.0414   -0.0426    0.0374   -0.0385
          42    0.0201    0.0041   -0.0010   -0.0014   -0.1831    0.1877   -0.1962    0.2011
          43   -0.0150   -0.0620    0.0238    0.0122    0.0000    0.0000   -0.0016   -0.0012
          44    0.1097    0.0078   -0.0556    0.0006   -0.0000   -0.0000    0.0002    0.0002
          45   -0.0001   -0.0000    0.0000    0.0000    0.0001    0.0001   -0.0000   -0.0000
          46    0.0150    0.0620    0.0238   -0.0122   -0.0000    0.0000   -0.0016    0.0013
          47    0.1097    0.0078    0.0556    0.0006    0.0000   -0.0000   -0.0002    0.0002
          48   -0.0001    0.0000   -0.0000   -0.0000   -0.0001    0.0001   -0.0000    0.0000
          49   -0.0196   -0.0252   -0.0279    0.0039    0.0000    0.0000    0.0009   -0.0004
          50    0.0471    0.0500   -0.0306   -0.0064    0.0000    0.0000    0.0016   -0.0008
          51   -0.0000   -0.0001    0.0000    0.0000   -0.0000    0.0000   -0.0000    0.0000
          52    0.0197    0.0252   -0.0279   -0.0039   -0.0000   -0.0000    0.0009    0.0004
          53    0.0471    0.0500    0.0306   -0.0064    0.0000    0.0000   -0.0016   -0.0007
          54   -0.0000   -0.0000   -0.0000    0.0000    0.0000    0.0000    0.0000    0.0000
          55    0.0002    0.0183   -0.0005    0.1387    0.0000   -0.0000   -0.0006   -0.0013
          56    0.0022   -0.0008    0.0005   -0.0298   -0.0000    0.0000    0.0001    0.0004
          57    0.0000   -0.0000    0.0000   -0.0000    0.0007   -0.0002    0.0000   -0.0000
          58   -0.0002   -0.0183   -0.0005   -0.1387   -0.0000    0.0000   -0.0006    0.0013
          59    0.0022   -0.0008   -0.0005   -0.0299   -0.0000    0.0000   -0.0001    0.0004
          60   -0.0000   -0.0000   -0.0000   -0.0000   -0.0007   -0.0002   -0.0000    0.0000


   Root No.      49        50        51        52        53        54

                49 A      50 A      51 A      52 A      53 A      54 A   

                3055.7    3064.8    3074.8    3081.1    3144.0    3146.4
  
           1    0.0002   -0.0000   -0.0001    0.0001   -0.0001    0.0001
           2   -0.0000   -0.0001   -0.0001    0.0001   -0.0000    0.0005
           3    0.0000    0.0000   -0.0000    0.0000   -0.0000   -0.0000
           4    0.0002    0.0000   -0.0001   -0.0001    0.0001    0.0001
           5    0.0000   -0.0001    0.0001    0.0001   -0.0000   -0.0005
           6   -0.0000    0.0000    0.0000    0.0000   -0.0000    0.0000
           7   -0.0000    0.0000    0.0000    0.0000   -0.0000   -0.0005
           8    0.0000   -0.0000   -0.0000    0.0001   -0.0068    0.0000
           9   -0.0000   -0.0000   -0.0000   -0.0000   -0.0000   -0.0000
          10   -0.0003    0.0003    0.0009   -0.0002    0.0000    0.0000
          11   -0.0000    0.0007    0.0014   -0.0014    0.0001   -0.0000
          12   -0.0000   -0.0000   -0.0000    0.0000   -0.0000    0.0000
          13   -0.0003   -0.0003    0.0009    0.0002   -0.0000    0.0000
          14    0.0000    0.0007   -0.0014   -0.0014    0.0001    0.0000
          15   -0.0000   -0.0000    0.0000    0.0000   -0.0000    0.0000
          16    0.0096   -0.0185   -0.0306    0.0219   -0.0001   -0.0000
          17    0.0009   -0.0010    0.0000   -0.0005   -0.0000   -0.0000
          18    0.0000   -0.0000   -0.0000    0.0000   -0.0000    0.0000
          19    0.0096    0.0184   -0.0305   -0.0220    0.0001   -0.0000
          20   -0.0009   -0.0010   -0.0000   -0.0005   -0.0000    0.0000
          21    0.0000    0.0000   -0.0000   -0.0000    0.0000    0.0000
          22   -0.0141    0.0118   -0.0037    0.0099   -0.0000   -0.0000
          23   -0.0261    0.0179   -0.0096    0.0172   -0.0001   -0.0000
          24    0.0000   -0.0000    0.0000   -0.0000    0.0000    0.0000
          25   -0.0141   -0.0118   -0.0036   -0.0099    0.0000   -0.0000
          26    0.0260    0.0179    0.0094    0.0172   -0.0001    0.0000
          27   -0.0000   -0.0000   -0.0000   -0.0000    0.0000    0.0000
          28    0.0000    0.0000    0.0000   -0.0000   -0.0003   -0.0650
          29   -0.0000    0.0000   -0.0000    0.0001    0.0473   -0.0002
          30   -0.0000   -0.0000   -0.0000   -0.0000    0.0000    0.0000
          31   -0.0009    0.0000    0.0003   -0.0005    0.0006    0.0004
          32    0.0003   -0.0001   -0.0002    0.0002   -0.0002    0.0004
          33    0.0014   -0.0001   -0.0006    0.0009   -0.0009   -0.0004
          34   -0.0009    0.0000    0.0003   -0.0005    0.0006    0.0004
          35    0.0003   -0.0001   -0.0002    0.0002   -0.0002    0.0004
          36   -0.0014    0.0001    0.0006   -0.0009    0.0009    0.0004
          37   -0.0009   -0.0000    0.0003    0.0006   -0.0006    0.0004
          38   -0.0003   -0.0001    0.0002    0.0002   -0.0003   -0.0004
          39   -0.0014   -0.0001    0.0006    0.0009   -0.0009    0.0004
          40   -0.0009   -0.0000    0.0003    0.0006   -0.0006    0.0004
          41   -0.0003   -0.0001    0.0002    0.0002   -0.0003   -0.0004
          42    0.0014    0.0001   -0.0006   -0.0009    0.0009   -0.0004
          43   -0.1127    0.2159    0.3442   -0.2402    0.0008    0.0001
          44   -0.0020    0.0014   -0.0005    0.0011   -0.0000   -0.0000
          45   -0.0001    0.0001    0.0002   -0.0001    0.0000   -0.0000
          46   -0.1123   -0.2151    0.3434    0.2419   -0.0008    0.0001
          47    0.0020    0.0014    0.0005    0.0011   -0.0000    0.0000
          48   -0.0000   -0.0000    0.0001    0.0000   -0.0000   -0.0000
          49    0.1696   -0.1229    0.0539   -0.1052    0.0004    0.0000
          50    0.2998   -0.2097    0.0995   -0.1844    0.0006    0.0000
          51   -0.0002    0.0001   -0.0001    0.0001   -0.0000   -0.0000
          52    0.1695    0.1232    0.0529    0.1054   -0.0004    0.0000
          53   -0.2996   -0.2103   -0.0977   -0.1849    0.0006   -0.0000
          54    0.0003    0.0002    0.0001    0.0002   -0.0000   -0.0000
          55   -0.0000   -0.0000   -0.0000    0.0007    0.4036    0.3865
          56    0.0000    0.0000    0.0000   -0.0004   -0.2426   -0.2550
          57   -0.0000   -0.0000   -0.0000   -0.0000   -0.0000   -0.0000
          58   -0.0000    0.0000   -0.0000   -0.0007   -0.4002    0.3902
          59   -0.0000    0.0000   -0.0000   -0.0004   -0.2403    0.2573
          60    0.0000   -0.0000    0.0000   -0.0000   -0.0000    0.0000


           MASS-WEIGHTED COORDINATE ANALYSIS (NORMAL COORDINATES)


   Root No.       1         2         3         4         5         6         7         8

                 1 A       2 A       3 A       4 A       5 A       6 A       7 A       8 A   

                  67.8     163.0     233.9     280.8     394.6     445.9     457.0     467.8
  
           1    0.0000    0.0001   -0.0001   -0.2053   -0.0001    0.0001    0.1592   -0.0004
           2   -0.0001   -0.0001    0.0001    0.0601    0.0000   -0.0000    0.2499   -0.0006
           3   -0.3401   -0.3906   -0.2063   -0.0001   -0.0186   -0.0347   -0.0001   -0.0055
           4   -0.0000    0.0001   -0.0001   -0.2053   -0.0001   -0.0002    0.1592   -0.0003
           5   -0.0001    0.0001   -0.0001   -0.0601    0.0000    0.0001   -0.2499    0.0006
           6   -0.3399    0.3909   -0.2059    0.0004   -0.0186   -0.0347    0.0001    0.0055
           7    0.0000    0.0000   -0.0000   -0.1315   -0.0001   -0.0001    0.3959   -0.0009
           8   -0.0001    0.0000    0.0000   -0.0000    0.0001    0.0003    0.0000   -0.0001
           9   -0.0265    0.0001   -0.1617    0.0001    0.0276    0.7119    0.0002    0.0001
          10    0.0000    0.0001   -0.0002   -0.2622    0.0000    0.0001   -0.3298    0.0008
          11   -0.0001    0.0000    0.0002   -0.0232    0.0002   -0.0001    0.0365    0.0000
          12   -0.1893    0.0079    0.3731   -0.0002    0.3885   -0.1039    0.0007    0.3123
          13    0.0000    0.0000   -0.0001   -0.2622    0.0000    0.0001   -0.3298    0.0009
          14   -0.0001   -0.0000    0.0002    0.0232    0.0001   -0.0001   -0.0365   -0.0000
          15   -0.1893   -0.0082    0.3730   -0.0002    0.3886   -0.1038   -0.0007   -0.3124
          16   -0.0000   -0.0001   -0.0001   -0.0214    0.0002    0.0001   -0.0982    0.0002
          17    0.0000    0.0002    0.0001   -0.1847   -0.0002   -0.0001   -0.1414    0.0004
          18    0.0105    0.3185    0.2781   -0.0001   -0.3682    0.0321    0.0004    0.1886
          19   -0.0000    0.0001   -0.0000   -0.0213    0.0001   -0.0000   -0.0982    0.0002
          20    0.0001   -0.0003    0.0002    0.1846   -0.0004   -0.0001    0.1414   -0.0004
          21    0.0104   -0.3188    0.2777   -0.0002   -0.3681    0.0321   -0.0006   -0.1888
          22   -0.0000   -0.0001    0.0002    0.2028   -0.0000   -0.0000    0.1524   -0.0003
          23    0.0002    0.0001   -0.0003   -0.0731    0.0001   -0.0002   -0.0346   -0.0002
          24    0.2284    0.2473   -0.2858    0.0001    0.1328   -0.0135   -0.0009   -0.4050
          25   -0.0000    0.0001    0.0002    0.2028   -0.0000   -0.0000    0.1524   -0.0005
          26    0.0002   -0.0002   -0.0003    0.0731   -0.0000   -0.0002    0.0346    0.0003
          27    0.2282   -0.2472   -0.2859    0.0001    0.1327   -0.0136    0.0010    0.4052
          28    0.0000   -0.0002    0.0002    0.5528    0.0000    0.0000   -0.1749    0.0004
          29   -0.0001    0.0000    0.0000    0.0000    0.0001    0.0004    0.0000   -0.0001
          30    0.5731   -0.0002    0.0489   -0.0000   -0.0192   -0.1966   -0.0001    0.0000
          31   -0.0754   -0.1250   -0.0941   -0.0545   -0.0889   -0.2309    0.0717   -0.1001
          32    0.0040    0.0466    0.0990    0.0290    0.0789   -0.0536    0.1527    0.0856
          33   -0.1536   -0.2138   -0.1502    0.0000   -0.0882   -0.1680    0.0001   -0.0950
          34    0.0754    0.1251    0.0941   -0.0544    0.0888    0.2310    0.0723    0.0997
          35   -0.0041   -0.0467   -0.0990    0.0290   -0.0789    0.0535    0.1523   -0.0863
          36   -0.1536   -0.2137   -0.1502   -0.0002   -0.0881   -0.1680   -0.0007   -0.0949
          37    0.0753   -0.1251    0.0939   -0.0546    0.0888    0.2308    0.0718   -0.1000
          38    0.0040   -0.0466    0.0989   -0.0291    0.0789   -0.0535   -0.1528   -0.0855
          39   -0.1535    0.2140   -0.1501    0.0001   -0.0882   -0.1681   -0.0002    0.0950
          40   -0.0754    0.1253   -0.0940   -0.0543   -0.0889   -0.2311    0.0721    0.0997
          41   -0.0041    0.0468   -0.0991   -0.0289   -0.0790    0.0535   -0.1523    0.0864
          42   -0.1535    0.2139   -0.1500    0.0003   -0.0881   -0.1680    0.0006    0.0948
          43   -0.0000   -0.0001   -0.0000   -0.0061    0.0002   -0.0000   -0.0284    0.0000
          44   -0.0000    0.0001    0.0000   -0.1277   -0.0002    0.0000   -0.1344    0.0004
          45    0.0051    0.1662    0.1192   -0.0000   -0.3785    0.0616    0.0002    0.1136
          46   -0.0000    0.0000   -0.0000   -0.0061    0.0001   -0.0000   -0.0284    0.0001
          47    0.0000   -0.0001    0.0001    0.1277   -0.0003   -0.0000    0.1344   -0.0004
          48    0.0051   -0.1663    0.1191   -0.0001   -0.3785    0.0616   -0.0004   -0.1138
          49   -0.0000   -0.0001    0.0001    0.1003   -0.0001   -0.0000    0.0847   -0.0001
          50    0.0001    0.0001   -0.0002   -0.0453    0.0001   -0.0000   -0.0339   -0.0002
          51    0.1179    0.1490   -0.2161    0.0001    0.0882    0.0030   -0.0008   -0.3693
          52   -0.0000    0.0001    0.0001    0.1003   -0.0000   -0.0000    0.0847   -0.0003
          53    0.0001   -0.0001   -0.0002    0.0453    0.0000   -0.0001    0.0339    0.0003
          54    0.1178   -0.1488   -0.2161    0.0001    0.0882    0.0029    0.0009    0.3694
          55    0.0000   -0.0001    0.0001    0.2751    0.0000    0.0000   -0.1797    0.0004
          56   -0.0000   -0.0000    0.0001    0.1753    0.0001    0.0002   -0.1949    0.0004
          57    0.2435   -0.0876    0.0433   -0.0001   -0.0121   -0.2036   -0.0001    0.0244
          58    0.0000   -0.0001    0.0001    0.2751    0.0000    0.0000   -0.1797    0.0004
          59   -0.0000    0.0001   -0.0001   -0.1753   -0.0000    0.0001    0.1949   -0.0005
          60    0.2436    0.0875    0.0434    0.0000   -0.0121   -0.2036   -0.0001   -0.0245


   Root No.       9        10        11        12        13        14        15        16

                 9 A      10 A      11 A      12 A      13 A      14 A      15 A      16 A   

                 496.2     590.1     599.2     656.8     673.4     766.6     860.1     864.2
  
           1    0.1281   -0.2157    0.0004   -0.2740    0.0002   -0.0001   -0.0008   -0.1808
           2    0.1488    0.2585   -0.0005    0.1434   -0.0000    0.0001    0.0010    0.2383
           3   -0.0001   -0.0002   -0.0393    0.0001    0.1375    0.0651   -0.2257    0.0009
           4   -0.1282   -0.2157    0.0003    0.2740   -0.0003    0.0000   -0.0008   -0.1808
           5    0.1488   -0.2585    0.0005    0.1433   -0.0002    0.0000   -0.0010   -0.2383
           6   -0.0001    0.0002    0.0393   -0.0002   -0.1375    0.0652    0.2258   -0.0009
           7   -0.0000   -0.1145    0.0002    0.0000   -0.0000    0.0000   -0.0000   -0.0035
           8    0.4071   -0.0000    0.0000   -0.2465    0.0002   -0.0000   -0.0000   -0.0000
           9   -0.0005   -0.0000   -0.0000    0.0003   -0.0000   -0.0753   -0.0000    0.0000
          10    0.0170   -0.0147    0.0001   -0.0037   -0.0000   -0.0000    0.0005    0.0951
          11   -0.0193    0.2903   -0.0006    0.2622   -0.0000    0.0001    0.0005    0.0901
          12   -0.0002   -0.0004   -0.0634    0.0002    0.4308    0.0835    0.0632   -0.0004
          13   -0.0170   -0.0147    0.0000    0.0037    0.0001    0.0000    0.0004    0.0951
          14   -0.0193   -0.2903    0.0005    0.2622   -0.0005    0.0001   -0.0004   -0.0901
          15   -0.0002    0.0001    0.0634   -0.0004   -0.4308    0.0836   -0.0632    0.0003
          16    0.2134    0.1515   -0.0004    0.4014   -0.0002    0.0002    0.0014    0.3181
          17   -0.2133    0.2885   -0.0005    0.0544   -0.0001   -0.0001   -0.0002   -0.0733
          18    0.0002    0.0001    0.0773   -0.0000   -0.1569   -0.1410    0.2571   -0.0010
          19   -0.2134    0.1516   -0.0002   -0.4014    0.0003    0.0000    0.0014    0.3181
          20   -0.2133   -0.2885    0.0005    0.0544    0.0000   -0.0000    0.0001    0.0733
          21    0.0001    0.0000   -0.0773    0.0000    0.1568   -0.1411   -0.2573    0.0012
          22    0.0044    0.2097   -0.0004    0.0306   -0.0001    0.0001   -0.0011   -0.2325
          23   -0.3678    0.3100   -0.0006   -0.1976    0.0003   -0.0003   -0.0016   -0.3862
          24    0.0002   -0.0004   -0.0778    0.0003    0.1590   -0.2120    0.1323   -0.0004
          25   -0.0044    0.2097   -0.0004   -0.0306    0.0001   -0.0000   -0.0010   -0.2325
          26   -0.3678   -0.3100    0.0007   -0.1976    0.0000   -0.0002    0.0017    0.3862
          27    0.0003    0.0005    0.0779    0.0000   -0.1590   -0.2117   -0.1321    0.0003
          28   -0.0000   -0.0692    0.0001    0.0000   -0.0000    0.0000    0.0002    0.0582
          29    0.4629   -0.0000    0.0000   -0.3104    0.0003   -0.0000   -0.0000   -0.0000
          30    0.0001    0.0000   -0.0000   -0.0000   -0.0000   -0.0025   -0.0000    0.0000
          31    0.0374   -0.0674    0.1379   -0.0776   -0.1059   -0.0427    0.1797   -0.0544
          32    0.0372    0.0828   -0.0245    0.0762    0.1408    0.0730   -0.0384    0.1158
          33    0.0005   -0.0037    0.0972   -0.0048   -0.0705   -0.0296    0.0772   -0.0100
          34    0.0370   -0.0680   -0.1377   -0.0774    0.1060    0.0427   -0.1802   -0.0528
          35    0.0372    0.0830    0.0242    0.0761   -0.1409   -0.0729    0.0394    0.1157
          36   -0.0003    0.0040    0.0971    0.0047   -0.0705   -0.0296    0.0772    0.0093
          37   -0.0373   -0.0675    0.1378    0.0775   -0.1060    0.0428    0.1797   -0.0544
          38    0.0371   -0.0829    0.0245    0.0760   -0.1408    0.0729    0.0384   -0.1159
[...]
 EFFECTIVE MASS      6.1592
 FORCE CONSTANT      0.4317

 VIBRATION         37   37A           ATOM PAIR      ENERGY CONTRIBUTION    RADIAL
 FREQUENCY          1366.82         C  2 -- H 13         +16.0% ( 43.5%)      4.4%
 TRANSITION DIPOLE   0.0902         C  1 -- H 11         +16.0% ( 43.5%)      4.4%
 TRAVEL (Ang.)       0.3983         C  1 -- H 12         +16.0% ( 43.5%)      4.4%
 REDUCED MASS        0.3109         C  2 -- H 14         +16.0% ( 43.5%)      4.4%
 EFFECTIVE MASS      3.1330
 FORCE CONSTANT      0.3423

 VIBRATION         38   38A           ATOM PAIR      ENERGY CONTRIBUTION    RADIAL
 FREQUENCY          1390.06         C  1 -- C  3         +16.3% ( 54.4%)     62.2%
 TRANSITION DIPOLE   0.1198         C  2 -- C  3         +16.3% ( 54.4%)     62.2%
 TRAVEL (Ang.)       0.2146         C  1 -- H 11         +10.1% ( 42.8%)      8.2%
 REDUCED MASS        1.0532         C  1 -- H 12         +10.1% ( 42.8%)      8.2%
 EFFECTIVE MASS      7.0022         C  2 -- H 14         +10.1% ( 42.8%)      8.2%
 FORCE CONSTANT      1.1990         C  2 -- H 13         +10.1% ( 42.8%)      8.2%

 VIBRATION         39   39A           ATOM PAIR      ENERGY CONTRIBUTION    RADIAL
 FREQUENCY          1442.41         C  8 -- C  9         +20.6% ( 71.5%)    100.0%
 TRANSITION DIPOLE   0.4816         C  4 -- C  5         +10.0% ( 49.9%)    100.0%
 TRAVEL (Ang.)       0.1738         C  2 -- C  5          +8.3% ( 45.5%)     70.4%
 REDUCED MASS        1.5479         C  1 -- C  4          +8.3% ( 45.5%)     70.4%
 EFFECTIVE MASS     10.7008
 FORCE CONSTANT      1.8974

 VIBRATION         40   40A           ATOM PAIR      ENERGY CONTRIBUTION    RADIAL
 FREQUENCY          1588.47         C  7 -- C  9         +14.4% ( 56.5%)     95.4%
 TRANSITION DIPOLE   0.4832         C  6 -- C  8         +14.4% ( 56.5%)     95.4%
 TRAVEL (Ang.)       0.1563         C  8 -- C  9         +13.4% ( 54.6%)      0.0%
 REDUCED MASS        1.7378         C  4 -- C  5          +9.2% ( 45.0%)      0.0%
 EFFECTIVE MASS     11.4180
 FORCE CONSTANT      2.5836

 VIBRATION         41   41A           ATOM PAIR      ENERGY CONTRIBUTION    RADIAL
 FREQUENCY          1607.20         C  4 -- C  5         +21.2% ( 68.4%)    100.0%
 TRANSITION DIPOLE   0.6167         C  5 -- C  7         +14.9% ( 57.4%)     31.8%
 TRAVEL (Ang.)       0.1283         C  4 -- C  6         +14.9% ( 57.4%)     31.8%
 REDUCED MASS        2.5493         C  2 -- C  5         +11.6% ( 50.6%)     87.8%
 EFFECTIVE MASS     11.4518         C  1 -- C  4         +11.6% ( 50.6%)     87.8%
 FORCE CONSTANT      3.8798

 VIBRATION         42   42A           ATOM PAIR      ENERGY CONTRIBUTION    RADIAL
 FREQUENCY          1796.99         C  4 -- C  5         +16.5% ( 56.6%)    100.0%
 TRANSITION DIPOLE   0.1376         C  8 -- C  9         +16.3% ( 56.2%)    100.0%
 TRAVEL (Ang.)       0.1292         C  5 -- C  7         +10.2% ( 44.6%)     66.4%
 REDUCED MASS        2.2490         C  4 -- C  6         +10.2% ( 44.6%)     66.3%
 EFFECTIVE MASS     11.8684
 FORCE CONSTANT      4.2788

 VIBRATION         43   43A           ATOM PAIR      ENERGY CONTRIBUTION    RADIAL
 FREQUENCY          1822.27         C  4 -- C  6         +18.0% ( 59.9%)     90.4%
 TRANSITION DIPOLE   0.2781         C  5 -- C  7         +18.0% ( 59.9%)     90.4%
 TRAVEL (Ang.)       0.1235         C  4 -- C  5         +13.8% ( 52.5%)      0.0%
 REDUCED MASS        2.4259         C  7 -- C  9          +9.2% ( 42.7%)     78.2%
 EFFECTIVE MASS     11.9035
 FORCE CONSTANT      4.7463

 VIBRATION         44   44A           ATOM PAIR      ENERGY CONTRIBUTION    RADIAL
 FREQUENCY          1913.68         C  3 -- C 10         +43.7% ( 97.9%)    100.0%
 TRANSITION DIPOLE   0.3594         C  2 -- C  3         +18.0% ( 62.8%)     38.8%
 TRAVEL (Ang.)       0.0798         C  1 -- C  3         +18.0% ( 62.8%)     38.8%
 REDUCED MASS        5.5298         C 10 -- H 19          +8.9% ( 44.1%)     11.7%
 EFFECTIVE MASS     11.9036
 FORCE CONSTANT     11.9315

 VIBRATION         45   45A           ATOM PAIR      ENERGY CONTRIBUTION    RADIAL
 FREQUENCY          2969.15         C  1 -- H 11         +25.1% ( 51.9%)     96.7%
 TRANSITION DIPOLE   0.0013         C  1 -- H 12         +25.0% ( 51.9%)     96.7%
 TRAVEL (Ang.)       0.2962         C  2 -- H 13         +23.9% ( 50.7%)     96.7%
 REDUCED MASS        0.2589         C  2 -- H 14         +23.8% ( 50.6%)     96.7%
 EFFECTIVE MASS      1.5334
 FORCE CONSTANT      1.3447

 VIBRATION         46   46A           ATOM PAIR      ENERGY CONTRIBUTION    RADIAL
 FREQUENCY          2970.05         C  2 -- H 13         +25.1% ( 51.9%)     96.7%
 TRANSITION DIPOLE   0.1081         C  2 -- H 14         +25.0% ( 51.9%)     96.6%
 TRAVEL (Ang.)       0.2958         C  1 -- H 11         +23.9% ( 50.7%)     96.7%
 REDUCED MASS        0.2594         C  1 -- H 12         +23.8% ( 50.6%)     96.6%
 EFFECTIVE MASS      1.5400
 FORCE CONSTANT      1.3482

 VIBRATION         47   47A           ATOM PAIR      ENERGY CONTRIBUTION    RADIAL
 FREQUENCY          3042.03         C  1 -- H 12         +25.3% ( 49.6%)     97.6%
 TRANSITION DIPOLE   0.1787         C  1 -- H 11         +25.2% ( 49.5%)     97.5%
 TRAVEL (Ang.)       0.3026         C  2 -- H 14         +24.1% ( 48.5%)     97.6%
 REDUCED MASS        0.2422         C  2 -- H 13         +24.0% ( 48.4%)     97.5%
 EFFECTIVE MASS      1.2757
 FORCE CONSTANT      1.3203

 VIBRATION         48   48A           ATOM PAIR      ENERGY CONTRIBUTION    RADIAL
 FREQUENCY          3043.32         C  2 -- H 14         +25.3% ( 49.6%)     97.4%
 TRANSITION DIPOLE   0.0639         C  2 -- H 13         +25.2% ( 49.5%)     97.4%
 TRAVEL (Ang.)       0.3024         C  1 -- H 12         +24.1% ( 48.5%)     97.4%
 REDUCED MASS        0.2423         C  1 -- H 11         +24.0% ( 48.4%)     97.4%
 EFFECTIVE MASS      1.2932
 FORCE CONSTANT      1.3224

 VIBRATION         49   49A           ATOM PAIR      ENERGY CONTRIBUTION    RADIAL
 FREQUENCY          3055.66         C  8 -- H 17         +44.0% ( 67.4%)    100.0%
 TRANSITION DIPOLE   0.0833         C  9 -- H 18         +43.9% ( 67.4%)    100.0%
 TRAVEL (Ang.)       0.2397         C  6 -- H 15          +4.7% ( 22.1%)     99.9%
 REDUCED MASS        0.3840         C  7 -- H 16          +4.7% ( 22.0%)     99.9%
 EFFECTIVE MASS      1.4923
 FORCE CONSTANT      2.1123

 VIBRATION         50   50A           ATOM PAIR      ENERGY CONTRIBUTION    RADIAL
 FREQUENCY          3064.79         C  9 -- H 18         +27.2% ( 53.0%)     99.9%
 TRANSITION DIPOLE   0.3087         C  8 -- H 17         +27.1% ( 52.9%)     99.9%
 TRAVEL (Ang.)       0.3053         C  6 -- H 15         +21.4% ( 47.0%)    100.0%
 REDUCED MASS        0.2361         C  7 -- H 16         +21.3% ( 46.9%)    100.0%
 EFFECTIVE MASS      1.5071
 FORCE CONSTANT      1.3065

 VIBRATION         51   51A           ATOM PAIR      ENERGY CONTRIBUTION    RADIAL
 FREQUENCY          3074.84         C  6 -- H 15         +43.8% ( 67.2%)    100.0%
 TRANSITION DIPOLE   0.5401         C  7 -- H 16         +43.6% ( 67.1%)    100.0%
 TRAVEL (Ang.)       0.2389         C  8 -- H 17          +4.7% ( 22.1%)     99.7%
 REDUCED MASS        0.3841         C  9 -- H 18          +4.5% ( 21.7%)     99.7%
 EFFECTIVE MASS      1.5391
 FORCE CONSTANT      2.1395

 VIBRATION         52   52A           ATOM PAIR      ENERGY CONTRIBUTION    RADIAL
 FREQUENCY          3081.08         C  7 -- H 16         +27.4% ( 53.0%)    100.0%
 TRANSITION DIPOLE   0.3281         C  6 -- H 15         +27.0% ( 52.6%)    100.0%
 TRAVEL (Ang.)       0.3042         C  9 -- H 18         +21.1% ( 46.6%)    100.0%
 REDUCED MASS        0.2366         C  8 -- H 17         +21.0% ( 46.5%)    100.0%
 EFFECTIVE MASS      1.5874
 FORCE CONSTANT      1.3231

 VIBRATION         53   53A           ATOM PAIR      ENERGY CONTRIBUTION    RADIAL
 FREQUENCY          3143.99         C 10 -- H 19         +49.6% ( 70.4%)     95.3%
 TRANSITION DIPOLE   0.3408         C 10 -- H 20         +48.8% ( 69.8%)     95.2%
 TRAVEL (Ang.)       0.2101         C  3 -- C 10          +1.5% ( 12.4%)    100.0%
 REDUCED MASS        0.4861
 EFFECTIVE MASS      1.3892
 FORCE CONSTANT      2.8309

 VIBRATION         54   54A           ATOM PAIR      ENERGY CONTRIBUTION    RADIAL
 FREQUENCY          3146.45         C 10 -- H 20         +49.8% ( 72.3%)     97.1%
 TRANSITION DIPOLE   0.2003         C 10 -- H 19         +48.9% ( 71.7%)     97.0%
 TRAVEL (Ang.)       0.2002         C  3 -- C 10          +1.3% ( 11.7%)      0.0%
 REDUCED MASS        0.5350
 EFFECTIVE MASS      1.6061
 FORCE CONSTANT      3.1204

      SYMMETRY NUMBER FOR POINT-GROUP C1  =  1


          SYSTEM IS A GROUND STATE



 InChI=1S/C10H10/c1-8-6-9-4-2-3-5-10(9)7-8/h2-5H,1,6-7H2


          MOLECULE IS NOT LINEAR

          THERE ARE 54 GENUINE VIBRATIONS IN THIS SYSTEM
          THIS THERMODYNAMICS CALCULATION IS LIMITED TO
          MOLECULES WHICH HAVE NO INTERNAL ROTATIONS




                    CALCULATED THERMODYNAMIC PROPERTIES
                                          *
   TEMP. (K)   PARTITION FUNCTION   H.O.F.    ENTHALPY  HEAT CAPACITY ENTROPY
                                   KCAL/MOL   CAL/MOLE    CAL/K/MOL  CAL/K/MOL


 298.00  VIB.     0.3530D+02                  3194.5546    26.4063    17.8024
         ROT.     0.5172D+06                   888.2803     2.9808    29.1249
         INT.     0.1826D+08                  4082.8349    29.3871    46.9273
         TRA.     0.1436D+28                  1480.4672     4.9680    40.5022
         TOT.                       31.709    5563.3020    34.3551    87.4295

 200.00  VIB.     0.6946D+01                  1188.7788    14.7279     9.7954
         ROT.     0.2844D+06                   596.1613     2.9808    27.9363
         INT.     0.1975D+07                  1784.9401    17.7087    37.7316
         TRA.     0.7896D+27                   993.6021     4.9680    38.5210
         TOT.                       28.924    2778.5422    22.6767    76.2527

 210.00  VIB.     0.8081D+01                  1341.6301    15.8466    10.5409
         ROT.     0.3060D+06                   625.9693     2.9808    28.0817
         INT.     0.2472D+07                  1967.5994    18.8275    38.6226
         TRA.     0.8496D+27                  1043.2822     4.9680    38.7634
         TOT.                       29.156    3010.8817    23.7955    77.3860

 220.00  VIB.     0.9434D+01                  1505.7935    16.9899    11.3044
         ROT.     0.3281D+06                   655.7774     2.9808    28.2204
         INT.     0.3095D+07                  2161.5709    19.9707    39.5248
         TRA.     0.9110D+27                  1092.9623     4.9680    38.9945
         TOT.                       29.400    3254.5332    24.9387    78.5193

 230.00  VIB.     0.1105D+02                  1681.5004    18.1549    12.0853
         ROT.     0.3507D+06                   685.5855     2.9808    28.3529
         INT.     0.3876D+07                  2367.0859    21.1357    40.4381
         TRA.     0.9738D+27                  1142.6424     4.9680    39.2154
         TOT.                       29.655    3509.7283    26.1037    79.6535

 240.00  VIB.     0.1299D+02                  1868.9528    19.3385    12.8829
         ROT.     0.3738D+06                   715.3935     2.9808    28.4797
         INT.     0.4856D+07                  2584.3464    22.3193    41.3626
         TRA.     0.1038D+28                  1192.3226     4.9680    39.4268
         TOT.                       29.922    3776.6689    27.2873    80.7894

 250.00  VIB.     0.1532D+02                  2068.3214    20.5375    13.6966
         ROT.     0.3974D+06                   745.2016     2.9808    28.6014
         INT.     0.6088D+07                  2813.5230    23.5184    42.2980
         TRA.     0.1103D+28                  1242.0027     4.9680    39.6296
         TOT.                       30.201    4055.5257    28.4864    81.9276

 260.00  VIB.     0.1812D+02                  2279.7444    21.7488    14.5256
         ROT.     0.4215D+06                   775.0097     2.9808    28.7183
         INT.     0.7639D+07                  3054.7541    24.7296    43.2439
         TRA.     0.1170D+28                  1291.6828     4.9680    39.8245
         TOT.                       30.492    4346.4368    29.6976    83.0684

 270.00  VIB.     0.2151D+02                  2503.3274    22.9690    15.3693
         ROT.     0.4461D+06                   804.8177     2.9808    28.8308
         INT.     0.9595D+07                  3308.1451    25.9498    44.2001
         TRA.     0.1239D+28                  1341.3629     4.9680    40.0120
         TOT.                       30.795    4649.5080    30.9178    84.2121

 280.00  VIB.     0.2561D+02                  2739.1435    24.1949    16.2268
         ROT.     0.4711D+06                   834.6258     2.9808    28.9392
         INT.     0.1206D+08                  3573.7693    27.1757    45.1660
         TRA.     0.1308D+28                  1391.0430     4.9680    40.1926
         TOT.                       31.110    4964.8123    32.1437    85.3586

 290.00  VIB.     0.3057D+02                  2987.2347    25.4235    17.0972
         ROT.     0.4965D+06                   864.4339     2.9808    29.0438
         INT.     0.1518D+08                  3851.6685    28.4043    46.1410
         TRA.     0.1379D+28                  1440.7231     4.9680    40.3670
         TOT.                       31.438    5292.3916    33.3723    86.5080

 300.00  VIB.     0.3661D+02                  3247.6127    26.6518    17.9798
         ROT.     0.5224D+06                   894.2419     2.9808    29.1449
         INT.     0.1913D+08                  4141.8546    29.6326    47.1247
         TRA.     0.1451D+28                  1490.4032     4.9680    40.5354
         TOT.                       31.778    5632.2578    34.6006    87.6601

 310.00  VIB.     0.4396D+02                  3520.2613    27.8772    18.8737
         ROT.     0.5488D+06                   924.0500     2.9808    29.2426
         INT.     0.2412D+08                  4444.3113    30.8580    48.1163
         TRA.     0.1524D+28                  1540.0833     4.9680    40.6983
         TOT.                       32.130    5984.3946    35.8260    88.8146

 320.00  VIB.     0.5293D+02                  3805.1379    29.0970    19.7781
         ROT.     0.5755D+06                   953.8580     2.9808    29.3373
         INT.     0.3046D+08                  4758.9960    32.0778    49.1153
         TRA.     0.1598D+28                  1589.7634     4.9680    40.8560
         TOT.                       32.494    6348.7594    37.0459    89.9713

 330.00  VIB.     0.6389D+02                  4102.1761    30.3091    20.6920
         ROT.     0.6027D+06                   983.6661     2.9808    29.4290
         INT.     0.3851D+08                  5085.8422    33.2899    50.1210
         TRA.     0.1674D+28                  1639.4435     4.9680    41.0089
         TOT.                       32.871    6725.2858    38.2579    91.1299

 340.00  VIB.     0.7732D+02                  4411.2878    31.5114    21.6147
         ROT.     0.6303D+06                  1013.4742     2.9808    29.5180
         INT.     0.4874D+08                  5424.7620    34.4922    51.1327
         TRA.     0.1750D+28                  1689.1236     4.9680    41.1572
         TOT.                       33.259    7113.8856    39.4602    92.2899

 350.00  VIB.     0.9380D+02                  4732.3654    32.7020    22.5453
         ROT.     0.6584D+06                  1043.2822     2.9808    29.6044
         INT.     0.6176D+08                  5775.6476    35.6828    52.1497
         TRA.     0.1828D+28                  1738.8037     4.9680    41.3012
         TOT.                       33.660    7514.4513    40.6508    93.4509

 360.00  VIB.     0.1141D+03                  5065.2843    33.8794    23.4831
         ROT.     0.6868D+06                  1073.0903     2.9808    29.6883
         INT.     0.7834D+08                  6138.3746    36.8602    53.1715
         TRA.     0.1907D+28                  1788.4838     4.9680    41.4412
         TOT.                       34.072    7926.8584    41.8282    94.6126

 370.00  VIB.     0.1390D+03                  5409.9050    35.0422    24.4273
         ROT.     0.7156D+06                  1102.8984     2.9808    29.7700
         INT.     0.9947D+08                  6512.8034    38.0230    54.1973
         TRA.     0.1987D+28                  1838.1639     4.9680    41.5773
         TOT.                       34.496    8350.9673    42.9910    95.7746

 380.00  VIB.     0.1698D+03                  5766.0753    36.1892    25.3771
         ROT.     0.7448D+06                  1132.7064     2.9808    29.8495
         INT.     0.1264D+09                  6898.7817    39.1700    55.2266
         TRA.     0.2068D+28                  1887.8440     4.9680    41.7098
         TOT.                       34.932    8786.6258    44.1380    96.9363

 390.00  VIB.     0.2078D+03                  6133.6321    37.3193    26.3317
         ROT.     0.7744D+06                  1162.5145     2.9808    29.9269
         INT.     0.1609D+09                  7296.1466    40.3001    56.2587
         TRA.     0.2150D+28                  1937.5242     4.9680    41.8388
         TOT.                       35.379    9233.6707    45.2682    98.0975

 400.00  VIB.     0.2547D+03                  6512.4034    38.4319    27.2906
         ROT.     0.8044D+06                  1192.3226     2.9808    30.0024
         INT.     0.2049D+09                  7704.7260    41.4127    57.2930
         TRA.     0.2233D+28                  1987.2043     4.9680    41.9646
         TOT.                       35.837    9691.9303    46.3808    99.2577

   *: NOTE: HEATS OF FORMATION ARE RELATIVE TO THE
            ELEMENTS IN THEIR STANDARD STATE AT 298K
              (=  Standard Enthalpy of Formation).

            Hvib:  Zero-point energy is not included.
                   frequencies of less than zero cm-1 are not included.
            Hrot = (3/2)RT
            Htra = (3/2)RT + pV = (5/2)RT

            Heat capacity is Cp, not Cv

          For more information, see: HTTP://OpenMOPAC.net/Manual/thermochemistry.html


           FORCE CONSTANT IN CARTESIAN COORDINATES (Millidynes/A)

    ATOM   CHEMICAL       X               Y               Z
   NUMBER   SYMBOL  FORCE CONSTANT  FORCE CONSTANT  FORCE CONSTANT

      1       C        9.404973        8.475344        7.877229
      2       C        9.405077        8.475736        7.877269
      3       C        8.274478       16.825181        2.759496
      4       C       11.822637       13.618262        2.653020
      5       C       11.821773       13.618802        2.653034
      6       C       12.296421       12.013722        2.316131
      7       C       12.296609       12.013739        2.316419
      8       C       12.056003       11.919855        2.331049
      9       C       12.056014       11.919775        2.331897
     10       C        9.171311       15.492814        1.946405
     11       H        1.983515        0.774326        3.533574
     12       H        1.982842        0.773921        3.535018
     13       H        1.984300        0.774637        3.532657
     14       H        1.982077        0.773612        3.536043
     15       H        5.185498        0.732676        0.351439
     16       H        5.185657        0.732655        0.351363
     17       H        1.841599        4.075072        0.349571
     18       H        1.841578        4.075115        0.349634
     19       H        4.075739        2.036001        0.329894
     20       H        4.075413        2.036404        0.329893

 **********************
 *                    *
 * JOB ENDED NORMALLY *
 *                    *
 **********************



 TOTAL JOB TIME:             1.95 SECONDS

 == MOPAC DONE ==
