 *******************************************************************************
 **                                                                           **
 **                              MOPAC v23.1.2                                **
 **                                                                           **
 *******************************************************************************
 **          Digital Object Identifier (DOI): 10.5281/zenodo.6511958          **
 **    Visit the DOI location for information on how to cite this program.    **
 *******************************************************************************

                              PM3 CALCULATION RESULTS

 *******************************************************************************
 *  CALCULATION DONE: (MAX THREADS = 1)              Tue Jun  3 16:31:09 2025  *
 *  PM3        - The PM3 Hamiltonian to be used
 *  PRECISE    - TIGHTER CRITERIA TO BE USED
 *  NOSYM      - POINT-GROUP SYMMETRY SET TO C1
 *  THREADS=1  - MULTI-THREADING NOT USED
 *  T=         - A TIME OF 172800.0 SECONDS REQUESTED
 *  DUMP=N     - RESTART FILE WRITTEN EVERY 7200.0 SECONDS REQUESTED
 *******************************************************************************
pm3  precise nosym THREADS=1
 InChI=1S/C10H10/c1-2-3-7-10-8-5-4-6-9-10/h1,5-9H,3-4H2

   ATOM   CHEMICAL          X               Y               Z
  NUMBER   SYMBOL      (ANGSTROMS)     (ANGSTROMS)     (ANGSTROMS)

     1       C         -2.60540000  *   0.56430000  *   0.69990000  *
     2       C          2.23320000  *  -0.37430000  *  -1.20120000  *
     3       C         -0.08790000  *  -0.57250000  *  -0.22870000  *
     4       C          1.06500000  *  -1.13540000  *  -0.63870000  *
     5       C         -2.31780000  *  -0.91590000  *   0.72270000  *
     6       C         -1.48820000  *   1.40530000  *   0.13470000  *
     7       C         -1.16310000  *  -1.43540000  *   0.29980000  *
     8       C         -0.33280000  *   0.88710000  *  -0.28890000  *
     9       C          2.90730000  *   0.39240000  *  -0.14720000  *
    10       C          3.46000000  *   1.02360000  *   0.71860000  *
    11       H         -3.51930000  *   0.73740000  *   0.09390000  *
    12       H         -2.81100000  *   0.90070000  *   1.73770000  *
    13       H          2.96360000  *  -1.09320000  *  -1.62820000  *
    14       H          1.90520000  *   0.30190000  *  -2.01830000  *
    15       H          1.17000000  *  -2.21370000  *  -0.58880000  *
    16       H         -3.08240000  *  -1.58060000  *   1.10520000  *
    17       H         -1.63390000  *   2.47690000  *   0.07710000  *
    18       H         -1.02360000  *  -2.50910000  *   0.35010000  *
    19       H          0.41680000  *   1.56280000  *  -0.67860000  *
    20       H          3.94450000  *   1.57780000  *   1.47890000  *



          CARTESIAN COORDINATES 

    NO.       ATOM           X           Y           Z

     1         C         -2.6054      0.5643      0.6999
     2         C          2.2332     -0.3743     -1.2012
     3         C         -0.0879     -0.5725     -0.2287
     4         C          1.0650     -1.1354     -0.6387
     5         C         -2.3178     -0.9159      0.7227
     6         C         -1.4882      1.4053      0.1347
     7         C         -1.1631     -1.4354      0.2998
     8         C         -0.3328      0.8871     -0.2889
     9         C          2.9073      0.3924     -0.1472
    10         C          3.4600      1.0236      0.7186
    11         H         -3.5193      0.7374      0.0939
    12         H         -2.8110      0.9007      1.7377
    13         H          2.9636     -1.0932     -1.6282
    14         H          1.9052      0.3019     -2.0183
    15         H          1.1700     -2.2137     -0.5888
    16         H         -3.0824     -1.5806      1.1052
    17         H         -1.6339      2.4769      0.0771
    18         H         -1.0236     -2.5091      0.3501
    19         H          0.4168      1.5628     -0.6786
    20         H          3.9445      1.5778      1.4789

  H: (PM3): J. J. P. STEWART, J. COMP. CHEM. 10, 209 (1989).
  C: (PM3): J. J. P. STEWART, J. COMP. CHEM. 10, 209 (1989).

           Empirical Formula: C10 H10  =    20 atoms



      MOLECULAR POINT GROUP   :   C1  


      RHF CALCULATION, NO. OF DOUBLY OCCUPIED LEVELS = 25


          Geometry optimization using EF

          DIAGONAL MATRIX USED AS START HESSIAN

 CYCLE:     1 TIME:   0.008 TIME LEFT:  2.00D  GRAD.:    82.845 HEAT:  88.71359
 CYCLE:     2 TIME:   0.016 TIME LEFT:  2.00D  GRAD.:   102.186 HEAT:  87.72814
 CYCLE:     3 TIME:   0.012 TIME LEFT:  2.00D  GRAD.:    43.551 HEAT:  86.95596
 CYCLE:     4 TIME:   0.004 TIME LEFT:  2.00D  GRAD.:    23.240 HEAT:  86.55039
 CYCLE:     5 TIME:   0.008 TIME LEFT:  2.00D  GRAD.:    36.699 HEAT:  86.38260
 CYCLE:     6 TIME:   0.008 TIME LEFT:  2.00D  GRAD.:    37.877 HEAT:  86.28434
 CYCLE:     7 TIME:   0.012 TIME LEFT:  2.00D  GRAD.:    30.641 HEAT:  86.10869
 CYCLE:     8 TIME:   0.012 TIME LEFT:  2.00D  GRAD.:    19.729 HEAT:  85.97900
 CYCLE:     9 TIME:   0.008 TIME LEFT:  2.00D  GRAD.:    16.297 HEAT:  85.92345
 CYCLE:    10 TIME:   0.008 TIME LEFT:  2.00D  GRAD.:    11.896 HEAT:  85.89310
 CYCLE:    11 TIME:   0.008 TIME LEFT:  2.00D  GRAD.:    13.791 HEAT:  85.87458
 CYCLE:    12 TIME:   0.008 TIME LEFT:  2.00D  GRAD.:     7.270 HEAT:  85.85310
 CYCLE:    13 TIME:   0.012 TIME LEFT:  2.00D  GRAD.:     9.469 HEAT:  85.84868
 CYCLE:    14 TIME:   0.008 TIME LEFT:  2.00D  GRAD.:     4.834 HEAT:  85.83864
 CYCLE:    15 TIME:   0.008 TIME LEFT:  2.00D  GRAD.:     6.529 HEAT:  85.83711
 CYCLE:    16 TIME:   0.008 TIME LEFT:  2.00D  GRAD.:     2.014 HEAT:  85.83041
 CYCLE:    17 TIME:   0.008 TIME LEFT:  2.00D  GRAD.:     6.814 HEAT:  85.83556
 CYCLE:    18 TIME:   0.008 TIME LEFT:  2.00D  GRAD.:     2.095 HEAT:  85.82733
 CYCLE:    19 TIME:   0.004 TIME LEFT:  2.00D  GRAD.:     2.999 HEAT:  85.82774
 CYCLE:    20 TIME:   0.008 TIME LEFT:  2.00D  GRAD.:     2.048 HEAT:  85.82510
 CYCLE:    21 TIME:   0.008 TIME LEFT:  2.00D  GRAD.:     3.490 HEAT:  85.82517
 CYCLE:    22 TIME:   0.008 TIME LEFT:  2.00D  GRAD.:     4.131 HEAT:  85.82484
 CYCLE:    23 TIME:   0.008 TIME LEFT:  2.00D  GRAD.:     2.655 HEAT:  85.82282
 CYCLE:    24 TIME:   0.004 TIME LEFT:  2.00D  GRAD.:     1.410 HEAT:  85.82018
 CYCLE:    25 TIME:   0.008 TIME LEFT:  2.00D  GRAD.:     2.639 HEAT:  85.82055
 CYCLE:    26 TIME:   0.008 TIME LEFT:  2.00D  GRAD.:     1.117 HEAT:  85.81799
 CYCLE:    27 TIME:   0.008 TIME LEFT:  2.00D  GRAD.:     1.925 HEAT:  85.81709
 CYCLE:    28 TIME:   0.008 TIME LEFT:  2.00D  GRAD.:     1.438 HEAT:  85.81468
 CYCLE:    29 TIME:   0.004 TIME LEFT:  2.00D  GRAD.:     2.062 HEAT:  85.81216
 CYCLE:    30 TIME:   0.008 TIME LEFT:  2.00D  GRAD.:     1.605 HEAT:  85.80934
 CYCLE:    31 TIME:   0.008 TIME LEFT:  2.00D  GRAD.:     1.763 HEAT:  85.80686
 CYCLE:    32 TIME:   0.004 TIME LEFT:  2.00D  GRAD.:     1.849 HEAT:  85.80330
 CYCLE:    33 TIME:   0.008 TIME LEFT:  2.00D  GRAD.:     1.575 HEAT:  85.80011
 CYCLE:    34 TIME:   0.008 TIME LEFT:  2.00D  GRAD.:     1.715 HEAT:  85.79548
 CYCLE:    35 TIME:   0.008 TIME LEFT:  2.00D  GRAD.:     1.798 HEAT:  85.79229
 CYCLE:    36 TIME:   0.008 TIME LEFT:  2.00D  GRAD.:     1.944 HEAT:  85.78784
 CYCLE:    37 TIME:   0.004 TIME LEFT:  2.00D  GRAD.:     1.217 HEAT:  85.78475
 CYCLE:    38 TIME:   0.008 TIME LEFT:  2.00D  GRAD.:     1.250 HEAT:  85.78187
 CYCLE:    39 TIME:   0.008 TIME LEFT:  2.00D  GRAD.:     1.242 HEAT:  85.77975
 CYCLE:    40 TIME:   0.008 TIME LEFT:  2.00D  GRAD.:     1.038 HEAT:  85.77706
 CYCLE:    41 TIME:   0.008 TIME LEFT:  2.00D  GRAD.:     0.822 HEAT:  85.77529
 CYCLE:    42 TIME:   0.008 TIME LEFT:  2.00D  GRAD.:     0.938 HEAT:  85.77329
 CYCLE:    43 TIME:   0.012 TIME LEFT:  2.00D  GRAD.:     1.035 HEAT:  85.77122
 CYCLE:    44 TIME:   0.008 TIME LEFT:  2.00D  GRAD.:     0.882 HEAT:  85.76934
 CYCLE:    45 TIME:   0.008 TIME LEFT:  2.00D  GRAD.:     0.698 HEAT:  85.76785
 CYCLE:    46 TIME:   0.008 TIME LEFT:  2.00D  GRAD.:     0.952 HEAT:  85.76632
 CYCLE:    47 TIME:   0.008 TIME LEFT:  2.00D  GRAD.:     1.180 HEAT:  85.76470
 CYCLE:    48 TIME:   0.008 TIME LEFT:  2.00D  GRAD.:     1.684 HEAT:  85.76015
 CYCLE:    49 TIME:   0.004 TIME LEFT:  2.00D  GRAD.:     1.700 HEAT:  85.75575
 CYCLE:    50 TIME:   0.012 TIME LEFT:  2.00D  GRAD.:     2.778 HEAT:  85.74005
 CYCLE:    51 TIME:   0.004 TIME LEFT:  2.00D  GRAD.:     2.936 HEAT:  85.72914
 CYCLE:    52 TIME:   0.008 TIME LEFT:  2.00D  GRAD.:     3.993 HEAT:  85.66042
 CYCLE:    53 TIME:   0.008 TIME LEFT:  2.00D  GRAD.:     6.090 HEAT:  85.58316
 CYCLE:    54 TIME:   0.031 TIME LEFT:  2.00D  GRAD.:     7.046 HEAT:  85.57033
 CYCLE:    55 TIME:   0.008 TIME LEFT:  2.00D  GRAD.:     4.109 HEAT:  85.52080
 CYCLE:    56 TIME:   0.012 TIME LEFT:  2.00D  GRAD.:     5.408 HEAT:  85.48158
 CYCLE:    57 TIME:   0.012 TIME LEFT:  2.00D  GRAD.:     7.830 HEAT:  85.42566
 CYCLE:    58 TIME:   0.008 TIME LEFT:  2.00D  GRAD.:    11.148 HEAT:  85.30988
 CYCLE:    59 TIME:   0.008 TIME LEFT:  2.00D  GRAD.:    19.996 HEAT:  85.17768
 CYCLE:    60 TIME:   0.031 TIME LEFT:  2.00D  GRAD.:    22.015 HEAT:  85.04229
 CYCLE:    61 TIME:   0.008 TIME LEFT:  2.00D  GRAD.:     4.601 HEAT:  84.90309
 CYCLE:    62 TIME:   0.008 TIME LEFT:  2.00D  GRAD.:     3.284 HEAT:  84.85901
 CYCLE:    63 TIME:   0.008 TIME LEFT:  2.00D  GRAD.:    10.716 HEAT:  84.83555
 CYCLE:    64 TIME:   0.008 TIME LEFT:  2.00D  GRAD.:     8.972 HEAT:  84.75897
 CYCLE:    65 TIME:   0.008 TIME LEFT:  2.00D  GRAD.:     3.940 HEAT:  84.67232
 CYCLE:    66 TIME:   0.008 TIME LEFT:  2.00D  GRAD.:    10.915 HEAT:  84.59649
 CYCLE:    67 TIME:   0.008 TIME LEFT:  2.00D  GRAD.:    23.221 HEAT:  84.57614
 CYCLE:    68 TIME:   0.008 TIME LEFT:  2.00D  GRAD.:     6.316 HEAT:  84.44981
 CYCLE:    69 TIME:   0.008 TIME LEFT:  2.00D  GRAD.:    13.687 HEAT:  84.43840
 CYCLE:    70 TIME:   0.008 TIME LEFT:  2.00D  GRAD.:     5.862 HEAT:  84.39219
 CYCLE:    71 TIME:   0.008 TIME LEFT:  2.00D  GRAD.:     8.679 HEAT:  84.37880
 CYCLE:    72 TIME:   0.008 TIME LEFT:  2.00D  GRAD.:     4.038 HEAT:  84.32104
 CYCLE:    73 TIME:   0.008 TIME LEFT:  2.00D  GRAD.:     6.570 HEAT:  84.27362
 CYCLE:    74 TIME:   0.008 TIME LEFT:  2.00D  GRAD.:    13.248 HEAT:  84.23315
 CYCLE:    75 TIME:   0.008 TIME LEFT:  2.00D  GRAD.:     3.506 HEAT:  84.18717
 CYCLE:    76 TIME:   0.008 TIME LEFT:  2.00D  GRAD.:     4.393 HEAT:  84.15851
 CYCLE:    77 TIME:   0.008 TIME LEFT:  2.00D  GRAD.:     5.797 HEAT:  84.12306
 CYCLE:    78 TIME:   0.008 TIME LEFT:  2.00D  GRAD.:     2.990 HEAT:  84.09837
 CYCLE:    79 TIME:   0.008 TIME LEFT:  2.00D  GRAD.:     2.666 HEAT:  84.08477
 CYCLE:    80 TIME:   0.008 TIME LEFT:  2.00D  GRAD.:     2.359 HEAT:  84.07324
 CYCLE:    81 TIME:   0.008 TIME LEFT:  2.00D  GRAD.:     2.719 HEAT:  84.06691
 CYCLE:    82 TIME:   0.008 TIME LEFT:  2.00D  GRAD.:     1.748 HEAT:  84.05969
 CYCLE:    83 TIME:   0.012 TIME LEFT:  2.00D  GRAD.:     1.224 HEAT:  84.05283
 CYCLE:    84 TIME:   0.008 TIME LEFT:  2.00D  GRAD.:     0.998 HEAT:  84.04994
 CYCLE:    85 TIME:   0.008 TIME LEFT:  2.00D  GRAD.:     1.114 HEAT:  84.04770
 CYCLE:    86 TIME:   0.008 TIME LEFT:  2.00D  GRAD.:     1.075 HEAT:  84.04630
 CYCLE:    87 TIME:   0.008 TIME LEFT:  2.00D  GRAD.:     0.922 HEAT:  84.04468
 CYCLE:    88 TIME:   0.008 TIME LEFT:  2.00D  GRAD.:     0.825 HEAT:  84.04341
 CYCLE:    89 TIME:   0.008 TIME LEFT:  2.00D  GRAD.:     1.062 HEAT:  84.04181
 CYCLE:    90 TIME:   0.008 TIME LEFT:  2.00D  GRAD.:     1.439 HEAT:  84.03942
 CYCLE:    91 TIME:   0.008 TIME LEFT:  2.00D  GRAD.:     1.677 HEAT:  84.03641
 CYCLE:    92 TIME:   0.008 TIME LEFT:  2.00D  GRAD.:     1.589 HEAT:  84.03281
 CYCLE:    93 TIME:   0.008 TIME LEFT:  2.00D  GRAD.:     1.456 HEAT:  84.02864
 CYCLE:    94 TIME:   0.008 TIME LEFT:  2.00D  GRAD.:     1.129 HEAT:  84.02585
 CYCLE:    95 TIME:   0.008 TIME LEFT:  2.00D  GRAD.:     1.573 HEAT:  84.02153
 CYCLE:    96 TIME:   0.008 TIME LEFT:  2.00D  GRAD.:     1.837 HEAT:  84.01742
 CYCLE:    97 TIME:   0.008 TIME LEFT:  2.00D  GRAD.:     2.640 HEAT:  84.01089
 CYCLE:    98 TIME:   0.008 TIME LEFT:  2.00D  GRAD.:     2.513 HEAT:  84.00754
 CYCLE:    99 TIME:   0.004 TIME LEFT:  2.00D  GRAD.:     3.537 HEAT:  84.00486
 CYCLE:   100 TIME:   0.008 TIME LEFT:  2.00D  GRAD.:     1.876 HEAT:  84.00016
 CYCLE:   101 TIME:   0.008 TIME LEFT:  2.00D  GRAD.:     1.161 HEAT:  83.99636
 CYCLE:   102 TIME:   0.008 TIME LEFT:  2.00D  GRAD.:     1.698 HEAT:  83.98781
 CYCLE:   103 TIME:   0.008 TIME LEFT:  2.00D  GRAD.:     1.422 HEAT:  83.98356
 CYCLE:   104 TIME:   0.008 TIME LEFT:  2.00D  GRAD.:     2.872 HEAT:  83.97989
 CYCLE:   105 TIME:   0.008 TIME LEFT:  2.00D  GRAD.:     1.008 HEAT:  83.97689
 CYCLE:   106 TIME:   0.004 TIME LEFT:  2.00D  GRAD.:     0.800 HEAT:  83.97498
 CYCLE:   107 TIME:   0.008 TIME LEFT:  2.00D  GRAD.:     3.826 HEAT:  83.97795
 CYCLE:   108 TIME:   0.012 TIME LEFT:  2.00D  GRAD.:     0.877 HEAT:  83.97080
 CYCLE:   109 TIME:   0.008 TIME LEFT:  2.00D  GRAD.:     0.589 HEAT:  83.97005
 CYCLE:   110 TIME:   0.008 TIME LEFT:  2.00D  GRAD.:     1.879 HEAT:  83.97021
 CYCLE:   111 TIME:   0.008 TIME LEFT:  2.00D  GRAD.:     0.517 HEAT:  83.96869
 CYCLE:   112 TIME:   0.008 TIME LEFT:  2.00D  GRAD.:     0.388 HEAT:  83.96830
 CYCLE:   113 TIME:   0.008 TIME LEFT:  2.00D  GRAD.:     0.526 HEAT:  83.96771
 CYCLE:   114 TIME:   0.008 TIME LEFT:  2.00D  GRAD.:     0.278 HEAT:  83.96747
 CYCLE:   115 TIME:   0.012 TIME LEFT:  2.00D  GRAD.:     0.185 HEAT:  83.96751
 CYCLE:   116 TIME:   0.008 TIME LEFT:  2.00D  GRAD.:     0.177 HEAT:  83.96741
 CYCLE:   117 TIME:   0.004 TIME LEFT:  2.00D  GRAD.:     0.169 HEAT:  83.96737
 CYCLE:   118 TIME:   0.012 TIME LEFT:  2.00D  GRAD.:     0.179 HEAT:  83.96731
 CYCLE:   119 TIME:   0.004 TIME LEFT:  2.00D  GRAD.:     0.195 HEAT:  83.96728
 CYCLE:   120 TIME:   0.008 TIME LEFT:  2.00D  GRAD.:     0.129 HEAT:  83.96726
 CYCLE:   121 TIME:   0.008 TIME LEFT:  2.00D  GRAD.:     0.153 HEAT:  83.96724
 CYCLE:   122 TIME:   0.008 TIME LEFT:  2.00D  GRAD.:     0.072 HEAT:  83.96723
 CYCLE:   123 TIME:   0.004 TIME LEFT:  2.00D  GRAD.:     0.063 HEAT:  83.96723
 CYCLE:   124 TIME:   0.008 TIME LEFT:  2.00D  GRAD.:     0.054 HEAT:  83.96722
 CYCLE:   125 TIME:   0.004 TIME LEFT:  2.00D  GRAD.:     0.049 HEAT:  83.96722

     GRADIENT =  0.04890 IS LESS THAN CUTOFF =  0.05000



 -------------------------------------------------------------------------------
 pm3  precise nosym THREADS=1
 InChI=1S/C10H10/c1-2-3-7-10-8-5-4-6-9-10/h1,5-9H,3-4H2



     GEOMETRY OPTIMISED USING EIGENVECTOR FOLLOWING (EF).     
     SCF FIELD WAS ACHIEVED                                   


                              PM3 CALCULATION
                                                       MOPAC v23.1.2 MacOS
                                                       Tue Jun  3 16:31:10 2025




          FINAL HEAT OF FORMATION =         83.96722 KCAL/MOL =     351.31886 KJ/MOL


          COSMO AREA              =        185.74 SQUARE ANGSTROMS
          COSMO VOLUME            =        180.34 CUBIC ANGSTROMS

          GRADIENT NORM           =          0.04890          =       0.01093 PER ATOM
          IONIZATION POTENTIAL    =          8.583489 EV
          HOMO LUMO ENERGIES (EV) =         -8.583 -0.159
          NO. OF FILLED LEVELS    =         25
          MOLECULAR WEIGHT        =        130.1890         POINT GROUP:  C1  

          MOLECULAR DIMENSIONS (Angstroms)

            Atom       Atom       Distance
            H    20    H    11     9.15377
            H    17    H    18     4.69938
            H    13    H    12     4.18750


          SCF CALCULATIONS        =        141

          WALL-CLOCK TIME         =      1.039 SECONDS
          COMPUTATION TIME        =      0.611 SECONDS




   ATOM   CHEMICAL          X               Y               Z
  NUMBER   SYMBOL      (ANGSTROMS)     (ANGSTROMS)     (ANGSTROMS)

     1       C         -2.93706165  *   0.34510031  *   0.39824066  *
     2       C          2.14023224  *   0.14082670  *  -0.93775969  *
     3       C         -0.14723485  *  -0.36885981  *  -0.05327937  *
     4       C          1.12834182  *  -0.73450886  *  -0.28292192  *
     5       C         -2.36820155  *  -0.97448854  *   0.77248159  *
     6       C         -1.94841307  *   1.28028618  *  -0.19576524  *
     7       C         -1.08726940  *  -1.29987126  *   0.56603896  *
     8       C         -0.66956626  *   0.94860782  *  -0.40111761  *
     9       C          3.36642639  *   0.18806958  *  -0.18276404  *
    10       C          4.38128054  *   0.23248287  *   0.43943000  *
    11       H         -3.77101501  *   0.19278176  *  -0.31804199  *
    12       H         -3.38884766  *   0.81525030  *   1.29622122  *
    13       H          2.35593751  *  -0.24895189  *  -1.95401396  *
    14       H          1.75319115  *   1.17711376  *  -1.07434410  *
    15       H          1.47673268  *  -1.73240321  *   0.01202616  *
    16       H         -3.06083395  *  -1.68561504  *   1.23625123  *
    17       H         -2.32107579  *   2.27560729  *  -0.46203644  *
    18       H         -0.70119515  *  -2.28405223  *   0.85704648  *
    19       H          0.04949801  *   1.65950133  *  -0.83733917  *
    20       H          5.28770870  *   0.27320226  *   0.99516073  *

                             CARTESIAN COORDINATES

   1    C       -2.937061649     0.345100306     0.398240664
   2    C        2.140232242     0.140826701    -0.937759688
   3    C       -0.147234852    -0.368859805    -0.053279368
   4    C        1.128341820    -0.734508863    -0.282921916
   5    C       -2.368201554    -0.974488544     0.772481588
   6    C       -1.948413066     1.280286177    -0.195765244
   7    C       -1.087269395    -1.299871258     0.566038959
   8    C       -0.669566264     0.948607824    -0.401117612
   9    C        3.366426389     0.188069582    -0.182764043
  10    C        4.381280538     0.232482874     0.439430003
  11    H       -3.771015014     0.192781764    -0.318041988
  12    H       -3.388847662     0.815250305     1.296221218
  13    H        2.355937513    -0.248951887    -1.954013958
  14    H        1.753191146     1.177113758    -1.074344100
  15    H        1.476732680    -1.732403208     0.012026158
  16    H       -3.060833947    -1.685615038     1.236251231
  17    H       -2.321075794     2.275607292    -0.462036444
  18    H       -0.701195147    -2.284052226     0.857046483
  19    H        0.049498010     1.659501334    -0.837339168
  20    H        5.287708704     0.273202261     0.995160732


           Empirical Formula: C10 H10  =    20 atoms



      MOLECULAR POINT GROUP   :   C1  


                  EIGENVALUES  
 -40.05534 -35.56630 -31.04763 -30.07726 -27.40837 -24.05452 -21.24302 -19.84288
 -18.05209 -17.81151 -16.65906 -15.78329 -15.75698 -14.98465 -14.89579 -14.63836
 -14.14587 -13.23618 -13.01521 -11.97123 -11.74549 -11.00944 -10.79048 -10.42472
  -8.58349  -0.15904   1.02110   1.88801   1.92928   2.40735   2.79001   3.18287
   3.31112   3.35567   3.52781   3.68111   3.77658   4.06809   4.18309   4.33670
   4.34646   4.39166   4.43612   5.00309   5.19336   5.37030   5.46072   6.21372
   6.24466   6.70650


              NET ATOMIC CHARGES AND DIPOLE CONTRIBUTIONS

  ATOM NO.   TYPE          CHARGE      No. of ELECS.   s-Pop       p-Pop       
    1          C          -0.027984        4.0280     1.13221     2.89577
    2          C           0.078731        3.9213     1.10149     2.81977
    3          C          -0.043743        4.0437     1.16514     2.87861
    4          C          -0.138171        4.1382     1.19548     2.94269
    5          C          -0.133926        4.1339     1.19494     2.93898
    6          C          -0.125885        4.1259     1.19418     2.93171
    7          C          -0.101803        4.1018     1.17949     2.92231
    8          C          -0.112244        4.1122     1.17900     2.93324
    9          C          -0.181606        4.1816     1.21134     2.97027
   10          C          -0.186778        4.1868     1.21053     2.97625
   11          H           0.065482        0.9345     0.93452
   12          H           0.065277        0.9347     0.93472
   13          H           0.065120        0.9349     0.93488
   14          H           0.067535        0.9325     0.93247
   15          H           0.106617        0.8934     0.89338
   16          H           0.098729        0.9013     0.90127
   17          H           0.098417        0.9016     0.90158
   18          H           0.102579        0.8974     0.89742
   19          H           0.108084        0.8919     0.89192
   20          H           0.195571        0.8044     0.80443
 DIPOLE           X         Y         Z       TOTAL
 POINT-CHG.    -0.875     0.178    -0.240     0.925
 HYBRID         0.130    -0.016     0.118     0.176
 SUM           -0.745     0.162    -0.122     0.772


          ATOMIC ORBITAL ELECTRON POPULATIONS

     Atom    s        px        py        pz   
    1  C   1.13221   0.96664   0.93549   0.99364
    2  C   1.10149   0.87918   0.98901   0.95158
    3  C   1.16514   0.94305   0.94230   0.99326
    4  C   1.19548   0.94128   0.99427   1.00715
    5  C   1.19494   0.96686   0.97349   0.99864
    6  C   1.19418   0.95657   0.98423   0.99091
    7  C   1.17949   0.94525   0.97698   1.00008
    8  C   1.17900   0.96186   0.95910   1.01228
    9  C   1.21134   0.96975   1.00567   0.99484
   10  C   1.21053   0.97256   1.01012   0.99357
   11  H   0.93452
   12  H   0.93472
   13  H   0.93488
   14  H   0.93247
   15  H   0.89338
   16  H   0.90127
   17  H   0.90158
   18  H   0.89742
   19  H   0.89192
   20  H   0.80443
 *******************************************************************************
 **                                                                           **
 **                              MOPAC v23.1.2                                **
 **                                                                           **
 *******************************************************************************
 **          Digital Object Identifier (DOI): 10.5281/zenodo.6511958          **
 **    Visit the DOI location for information on how to cite this program.    **
 *******************************************************************************

                              PM3 CALCULATION RESULTS

 *******************************************************************************
 *  CALCULATION DONE: (MAX THREADS = 1)              Tue Jun  3 16:31:10 2025  *
 *  PM3        - The PM3 Hamiltonian to be used
 *  OLDGEO     - PREVIOUS GEOMETRY TO BE USED
 *  PRECISE    - TIGHTER CRITERIA TO BE USED
 *  NOSYM      - POINT-GROUP SYMMETRY SET TO C1
 *  THREADS=1  - MULTI-THREADING NOT USED
 *  T=         - A TIME OF 172800.0 SECONDS REQUESTED
 *  DUMP=N     - RESTART FILE WRITTEN EVERY 7200.0 SECONDS REQUESTED
 *  THERMO     - THERMODYNAMIC QUANTITIES TO BE CALCULATED
 *******************************************************************************
oldgeo thermo nosym precise THREADS=1  pm3
 InChI=1S/C10H10/c1-2-3-7-10-8-5-4-6-9-10/h1,5-9H,3-4H2

   ATOM   CHEMICAL          X               Y               Z
  NUMBER   SYMBOL      (ANGSTROMS)     (ANGSTROMS)     (ANGSTROMS)

     1       C         -2.93706165  *   0.34510031  *   0.39824066  *
     2       C          2.14023224  *   0.14082670  *  -0.93775969  *
     3       C         -0.14723485  *  -0.36885981  *  -0.05327937  *
     4       C          1.12834182  *  -0.73450886  *  -0.28292192  *
     5       C         -2.36820155  *  -0.97448854  *   0.77248159  *
     6       C         -1.94841307  *   1.28028618  *  -0.19576524  *
     7       C         -1.08726940  *  -1.29987126  *   0.56603896  *
     8       C         -0.66956626  *   0.94860782  *  -0.40111761  *
     9       C          3.36642639  *   0.18806958  *  -0.18276404  *
    10       C          4.38128054  *   0.23248287  *   0.43943000  *
    11       H         -3.77101501  *   0.19278176  *  -0.31804199  *
    12       H         -3.38884766  *   0.81525030  *   1.29622122  *
    13       H          2.35593751  *  -0.24895189  *  -1.95401396  *
    14       H          1.75319115  *   1.17711376  *  -1.07434410  *
    15       H          1.47673268  *  -1.73240321  *   0.01202616  *
    16       H         -3.06083395  *  -1.68561504  *   1.23625123  *
    17       H         -2.32107579  *   2.27560729  *  -0.46203644  *
    18       H         -0.70119515  *  -2.28405223  *   0.85704648  *
    19       H          0.04949801  *   1.65950133  *  -0.83733917  *
    20       H          5.28770870  *   0.27320226  *   0.99516073  *



          CARTESIAN COORDINATES 

    NO.       ATOM           X           Y           Z

     1         C         -2.9371      0.3451      0.3982
     2         C          2.1402      0.1408     -0.9378
     3         C         -0.1472     -0.3689     -0.0533
     4         C          1.1283     -0.7345     -0.2829
     5         C         -2.3682     -0.9745      0.7725
     6         C         -1.9484      1.2803     -0.1958
     7         C         -1.0873     -1.2999      0.5660
     8         C         -0.6696      0.9486     -0.4011
     9         C          3.3664      0.1881     -0.1828
    10         C          4.3813      0.2325      0.4394
    11         H         -3.7710      0.1928     -0.3180
    12         H         -3.3888      0.8153      1.2962
    13         H          2.3559     -0.2490     -1.9540
    14         H          1.7532      1.1771     -1.0743
    15         H          1.4767     -1.7324      0.0120
    16         H         -3.0608     -1.6856      1.2363
    17         H         -2.3211      2.2756     -0.4620
    18         H         -0.7012     -2.2841      0.8570
    19         H          0.0495      1.6595     -0.8373
    20         H          5.2877      0.2732      0.9952

  H: (PM3): J. J. P. STEWART, J. COMP. CHEM. 10, 209 (1989).
  C: (PM3): J. J. P. STEWART, J. COMP. CHEM. 10, 209 (1989).

           Empirical Formula: C10 H10  =    20 atoms



      MOLECULAR POINT GROUP   :   C1  


      RHF CALCULATION, NO. OF DOUBLY OCCUPIED LEVELS = 25



          HEAT OF FORMATION =      83.967222 KCALS/MOLE


          CARTESIAN COORDINATE DERIVATIVES

   NUMBER  ATOM         X            Y            Z

     1       C      0.002230     0.003071    -0.011463
     2       C     -0.011269     0.001963     0.006757
     3       C      0.008175     0.008660     0.002180
     4       C     -0.003999    -0.001983     0.000383
     5       C     -0.005972    -0.001107     0.005315
     6       C      0.008484     0.002090    -0.001542
     7       C      0.003928     0.008852    -0.001788
     8       C     -0.011867    -0.007915     0.003879
     9       C      0.007612     0.003105    -0.009990
    10       C      0.011862     0.004708     0.010022
    11       H     -0.006044    -0.009842     0.002027
    12       H     -0.001930    -0.002926     0.006279
    13       H      0.003479     0.002386     0.004612
    14       H     -0.001139    -0.008920    -0.002908
    15       H     -0.004362     0.004166     0.004012
    16       H      0.015005     0.001812    -0.003398
    17       H     -0.005283    -0.001082    -0.000932
    18       H     -0.005351    -0.007583     0.000047
    19       H     -0.002389     0.005808     0.000344
    20       H     -0.001170    -0.005264    -0.013837



          GRADIENT NORM =   0.04863

          MOLECULAR WEIGHT =  130.19



          ROTATIONAL CONSTANTS IN CM(-1)

          A =    0.12919736   B =    0.02159373   C =    0.01959802



           PRINCIPAL MOMENTS OF INERTIA IN UNITS OF 10**(-40)*GRAM-CM**2

          A =      216.6666   B =     1296.3370   C =     1428.3461


          ORIENTATION OF MOLECULE IN FORCE CALCULATION

    NO.       ATOM         X         Y         Z

     1          C      -3.0996   -0.3912    0.2735
     2          C       2.1545   -0.3912    0.2735
     3          C      -0.2611    0.2718    0.2735
     4          C       1.0442    0.6012    0.3100
     5          C      -2.5937    1.0029    0.3480
     6          C      -2.0295   -1.4149    0.1647
     7          C      -1.2908    1.3055    0.3463
     8          C      -0.7286   -1.1063    0.1651
     9          C       3.1456   -0.0399   -0.7114
    10          C       3.9664    0.2450   -1.5264
    11          H      -3.7174   -0.6034    1.1707
    12          H      -3.7828   -0.4851   -0.5960
    13          H       2.6365   -0.4354    1.2719
    14          H       1.7749   -1.4177    0.0622
    15          H       1.3446    1.6545    0.3761
    16          H      -3.3533    1.7904    0.4055
    17          H      -2.3606   -2.4559    0.0805
    18          H      -0.9534    2.3474    0.4009
    19          H       0.0495   -1.8806    0.0770
    20          H       4.6994    0.4985   -2.2548


    FIRST DERIVATIVES WILL BE USED IN THE CALCULATION OF SECOND DERIVATIVES

          ESTIMATED TIME TO COMPLETE CALCULATION =        1.88 SECONDS

    FOR POINT-GROUP C1   THERE ARE   1 UNIQUE SYMMETRY FUNCTIONS.

 STEP:   1 TIME =     0.02 SECS, INTEGRAL =      0.02 TIME LEFT: 172799.97
 STEP:   2 TIME =     0.02 SECS, INTEGRAL =      0.04 TIME LEFT: 172799.96
 STEP:   3 TIME =     0.02 SECS, INTEGRAL =      0.05 TIME LEFT: 172799.94
 STEP:   4 TIME =     0.02 SECS, INTEGRAL =      0.07 TIME LEFT: 172799.92
 STEP:   5 TIME =     0.02 SECS, INTEGRAL =      0.09 TIME LEFT: 172799.90
 STEP:   6 TIME =     0.02 SECS, INTEGRAL =      0.11 TIME LEFT: 172799.88
 STEP:   7 TIME =     0.02 SECS, INTEGRAL =      0.13 TIME LEFT: 172799.86
 STEP:   8 TIME =     0.02 SECS, INTEGRAL =      0.15 TIME LEFT: 172799.84
 STEP:   9 TIME =     0.02 SECS, INTEGRAL =      0.18 TIME LEFT: 172799.82
 STEP:  10 TIME =     0.02 SECS, INTEGRAL =      0.20 TIME LEFT: 172799.80
 STEP:  11 TIME =     0.02 SECS, INTEGRAL =      0.21 TIME LEFT: 172799.78
 STEP:  12 TIME =     0.02 SECS, INTEGRAL =      0.24 TIME LEFT: 172799.75
 STEP:  13 TIME =     0.02 SECS, INTEGRAL =      0.26 TIME LEFT: 172799.73
 STEP:  14 TIME =     0.02 SECS, INTEGRAL =      0.28 TIME LEFT: 172799.71
 STEP:  15 TIME =     0.02 SECS, INTEGRAL =      0.30 TIME LEFT: 172799.69
 STEP:  16 TIME =     0.02 SECS, INTEGRAL =      0.32 TIME LEFT: 172799.67
 STEP:  17 TIME =     0.02 SECS, INTEGRAL =      0.34 TIME LEFT: 172799.65
 STEP:  18 TIME =     0.02 SECS, INTEGRAL =      0.36 TIME LEFT: 172799.63
 STEP:  19 TIME =     0.02 SECS, INTEGRAL =      0.38 TIME LEFT: 172799.61
 STEP:  20 TIME =     0.02 SECS, INTEGRAL =      0.40 TIME LEFT: 172799.59
 STEP:  21 TIME =     0.02 SECS, INTEGRAL =      0.43 TIME LEFT: 172799.57
 STEP:  22 TIME =     0.02 SECS, INTEGRAL =      0.45 TIME LEFT: 172799.55
 STEP:  23 TIME =     0.02 SECS, INTEGRAL =      0.46 TIME LEFT: 172799.53
 STEP:  24 TIME =     0.02 SECS, INTEGRAL =      0.49 TIME LEFT: 172799.50
 STEP:  25 TIME =     0.02 SECS, INTEGRAL =      0.51 TIME LEFT: 172799.48
 STEP:  26 TIME =     0.02 SECS, INTEGRAL =      0.53 TIME LEFT: 172799.46
 STEP:  27 TIME =     0.02 SECS, INTEGRAL =      0.55 TIME LEFT: 172799.44
 STEP:  28 TIME =     0.02 SECS, INTEGRAL =      0.57 TIME LEFT: 172799.42
 STEP:  29 TIME =     0.02 SECS, INTEGRAL =      0.59 TIME LEFT: 172799.40
 STEP:  30 TIME =     0.02 SECS, INTEGRAL =      0.61 TIME LEFT: 172799.38
 STEP:  31 TIME =     0.02 SECS, INTEGRAL =      0.63 TIME LEFT: 172799.36
 STEP:  32 TIME =     0.02 SECS, INTEGRAL =      0.65 TIME LEFT: 172799.34
 STEP:  33 TIME =     0.02 SECS, INTEGRAL =      0.67 TIME LEFT: 172799.32
 STEP:  34 TIME =     0.02 SECS, INTEGRAL =      0.69 TIME LEFT: 172799.30
 STEP:  35 TIME =     0.02 SECS, INTEGRAL =      0.71 TIME LEFT: 172799.28
 STEP:  36 TIME =     0.02 SECS, INTEGRAL =      0.73 TIME LEFT: 172799.26
 STEP:  37 TIME =     0.02 SECS, INTEGRAL =      0.75 TIME LEFT: 172799.24
 STEP:  38 TIME =     0.02 SECS, INTEGRAL =      0.77 TIME LEFT: 172799.22
 STEP:  39 TIME =     0.02 SECS, INTEGRAL =      0.79 TIME LEFT: 172799.20
 STEP:  40 TIME =     0.02 SECS, INTEGRAL =      0.81 TIME LEFT: 172799.18
 STEP:  41 TIME =     0.02 SECS, INTEGRAL =      0.83 TIME LEFT: 172799.16
 STEP:  42 TIME =     0.02 SECS, INTEGRAL =      0.85 TIME LEFT: 172799.14
 STEP:  43 TIME =     0.02 SECS, INTEGRAL =      0.87 TIME LEFT: 172799.12
 STEP:  44 TIME =     0.02 SECS, INTEGRAL =      0.89 TIME LEFT: 172799.11
 STEP:  45 TIME =     0.02 SECS, INTEGRAL =      0.91 TIME LEFT: 172799.08
 STEP:  46 TIME =     0.02 SECS, INTEGRAL =      0.93 TIME LEFT: 172799.06
 STEP:  47 TIME =     0.02 SECS, INTEGRAL =      0.95 TIME LEFT: 172799.04
 STEP:  48 TIME =     0.02 SECS, INTEGRAL =      0.97 TIME LEFT: 172799.02
 STEP:  49 TIME =     0.02 SECS, INTEGRAL =      0.99 TIME LEFT: 172799.00
 STEP:  50 TIME =     0.02 SECS, INTEGRAL =      1.01 TIME LEFT: 172798.98
 STEP:  51 TIME =     0.02 SECS, INTEGRAL =      1.04 TIME LEFT: 172798.96
 STEP:  52 TIME =     0.02 SECS, INTEGRAL =      1.05 TIME LEFT: 172798.94
 STEP:  53 TIME =     0.02 SECS, INTEGRAL =      1.07 TIME LEFT: 172798.92
 STEP:  54 TIME =     0.02 SECS, INTEGRAL =      1.09 TIME LEFT: 172798.90
 STEP:  55 TIME =     0.02 SECS, INTEGRAL =      1.11 TIME LEFT: 172798.88
 STEP:  56 TIME =     0.02 SECS, INTEGRAL =      1.13 TIME LEFT: 172798.86
 STEP:  57 TIME =     0.02 SECS, INTEGRAL =      1.16 TIME LEFT: 172798.84
 STEP:  58 TIME =     0.02 SECS, INTEGRAL =      1.18 TIME LEFT: 172798.82
 STEP:  59 TIME =     0.02 SECS, INTEGRAL =      1.20 TIME LEFT: 172798.80
 STEP:  60 TIME =     0.02 SECS, INTEGRAL =      1.21 TIME LEFT: 172798.78

(To convert to Hartree/Bohr^2, multiply by (10^(-21) x N x a0^2)/(4.184 x 627.51) =  0.0642)


           FORCE MATRIX IN MILLIDYNES/ANGSTROM


                  C  1       C  2       C  3       C  4       C  5       C  6
 ------------------------------------------------------------------------------
     C    1  15.108856
     C    2   0.007310  15.390663
     C    3   0.206400   0.774824  19.120917
     C    4   0.032666   4.873677   9.743634  17.873274
     C    5   5.031340   0.019061   1.064801   0.115918  18.109279
     C    6   5.029873   0.019765   1.071081   0.120753   0.737108  18.121444
     C    7   0.846667   0.130750   5.354627   1.057842  10.395987   0.062367
     C    8   0.853103   0.109041   5.396336   0.990817   0.062774  10.414637
     C    9   0.002556   6.403229   0.043517   0.835125   0.004373   0.004729
     C   10   0.002615   0.527224   0.006636   0.036652   0.002894   0.002328
     H   11   4.370769   0.001613   0.016078   0.004922   0.418611   0.418271
     H   12   4.376702   0.001509   0.016265   0.004442   0.418992   0.418837
     H   13   0.001215   4.376222   0.032662   0.416410   0.002235   0.001753
     H   14   0.001626   4.222160   0.038000   0.463414   0.001310   0.004202
     H   15   0.003880   0.435098   0.450524   4.781367   0.006950   0.009384
     H   16   0.424457   0.010070   0.124383   0.007795   4.830013   0.047559
     H   17   0.424273   0.006548   0.127783   0.010122   0.047094   4.830159
     H   18   0.125351   0.002461   0.443206   0.046582   0.441009   0.003596
     H   19   0.125694   0.101406   0.444609   0.035269   0.003597   0.440738
     H   20   0.001346   0.069961   0.001530   0.008987   0.001358   0.001203


                  C  7       C  8       C  9       C 10       H 11       H 12
 ------------------------------------------------------------------------------
     C    7  18.535591
     C    8   0.731353  18.547932
     C    9   0.021829   0.012597  24.955345
     C   10   0.003866   0.003054  17.544800  23.884187
     H   11   0.037871   0.038636   0.000314   0.000336   4.960152
     H   12   0.038871   0.039184   0.000643   0.000378   0.566900   4.964389
     H   13   0.019840   0.010712   0.438537   0.034074   0.000387   0.000320
     H   14   0.004340   0.118933   0.429376   0.032304   0.000319   0.000675
     H   15   0.086711   0.111292   0.021589   0.004288   0.001374   0.001386
     H   16   0.441497   0.006089   0.001923   0.000782   0.026583   0.028513
     H   17   0.006237   0.440746   0.001096   0.000941   0.026267   0.028587
     H   18   4.800174   0.041821   0.001011   0.000846   0.016249   0.016140
     H   19   0.042639   4.632054   0.004821   0.001882   0.016303   0.016148
     H   20   0.001335   0.001583   0.344358   5.886933   0.000163   0.000187


                  H 13       H 14       H 15       H 16       H 17       H 18
 ------------------------------------------------------------------------------
     H   13   4.927802
     H   14   0.532910   4.873331
     H   15   0.017038   0.039086   5.160082
     H   16   0.001655   0.000463   0.005278   5.204194
     H   17   0.000890   0.000960   0.009343   0.006788   5.204533
     H   18   0.000799   0.000722   0.029783   0.068629   0.001198   5.174932
     H   19   0.002602   0.166621   0.003220   0.001128   0.068524   0.006187
     H   20   0.007055   0.006836   0.001221   0.000418   0.000477   0.000394


                  H 19       H 20
 ------------------------------
     H   19   5.082073
     H   20   0.000854   6.065490


          HEAT OF FORMATION =      83.967222 KCALS/MOLE

          ZERO POINT ENERGY     103.414 KCAL/MOL


           NORMAL COORDINATE ANALYSIS (Total motion = 1 Angstrom)


   Root No.       1         2         3         4         5         6         7         8

                 1 A       2 A       3 A       4 A       5 A       6 A       7 A       8 A   

                  21.6      75.3     108.4     230.7     277.5     306.3     381.3     388.0
  
           1   -0.0095   -0.0071    0.0039   -0.0008    0.0203   -0.0085   -0.0094    0.0000
           2    0.0024    0.0107    0.0157   -0.0104   -0.0192    0.0052   -0.0038    0.0010
           3    0.0507   -0.0466    0.0185    0.0140   -0.0100   -0.0116    0.0010    0.0022
           4   -0.0129   -0.0034    0.0070   -0.0092   -0.0343    0.0098    0.0029    0.0044
           5   -0.0162   -0.0158   -0.0354   -0.0005   -0.0388    0.0130   -0.0108    0.0055
           6   -0.0362   -0.0342    0.0124   -0.0323   -0.0144   -0.0044   -0.0063    0.0086
           7   -0.0084   -0.0016    0.0090   -0.0022    0.0039   -0.0010    0.0005   -0.0005
           8   -0.0041   -0.0093   -0.0180    0.0104    0.0395   -0.0087    0.0064   -0.0009
           9   -0.0281    0.0222    0.0024    0.0450   -0.0166   -0.0265    0.0007   -0.0033
          10   -0.0068    0.0003    0.0109   -0.0004    0.0089   -0.0030    0.0051   -0.0007
          11   -0.0094   -0.0123   -0.0315    0.0075    0.0135   -0.0053   -0.0025    0.0009
          12   -0.0391   -0.0183    0.0341    0.0441    0.0068    0.0493   -0.0179   -0.0182
          13   -0.0047    0.0017    0.0184   -0.0106   -0.0052    0.0002   -0.0086   -0.0007
          14    0.0027    0.0055    0.0136   -0.0036   -0.0098    0.0005   -0.0028    0.0036
          15    0.0136   -0.0119   -0.0408   -0.0430    0.0084    0.0101   -0.0208   -0.0422
          16   -0.0150   -0.0103   -0.0089    0.0063    0.0371   -0.0105   -0.0032    0.0000
          17   -0.0002   -0.0007    0.0023    0.0009   -0.0013   -0.0040    0.0020   -0.0024
          18    0.0200    0.0290    0.0140   -0.0136    0.0229    0.0465    0.0135    0.0316
          19   -0.0041    0.0039    0.0219   -0.0117   -0.0116    0.0016   -0.0077    0.0009
          20   -0.0002   -0.0039   -0.0024    0.0040    0.0225   -0.0066   -0.0016   -0.0033
          21   -0.0235    0.0223   -0.0404    0.0097   -0.0064   -0.0136    0.0253    0.0535
          22   -0.0143   -0.0081   -0.0052    0.0036    0.0267   -0.0091   -0.0045   -0.0010
          23   -0.0030   -0.0099   -0.0129    0.0105    0.0315   -0.0057    0.0091    0.0024
          24   -0.0168    0.0589    0.0019    0.0108   -0.0106   -0.0354   -0.0133   -0.0399
          25    0.0230    0.0074   -0.0130   -0.0061   -0.0225   -0.0007    0.0647   -0.0077
          26    0.0059    0.0066    0.0048    0.0122   -0.0323    0.0318    0.0321   -0.0279
          27    0.0080   -0.0155    0.0055   -0.0254    0.0041   -0.0108    0.0702   -0.0144
          28    0.0557    0.0183   -0.0442    0.0283   -0.0231    0.0191   -0.0208    0.0019
          29    0.0237    0.0287    0.0606   -0.0212    0.0047   -0.0153   -0.0142    0.0111
          30    0.0471    0.0032   -0.0063   -0.0028    0.0175   -0.0081   -0.0324    0.0090
          31    0.0267   -0.0748    0.0340    0.0573   -0.0165   -0.0821   -0.0034    0.0080
          32    0.0140    0.0175    0.0499    0.0078   -0.0316    0.0140    0.0156    0.0474
          33    0.0784   -0.0918    0.0476    0.0592   -0.0389   -0.0614    0.0101    0.0191
          34   -0.0449    0.0554   -0.0279   -0.0535    0.0613    0.0593   -0.0147   -0.0073
          35   -0.0074    0.0175   -0.0060   -0.0444   -0.0280    0.0108   -0.0279   -0.0455
          36    0.0796   -0.0967    0.0461    0.0599   -0.0419   -0.0668    0.0080    0.0135
          37   -0.0452   -0.0116    0.0184    0.0071   -0.0464    0.0313   -0.0893    0.0215
          38   -0.0506   -0.0418   -0.0599   -0.0631   -0.1017   -0.0180   -0.1114    0.0749
          39   -0.0219   -0.0312    0.0053   -0.0428   -0.0116   -0.0163    0.0326    0.0040
          40   -0.0149   -0.0071    0.0028   -0.0230   -0.0527    0.0079    0.0011    0.0101
          41   -0.0068   -0.0091   -0.0293    0.0145   -0.0203    0.0184    0.0143   -0.0103
          42   -0.0786   -0.0599   -0.0093   -0.0818   -0.0655   -0.0311   -0.1320    0.0786
          43   -0.0016    0.0046    0.0179    0.0056    0.0446   -0.0149    0.0115   -0.0039
          44   -0.0104   -0.0119   -0.0347    0.0030    0.0005   -0.0075   -0.0043    0.0019
          45   -0.0472   -0.0430    0.0556    0.0815    0.0346    0.1406   -0.0222   -0.0149
          46   -0.0016    0.0062    0.0271   -0.0177   -0.0234    0.0060   -0.0099   -0.0012
          47    0.0053    0.0103    0.0250   -0.0051   -0.0288    0.0043   -0.0016    0.0077
          48    0.0186   -0.0166   -0.0822   -0.1147    0.0285    0.0355   -0.0520   -0.1053
          49   -0.0198   -0.0149   -0.0221    0.0154    0.0615   -0.0152    0.0034   -0.0002
          50    0.0006   -0.0015    0.0060    0.0009   -0.0121   -0.0091   -0.0015   -0.0064
          51    0.0289    0.0560    0.0212   -0.0492    0.0617    0.1267    0.0304    0.0826
          52   -0.0002    0.0099    0.0345   -0.0203   -0.0309    0.0058   -0.0132    0.0028
          53   -0.0001   -0.0072   -0.0044    0.0073    0.0281   -0.0078   -0.0019   -0.0082
          54   -0.0503    0.0481   -0.0793   -0.0029   -0.0028   -0.0132    0.0631    0.1363
          55   -0.0181   -0.0104   -0.0119    0.0036    0.0241   -0.0098   -0.0047   -0.0010
          56   -0.0042   -0.0177   -0.0192    0.0126    0.0306   -0.0042    0.0119    0.0080
          57   -0.0399    0.1067   -0.0031   -0.0048   -0.0159   -0.0571   -0.0412   -0.0908
          58    0.0846    0.0280   -0.0716    0.0594   -0.0226    0.0371   -0.1071    0.0114
          59    0.0398    0.0485    0.1100   -0.0508    0.0397   -0.0596   -0.0600    0.0503
          60    0.0818    0.0198   -0.0167    0.0181    0.0304   -0.0055   -0.1353    0.0323


   Root No.       9        10        11        12        13        14        15        16

                 9 A      10 A      11 A      12 A      13 A      14 A      15 A      16 A   

                 411.6     548.8     563.7     580.8     605.1     765.4     785.5     819.5
  
           1   -0.0458   -0.0346    0.0193   -0.0280   -0.0150    0.0044   -0.0026   -0.0199
           2   -0.0148   -0.0025    0.0043   -0.0123    0.0359    0.0029    0.0011   -0.0048
           3   -0.0006    0.0025    0.0072    0.0040    0.0036   -0.0217   -0.0236   -0.0073
           4    0.0486   -0.0240   -0.0020    0.0109    0.0011    0.0054   -0.0037   -0.0236
           5   -0.0156    0.0304    0.0068   -0.0268   -0.0122    0.0024   -0.0018   -0.0026
           6    0.0110   -0.0109   -0.0054    0.0163    0.0018    0.0071   -0.0050   -0.0274
           7    0.0088    0.0402   -0.0183    0.0248    0.0168    0.0001    0.0005   -0.0093
           8    0.0286   -0.0146   -0.0079    0.0111   -0.0333   -0.0023   -0.0022   -0.0030
           9    0.0040    0.0154    0.0653    0.0259   -0.0000    0.0260    0.0328    0.0168
          10    0.0271    0.0214   -0.0168    0.0296    0.0078    0.0020   -0.0001   -0.0174
          11   -0.0169    0.0716   -0.0063   -0.0139   -0.0016    0.0049   -0.0012   -0.0184
          12    0.0164    0.0065   -0.0034   -0.0249   -0.0065    0.0138   -0.0032   -0.0082
          13   -0.0359    0.0229   -0.0056    0.0132   -0.0767   -0.0052    0.0023    0.0217
          14   -0.0185   -0.0282    0.0144   -0.0267    0.0423    0.0065   -0.0033   -0.0222
          15    0.0077    0.0009    0.0119   -0.0009    0.0036   -0.0151    0.0172   -0.0095
          16   -0.0143   -0.0194    0.0064   -0.0073    0.0513   -0.0022    0.0006    0.0117
          17    0.0200    0.0141   -0.0119    0.0137    0.0864   -0.0083    0.0049    0.0316
          18   -0.0004    0.0045    0.0129    0.0090    0.0071    0.0090   -0.0220    0.0086
          19   -0.0340    0.0255   -0.0068    0.0116   -0.0469   -0.0039    0.0019    0.0144
          20   -0.0022   -0.0450    0.0140   -0.0083   -0.0800    0.0020   -0.0021    0.0025
          21   -0.0128   -0.0078   -0.0130   -0.0011   -0.0036   -0.0274    0.0092   -0.0112
          22   -0.0168   -0.0095    0.0038   -0.0095    0.0795   -0.0030    0.0004    0.0142
          23    0.0383   -0.0022   -0.0089    0.0295   -0.0378   -0.0026    0.0047    0.0082
          24    0.0048   -0.0048   -0.0219   -0.0094   -0.0059   -0.0040   -0.0334    0.0043
          25    0.0447    0.0063    0.0177   -0.0461   -0.0149    0.0002    0.0003    0.0027
          26   -0.0438   -0.0386   -0.0177    0.0557    0.0101   -0.0030    0.0016    0.0009
          27   -0.0143    0.0042    0.0021   -0.0053   -0.0006   -0.0046    0.0022    0.0062
          28    0.0209   -0.0091    0.0038   -0.0089   -0.0055    0.0018   -0.0003    0.0094
          29    0.0198    0.0039    0.0036   -0.0086   -0.0031   -0.0006    0.0009    0.0049
          30   -0.0191    0.0050   -0.0058    0.0130    0.0059   -0.0032    0.0018    0.0155
          31   -0.0544   -0.0626   -0.0656   -0.0702   -0.0098    0.0709    0.0802   -0.0041
          32   -0.0327    0.0052   -0.0098   -0.0093   -0.0119    0.0417   -0.0261    0.0096
          33   -0.0108   -0.0155   -0.0577   -0.0254   -0.0042    0.0356    0.0295    0.0082
          34   -0.0365   -0.0178    0.1029    0.0061    0.0019   -0.0568   -0.0809   -0.0407
          35   -0.0155    0.0160    0.0238   -0.0047   -0.0163   -0.0409    0.0175   -0.0264
          36   -0.0083   -0.0139   -0.0634   -0.0252   -0.0043    0.0338    0.0386    0.0115
          37    0.0762   -0.0444   -0.0130    0.0296    0.0016    0.0136   -0.0065   -0.0269
          38    0.0263   -0.0409    0.0278   -0.0200   -0.0252   -0.0455    0.0204    0.1345
          39   -0.0000   -0.0050    0.0011    0.0072    0.0008    0.0002   -0.0021   -0.0177
          40    0.0388   -0.0946    0.0070    0.0273    0.0155   -0.0143    0.0038    0.0326
          41   -0.0222    0.0630    0.0012   -0.0327   -0.0142    0.0159   -0.0079   -0.0413
          42    0.0635   -0.0503    0.0067    0.0162   -0.0144   -0.0277    0.0136    0.0724
          43    0.0411    0.0008   -0.0246    0.0579    0.0029   -0.0016    0.0026   -0.0156
          44   -0.0217    0.0768    0.0002   -0.0142    0.0003    0.0146    0.0001   -0.0265
          45    0.0311    0.0052   -0.0708   -0.1434   -0.0303   -0.1249   -0.0368    0.1111
          46   -0.0370    0.0557   -0.0172    0.0234   -0.0436   -0.0054    0.0045    0.0379
          47   -0.0195    0.0044    0.0075   -0.0144    0.0736   -0.0109    0.0019   -0.0150
          48    0.0183   -0.0139   -0.0487   -0.0297   -0.0002    0.2241   -0.0261    0.0939
          49    0.0154   -0.0165   -0.0061    0.0197    0.0208   -0.0071    0.0088    0.0360
          50    0.0107    0.0139   -0.0032    0.0081    0.0958   -0.0095   -0.0219    0.0266
          51   -0.0050   -0.0118   -0.0440   -0.0275    0.0020    0.0407    0.2789   -0.0153
          52   -0.0637    0.0146    0.0032   -0.0099   -0.0159   -0.0004    0.0002    0.0127
          53    0.0083   -0.0389    0.0174    0.0004   -0.0892   -0.0068    0.0059    0.0013
          54   -0.0345   -0.0431   -0.1414   -0.0376   -0.0083    0.1195   -0.1344    0.0225
          55   -0.0135   -0.0419    0.0102   -0.0154    0.0441   -0.0041    0.0034    0.0120
          56    0.0395   -0.0295    0.0134    0.0319   -0.0702    0.0041   -0.0109    0.0109
          57    0.0105   -0.0432   -0.1608   -0.0907   -0.0209   -0.0725    0.1325   -0.0406
          58   -0.0070   -0.0277   -0.0163    0.0492    0.0112    0.0093   -0.0071   -0.0913
          59    0.0869    0.0604    0.0336   -0.1046   -0.0238    0.0153   -0.0111   -0.0401
          60   -0.0245    0.0062   -0.0160    0.0388    0.0159    0.0096   -0.0091   -0.1013


   Root No.      17        18        19        20        21        22        23        24

                17 A      18 A      19 A      20 A      21 A      22 A      23 A      24 A   

                 846.0     858.2     884.6     911.5     956.8     975.1     985.0    1012.7
  
           1   -0.0187   -0.0033    0.0171    0.0118   -0.0085   -0.0017    0.0163    0.0587
           2   -0.0048   -0.0017    0.0069    0.0005   -0.0035   -0.0003    0.0009    0.0158
           3   -0.0039    0.0080   -0.0224    0.0387    0.0177    0.0016   -0.0003    0.0049
           4   -0.0023    0.0040    0.0005   -0.0111    0.0312   -0.0009    0.0005   -0.0025
           5    0.0100    0.0041   -0.0107   -0.0109    0.0180   -0.0025    0.0176   -0.0009
           6    0.0006    0.0061   -0.0076   -0.0172    0.0336   -0.0009    0.0071    0.0075
           7   -0.0135   -0.0030    0.0188    0.0101   -0.0040    0.0002   -0.0079   -0.0008
           8   -0.0037   -0.0001    0.0047    0.0016   -0.0046    0.0005   -0.0049   -0.0004
           9    0.0059   -0.0105    0.0083    0.0239    0.0249   -0.0022   -0.0032   -0.0041
          10   -0.0186   -0.0035    0.0233    0.0109   -0.0001    0.0008   -0.0151   -0.0050
          11   -0.0217   -0.0067    0.0139    0.0077   -0.0052    0.0029   -0.0248   -0.0085
          12   -0.0066    0.0139   -0.0307   -0.0034   -0.0490    0.0048    0.0049    0.0007
          13    0.0191    0.0033   -0.0188   -0.0087    0.0018    0.0004   -0.0024    0.0073
          14   -0.0195   -0.0037    0.0196    0.0096   -0.0017   -0.0011    0.0150   -0.0436
          15   -0.0027    0.0023    0.0029   -0.0158   -0.0167   -0.0247   -0.0009   -0.0107
          16    0.0103    0.0020   -0.0097   -0.0050    0.0008    0.0001    0.0062   -0.0127
          17    0.0283    0.0059   -0.0295   -0.0119    0.0058   -0.0004   -0.0078    0.0407
          18    0.0030   -0.0038    0.0078   -0.0173   -0.0121    0.0221    0.0032   -0.0048
          19    0.0115    0.0018   -0.0091   -0.0040   -0.0002   -0.0003    0.0075   -0.0106
          20    0.0088    0.0028   -0.0186   -0.0125    0.0172    0.0043   -0.0529   -0.0237
          21   -0.0011    0.0016    0.0076   -0.0253   -0.0036    0.0343    0.0010    0.0054
          22    0.0131    0.0025   -0.0149   -0.0087    0.0054    0.0020   -0.0211   -0.0184
          23    0.0046    0.0009    0.0047    0.0078   -0.0092   -0.0042    0.0606    0.0161
          24    0.0017   -0.0043    0.0132   -0.0221   -0.0062   -0.0330    0.0003    0.0091
          25    0.0136   -0.0265   -0.0075    0.0050   -0.0203    0.0015   -0.0045    0.0016
          26    0.0147    0.0292    0.0183    0.0111   -0.0115    0.0017   -0.0111    0.0023
          27    0.0179   -0.0135    0.0074    0.0115   -0.0202    0.0014   -0.0100   -0.0051
          28   -0.0273    0.0408   -0.0023   -0.0053    0.0043    0.0001    0.0027    0.0063
          29   -0.0387   -0.0569   -0.0187   -0.0071    0.0031   -0.0004    0.0044    0.0017
          30   -0.0421    0.0254    0.0035   -0.0041    0.0121   -0.0011    0.0020   -0.0052
          31   -0.0111   -0.0234    0.0740   -0.0780   -0.0527   -0.0275    0.0257    0.0697
          32   -0.0041   -0.0125    0.0291   -0.0135   -0.0089    0.0907    0.0020    0.0271
          33    0.0025   -0.0089    0.0227   -0.0296   -0.0144    0.0055    0.0040    0.0138
          34   -0.0324    0.0145   -0.0292    0.1014    0.0268    0.0198    0.0316    0.0934
          35   -0.0130    0.0086   -0.0111    0.0302    0.0020   -0.0820   -0.0225    0.0373
          36    0.0074   -0.0079    0.0185   -0.0370   -0.0124   -0.0069   -0.0071   -0.0239
          37   -0.0661    0.0427   -0.0006   -0.0020   -0.0436    0.0146   -0.0877   -0.0337
          38    0.0216   -0.0436    0.0471    0.0720   -0.1226   -0.0058   -0.0053   -0.0047
          39    0.0320   -0.0157   -0.0034   -0.0165    0.0617   -0.0083    0.0480    0.0225
          40    0.0393    0.0037    0.0134    0.0062    0.0120   -0.0096    0.0305   -0.0337
          41    0.0013    0.0115   -0.0239   -0.0314    0.0524   -0.0018    0.0204    0.0076
          42   -0.0319   -0.0328    0.0389    0.0590   -0.1131    0.0106   -0.0627    0.0153
          43   -0.0365   -0.0095    0.0575    0.0399   -0.0355    0.0039   -0.0608   -0.0346
          44   -0.0203    0.0030   -0.0077   -0.0020   -0.0093    0.0045   -0.0107   -0.0009
          45    0.0478   -0.1153    0.1696    0.0275    0.1743   -0.0348   -0.0203   -0.0007
          46    0.0289    0.0031   -0.0194   -0.0058   -0.0084   -0.0053    0.0617   -0.0704
          47   -0.0127   -0.0004    0.0163    0.0088   -0.0175   -0.0185    0.0732   -0.1214
          48    0.0228   -0.0469    0.0499    0.0373    0.0704    0.1421    0.0153    0.0201
          49    0.0322    0.0060   -0.0216   -0.0095   -0.0034   -0.0138    0.1135   -0.1176
          50    0.0219    0.0039   -0.0243   -0.0147    0.0026    0.0167   -0.0374    0.0715
          51    0.0065    0.0067   -0.0178    0.0315    0.0437   -0.1374   -0.0290    0.0381
          52    0.0094    0.0010   -0.0052    0.0020   -0.0077   -0.0110    0.0772   -0.1041
          53    0.0098    0.0021   -0.0152   -0.0231    0.0191    0.0182   -0.0748    0.0045
          54   -0.0057    0.0208   -0.0874    0.1344    0.0141   -0.1641   -0.0238   -0.0220
          55    0.0196    0.0049   -0.0128   -0.0055    0.0148   -0.0006    0.0237   -0.0599
          56    0.0121   -0.0011    0.0180   -0.0067   -0.0052   -0.0295    0.1022   -0.0174
          57   -0.0107    0.0339   -0.0866    0.1371    0.0345    0.1676    0.0390   -0.0293
          58    0.1699   -0.2563   -0.0259    0.0121   -0.0271    0.0019   -0.0043    0.0046
          59    0.2447    0.3392    0.0840    0.0278   -0.0148    0.0021   -0.0111    0.0031
          60    0.2549   -0.1355    0.0163    0.0259   -0.0251    0.0014   -0.0107   -0.0076


   Root No.      25        26        27        28        29        30        31        32

                25 A      26 A      27 A      28 A      29 A      30 A      31 A      32 A   

                1019.2    1024.7    1050.3    1059.0    1090.1    1146.3    1165.3    1181.3
  
           1    0.0044    0.0122   -0.0061   -0.0011   -0.0010   -0.0027   -0.0006    0.0054
           2    0.0049    0.0014    0.0224    0.0044    0.0034    0.0013   -0.0037   -0.0038
           3   -0.0278   -0.0119    0.0023    0.0004   -0.0002    0.0002   -0.0006   -0.0004
           4   -0.0011    0.0182    0.0065    0.0016   -0.0144   -0.0011   -0.0043   -0.0134
           5   -0.0040    0.0196    0.0044    0.0013   -0.0325    0.0125   -0.0090    0.0410
           6    0.0117   -0.0217   -0.0084   -0.0018    0.0293   -0.0063    0.0114    0.0073
           7    0.0026   -0.0051   -0.0041   -0.0007   -0.0172    0.0136   -0.0199   -0.0133
           8    0.0007   -0.0070    0.0121    0.0026   -0.0000   -0.0163    0.0046    0.0160
           9    0.0190    0.0113   -0.0010   -0.0005    0.0055   -0.0019    0.0010    0.0020
          10    0.0034   -0.0060   -0.0022   -0.0002   -0.0215    0.0123   -0.0169   -0.0014
          11    0.0015   -0.0091   -0.0012   -0.0005    0.0192   -0.0154    0.0230   -0.0353
          12   -0.0059   -0.0201    0.0039    0.0020   -0.0160    0.0015   -0.0027   -0.0057
          13    0.0009    0.0022    0.0040    0.0000    0.0062   -0.0070   -0.0002   -0.0022
          14   -0.0088   -0.0062   -0.0243   -0.0020   -0.0067    0.0074   -0.0099   -0.0120
          15    0.0350    0.0145    0.0025   -0.0372   -0.0001    0.0004   -0.0005   -0.0006
          16   -0.0016   -0.0006    0.0089    0.0023    0.0108    0.0013   -0.0006    0.0074
          17   -0.0003    0.0110   -0.0256   -0.0075   -0.0041    0.0023    0.0043   -0.0003
          18    0.0366    0.0166   -0.0077    0.0366    0.0002    0.0002    0.0006   -0.0002
          19   -0.0031    0.0001   -0.0126   -0.0024   -0.0021    0.0022    0.0016   -0.0096
          20    0.0026   -0.0054   -0.0142   -0.0035   -0.0103    0.0101   -0.0065   -0.0053
          21   -0.0283   -0.0136   -0.0013    0.0119   -0.0017    0.0005   -0.0003   -0.0003
          22   -0.0002   -0.0082    0.0172    0.0031    0.0045   -0.0032    0.0043    0.0047
          23   -0.0022    0.0155   -0.0034    0.0003    0.0087    0.0034    0.0040   -0.0016
          24   -0.0300   -0.0124    0.0016   -0.0121   -0.0008    0.0006   -0.0002   -0.0004
          25   -0.0028   -0.0019   -0.0041   -0.0011    0.0136   -0.0015    0.0032    0.0030
          26    0.0023   -0.0090   -0.0074   -0.0017    0.0158    0.0006   -0.0009   -0.0020
          27   -0.0121    0.0264    0.0029    0.0005   -0.0059    0.0015   -0.0022    0.0008
          28    0.0100   -0.0282   -0.0079   -0.0017    0.0218   -0.0029    0.0052    0.0006
          29    0.0025   -0.0073   -0.0012   -0.0003    0.0045   -0.0009    0.0020    0.0017
          30   -0.0056    0.0211    0.0081    0.0018   -0.0229    0.0027   -0.0052   -0.0016
          31    0.0645    0.0472   -0.0570    0.0650   -0.0106   -0.0254   -0.0120    0.0061
          32    0.0290   -0.0080    0.2339   -0.2794    0.0600    0.0829    0.0239    0.0308
          33    0.0207    0.0099    0.0172   -0.0212    0.0056    0.0044   -0.0001    0.0069
          34   -0.0527   -0.0018   -0.0386   -0.0799   -0.0152   -0.0272   -0.0132    0.0056
          35   -0.0048   -0.0201    0.1664    0.3434    0.0705    0.0922    0.0245    0.0317
          36    0.0193    0.0025    0.0125    0.0258    0.0049    0.0091    0.0044   -0.0030
          37   -0.1129    0.2725    0.0072   -0.0009    0.0827   -0.0272    0.0456    0.0310
          38    0.0032   -0.0486    0.0170    0.0036   -0.1150    0.0224   -0.0376   -0.0128
          39    0.0669   -0.1502   -0.0089   -0.0006   -0.0184    0.0063   -0.0129   -0.0170
          40    0.0042   -0.0100    0.0884    0.0193   -0.1303   -0.0680    0.0708   -0.1475
          41   -0.0050    0.0365   -0.0139   -0.0023   -0.0157    0.0334   -0.0319    0.0918
          42    0.0026   -0.0492   -0.0561   -0.0135    0.1364    0.0093   -0.0075    0.0053
          43    0.0196   -0.0766    0.0065    0.0019   -0.0780   -0.0020    0.1085    0.2917
          44   -0.0050    0.0069   -0.0027   -0.0002    0.0302   -0.0110   -0.0117   -0.1194
          45    0.0267    0.0347   -0.0129   -0.0128    0.0431   -0.0051    0.0071    0.0005
          46   -0.0163   -0.0103    0.0323    0.0094    0.0563   -0.1826   -0.0791    0.0940
          47   -0.0140   -0.0142    0.0057   -0.0000    0.0408   -0.1575   -0.0867    0.0789
          48   -0.1175   -0.0484   -0.0077    0.0658    0.0003   -0.0071   -0.0046    0.0033
          49   -0.0331    0.0082   -0.0074   -0.0078    0.0898    0.1871   -0.1033   -0.0098
          50    0.0225    0.0143   -0.0201    0.0044   -0.0275   -0.0543    0.0368    0.0050
          51   -0.1232   -0.0515    0.0093   -0.0673   -0.0033   -0.0071    0.0047    0.0008
          52   -0.0239   -0.0013   -0.1062   -0.0214   -0.0026    0.0773    0.2401    0.0184
          53    0.0023   -0.0083    0.0139    0.0041   -0.0107   -0.0141   -0.0825   -0.0153
          54    0.0979    0.0437    0.0028   -0.0233    0.0038   -0.0014   -0.0078   -0.0011
          55   -0.0030   -0.0057    0.0865    0.0177   -0.0269   -0.0599    0.0714   -0.0684
          56   -0.0207    0.0119    0.0638    0.0102   -0.0207   -0.0537    0.0711   -0.0724
          57    0.1087    0.0513   -0.0001    0.0257   -0.0017   -0.0048    0.0061   -0.0046
          58    0.0027   -0.0166   -0.0081   -0.0019    0.0257   -0.0036    0.0065    0.0017
          59    0.0037   -0.0125   -0.0068   -0.0014    0.0128   -0.0002    0.0012    0.0016
          60   -0.0141    0.0363    0.0076    0.0016   -0.0213    0.0030   -0.0056   -0.0010


   Root No.      33        34        35        36        37        38        39        40

                33 A      34 A      35 A      36 A      37 A      38 A      39 A      40 A   

                1226.9    1275.7    1344.1    1366.0    1396.3    1411.1    1430.4    1522.0
  
           1    0.0064    0.0114   -0.0235    0.0363   -0.0035   -0.0354   -0.0083    0.0185
           2    0.0158   -0.0175    0.0032    0.0077    0.0580    0.0082    0.0561   -0.0714
           3    0.0010   -0.0014    0.0011   -0.0008    0.0040    0.0018    0.0041   -0.0055
           4   -0.0019    0.0256    0.0090    0.0381    0.0323    0.0446   -0.0370   -0.0026
           5   -0.0087   -0.0161    0.0176    0.0140   -0.0261   -0.0067    0.0249    0.0060
           6    0.0107   -0.0072   -0.0230   -0.0373   -0.0033   -0.0205    0.0084   -0.0002
           7   -0.0143   -0.0049    0.0044   -0.0116   -0.0177   -0.0274    0.0125   -0.0266
           8   -0.0126    0.0079   -0.0031   -0.0017    0.0242    0.0160    0.0401    0.1397
           9   -0.0003    0.0001   -0.0010   -0.0012    0.0014    0.0007    0.0034    0.0104
          10   -0.0186    0.0010    0.0131   -0.0046    0.0020   -0.0328    0.0141    0.0119
          11    0.0302    0.0160   -0.0070    0.0091    0.0040    0.0153   -0.0207   -0.0221
          12   -0.0002    0.0037    0.0019    0.0049    0.0013    0.0034   -0.0027   -0.0016
          13    0.0107   -0.0105   -0.0054    0.0002    0.0086    0.0202    0.0015    0.0231
          14   -0.0032   -0.0204   -0.0115   -0.0104   -0.0268    0.0214   -0.0249    0.0511
          15   -0.0004   -0.0010   -0.0006   -0.0006   -0.0018    0.0009   -0.0015    0.0027
          16   -0.0190   -0.0046   -0.0101   -0.0055   -0.0058    0.0229   -0.0011   -0.0498
          17    0.0188    0.0137    0.0043    0.0096   -0.0123   -0.0234   -0.0239    0.0375
          18    0.0021    0.0012    0.0005    0.0008   -0.0008   -0.0026   -0.0019    0.0041
          19    0.0029   -0.0216   -0.0075   -0.0088   -0.0103    0.0226   -0.0120    0.0353
          20   -0.0050    0.0157    0.0117    0.0004   -0.0080   -0.0272   -0.0047   -0.0632
          21   -0.0001    0.0011    0.0007   -0.0000   -0.0003   -0.0019   -0.0001   -0.0042
          22   -0.0172   -0.0058   -0.0011   -0.0077    0.0054    0.0156    0.0101   -0.0043
          23   -0.0193   -0.0071   -0.0149   -0.0043   -0.0179    0.0226   -0.0068   -0.0790
          24   -0.0017   -0.0003   -0.0009    0.0004   -0.0016    0.0020   -0.0008   -0.0065
          25    0.0015   -0.0044   -0.0019   -0.0048   -0.0028   -0.0035    0.0027    0.0003
          26   -0.0031   -0.0007    0.0013    0.0002    0.0048   -0.0003   -0.0042   -0.0003
          27   -0.0022    0.0005    0.0023    0.0030    0.0010    0.0012   -0.0010    0.0001
          28    0.0034   -0.0061   -0.0066   -0.0138   -0.0044   -0.0101    0.0054   -0.0003
          29    0.0016   -0.0026   -0.0024   -0.0051   -0.0026   -0.0039    0.0029    0.0000
          30   -0.0030    0.0069    0.0064    0.0140    0.0048    0.0106   -0.0058    0.0002
          31    0.0486    0.0459    0.1397   -0.1285   -0.0033    0.0555    0.0093   -0.0113
          32   -0.0403    0.0560    0.0117   -0.0215   -0.0746   -0.0128   -0.0623    0.0459
          33    0.0132    0.0341    0.0991   -0.1042   -0.0240    0.0508   -0.0108    0.0020
          34    0.0477    0.0439    0.1319   -0.1203   -0.0015    0.0515    0.0102   -0.0113
          35   -0.0382    0.0608    0.0253   -0.0357   -0.0787   -0.0063   -0.0645    0.0464
          36   -0.0218   -0.0295   -0.1066    0.1097    0.0140   -0.0562    0.0017    0.0050
          37    0.0385   -0.0207   -0.0547   -0.0824   -0.0146   -0.0401    0.0227    0.0015
          38   -0.0083    0.0638   -0.1109   -0.1394    0.1314   -0.0304   -0.0845   -0.0085
          39   -0.0089    0.0150    0.0121    0.0272    0.0149    0.0222   -0.0174   -0.0018
          40    0.1267    0.0500   -0.0335    0.0245   -0.1868    0.0148    0.1505   -0.0116
          41   -0.0428   -0.0129   -0.0085   -0.0358    0.0815   -0.0137   -0.0586    0.0091
          42   -0.0476   -0.0590    0.1405    0.1633   -0.0634    0.0397    0.0252    0.0073
          43    0.1617   -0.0407   -0.0099    0.0316   -0.0180    0.0448   -0.0696   -0.0985
          44   -0.0201    0.0299    0.0001    0.0004    0.0103   -0.0062    0.0028    0.0103
          45    0.0027   -0.0030   -0.0042   -0.0075   -0.0004   -0.0047    0.0013   -0.0000
          46   -0.0026    0.0984    0.0179    0.0316    0.0064   -0.0664    0.0049   -0.0575
          47   -0.0169    0.0823    0.0110    0.0175   -0.0321   -0.0615   -0.0235   -0.0279
          48   -0.0009    0.0033    0.0005    0.0007   -0.0017   -0.0023   -0.0013   -0.0006
          49    0.2027    0.0503    0.0252    0.0375    0.0479   -0.0579    0.0279    0.0730
          50   -0.0489   -0.0031   -0.0067   -0.0025   -0.0292   -0.0002   -0.0354   -0.0021
          51   -0.0083   -0.0014   -0.0008   -0.0008   -0.0040    0.0010   -0.0038   -0.0018
          52   -0.1000    0.1263    0.0382    0.0153    0.0532   -0.0595    0.0673   -0.0206
          53    0.0262   -0.0299   -0.0020   -0.0080   -0.0295   -0.0030   -0.0303   -0.0473
          54    0.0023   -0.0032   -0.0005   -0.0008   -0.0024    0.0004   -0.0023   -0.0026
          55    0.0209   -0.1097    0.1064   -0.0035    0.0773   -0.1291   -0.0856    0.0715
          56    0.0163   -0.1114    0.0919    0.0008    0.0557   -0.1215   -0.1078   -0.0060
          57    0.0026   -0.0075    0.0033   -0.0037    0.0041   -0.0097   -0.0080   -0.0020
          58    0.0042   -0.0076   -0.0079   -0.0166   -0.0054   -0.0121    0.0066   -0.0004
          59    0.0003   -0.0032   -0.0023   -0.0058   -0.0024   -0.0049    0.0031    0.0000
          60   -0.0036    0.0076    0.0076    0.0166    0.0058    0.0128   -0.0072    0.0002


   Root No.      41        42        43        44        45        46        47        48

                41 A      42 A      43 A      44 A      45 A      46 A      47 A      48 A   

                1855.5    1860.0    1893.8    2324.6    2904.5    2928.1    2981.5    3007.1
  
           1   -0.0215    0.0043   -0.0163   -0.0000   -0.0000   -0.0020   -0.0000    0.0312
           2    0.0061    0.0291   -0.0017   -0.0000    0.0000    0.0041   -0.0000    0.0073
           3    0.0010    0.0019    0.0003   -0.0000    0.0000   -0.0607   -0.0000   -0.0003
           4   -0.0195    0.0092    0.0153   -0.0437   -0.0270    0.0000   -0.0090    0.0001
           5    0.0101   -0.0044   -0.0069   -0.0135   -0.0389    0.0000    0.0242    0.0012
           6    0.0022   -0.0012   -0.0016    0.0411   -0.0339    0.0000   -0.0322   -0.0004
           7   -0.1156    0.0272    0.1435    0.0022    0.0005    0.0000    0.0004    0.0003
           8   -0.0151    0.0406    0.0382   -0.0003   -0.0003   -0.0000    0.0002    0.0001
           9   -0.0020    0.0033    0.0036    0.0001   -0.0001    0.0002   -0.0001    0.0000
          10    0.1269   -0.0474   -0.1145   -0.0028    0.0003   -0.0000   -0.0010   -0.0000
          11    0.0100    0.0014   -0.0096    0.0008    0.0017    0.0000   -0.0004    0.0003
          12    0.0014   -0.0001   -0.0012    0.0007    0.0000   -0.0000   -0.0001    0.0000
          13    0.0390   -0.1636    0.0647    0.0000    0.0000    0.0001   -0.0000   -0.0022
          14    0.0118   -0.0662    0.0267    0.0000   -0.0000   -0.0000    0.0000    0.0028
          15    0.0001   -0.0015    0.0006   -0.0000    0.0000   -0.0000    0.0000    0.0002
          16    0.1393    0.0768    0.0920   -0.0001   -0.0000    0.0001    0.0001   -0.0008
          17    0.0131    0.0032    0.0066   -0.0000    0.0001    0.0001   -0.0005   -0.0012
          18   -0.0017   -0.0012   -0.0013    0.0000    0.0000   -0.0000   -0.0001   -0.0001
          19   -0.0232    0.1743   -0.0865   -0.0002   -0.0000   -0.0000   -0.0000   -0.0003
          20   -0.0121    0.0116    0.0004    0.0002    0.0001    0.0000    0.0000   -0.0001
          21   -0.0003   -0.0018    0.0012    0.0001   -0.0000   -0.0003   -0.0000   -0.0000
          22   -0.1178   -0.0766   -0.0999    0.0001    0.0018   -0.0000   -0.0037    0.0100
          23   -0.0385   -0.0393   -0.0503   -0.0000   -0.0015    0.0000    0.0032   -0.0094
          24   -0.0009   -0.0019   -0.0025   -0.0001   -0.0001   -0.0003    0.0004   -0.0011
          25   -0.0008    0.0004    0.0007    0.2070   -0.0001    0.0000    0.0001   -0.0000
          26    0.0010   -0.0004   -0.0011    0.0704   -0.0000    0.0000    0.0000   -0.0000
          27   -0.0004   -0.0000    0.0005   -0.2043    0.0000   -0.0000   -0.0001    0.0000
          28    0.0004   -0.0005   -0.0001   -0.1395   -0.0000   -0.0000   -0.0002    0.0000
          29    0.0002   -0.0002   -0.0000   -0.0482   -0.0001   -0.0000    0.0000    0.0000
          30   -0.0004    0.0005    0.0001    0.1383   -0.0002   -0.0000    0.0001   -0.0000
          31   -0.0111   -0.0000   -0.0099   -0.0000   -0.0002   -0.2670    0.0004   -0.1752
          32    0.0063    0.0240   -0.0002   -0.0000   -0.0000   -0.0908    0.0001   -0.0632
          33    0.0042    0.0001   -0.0002    0.0000    0.0002    0.3759   -0.0006    0.2977
          34   -0.0124    0.0002   -0.0108   -0.0001   -0.0000    0.2905    0.0005   -0.2001
          35    0.0071    0.0252   -0.0005    0.0000   -0.0000    0.0408    0.0000   -0.0243
          36   -0.0023    0.0032    0.0009   -0.0000   -0.0001    0.3581    0.0007   -0.2937
          37   -0.0022    0.0010    0.0025    0.0033    0.1453   -0.0000    0.2377    0.0044
          38    0.0061   -0.0033   -0.0078   -0.0029   -0.0261    0.0000    0.0052    0.0003
          39   -0.0015    0.0016   -0.0000    0.0151    0.3059   -0.0001    0.4743    0.0087
          40    0.0411   -0.0031   -0.0197   -0.0072    0.1870   -0.0000   -0.1277   -0.0042
          41   -0.0128    0.0002    0.0059   -0.0137    0.4952   -0.0001   -0.3002   -0.0147
          42   -0.0035    0.0007    0.0025    0.0006    0.1044   -0.0000   -0.0897   -0.0038
          43   -0.0184    0.0004    0.0120   -0.0035   -0.0093   -0.0000    0.0033   -0.0012
          44    0.0717   -0.0155   -0.0632   -0.0014   -0.0196   -0.0000    0.0087   -0.0044
          45    0.0062   -0.0014   -0.0060    0.0014   -0.0023   -0.0000   -0.0002   -0.0003
          46    0.0032   -0.0402    0.0095   -0.0001   -0.0001   -0.0006    0.0004    0.0286
          47   -0.0328    0.0916   -0.0401    0.0001    0.0001    0.0005   -0.0004   -0.0262
          48   -0.0019    0.0059   -0.0023   -0.0001    0.0001   -0.0016   -0.0000   -0.0020
          49   -0.0111    0.0077   -0.0082   -0.0001   -0.0005   -0.0004    0.0021    0.0055
          50    0.0844    0.0376    0.0524   -0.0002   -0.0021   -0.0006    0.0079    0.0060
          51    0.0077    0.0030    0.0050    0.0001   -0.0003   -0.0017    0.0006    0.0004
          52   -0.0163    0.0028    0.0341    0.0002    0.0001   -0.0000   -0.0001   -0.0005
          53   -0.0234    0.0961   -0.0475    0.0002    0.0002    0.0000   -0.0003    0.0001
          54   -0.0014    0.0055   -0.0027   -0.0000    0.0000   -0.0008   -0.0000    0.0000
          55   -0.0585   -0.0173    0.0040    0.0014   -0.0272   -0.0000    0.0460   -0.1145
          56    0.0526    0.0364    0.0733    0.0020    0.0166    0.0001   -0.0384    0.1135
          57    0.0055    0.0034    0.0067    0.0004    0.0017   -0.0008   -0.0044    0.0128
          58    0.0005   -0.0006    0.0001   -0.2705    0.0004   -0.0000   -0.0018   -0.0001
          59    0.0005   -0.0004   -0.0001   -0.0938   -0.0000   -0.0000   -0.0005   -0.0000
          60   -0.0007    0.0007    0.0001    0.2689   -0.0007   -0.0000    0.0015    0.0001


   Root No.      49        50        51        52        53        54

                49 A      50 A      51 A      52 A      53 A      54 A   

                3008.0    3041.0    3042.7    3059.2    3064.1    3360.7
  
           1    0.0105   -0.0005    0.0009   -0.0022    0.0033    0.0000
           2    0.0023   -0.0000    0.0001   -0.0006    0.0008    0.0000
           3   -0.0001   -0.0000    0.0000   -0.0000    0.0000   -0.0000
           4   -0.0003   -0.0005   -0.0005    0.0001   -0.0000   -0.0014
           5   -0.0036   -0.0011   -0.0009    0.0004   -0.0001   -0.0003
           6    0.0012   -0.0003   -0.0003    0.0000   -0.0000    0.0012
           7   -0.0002    0.0022    0.0023    0.0004   -0.0010    0.0000
           8   -0.0001    0.0004    0.0003    0.0003   -0.0001   -0.0000
           9   -0.0000    0.0000    0.0000    0.0000   -0.0000    0.0000
          10   -0.0000   -0.0109   -0.0101   -0.0001    0.0007   -0.0002
          11   -0.0001   -0.0319   -0.0282   -0.0001    0.0009    0.0001
          12   -0.0000   -0.0020   -0.0018   -0.0000    0.0001    0.0000
          13   -0.0007   -0.0098    0.0111    0.0092    0.0286    0.0000
          14    0.0009    0.0113   -0.0126   -0.0075   -0.0241   -0.0000
          15    0.0001    0.0008   -0.0009   -0.0006   -0.0018   -0.0000
          16    0.0001    0.0001   -0.0003   -0.0178    0.0047   -0.0000
          17   -0.0082    0.0004   -0.0000   -0.0438    0.0118    0.0000
          18   -0.0007    0.0000    0.0000   -0.0035    0.0009    0.0000
          19    0.0003   -0.0088    0.0085   -0.0037   -0.0109    0.0000
          20    0.0005   -0.0250    0.0257   -0.0075   -0.0217    0.0000
          21    0.0000   -0.0013    0.0013   -0.0004   -0.0011    0.0000
          22   -0.0315    0.0001    0.0012    0.0102   -0.0032    0.0000
          23    0.0285    0.0006   -0.0007   -0.0050    0.0018   -0.0000
          24    0.0033    0.0001   -0.0001   -0.0007    0.0002   -0.0000
          25    0.0000    0.0002    0.0001    0.0000   -0.0000    0.0194
          26    0.0001   -0.0001   -0.0001   -0.0000    0.0000    0.0067
          27   -0.0000   -0.0001   -0.0001   -0.0000    0.0000   -0.0192
          28   -0.0000   -0.0000   -0.0000   -0.0000    0.0000   -0.0680
          29   -0.0000   -0.0000   -0.0000   -0.0000    0.0000   -0.0235
          30    0.0000    0.0000    0.0000    0.0000   -0.0000    0.0675
          31   -0.0569    0.0033   -0.0055    0.0122   -0.0160   -0.0001
          32   -0.0212    0.0022   -0.0030    0.0012   -0.0070   -0.0000
          33    0.0970   -0.0057    0.0094   -0.0192    0.0268    0.0001
          34   -0.0648    0.0040   -0.0065    0.0144   -0.0189   -0.0001
          35   -0.0085    0.0015   -0.0019   -0.0014   -0.0037   -0.0000
          36   -0.0956    0.0059   -0.0096    0.0190   -0.0272   -0.0001
          37   -0.0132    0.0010    0.0013    0.0005   -0.0001    0.0011
          38   -0.0010   -0.0017   -0.0015    0.0001    0.0001   -0.0002
          39   -0.0258    0.0014    0.0020    0.0008   -0.0001    0.0022
          40    0.0124    0.0029    0.0023   -0.0008    0.0001   -0.0009
          41    0.0436    0.0138    0.0111   -0.0044    0.0008   -0.0024
          42    0.0113    0.0030    0.0023   -0.0011    0.0002   -0.0005
          43    0.0013    0.1066    0.0932    0.0001   -0.0021    0.0000
          44    0.0045    0.3733    0.3332   -0.0007   -0.0105    0.0003
          45    0.0004    0.0234    0.0209   -0.0001   -0.0007    0.0001
          46    0.0087    0.1246   -0.1404   -0.0937   -0.2862   -0.0002
          47   -0.0078   -0.1333    0.1500    0.0977    0.2981    0.0003
          48   -0.0006   -0.0097    0.0109    0.0071    0.0217    0.0000
          49    0.0308   -0.0019    0.0005    0.1597   -0.0414   -0.0001
          50    0.1056   -0.0060    0.0012    0.5111   -0.1322   -0.0004
          51    0.0086   -0.0005    0.0001    0.0413   -0.0107   -0.0000
          52   -0.0035    0.0908   -0.0954    0.0281    0.0791    0.0000
          53   -0.0110    0.2941   -0.3020    0.0864    0.2422    0.0001
          54   -0.0006    0.0154   -0.0158    0.0045    0.0126    0.0000
          55    0.3445    0.0019   -0.0080   -0.0735    0.0225   -0.0001
          56   -0.3435   -0.0013    0.0081    0.0689   -0.0212    0.0000
          57   -0.0388   -0.0002    0.0009    0.0079   -0.0024    0.0000
          58    0.0002   -0.0001   -0.0001    0.0001   -0.0002    0.5955
          59    0.0000    0.0000   -0.0000    0.0000   -0.0001    0.2059
          60   -0.0002    0.0001    0.0001   -0.0001    0.0002   -0.5916


           MASS-WEIGHTED COORDINATE ANALYSIS (NORMAL COORDINATES)


   Root No.       1         2         3         4         5         6         7         8

                 1 A       2 A       3 A       4 A       5 A       6 A       7 A       8 A   

                  21.6      75.3     108.4     230.7     277.5     306.3     381.3     388.0
  
           1   -0.0678   -0.0552    0.0276   -0.0068    0.1552   -0.0687   -0.0648    0.0001
           2    0.0172    0.0833    0.1115   -0.0844   -0.1468    0.0425   -0.0260    0.0083
           3    0.3617   -0.3634    0.1315    0.1135   -0.0765   -0.0935    0.0071    0.0186
           4   -0.0921   -0.0265    0.0497   -0.0746   -0.2629    0.0791    0.0198    0.0361
           5   -0.1154   -0.1231   -0.2510   -0.0043   -0.2970    0.1054   -0.0738    0.0453
           6   -0.2582   -0.2667    0.0879   -0.2618   -0.1103   -0.0353   -0.0435    0.0710
           7   -0.0602   -0.0124    0.0641   -0.0175    0.0297   -0.0079    0.0035   -0.0040
           8   -0.0295   -0.0725   -0.1278    0.0841    0.3027   -0.0702    0.0441   -0.0071
           9   -0.2005    0.1734    0.0167    0.3645   -0.1271   -0.2147    0.0051   -0.0273
          10   -0.0482    0.0027    0.0774   -0.0034    0.0679   -0.0246    0.0352   -0.0061
          11   -0.0671   -0.0958   -0.2239    0.0605    0.1036   -0.0433   -0.0172    0.0078
          12   -0.2789   -0.1432    0.2418    0.3570    0.0523    0.3991   -0.1230   -0.1510
          13   -0.0338    0.0132    0.1306   -0.0859   -0.0397    0.0015   -0.0590   -0.0059
          14    0.0192    0.0433    0.0965   -0.0288   -0.0754    0.0041   -0.0190    0.0298
          15    0.0974   -0.0928   -0.2894   -0.3481    0.0642    0.0821   -0.1426   -0.3494
          16   -0.1072   -0.0802   -0.0632    0.0507    0.2840   -0.0846   -0.0217    0.0002
          17   -0.0011   -0.0056    0.0166    0.0075   -0.0099   -0.0328    0.0135   -0.0198
          18    0.1427    0.2261    0.0992   -0.1101    0.1754    0.3767    0.0924    0.2616
          19   -0.0292    0.0305    0.1553   -0.0945   -0.0889    0.0127   -0.0525    0.0075
          20   -0.0014   -0.0307   -0.0169    0.0322    0.1724   -0.0532   -0.0111   -0.0272
          21   -0.1678    0.1743   -0.2866    0.0784   -0.0487   -0.1102    0.1737    0.4434
          22   -0.1023   -0.0630   -0.0367    0.0293    0.2043   -0.0735   -0.0311   -0.0080
          23   -0.0215   -0.0773   -0.0913    0.0853    0.2410   -0.0460    0.0626    0.0195
          24   -0.1197    0.4598    0.0135    0.0876   -0.0811   -0.2866   -0.0912   -0.3305
[...]
 FORCE CONSTANT      0.7512         C  2 -- C  4         +10.8% ( 40.9%)     24.2%

 VIBRATION         37   37A           ATOM PAIR      ENERGY CONTRIBUTION    RADIAL
 FREQUENCY          1396.34         C  2 -- H 14         +16.5% ( 54.6%)      1.8%
 TRANSITION DIPOLE   0.1377         C  1 -- C  5         +13.6% ( 49.5%)     78.0%
 TRAVEL (Ang.)       0.2331         C  1 -- H 12         +10.8% ( 44.1%)      0.4%
 REDUCED MASS        0.8887         C  1 -- H 11         +10.7% ( 43.9%)      0.4%
 EFFECTIVE MASS      6.2007
 FORCE CONSTANT      1.0209

 VIBRATION         38   38A           ATOM PAIR      ENERGY CONTRIBUTION    RADIAL
 FREQUENCY          1411.14         C  2 -- C  4         +11.6% ( 49.3%)     75.6%
 TRANSITION DIPOLE   0.2572         C  8 -- H 19          +9.7% ( 45.1%)      0.2%
 TRAVEL (Ang.)       0.2547         C  3 -- C  7          +8.2% ( 41.4%)     99.5%
 REDUCED MASS        0.7366         C  1 -- C  6          +7.2% ( 38.7%)     93.1%
 EFFECTIVE MASS      7.8882
 FORCE CONSTANT      0.8642

 VIBRATION         39   39A           ATOM PAIR      ENERGY CONTRIBUTION    RADIAL
 FREQUENCY          1430.43         C  2 -- H 14         +11.4% ( 47.2%)      1.6%
 TRANSITION DIPOLE   0.2016         C  1 -- C  5         +10.9% ( 46.2%)     79.7%
 TRAVEL (Ang.)       0.2203         C  1 -- C  6         +10.1% ( 44.5%)     56.9%
 REDUCED MASS        0.9718         C  1 -- H 12          +8.5% ( 40.8%)      0.1%
 EFFECTIVE MASS      7.3595
 FORCE CONSTANT      1.1715

 VIBRATION         40   40A           ATOM PAIR      ENERGY CONTRIBUTION    RADIAL
 FREQUENCY          1522.00         C  3 -- C  8         +22.0% ( 70.5%)     82.8%
 TRANSITION DIPOLE   0.0377         C  3 -- C  7         +20.7% ( 68.4%)     78.1%
 TRAVEL (Ang.)       0.1253         C  3 -- C  4         +13.2% ( 54.6%)      0.0%
 REDUCED MASS        2.8219         C  1 -- C  6          +7.6% ( 41.4%)     94.0%
 EFFECTIVE MASS     11.4709
 FORCE CONSTANT      3.8514

 VIBRATION         41   41A           ATOM PAIR      ENERGY CONTRIBUTION    RADIAL
 FREQUENCY          1855.50         C  6 -- C  8         +23.8% ( 71.8%)     99.9%
 TRANSITION DIPOLE   0.5694         C  3 -- C  4         +19.7% ( 65.5%)     97.9%
 TRAVEL (Ang.)       0.1177         C  3 -- C  8         +10.6% ( 48.0%)     93.2%
 REDUCED MASS        2.6223         C  1 -- C  6          +8.6% ( 43.1%)     47.8%
 EFFECTIVE MASS     11.8757
 FORCE CONSTANT      5.3194

 VIBRATION         42   42A           ATOM PAIR      ENERGY CONTRIBUTION    RADIAL
 FREQUENCY          1860.05         C  5 -- C  7         +34.7% ( 87.2%)    100.0%
 TRANSITION DIPOLE   0.2172         C  1 -- C  5         +11.3% ( 49.9%)     57.8%
 TRAVEL (Ang.)       0.1014         C  3 -- C  7         +11.2% ( 49.5%)     68.8%
 REDUCED MASS        3.5241         C  5 -- H 16         +10.3% ( 47.6%)      4.7%
 EFFECTIVE MASS     11.9200         C  7 -- H 18         +10.3% ( 47.6%)      4.7%
 FORCE CONSTANT      7.1838

 VIBRATION         43   43A           ATOM PAIR      ENERGY CONTRIBUTION    RADIAL
 FREQUENCY          1893.83         C  3 -- C  4         +21.8% ( 69.4%)     99.6%
 TRANSITION DIPOLE   0.6907         C  3 -- C  8         +15.5% ( 58.5%)     39.1%
 TRAVEL (Ang.)       0.1237         C  6 -- C  8         +13.1% ( 53.7%)     99.7%
 REDUCED MASS        2.3279         C  3 -- C  7         +13.0% ( 53.5%)     33.7%
 EFFECTIVE MASS     11.8460
 FORCE CONSTANT      4.9191

 VIBRATION         44   44A           ATOM PAIR      ENERGY CONTRIBUTION    RADIAL
 FREQUENCY          2324.58         C  9 -- C 10         +59.7% ( 97.2%)    100.0%
 TRANSITION DIPOLE   0.5496         C  2 -- C  9         +28.0% ( 66.5%)    100.0%
 TRAVEL (Ang.)       0.0734         C 10 -- H 20         +11.0% ( 41.7%)    100.0%
 REDUCED MASS        5.3856         C  2 -- C  4          +0.4% (  8.2%)     13.8%
 EFFECTIVE MASS     11.5124
 FORCE CONSTANT     17.1464

 VIBRATION         45   45A           ATOM PAIR      ENERGY CONTRIBUTION    RADIAL
 FREQUENCY          2904.48         C  2 -- H 14         +68.1% ( 85.5%)     98.2%
 TRANSITION DIPOLE   0.0890         C  2 -- H 13         +29.3% ( 56.0%)     93.1%
 TRAVEL (Ang.)       0.1986         C  2 -- C  4          +1.1% ( 11.0%)      1.6%
 REDUCED MASS        0.5889         C  2 -- C  9          +1.1% ( 10.9%)      0.7%
 EFFECTIVE MASS      1.5281
 FORCE CONSTANT      2.9269

 VIBRATION         46   46A           ATOM PAIR      ENERGY CONTRIBUTION    RADIAL
 FREQUENCY          2928.07         C  1 -- H 11         +49.6% ( 73.1%)     96.6%
 TRANSITION DIPOLE   0.0639         C  1 -- H 12         +48.3% ( 72.1%)     96.5%
 TRAVEL (Ang.)       0.2110         C  1 -- C  5          +1.1% ( 10.7%)      0.0%
 REDUCED MASS        0.5174         C  1 -- C  6          +1.1% ( 10.7%)      0.0%
 EFFECTIVE MASS      1.5332
 FORCE CONSTANT      2.6134

 VIBRATION         47   47A           ATOM PAIR      ENERGY CONTRIBUTION    RADIAL
 FREQUENCY          2981.45         C  2 -- H 13         +70.5% ( 83.1%)     99.3%
 TRANSITION DIPOLE   0.1323         C  2 -- H 14         +27.2% ( 51.6%)     93.0%
 TRAVEL (Ang.)       0.2019         C  8 -- H 19          +1.0% (  9.7%)     99.3%
 REDUCED MASS        0.5548         C  2 -- C  9          +0.7% (  8.1%)     27.3%
 EFFECTIVE MASS      1.2900
 FORCE CONSTANT      2.9057

 VIBRATION         48   48A           ATOM PAIR      ENERGY CONTRIBUTION    RADIAL
 FREQUENCY          3007.06         C  1 -- H 12         +44.6% ( 66.0%)     97.8%
 TRANSITION DIPOLE   0.2324         C  1 -- H 11         +43.3% ( 65.0%)     97.7%
 TRAVEL (Ang.)       0.2376         C  8 -- H 19          +9.9% ( 31.1%)    100.0%
 REDUCED MASS        0.3973         C  1 -- C  6          +0.6% (  7.7%)     26.9%
 EFFECTIVE MASS      1.2984
 FORCE CONSTANT      2.1169

 VIBRATION         49   49A           ATOM PAIR      ENERGY CONTRIBUTION    RADIAL
 FREQUENCY          3007.96         C  8 -- H 19         +83.4% ( 92.4%)    100.0%
 TRANSITION DIPOLE   0.2421         C  1 -- H 12          +4.3% ( 21.1%)     97.7%
 TRAVEL (Ang.)       0.1810         C  6 -- H 17          +4.3% ( 20.9%)     99.3%
 REDUCED MASS        0.6844         C  1 -- H 11          +4.2% ( 20.8%)     97.5%
 EFFECTIVE MASS      1.4844
 FORCE CONSTANT      3.6486

 VIBRATION         50   50A           ATOM PAIR      ENERGY CONTRIBUTION    RADIAL
 FREQUENCY          3041.02         C  4 -- H 15         +52.5% ( 73.5%)    100.0%
 TRANSITION DIPOLE   0.4594         C  7 -- H 18         +33.1% ( 58.4%)    100.0%
 TRAVEL (Ang.)       0.2377         C  5 -- H 16         +11.6% ( 34.6%)     99.9%
 REDUCED MASS        0.3923         C  3 -- C  4          +0.8% (  8.9%)     35.1%
 EFFECTIVE MASS      1.4929
 FORCE CONSTANT      2.1374

 VIBRATION         51   51A           ATOM PAIR      ENERGY CONTRIBUTION    RADIAL
 FREQUENCY          3042.69         C  4 -- H 15         +44.3% ( 67.5%)    100.0%
 TRANSITION DIPOLE   0.1097         C  7 -- H 18         +37.2% ( 61.9%)    100.0%
 TRAVEL (Ang.)       0.2505         C  5 -- H 16         +15.6% ( 40.1%)    100.0%
 REDUCED MASS        0.3530         C  3 -- C  4          +0.7% (  8.2%)     37.3%
 EFFECTIVE MASS      1.4840
 FORCE CONSTANT      1.9257

 VIBRATION         52   52A           ATOM PAIR      ENERGY CONTRIBUTION    RADIAL
 FREQUENCY          3059.25         C  6 -- H 17         +85.5% ( 93.8%)    100.0%
 TRANSITION DIPOLE   0.3624         C  5 -- H 16          +5.4% ( 23.7%)     99.9%
 TRAVEL (Ang.)       0.1739         C  8 -- H 19          +3.1% ( 17.7%)     98.7%
 REDUCED MASS        0.7289         C  7 -- H 18          +2.5% ( 15.9%)     99.9%
 EFFECTIVE MASS      1.5417
 FORCE CONSTANT      4.0191

 VIBRATION         53   53A           ATOM PAIR      ENERGY CONTRIBUTION    RADIAL
 FREQUENCY          3064.10         C  5 -- H 16         +63.8% ( 81.0%)     99.9%
 TRANSITION DIPOLE   0.2831         C  7 -- H 18         +24.3% ( 50.0%)     99.8%
 TRAVEL (Ang.)       0.2162         C  6 -- H 17          +7.2% ( 27.2%)    100.0%
 REDUCED MASS        0.4709         C  5 -- C  7          +1.8% ( 13.7%)     91.8%
 EFFECTIVE MASS      1.5858
 FORCE CONSTANT      2.6047

 VIBRATION         54   54A           ATOM PAIR      ENERGY CONTRIBUTION    RADIAL
 FREQUENCY          3360.68         C 10 -- H 20         +94.0% ( 99.1%)    100.0%
 TRANSITION DIPOLE   1.0174         C  9 -- C 10          +5.7% ( 24.4%)    100.0%
 TRAVEL (Ang.)       0.1451         C  2 -- C  9          +0.3% (  5.9%)    100.0%
 REDUCED MASS        0.9524
 EFFECTIVE MASS      2.0797
 FORCE CONSTANT      6.3373

      SYMMETRY NUMBER FOR POINT-GROUP C1  =  1


          SYSTEM IS A GROUND STATE



 InChI=1S/C10H10/c1-2-3-7-10-8-5-4-6-9-10/h1,5-9H,3-4H2


          MOLECULE IS NOT LINEAR

          THERE ARE 54 GENUINE VIBRATIONS IN THIS SYSTEM
          THIS THERMODYNAMICS CALCULATION IS LIMITED TO
          MOLECULES WHICH HAVE NO INTERNAL ROTATIONS




                    CALCULATED THERMODYNAMIC PROPERTIES
                                          *
   TEMP. (K)   PARTITION FUNCTION   H.O.F.    ENTHALPY  HEAT CAPACITY ENTROPY
                                   KCAL/MOL   CAL/MOLE    CAL/K/MOL  CAL/K/MOL


 298.00  VIB.     0.5569D+03                  3978.2591    28.9399    25.9138
         ROT.     0.7145D+06                   888.2803     2.9808    29.7671
         INT.     0.3979D+09                  4866.5394    31.9207    55.6809
         TRA.     0.1436D+28                  1480.4672     4.9680    40.5022
         TOT.                       83.967    6347.0066    36.8888    96.1831

 200.00  VIB.     0.6487D+02                  1701.0231    17.7018    16.7964
         ROT.     0.3929D+06                   596.1613     2.9808    28.5784
         INT.     0.2548D+08                  2297.1844    20.6826    45.3748
         TRA.     0.7896D+27                   993.6021     4.9680    38.5210
         TOT.                       80.911    3290.7865    25.6506    83.8958

 210.00  VIB.     0.8038D+02                  1883.4411    18.7856    17.6862
         ROT.     0.4227D+06                   625.9693     2.9808    28.7238
         INT.     0.3398D+08                  2509.4104    21.7664    46.4100
         TRA.     0.8496D+27                  1043.2822     4.9680    38.7634
         TOT.                       81.173    3552.6927    26.7344    85.1735

 220.00  VIB.     0.9970D+02                  2076.8070    19.8910    18.5856
         ROT.     0.4532D+06                   655.7774     2.9808    28.8625
         INT.     0.4519D+08                  2732.5844    22.8718    47.4480
         TRA.     0.9110D+27                  1092.9623     4.9680    38.9945
         TOT.                       81.446    3825.5467    27.8398    86.4426

 230.00  VIB.     0.1238D+03                  2281.3251    21.0156    19.4945
         ROT.     0.4845D+06                   685.5855     2.9808    28.9950
         INT.     0.5998D+08                  2966.9105    23.9964    48.4895
         TRA.     0.9738D+27                  1142.6424     4.9680    39.2154
         TOT.                       81.730    4109.5530    28.9644    87.7049

 240.00  VIB.     0.1539D+03                  2497.1735    22.1566    20.4130
         ROT.     0.5164D+06                   715.3935     2.9808    29.1218
         INT.     0.7947D+08                  3212.5670    25.1374    49.5348
         TRA.     0.1038D+28                  1192.3226     4.9680    39.4268
         TOT.                       82.025    4404.8896    30.1054    88.9616

 250.00  VIB.     0.1915D+03                  2724.5014    23.3110    21.3408
         ROT.     0.5490D+06                   745.2016     2.9808    29.2435
         INT.     0.1052D+09                  3469.7030    26.2918    50.5843
         TRA.     0.1103D+28                  1242.0027     4.9680    39.6296
         TOT.                       82.332    4711.7057    31.2598    90.2139

 260.00  VIB.     0.2387D+03                  2963.4269    24.4756    22.2777
         ROT.     0.5823D+06                   775.0097     2.9808    29.3604
         INT.     0.1390D+09                  3738.4365    27.4564    51.6382
         TRA.     0.1170D+28                  1291.6828     4.9680    39.8245
         TOT.                       82.650    5030.1193    32.4244    91.4626

 270.00  VIB.     0.2977D+03                  3214.0365    25.6473    23.2234
         ROT.     0.6162D+06                   804.8177     2.9808    29.4729
         INT.     0.1835D+09                  4018.8543    28.6281    52.6963
         TRA.     0.1239D+28                  1341.3629     4.9680    40.0120
         TOT.                       82.980    5360.2171    33.5961    92.7083

 280.00  VIB.     0.3719D+03                  3476.3857    26.8230    24.1774
         ROT.     0.6508D+06                   834.6258     2.9808    29.5813
         INT.     0.2420D+09                  4311.0115    29.8038    53.7587
         TRA.     0.1308D+28                  1391.0430     4.9680    40.1926
         TOT.                       83.322    5702.0545    34.7718    93.9514

 290.00  VIB.     0.4652D+03                  3750.4994    27.9997    25.1392
         ROT.     0.6859D+06                   864.4339     2.9808    29.6859
         INT.     0.3191D+09                  4614.9333    30.9805    54.8251
         TRA.     0.1379D+28                  1440.7231     4.9680    40.3670
         TOT.                       83.676    6055.6564    35.9485    95.1921

 300.00  VIB.     0.5826D+03                  4036.3738    29.1747    26.1082
         ROT.     0.7217D+06                   894.2419     2.9808    29.7870
         INT.     0.4205D+09                  4930.6157    32.1555    55.8952
         TRA.     0.1451D+28                  1490.4032     4.9680    40.5354
         TOT.                       84.041    6421.0189    37.1235    96.4306

 310.00  VIB.     0.7306D+03                  4333.9781    30.3453    27.0839
         ROT.     0.7581D+06                   924.0500     2.9808    29.8847
         INT.     0.5539D+09                  5258.0280    33.3261    56.9687
         TRA.     0.1524D+28                  1540.0833     4.9680    40.6983
         TOT.                       84.418    6798.1113    38.2941    97.6670

 320.00  VIB.     0.9173D+03                  4643.2569    31.5092    28.0658
         ROT.     0.7951D+06                   953.8580     2.9808    29.9794
         INT.     0.7293D+09                  5597.1149    34.4900    58.0451
         TRA.     0.1598D+28                  1589.7634     4.9680    40.8560
         TOT.                       84.807    7186.8783    39.4580    98.9012

 330.00  VIB.     0.1153D+04                  4964.1325    32.6643    29.0531
         ROT.     0.8326D+06                   983.6661     2.9808    30.0711
         INT.     0.9601D+09                  5947.7986    35.6451    59.1242
         TRA.     0.1674D+28                  1639.4435     4.9680    41.0089
         TOT.                       85.207    7587.2421    40.6131   100.1331

 340.00  VIB.     0.1451D+04                  5296.5071    33.8087    30.0452
         ROT.     0.8708D+06                  1013.4742     2.9808    30.1601
         INT.     0.1264D+10                  6309.9813    36.7895    60.2053
         TRA.     0.1750D+28                  1689.1236     4.9680    41.1572
         TOT.                       85.619    7999.1049    41.7575   101.3625

 350.00  VIB.     0.1829D+04                  5640.2654    34.9408    31.0416
         ROT.     0.9095D+06                  1043.2822     2.9808    30.2465
         INT.     0.1663D+10                  6683.5476    37.9216    61.2881
         TRA.     0.1828D+28                  1738.8037     4.9680    41.3012
         TOT.                       86.043    8422.3514    42.8896   102.5893

 360.00  VIB.     0.2307D+04                  5995.2769    36.0591    32.0416
         ROT.     0.9487D+06                  1073.0903     2.9808    30.3305
         INT.     0.2188D+10                  7068.3672    39.0399    62.3721
         TRA.     0.1907D+28                  1788.4838     4.9680    41.4412
         TOT.                       86.477    8856.8510    44.0079   103.8133

 370.00  VIB.     0.2913D+04                  6361.3980    37.1625    33.0447
         ROT.     0.9885D+06                  1102.8984     2.9808    30.4121
         INT.     0.2879D+10                  7464.2964    40.1433    63.4568
         TRA.     0.1987D+28                  1838.1639     4.9680    41.5773
         TOT.                       86.923    9302.4603    45.1113   105.0341

 380.00  VIB.     0.3682D+04                  6738.4742    38.2500    34.0502
         ROT.     0.1029D+07                  1132.7064     2.9808    30.4916
         INT.     0.3788D+10                  7871.1806    41.2308    64.5418
         TRA.     0.2068D+28                  1887.8440     4.9680    41.7098
         TOT.                       87.379    9759.0247    46.1988   106.2516

 390.00  VIB.     0.4659D+04                  7126.3420    39.3207    35.0577
         ROT.     0.1070D+07                  1162.5145     2.9808    30.5690
         INT.     0.4984D+10                  8288.8565    42.3015    65.6267
         TRA.     0.2150D+28                  1937.5242     4.9680    41.8388
         TOT.                       87.847   10226.3807    47.2695   107.4656

 400.00  VIB.     0.5900D+04                  7524.8308    40.3741    36.0665
         ROT.     0.1111D+07                  1192.3226     2.9808    30.6445
         INT.     0.6556D+10                  8717.1533    43.3549    66.7110
         TRA.     0.2233D+28                  1987.2043     4.9680    41.9646
         TOT.                       88.325   10704.3576    48.3229   108.6756

   *: NOTE: HEATS OF FORMATION ARE RELATIVE TO THE
            ELEMENTS IN THEIR STANDARD STATE AT 298K
              (=  Standard Enthalpy of Formation).

            Hvib:  Zero-point energy is not included.
                   frequencies of less than zero cm-1 are not included.
            Hrot = (3/2)RT
            Htra = (3/2)RT + pV = (5/2)RT

            Heat capacity is Cp, not Cv

          For more information, see: HTTP://OpenMOPAC.net/Manual/thermochemistry.html


           FORCE CONSTANT IN CARTESIAN COORDINATES (Millidynes/A)

    ATOM   CHEMICAL       X               Y               Z
   NUMBER   SYMBOL  FORCE CONSTANT  FORCE CONSTANT  FORCE CONSTANT

      1       C        9.040214        9.400772        7.623924
      2       C        9.464372        8.379128        8.642598
      3       C       15.349374       10.970365        2.487168
      4       C       14.756535        9.633669        2.413693
      5       C       14.962726        9.794109        2.392208
      6       C       14.751813        9.988677        2.420836
      7       C       15.077693       10.385607        2.231882
      8       C       15.202072       10.192464        2.261574
      9       C       12.853966        3.061141       12.451807
     10       C       11.985331        2.586291       11.818723
     11       H        1.840403        0.805508        3.504911
     12       H        2.131889        0.689448        3.339994
     13       H        1.437375        0.629726        4.018963
     14       H        1.367289        4.078204        0.820580
     15       H        1.110515        4.753699        0.354069
     16       H        2.841136        3.047466        0.360185
     17       H        1.150312        4.723032        0.377470
     18       H        1.183168        4.699671        0.358020
     19       H        2.973082        2.923231        0.390923
     20       H        3.040088        0.648800        3.003868

 **********************
 *                    *
 * JOB ENDED NORMALLY *
 *                    *
 **********************



 TOTAL JOB TIME:             3.43 SECONDS

 == MOPAC DONE ==
