 *******************************************************************************
 **                                                                           **
 **                              MOPAC v23.1.2                                **
 **                                                                           **
 *******************************************************************************
 **          Digital Object Identifier (DOI): 10.5281/zenodo.6511958          **
 **    Visit the DOI location for information on how to cite this program.    **
 *******************************************************************************

                              PM3 CALCULATION RESULTS

 *******************************************************************************
 *  CALCULATION DONE: (MAX THREADS = 1)              Tue Jun  3 16:36:49 2025  *
 *  PM3        - The PM3 Hamiltonian to be used
 *  PRECISE    - TIGHTER CRITERIA TO BE USED
 *  NOSYM      - POINT-GROUP SYMMETRY SET TO C1
 *  THREADS=1  - MULTI-THREADING NOT USED
 *  T=         - A TIME OF 172800.0 SECONDS REQUESTED
 *  DUMP=N     - RESTART FILE WRITTEN EVERY 7200.0 SECONDS REQUESTED
 *******************************************************************************
pm3  precise nosym THREADS=1
 InChI=1S/C12H22/c1-4-7-11(6-3)12-8-10(5-2)9-12/h4,10-12H,1,5-9H2,2-3H3

   ATOM   CHEMICAL          X               Y               Z
  NUMBER   SYMBOL      (ANGSTROMS)     (ANGSTROMS)     (ANGSTROMS)

     1       C          0.12910000  *  -0.86140000  *   0.82050000  *
     2       C         -0.98080000  *  -0.07720000  *   0.06840000  *
     3       C          2.27330000  *  -0.62580000  *   0.60340000  *
     4       C          1.20550000  *  -1.47890000  *  -0.07910000  *
     5       C          1.19730000  *   0.02330000  *   1.47350000  *
     6       C          2.98280000  *   0.34590000  *  -0.35630000  *
     7       C         -1.81340000  *  -0.99690000  *  -0.86980000  *
     8       C         -1.86820000  *   0.69360000  *   1.07940000  *
     9       C          3.98850000  *   1.22300000  *   0.38430000  *
    10       C         -2.58030000  *  -2.11570000  *  -0.15920000  *
    11       C         -2.92130000  *   1.53480000  *   0.40790000  *
    12       C         -2.60630000  *   2.62570000  *  -0.29630000  *
    13       H          2.98240000  *  -1.24720000  *   1.19540000  *
    14       H         -0.27610000  *  -1.59760000  *   1.54960000  *
    15       H         -0.48200000  *   0.67460000  *  -0.58430000  *
    16       H          3.52650000  *  -0.24280000  *  -1.12640000  *
    17       H          2.24380000  *   0.99360000  *  -0.87800000  *
    18       H          1.34400000  *  -2.56420000  *   0.11850000  *
    19       H          1.08880000  *  -1.24620000  *  -1.16010000  *
    20       H         -2.54020000  *  -0.38140000  *  -1.44200000  *
    21       H         -1.14850000  *  -1.46000000  *  -1.62810000  *
    22       H          1.06770000  *   1.11070000  *   1.27820000  *
    23       H          1.33450000  *  -0.20930000  *   2.55200000  *
    24       H         -1.24290000  *   1.36210000  *   1.70880000  *
    25       H         -2.36120000  *  -0.01850000  *   1.77380000  *
    26       H          4.75390000  *   0.59280000  *   0.88520000  *
    27       H          4.49880000  *   1.89390000  *  -0.33840000  *
    28       H          3.47450000  *   1.84800000  *   1.14480000  *
    29       H         -1.88820000  *  -2.79220000  *   0.38220000  *
    30       H         -3.12410000  *  -2.72020000  *  -0.91540000  *
    31       H         -3.33000000  *  -1.70130000  *   0.54480000  *
    32       H         -3.96590000  *   1.26020000  *   0.52100000  *
    33       H         -3.38900000  *   3.21740000  *  -0.75950000  *
    34       H         -1.57270000  *   2.93710000  *  -0.41240000  *



          CARTESIAN COORDINATES 

    NO.       ATOM           X           Y           Z

     1         C          0.1291     -0.8614      0.8205
     2         C         -0.9808     -0.0772      0.0684
     3         C          2.2733     -0.6258      0.6034
     4         C          1.2055     -1.4789     -0.0791
     5         C          1.1973      0.0233      1.4735
     6         C          2.9828      0.3459     -0.3563
     7         C         -1.8134     -0.9969     -0.8698
     8         C         -1.8682      0.6936      1.0794
     9         C          3.9885      1.2230      0.3843
    10         C         -2.5803     -2.1157     -0.1592
    11         C         -2.9213      1.5348      0.4079
    12         C         -2.6063      2.6257     -0.2963
    13         H          2.9824     -1.2472      1.1954
    14         H         -0.2761     -1.5976      1.5496
    15         H         -0.4820      0.6746     -0.5843
    16         H          3.5265     -0.2428     -1.1264
    17         H          2.2438      0.9936     -0.8780
    18         H          1.3440     -2.5642      0.1185
    19         H          1.0888     -1.2462     -1.1601
    20         H         -2.5402     -0.3814     -1.4420
    21         H         -1.1485     -1.4600     -1.6281
    22         H          1.0677      1.1107      1.2782
    23         H          1.3345     -0.2093      2.5520
    24         H         -1.2429      1.3621      1.7088
    25         H         -2.3612     -0.0185      1.7738
    26         H          4.7539      0.5928      0.8852
    27         H          4.4988      1.8939     -0.3384
    28         H          3.4745      1.8480      1.1448
    29         H         -1.8882     -2.7922      0.3822
    30         H         -3.1241     -2.7202     -0.9154
    31         H         -3.3300     -1.7013      0.5448
    32         H         -3.9659      1.2602      0.5210
    33         H         -3.3890      3.2174     -0.7595
    34         H         -1.5727      2.9371     -0.4124

  H: (PM3): J. J. P. STEWART, J. COMP. CHEM. 10, 209 (1989).
  C: (PM3): J. J. P. STEWART, J. COMP. CHEM. 10, 209 (1989).

           Empirical Formula: C12 H22  =    34 atoms



      MOLECULAR POINT GROUP   :   C1  


      RHF CALCULATION, NO. OF DOUBLY OCCUPIED LEVELS = 35


          Geometry optimization using L-BFGS
 CYCLE:     1 TIME:   0.012 TIME LEFT:  2.00D  GRAD.:    84.685 HEAT: -10.41053
 CYCLE:     2 TIME:   0.012 TIME LEFT:  2.00D  GRAD.:    83.305 HEAT: -10.48166
 CYCLE:     3 TIME:   0.008 TIME LEFT:  2.00D  GRAD.:    34.337 HEAT: -13.39469
 CYCLE:     4 TIME:   0.012 TIME LEFT:  2.00D  GRAD.:    83.308 HEAT: -10.48172
 CYCLE:     5 TIME:   0.012 TIME LEFT:  2.00D  GRAD.:    34.339 HEAT: -13.39468
 CYCLE:     6 TIME:   0.008 TIME LEFT:  2.00D  GRAD.:    34.410 HEAT: -13.95879
 CYCLE:     7 TIME:   0.008 TIME LEFT:  2.00D  GRAD.:    25.117 HEAT: -14.64407
 CYCLE:     8 TIME:   0.012 TIME LEFT:  2.00D  GRAD.:    22.687 HEAT: -15.24202
 CYCLE:     9 TIME:   0.012 TIME LEFT:  2.00D  GRAD.:    30.190 HEAT: -15.36156
 CYCLE:    10 TIME:   0.012 TIME LEFT:  2.00D  GRAD.:     6.408 HEAT: -15.59266
 CYCLE:    11 TIME:   0.012 TIME LEFT:  2.00D  GRAD.:     4.170 HEAT: -15.61165
 CYCLE:    12 TIME:   0.008 TIME LEFT:  2.00D  GRAD.:     3.849 HEAT: -15.63670
 CYCLE:    13 TIME:   0.016 TIME LEFT:  2.00D  GRAD.:     4.467 HEAT: -15.66042
 CYCLE:    14 TIME:   0.008 TIME LEFT:  2.00D  GRAD.:     7.402 HEAT: -15.68044
 CYCLE:    15 TIME:   0.012 TIME LEFT:  2.00D  GRAD.:     3.036 HEAT: -15.70019
 CYCLE:    16 TIME:   0.012 TIME LEFT:  2.00D  GRAD.:     2.116 HEAT: -15.70575
 CYCLE:    17 TIME:   0.012 TIME LEFT:  2.00D  GRAD.:     2.034 HEAT: -15.71326
 CYCLE:    18 TIME:   0.012 TIME LEFT:  2.00D  GRAD.:     3.272 HEAT: -15.71896
 CYCLE:    19 TIME:   0.012 TIME LEFT:  2.00D  GRAD.:     1.968 HEAT: -15.72420
 CYCLE:    20 TIME:   0.012 TIME LEFT:  2.00D  GRAD.:     1.809 HEAT: -15.72839
 CYCLE:    21 TIME:   0.012 TIME LEFT:  2.00D  GRAD.:     3.215 HEAT: -15.73151
 CYCLE:    22 TIME:   0.008 TIME LEFT:  2.00D  GRAD.:     2.101 HEAT: -15.73505
 CYCLE:    23 TIME:   0.012 TIME LEFT:  2.00D  GRAD.:     1.750 HEAT: -15.74057
 CYCLE:    24 TIME:   0.012 TIME LEFT:  2.00D  GRAD.:     1.807 HEAT: -15.74409
 CYCLE:    25 TIME:   0.012 TIME LEFT:  2.00D  GRAD.:     2.535 HEAT: -15.75080
 CYCLE:    26 TIME:   0.012 TIME LEFT:  2.00D  GRAD.:     2.041 HEAT: -15.75648
 CYCLE:    27 TIME:   0.008 TIME LEFT:  2.00D  GRAD.:     1.991 HEAT: -15.76115
 CYCLE:    28 TIME:   0.012 TIME LEFT:  2.00D  GRAD.:     4.160 HEAT: -15.76463
 CYCLE:    29 TIME:   0.012 TIME LEFT:  2.00D  GRAD.:     2.052 HEAT: -15.77147
 CYCLE:    30 TIME:   0.012 TIME LEFT:  2.00D  GRAD.:     2.209 HEAT: -15.77402
 CYCLE:    31 TIME:   0.008 TIME LEFT:  2.00D  GRAD.:     1.500 HEAT: -15.77679
 CYCLE:    32 TIME:   0.012 TIME LEFT:  2.00D  GRAD.:     1.755 HEAT: -15.78066
 CYCLE:    33 TIME:   0.012 TIME LEFT:  2.00D  GRAD.:     2.381 HEAT: -15.78538
 CYCLE:    34 TIME:   0.012 TIME LEFT:  2.00D  GRAD.:     3.059 HEAT: -15.79007
 CYCLE:    35 TIME:   0.008 TIME LEFT:  2.00D  GRAD.:     2.244 HEAT: -15.79590
 CYCLE:    36 TIME:   0.016 TIME LEFT:  2.00D  GRAD.:     2.573 HEAT: -15.80454
 CYCLE:    37 TIME:   0.012 TIME LEFT:  2.00D  GRAD.:     7.043 HEAT: -15.81059
 CYCLE:    38 TIME:   0.008 TIME LEFT:  2.00D  GRAD.:     3.898 HEAT: -15.81878
 CYCLE:    39 TIME:   0.016 TIME LEFT:  2.00D  GRAD.:     2.722 HEAT: -15.82929
 CYCLE:    40 TIME:   0.008 TIME LEFT:  2.00D  GRAD.:     3.391 HEAT: -15.83445
 CYCLE:    41 TIME:   0.012 TIME LEFT:  2.00D  GRAD.:     4.343 HEAT: -15.84609
 CYCLE:    42 TIME:   0.012 TIME LEFT:  2.00D  GRAD.:     5.586 HEAT: -15.86043
 CYCLE:    43 TIME:   0.012 TIME LEFT:  2.00D  GRAD.:     7.386 HEAT: -15.87454
 CYCLE:    44 TIME:   0.008 TIME LEFT:  2.00D  GRAD.:    10.099 HEAT: -15.88532
 CYCLE:    45 TIME:   0.012 TIME LEFT:  2.00D  GRAD.:    13.706 HEAT: -15.89267
 CYCLE:    46 TIME:   0.012 TIME LEFT:  2.00D  GRAD.:    50.717 HEAT: -14.74708
 CYCLE:    47 TIME:   0.012 TIME LEFT:  2.00D  GRAD.:    36.044 HEAT: -15.42299
 CYCLE:    48 TIME:   0.012 TIME LEFT:  2.00D  GRAD.:    34.137 HEAT: -15.60165
 CYCLE:    49 TIME:   0.012 TIME LEFT:  2.00D  GRAD.:    35.594 HEAT: -15.69911
 CYCLE:    50 TIME:   0.012 TIME LEFT:  2.00D  GRAD.:    80.194 HEAT: -14.05477
 CYCLE:    51 TIME:   0.012 TIME LEFT:  2.00D  GRAD.:    44.706 HEAT: -15.58734
 CYCLE:    52 TIME:   0.012 TIME LEFT:  2.00D  GRAD.:    30.395 HEAT: -15.63860
 CYCLE:    53 TIME:   0.012 TIME LEFT:  2.00D  GRAD.:    46.758 HEAT: -15.47769
 CYCLE:    54 TIME:   0.012 TIME LEFT:  2.00D  GRAD.:    81.522 HEAT: -14.56163
 CYCLE:    55 TIME:   0.012 TIME LEFT:  2.00D  GRAD.:    53.667 HEAT: -15.37270
 CYCLE:    56 TIME:   0.016 TIME LEFT:  2.00D  GRAD.:    25.192 HEAT: -15.69917
 CYCLE:    57 TIME:   0.012 TIME LEFT:  2.00D  GRAD.:    87.851 HEAT: -14.40831
 CYCLE:    58 TIME:   0.012 TIME LEFT:  2.00D  GRAD.:    68.973 HEAT: -14.75015
 CYCLE:    59 TIME:   0.012 TIME LEFT:  2.00D  GRAD.:   201.704 HEAT: -4.948550
 CYCLE:    60 TIME:   0.016 TIME LEFT:  2.00D  GRAD.:    64.914 HEAT: -15.08658
 CYCLE:    61 TIME:   0.012 TIME LEFT:  2.00D  GRAD.:   109.651 HEAT: -14.32830
 CYCLE:    62 TIME:   0.012 TIME LEFT:  2.00D  GRAD.:    20.555 HEAT: -15.94126
 CYCLE:    63 TIME:   0.012 TIME LEFT:  2.00D  GRAD.:    15.451 HEAT: -15.92054
 CYCLE:    64 TIME:   0.012 TIME LEFT:  2.00D  GRAD.:     6.740 HEAT: -16.05285
 CYCLE:    65 TIME:   0.012 TIME LEFT:  2.00D  GRAD.:    18.366 HEAT: -16.01724
 CYCLE:    66 TIME:   0.012 TIME LEFT:  2.00D  GRAD.:     5.339 HEAT: -16.10966
 CYCLE:    67 TIME:   0.012 TIME LEFT:  2.00D  GRAD.:     3.925 HEAT: -16.13514
 CYCLE:    68 TIME:   0.012 TIME LEFT:  2.00D  GRAD.:     5.264 HEAT: -16.21247
 CYCLE:    69 TIME:   0.012 TIME LEFT:  2.00D  GRAD.:    10.605 HEAT: -16.23655
 CYCLE:    70 TIME:   0.012 TIME LEFT:  2.00D  GRAD.:     5.135 HEAT: -16.27416
 CYCLE:    71 TIME:   0.012 TIME LEFT:  2.00D  GRAD.:     3.388 HEAT: -16.30331
 CYCLE:    72 TIME:   0.008 TIME LEFT:  2.00D  GRAD.:     4.030 HEAT: -16.32159
 CYCLE:    73 TIME:   0.012 TIME LEFT:  2.00D  GRAD.:     9.249 HEAT: -16.34068
 CYCLE:    74 TIME:   0.012 TIME LEFT:  2.00D  GRAD.:     4.530 HEAT: -16.37560
 CYCLE:    75 TIME:   0.012 TIME LEFT:  2.00D  GRAD.:     4.170 HEAT: -16.39491
 CYCLE:    76 TIME:   0.012 TIME LEFT:  2.00D  GRAD.:     6.498 HEAT: -16.41554
 CYCLE:    77 TIME:   0.012 TIME LEFT:  2.00D  GRAD.:     5.977 HEAT: -16.43647
 CYCLE:    78 TIME:   0.012 TIME LEFT:  2.00D  GRAD.:     4.711 HEAT: -16.46065
 CYCLE:    79 TIME:   0.012 TIME LEFT:  2.00D  GRAD.:     8.101 HEAT: -16.49376
 CYCLE:    80 TIME:   0.012 TIME LEFT:  2.00D  GRAD.:     5.895 HEAT: -16.53448
 CYCLE:    81 TIME:   0.012 TIME LEFT:  2.00D  GRAD.:     5.359 HEAT: -16.56574
 CYCLE:    82 TIME:   0.012 TIME LEFT:  2.00D  GRAD.:     5.192 HEAT: -16.59905
 CYCLE:    83 TIME:   0.008 TIME LEFT:  2.00D  GRAD.:     5.219 HEAT: -16.62293
 CYCLE:    84 TIME:   0.012 TIME LEFT:  2.00D  GRAD.:     3.662 HEAT: -16.64273
 CYCLE:    85 TIME:   0.012 TIME LEFT:  2.00D  GRAD.:     5.009 HEAT: -16.65606
 CYCLE:    86 TIME:   0.012 TIME LEFT:  2.00D  GRAD.:     3.409 HEAT: -16.67322
 CYCLE:    87 TIME:   0.012 TIME LEFT:  2.00D  GRAD.:     3.460 HEAT: -16.69025
 CYCLE:    88 TIME:   0.008 TIME LEFT:  2.00D  GRAD.:     3.336 HEAT: -16.71177
 CYCLE:    89 TIME:   0.012 TIME LEFT:  2.00D  GRAD.:     4.543 HEAT: -16.72774
 CYCLE:    90 TIME:   0.012 TIME LEFT:  2.00D  GRAD.:     2.930 HEAT: -16.73720
 CYCLE:    91 TIME:   0.012 TIME LEFT:  2.00D  GRAD.:     1.755 HEAT: -16.74144
 CYCLE:    92 TIME:   0.008 TIME LEFT:  2.00D  GRAD.:     2.020 HEAT: -16.74645
 CYCLE:    93 TIME:   0.012 TIME LEFT:  2.00D  GRAD.:     4.968 HEAT: -16.74938
 CYCLE:    94 TIME:   0.012 TIME LEFT:  2.00D  GRAD.:     1.927 HEAT: -16.75542
 CYCLE:    95 TIME:   0.012 TIME LEFT:  2.00D  GRAD.:     1.510 HEAT: -16.75868
 CYCLE:    96 TIME:   0.008 TIME LEFT:  2.00D  GRAD.:     1.912 HEAT: -16.76205
 CYCLE:    97 TIME:   0.012 TIME LEFT:  2.00D  GRAD.:     2.046 HEAT: -16.76706
 CYCLE:    98 TIME:   0.012 TIME LEFT:  2.00D  GRAD.:     2.381 HEAT: -16.77193
 CYCLE:    99 TIME:   0.012 TIME LEFT:  2.00D  GRAD.:     1.700 HEAT: -16.77614
 CYCLE:   100 TIME:   0.008 TIME LEFT:  2.00D  GRAD.:     1.866 HEAT: -16.78111
 CYCLE:   101 TIME:   0.012 TIME LEFT:  2.00D  GRAD.:     2.111 HEAT: -16.78488
 CYCLE:   102 TIME:   0.012 TIME LEFT:  2.00D  GRAD.:     1.917 HEAT: -16.79002
 CYCLE:   103 TIME:   0.012 TIME LEFT:  2.00D  GRAD.:     2.271 HEAT: -16.79552
 CYCLE:   104 TIME:   0.012 TIME LEFT:  2.00D  GRAD.:     2.272 HEAT: -16.80162
 CYCLE:   105 TIME:   0.012 TIME LEFT:  2.00D  GRAD.:     2.389 HEAT: -16.80935
 CYCLE:   106 TIME:   0.012 TIME LEFT:  2.00D  GRAD.:     2.837 HEAT: -16.81906
 CYCLE:   107 TIME:   0.012 TIME LEFT:  2.00D  GRAD.:     3.265 HEAT: -16.82922
 CYCLE:   108 TIME:   0.012 TIME LEFT:  2.00D  GRAD.:     3.348 HEAT: -16.83943
 CYCLE:   109 TIME:   0.012 TIME LEFT:  2.00D  GRAD.:     3.606 HEAT: -16.84981
 CYCLE:   110 TIME:   0.012 TIME LEFT:  2.00D  GRAD.:     2.870 HEAT: -16.85933
 CYCLE:   111 TIME:   0.012 TIME LEFT:  2.00D  GRAD.:     2.677 HEAT: -16.87113
 CYCLE:   112 TIME:   0.016 TIME LEFT:  2.00D  GRAD.:     3.668 HEAT: -16.88704
 CYCLE:   113 TIME:   0.012 TIME LEFT:  2.00D  GRAD.:     3.662 HEAT: -16.90669
 CYCLE:   114 TIME:   0.012 TIME LEFT:  2.00D  GRAD.:     4.940 HEAT: -16.92491
 CYCLE:   115 TIME:   0.012 TIME LEFT:  2.00D  GRAD.:     5.153 HEAT: -16.94436
 CYCLE:   116 TIME:   0.012 TIME LEFT:  2.00D  GRAD.:    11.135 HEAT: -16.93057
 CYCLE:   117 TIME:   0.012 TIME LEFT:  2.00D  GRAD.:     6.172 HEAT: -16.97931
 CYCLE:   118 TIME:   0.012 TIME LEFT:  2.00D  GRAD.:    10.101 HEAT: -16.97155
 CYCLE:   119 TIME:   0.012 TIME LEFT:  2.00D  GRAD.:     2.817 HEAT: -17.01208
 CYCLE:   120 TIME:   0.012 TIME LEFT:  2.00D  GRAD.:     2.730 HEAT: -17.02083
 CYCLE:   121 TIME:   0.012 TIME LEFT:  2.00D  GRAD.:     4.080 HEAT: -17.04347
 CYCLE:   122 TIME:   0.016 TIME LEFT:  2.00D  GRAD.:     7.388 HEAT: -17.05207
 CYCLE:   123 TIME:   0.012 TIME LEFT:  2.00D  GRAD.:     7.514 HEAT: -17.06698
 CYCLE:   124 TIME:   0.012 TIME LEFT:  2.00D  GRAD.:     6.134 HEAT: -17.08507
 CYCLE:   125 TIME:   0.012 TIME LEFT:  2.00D  GRAD.:     2.946 HEAT: -17.09740
 CYCLE:   126 TIME:   0.012 TIME LEFT:  2.00D  GRAD.:     2.641 HEAT: -17.10385
 CYCLE:   127 TIME:   0.008 TIME LEFT:  2.00D  GRAD.:     3.550 HEAT: -17.11292
 CYCLE:   128 TIME:   0.012 TIME LEFT:  2.00D  GRAD.:     5.419 HEAT: -17.12109
 CYCLE:   129 TIME:   0.012 TIME LEFT:  2.00D  GRAD.:     2.729 HEAT: -17.13032
 CYCLE:   130 TIME:   0.012 TIME LEFT:  2.00D  GRAD.:     2.251 HEAT: -17.13506
 CYCLE:   131 TIME:   0.012 TIME LEFT:  2.00D  GRAD.:     3.063 HEAT: -17.14331
 CYCLE:   132 TIME:   0.008 TIME LEFT:  2.00D  GRAD.:     3.496 HEAT: -17.14945
 CYCLE:   133 TIME:   0.016 TIME LEFT:  2.00D  GRAD.:     2.506 HEAT: -17.15861
 CYCLE:   134 TIME:   0.008 TIME LEFT:  2.00D  GRAD.:     1.928 HEAT: -17.16326
 CYCLE:   135 TIME:   0.012 TIME LEFT:  2.00D  GRAD.:     2.202 HEAT: -17.16710
 CYCLE:   136 TIME:   0.012 TIME LEFT:  2.00D  GRAD.:     1.564 HEAT: -17.17085
 CYCLE:   137 TIME:   0.016 TIME LEFT:  2.00D  GRAD.:     2.033 HEAT: -17.17426
 CYCLE:   138 TIME:   0.012 TIME LEFT:  2.00D  GRAD.:     1.681 HEAT: -17.17773
 CYCLE:   139 TIME:   0.012 TIME LEFT:  2.00D  GRAD.:     2.105 HEAT: -17.17913
 CYCLE:   140 TIME:   0.012 TIME LEFT:  2.00D  GRAD.:     0.873 HEAT: -17.18093
 CYCLE:   141 TIME:   0.012 TIME LEFT:  2.00D  GRAD.:     0.910 HEAT: -17.18178
 CYCLE:   142 TIME:   0.012 TIME LEFT:  2.00D  GRAD.:     1.045 HEAT: -17.18289
 CYCLE:   143 TIME:   0.012 TIME LEFT:  2.00D  GRAD.:     3.865 HEAT: -17.18284
 CYCLE:   144 TIME:   0.012 TIME LEFT:  2.00D  GRAD.:     1.071 HEAT: -17.18516
 CYCLE:   145 TIME:   0.008 TIME LEFT:  2.00D  GRAD.:     0.634 HEAT: -17.18552
 CYCLE:   146 TIME:   0.012 TIME LEFT:  2.00D  GRAD.:     1.160 HEAT: -17.18623
 CYCLE:   147 TIME:   0.012 TIME LEFT:  2.00D  GRAD.:     0.840 HEAT: -17.18715
 CYCLE:   148 TIME:   0.016 TIME LEFT:  2.00D  GRAD.:     0.998 HEAT: -17.18934
 CYCLE:   149 TIME:   0.012 TIME LEFT:  2.00D  GRAD.:     1.354 HEAT: -17.19044
 CYCLE:   150 TIME:   0.012 TIME LEFT:  2.00D  GRAD.:     0.983 HEAT: -17.19184
 CYCLE:   151 TIME:   0.012 TIME LEFT:  2.00D  GRAD.:     1.227 HEAT: -17.19331
 CYCLE:   152 TIME:   0.012 TIME LEFT:  2.00D  GRAD.:     0.969 HEAT: -17.19442
 CYCLE:   153 TIME:   0.012 TIME LEFT:  2.00D  GRAD.:     0.856 HEAT: -17.19559
 CYCLE:   154 TIME:   0.016 TIME LEFT:  2.00D  GRAD.:     1.833 HEAT: -17.19657
 CYCLE:   155 TIME:   0.008 TIME LEFT:  2.00D  GRAD.:     0.769 HEAT: -17.19776
 CYCLE:   156 TIME:   0.012 TIME LEFT:  2.00D  GRAD.:     0.770 HEAT: -17.19843
 CYCLE:   157 TIME:   0.012 TIME LEFT:  2.00D  GRAD.:     1.029 HEAT: -17.19947
 CYCLE:   158 TIME:   0.012 TIME LEFT:  2.00D  GRAD.:     3.401 HEAT: -17.19881
 CYCLE:   159 TIME:   0.012 TIME LEFT:  2.00D  GRAD.:     0.810 HEAT: -17.20062
 CYCLE:   160 TIME:   0.012 TIME LEFT:  2.00D  GRAD.:     0.606 HEAT: -17.20085
 CYCLE:   161 TIME:   0.012 TIME LEFT:  2.00D  GRAD.:     0.720 HEAT: -17.20132
 CYCLE:   162 TIME:   0.012 TIME LEFT:  2.00D  GRAD.:     0.831 HEAT: -17.20196
 CYCLE:   163 TIME:   0.012 TIME LEFT:  2.00D  GRAD.:     1.321 HEAT: -17.20261
 CYCLE:   164 TIME:   0.012 TIME LEFT:  2.00D  GRAD.:     0.685 HEAT: -17.20334
 CYCLE:   165 TIME:   0.012 TIME LEFT:  2.00D  GRAD.:     0.740 HEAT: -17.20403
 CYCLE:   166 TIME:   0.012 TIME LEFT:  2.00D  GRAD.:     0.949 HEAT: -17.20479
 CYCLE:   167 TIME:   0.012 TIME LEFT:  2.00D  GRAD.:     1.306 HEAT: -17.20616
 CYCLE:   168 TIME:   0.012 TIME LEFT:  2.00D  GRAD.:     1.320 HEAT: -17.20736
 CYCLE:   169 TIME:   0.012 TIME LEFT:  2.00D  GRAD.:     0.732 HEAT: -17.20854
 CYCLE:   170 TIME:   0.012 TIME LEFT:  2.00D  GRAD.:     0.809 HEAT: -17.20942
 CYCLE:   171 TIME:   0.012 TIME LEFT:  2.00D  GRAD.:     0.918 HEAT: -17.21017
 CYCLE:   172 TIME:   0.012 TIME LEFT:  2.00D  GRAD.:     0.936 HEAT: -17.21106
 CYCLE:   173 TIME:   0.008 TIME LEFT:  2.00D  GRAD.:     0.688 HEAT: -17.21197
 CYCLE:   174 TIME:   0.012 TIME LEFT:  2.00D  GRAD.:     0.865 HEAT: -17.21307
 CYCLE:   175 TIME:   0.012 TIME LEFT:  2.00D  GRAD.:     1.305 HEAT: -17.21384
 CYCLE:   176 TIME:   0.012 TIME LEFT:  2.00D  GRAD.:     0.786 HEAT: -17.21473
 CYCLE:   177 TIME:   0.012 TIME LEFT:  2.00D  GRAD.:     0.918 HEAT: -17.21560
 CYCLE:   178 TIME:   0.008 TIME LEFT:  2.00D  GRAD.:     1.574 HEAT: -17.21597
 CYCLE:   179 TIME:   0.008 TIME LEFT:  2.00D  GRAD.:     0.797 HEAT: -17.21643
 CYCLE:   180 TIME:   0.016 TIME LEFT:  2.00D  GRAD.:     0.616 HEAT: -17.21689
 CYCLE:   181 TIME:   0.008 TIME LEFT:  2.00D  GRAD.:     0.691 HEAT: -17.21722
 CYCLE:   182 TIME:   0.012 TIME LEFT:  2.00D  GRAD.:     0.674 HEAT: -17.21777
 CYCLE:   183 TIME:   0.012 TIME LEFT:  2.00D  GRAD.:     1.547 HEAT: -17.21784
 CYCLE:   184 TIME:   0.012 TIME LEFT:  2.00D  GRAD.:     0.471 HEAT: -17.21857
 CYCLE:   185 TIME:   0.008 TIME LEFT:  2.00D  GRAD.:     0.411 HEAT: -17.21880
 CYCLE:   186 TIME:   0.012 TIME LEFT:  2.00D  GRAD.:     0.511 HEAT: -17.21913
 CYCLE:   187 TIME:   0.012 TIME LEFT:  2.00D  GRAD.:     0.654 HEAT: -17.21943
 CYCLE:   188 TIME:   0.012 TIME LEFT:  2.00D  GRAD.:     0.524 HEAT: -17.21966
 CYCLE:   189 TIME:   0.012 TIME LEFT:  2.00D  GRAD.:     0.306 HEAT: -17.21984
 CYCLE:   190 TIME:   0.008 TIME LEFT:  2.00D  GRAD.:     0.393 HEAT: -17.22003
 CYCLE:   191 TIME:   0.012 TIME LEFT:  2.00D  GRAD.:     0.528 HEAT: -17.22024
 CYCLE:   192 TIME:   0.012 TIME LEFT:  2.00D  GRAD.:     0.839 HEAT: -17.22054
 CYCLE:   193 TIME:   0.012 TIME LEFT:  2.00D  GRAD.:     0.764 HEAT: -17.22085
 CYCLE:   194 TIME:   0.012 TIME LEFT:  2.00D  GRAD.:     0.513 HEAT: -17.22113
 CYCLE:   195 TIME:   0.012 TIME LEFT:  2.00D  GRAD.:     0.586 HEAT: -17.22139
 CYCLE:   196 TIME:   0.012 TIME LEFT:  2.00D  GRAD.:     0.729 HEAT: -17.22179
 CYCLE:   197 TIME:   0.012 TIME LEFT:  2.00D  GRAD.:     0.741 HEAT: -17.22237
 CYCLE:   198 TIME:   0.012 TIME LEFT:  2.00D  GRAD.:     0.750 HEAT: -17.22290
 CYCLE:   199 TIME:   0.012 TIME LEFT:  2.00D  GRAD.:     0.591 HEAT: -17.22347
 CYCLE:   200 TIME:   0.012 TIME LEFT:  2.00D  GRAD.:     0.737 HEAT: -17.22396
 CYCLE:   201 TIME:   0.012 TIME LEFT:  2.00D  GRAD.:     0.549 HEAT: -17.22415
 CYCLE:   202 TIME:   0.008 TIME LEFT:  2.00D  GRAD.:     0.334 HEAT: -17.22427
 CYCLE:   203 TIME:   0.012 TIME LEFT:  2.00D  GRAD.:     0.343 HEAT: -17.22445
 CYCLE:   204 TIME:   0.012 TIME LEFT:  2.00D  GRAD.:     0.391 HEAT: -17.22461
 CYCLE:   205 TIME:   0.012 TIME LEFT:  2.00D  GRAD.:     0.875 HEAT: -17.22477
 CYCLE:   206 TIME:   0.012 TIME LEFT:  2.00D  GRAD.:     0.392 HEAT: -17.22500
 CYCLE:   207 TIME:   0.012 TIME LEFT:  2.00D  GRAD.:     0.299 HEAT: -17.22510
 CYCLE:   208 TIME:   0.012 TIME LEFT:  2.00D  GRAD.:     0.368 HEAT: -17.22520
 CYCLE:   209 TIME:   0.008 TIME LEFT:  2.00D  GRAD.:     0.747 HEAT: -17.22532
 CYCLE:   210 TIME:   0.016 TIME LEFT:  2.00D  GRAD.:     0.362 HEAT: -17.22547
 CYCLE:   211 TIME:   0.008 TIME LEFT:  2.00D  GRAD.:     0.241 HEAT: -17.22556
 CYCLE:   212 TIME:   0.012 TIME LEFT:  2.00D  GRAD.:     0.269 HEAT: -17.22564
 CYCLE:   213 TIME:   0.008 TIME LEFT:  2.00D  GRAD.:     0.256 HEAT: -17.22574
 CYCLE:   214 TIME:   0.012 TIME LEFT:  2.00D  GRAD.:     0.868 HEAT: -17.22575
 CYCLE:   215 TIME:   0.012 TIME LEFT:  2.00D  GRAD.:     0.235 HEAT: -17.22593
 CYCLE:   216 TIME:   0.008 TIME LEFT:  2.00D  GRAD.:     0.195 HEAT: -17.22598

 -------------------------------------------------------------------------------
 pm3  precise nosym THREADS=1
 InChI=1S/C12H22/c1-4-7-11(6-3)12-8-10(5-2)9-12/h4,10-12H,1,5-9H2,2-3H3



     HERBERTS TEST WAS SATISFIED IN BFGS                      
     SCF FIELD WAS ACHIEVED                                   


                              PM3 CALCULATION
                                                       MOPAC v23.1.2 MacOS
                                                       Tue Jun  3 16:36:51 2025




          FINAL HEAT OF FORMATION =        -17.22598 KCAL/MOL =     -72.07351 KJ/MOL


          COSMO AREA              =        237.50 SQUARE ANGSTROMS
          COSMO VOLUME            =        257.96 CUBIC ANGSTROMS

          GRADIENT NORM           =          0.19461          =       0.03338 PER ATOM
          IONIZATION POTENTIAL    =         10.070573 EV
          HOMO LUMO ENERGIES (EV) =        -10.071  1.183
          NO. OF FILLED LEVELS    =         35
          MOLECULAR WEIGHT        =        166.3058         POINT GROUP:  C1  

          MOLECULAR DIMENSIONS (Angstroms)

            Atom       Atom       Distance
            H    30    H    27     9.04700
            H    33    H    18     7.78422
            H    23    H    21     3.97615


          SCF CALCULATIONS        =        217

          WALL-CLOCK TIME         =      2.469 SECONDS
          COMPUTATION TIME        =      1.667 SECONDS




   ATOM   CHEMICAL          X               Y               Z
  NUMBER   SYMBOL      (ANGSTROMS)     (ANGSTROMS)     (ANGSTROMS)

     1       C          0.08953450  *  -0.84630213  *   0.77850450  *
     2       C         -1.00002455  *  -0.20653208  *  -0.07438773  *
     3       C          2.26303295  *  -0.57375714  *   0.60189958  *
     4       C          1.22560204  *  -1.54448608  *  -0.00967706  *
     5       C          1.12704219  *   0.13920305  *   1.37313507  *
     6       C          2.99140930  *   0.28158166  *  -0.41415257  *
     7       C         -1.79126795  *  -1.25954598  *  -0.85793973  *
     8       C         -1.92857455  *   0.64419012  *   0.80167124  *
     9       C          3.95177673  *   1.24574955  *   0.24494275  *
    10       C         -2.56671386  *  -2.22084047  *   0.01630348  *
    11       C         -2.60929454  *   1.70594226  *   0.01202571  *
    12       C         -2.63029767  *   2.98186511  *   0.37906960  *
    13       H          2.99524751  *  -1.07603947  *   1.26860829  *
    14       H         -0.37331423  *  -1.50229245  *   1.54676755  *
    15       H         -0.50133351  *   0.46619586  *  -0.81763883  *
    16       H          3.53668609  *  -0.37860083  *  -1.11728618  *
    17       H          2.25909592  *   0.83842193  *  -1.03402280  *
    18       H          1.37639763  *  -2.60300208  *   0.24806445  *
    19       H          1.13491485  *  -1.48524347  *  -1.10668693  *
    20       H         -2.49166138  *  -0.73834014  *  -1.54222411  *
    21       H         -1.09916822  *  -1.82536428  *  -1.51352247  *
    22       H          0.97910748  *   1.19608798  *   1.09613688  *
    23       H          1.21874534  *   0.09982349  *   2.46841841  *
    24       H         -1.35707113  *   1.08574132  *   1.64346641  *
    25       H         -2.70254865  *  -0.00890569  *   1.26789155  *
    26       H          4.71998539  *   0.72023568  *   0.82767515  *
    27       H          4.46943124  *   1.86358919  *  -0.49971581  *
    28       H          3.42934247  *   1.92553375  *   0.93166364  *
    29       H         -1.90607726  *  -2.92052852  *   0.54557108  *
    30       H         -3.27094894  *  -2.81927117  *  -0.57447763  *
    31       H         -3.14596019  *  -1.67592838  *   0.78102811  *
    32       H         -3.10912918  *   1.37386619  *  -0.90691540  *
    33       H         -3.13966938  *   3.74818772  *  -0.19693883  *
    34       H         -2.14399647  *   3.35217248  *   1.27763043  *

                             CARTESIAN COORDINATES

   1    C        0.089534497    -0.846302126     0.778504499
   2    C       -1.000024549    -0.206532079    -0.074387731
   3    C        2.263032953    -0.573757140     0.601899578
   4    C        1.225602042    -1.544486076    -0.009677055
   5    C        1.127042187     0.139203046     1.373135073
   6    C        2.991409304     0.281581664    -0.414152570
   7    C       -1.791267955    -1.259545976    -0.857939725
   8    C       -1.928574547     0.644190123     0.801671238
   9    C        3.951776730     1.245749555     0.244942748
  10    C       -2.566713856    -2.220840468     0.016303483
  11    C       -2.609294537     1.705942260     0.012025713
  12    C       -2.630297669     2.981865108     0.379069603
  13    H        2.995247515    -1.076039467     1.268608291
  14    H       -0.373314227    -1.502292448     1.546767545
  15    H       -0.501333506     0.466195860    -0.817638831
  16    H        3.536686086    -0.378600827    -1.117286176
  17    H        2.259095921     0.838421931    -1.034022801
  18    H        1.376397628    -2.603002076     0.248064446
  19    H        1.134914854    -1.485243472    -1.106686934
  20    H       -2.491661383    -0.738340138    -1.542224108
  21    H       -1.099168220    -1.825364285    -1.513522466
  22    H        0.979107481     1.196087977     1.096136878
  23    H        1.218745343     0.099823491     2.468418414
  24    H       -1.357071130     1.085741324     1.643466410
  25    H       -2.702548647    -0.008905689     1.267891545
  26    H        4.719985388     0.720235684     0.827675153
  27    H        4.469431242     1.863589194    -0.499715809
  28    H        3.429342475     1.925533749     0.931663637
  29    H       -1.906077262    -2.920528519     0.545571078
  30    H       -3.270948943    -2.819271170    -0.574477629
  31    H       -3.145960188    -1.675928376     0.781028106
  32    H       -3.109129180     1.373866195    -0.906915398
  33    H       -3.139669383     3.748187719    -0.196938834
  34    H       -2.143996468     3.352172484     1.277630430


           Empirical Formula: C12 H22  =    34 atoms



      MOLECULAR POINT GROUP   :   C1  


                  EIGENVALUES  
 -42.53824 -37.82539 -33.60459 -32.45962 -28.23472 -25.78807 -24.84025 -23.63547
 -21.80140 -19.67551 -18.97081 -18.51785 -17.12737 -16.80682 -16.11590 -15.61106
 -15.19963 -14.93600 -14.77591 -14.42916 -14.04742 -13.71285 -13.15756 -12.98600
 -12.80604 -12.70209 -12.25332 -12.12621 -11.93517 -11.79522 -11.61389 -11.30538
 -11.13913 -11.09720 -10.07057   1.18263   3.20627   3.27653   3.41538   3.56422
   3.62662   3.67216   3.77318   3.85821   3.89865   3.94243   3.97197   4.01513
   4.05812   4.09466   4.17174   4.17919   4.21874   4.37277   4.48224   4.52512
   4.53702   4.55740   4.65919   4.68519   4.83990   4.91827   4.99858   5.07186
   5.10889   5.19128   5.52113   5.60842   5.70981   5.91103


              NET ATOMIC CHARGES AND DIPOLE CONTRIBUTIONS

  ATOM NO.   TYPE          CHARGE      No. of ELECS.   s-Pop       p-Pop       
    1          C          -0.094167        4.0942     1.19295     2.90122
    2          C          -0.065183        4.0652     1.17915     2.88603
    3          C          -0.093073        4.0931     1.19003     2.90304
    4          C          -0.110948        4.1109     1.17788     2.93307
    5          C          -0.112924        4.1129     1.17828     2.93465
    6          C          -0.089873        4.0899     1.15755     2.93232
    7          C          -0.098712        4.0987     1.16127     2.93744
    8          C          -0.086016        4.0860     1.15626     2.92976
    9          C          -0.109516        4.1095     1.13797     2.97155
   10          C          -0.120530        4.1205     1.14040     2.98013
   11          C          -0.135824        4.1358     1.19539     2.94043
   12          C          -0.169458        4.1695     1.18269     2.98676
   13          H           0.071597        0.9284     0.92840
   14          H           0.074646        0.9254     0.92535
   15          H           0.068820        0.9312     0.93118
   16          H           0.049170        0.9508     0.95083
   17          H           0.052298        0.9477     0.94770
   18          H           0.055429        0.9446     0.94457
   19          H           0.063709        0.9363     0.93629
   20          H           0.048951        0.9510     0.95105
   21          H           0.052150        0.9479     0.94785
   22          H           0.066980        0.9330     0.93302
   23          H           0.054906        0.9451     0.94509
   24          H           0.061522        0.9385     0.93848
   25          H           0.067677        0.9323     0.93232
   26          H           0.037679        0.9623     0.96232
   27          H           0.036996        0.9630     0.96300
   28          H           0.039281        0.9607     0.96072
   29          H           0.040601        0.9594     0.95940
   30          H           0.039195        0.9608     0.96081
   31          H           0.046035        0.9540     0.95397
   32          H           0.098383        0.9016     0.90162
   33          H           0.078845        0.9212     0.92116
   34          H           0.081356        0.9186     0.91864
 DIPOLE           X         Y         Z       TOTAL
 POINT-CHG.     0.061    -0.199    -0.050     0.214
 HYBRID        -0.031     0.016     0.015     0.038
 SUM            0.029    -0.182    -0.035     0.188


          ATOMIC ORBITAL ELECTRON POPULATIONS

     Atom    s        px        py        pz   
    1  C   1.19295   0.94039   0.97843   0.98240
    2  C   1.17915   0.95207   0.96271   0.97124
    3  C   1.19003   0.95648   0.97022   0.97634
    4  C   1.17788   0.95809   0.97816   0.99681
    5  C   1.17828   0.95802   0.98575   0.99088
    6  C   1.15755   0.98399   0.97809   0.97023
    7  C   1.16127   0.98979   0.97146   0.97619
    8  C   1.15626   0.98639   0.96910   0.97427
    9  C   1.13797   0.98486   0.98679   0.99990
   10  C   1.14040   0.99624   0.98660   0.99729
   11  C   1.19539   0.99049   0.95651   0.99343
   12  C   1.18269   1.01743   0.95947   1.00987
   13  H   0.92840
   14  H   0.92535
   15  H   0.93118
   16  H   0.95083
   17  H   0.94770
   18  H   0.94457
   19  H   0.93629
   20  H   0.95105
   21  H   0.94785
   22  H   0.93302
   23  H   0.94509
   24  H   0.93848
   25  H   0.93232
   26  H   0.96232
   27  H   0.96300
   28  H   0.96072
   29  H   0.95940
   30  H   0.96081
   31  H   0.95397
   32  H   0.90162
   33  H   0.92116
   34  H   0.91864
 *******************************************************************************
 **                                                                           **
 **                              MOPAC v23.1.2                                **
 **                                                                           **
 *******************************************************************************
 **          Digital Object Identifier (DOI): 10.5281/zenodo.6511958          **
 **    Visit the DOI location for information on how to cite this program.    **
 *******************************************************************************

                              PM3 CALCULATION RESULTS

 *******************************************************************************
 *  CALCULATION DONE: (MAX THREADS = 1)              Tue Jun  3 16:36:51 2025  *
 *  PM3        - The PM3 Hamiltonian to be used
 *  OLDGEO     - PREVIOUS GEOMETRY TO BE USED
 *  PRECISE    - TIGHTER CRITERIA TO BE USED
 *  NOSYM      - POINT-GROUP SYMMETRY SET TO C1
 *  THREADS=1  - MULTI-THREADING NOT USED
 *  T=         - A TIME OF 172800.0 SECONDS REQUESTED
 *  DUMP=N     - RESTART FILE WRITTEN EVERY 7200.0 SECONDS REQUESTED
 *  THERMO     - THERMODYNAMIC QUANTITIES TO BE CALCULATED
 *******************************************************************************
oldgeo thermo nosym precise THREADS=1  pm3
 InChI=1S/C12H22/c1-4-7-11(6-3)12-8-10(5-2)9-12/h4,10-12H,1,5-9H2,2-3H3

   ATOM   CHEMICAL          X               Y               Z
  NUMBER   SYMBOL      (ANGSTROMS)     (ANGSTROMS)     (ANGSTROMS)

     1       C          0.08953450  *  -0.84630213  *   0.77850450  *
     2       C         -1.00002455  *  -0.20653208  *  -0.07438773  *
     3       C          2.26303295  *  -0.57375714  *   0.60189958  *
     4       C          1.22560204  *  -1.54448608  *  -0.00967706  *
     5       C          1.12704219  *   0.13920305  *   1.37313507  *
     6       C          2.99140930  *   0.28158166  *  -0.41415257  *
     7       C         -1.79126795  *  -1.25954598  *  -0.85793973  *
     8       C         -1.92857455  *   0.64419012  *   0.80167124  *
     9       C          3.95177673  *   1.24574955  *   0.24494275  *
    10       C         -2.56671386  *  -2.22084047  *   0.01630348  *
    11       C         -2.60929454  *   1.70594226  *   0.01202571  *
    12       C         -2.63029767  *   2.98186511  *   0.37906960  *
    13       H          2.99524751  *  -1.07603947  *   1.26860829  *
    14       H         -0.37331423  *  -1.50229245  *   1.54676755  *
    15       H         -0.50133351  *   0.46619586  *  -0.81763883  *
    16       H          3.53668609  *  -0.37860083  *  -1.11728618  *
    17       H          2.25909592  *   0.83842193  *  -1.03402280  *
    18       H          1.37639763  *  -2.60300208  *   0.24806445  *
    19       H          1.13491485  *  -1.48524347  *  -1.10668693  *
    20       H         -2.49166138  *  -0.73834014  *  -1.54222411  *
    21       H         -1.09916822  *  -1.82536428  *  -1.51352247  *
    22       H          0.97910748  *   1.19608798  *   1.09613688  *
    23       H          1.21874534  *   0.09982349  *   2.46841841  *
    24       H         -1.35707113  *   1.08574132  *   1.64346641  *
    25       H         -2.70254865  *  -0.00890569  *   1.26789155  *
    26       H          4.71998539  *   0.72023568  *   0.82767515  *
    27       H          4.46943124  *   1.86358919  *  -0.49971581  *
    28       H          3.42934247  *   1.92553375  *   0.93166364  *
    29       H         -1.90607726  *  -2.92052852  *   0.54557108  *
    30       H         -3.27094894  *  -2.81927117  *  -0.57447763  *
    31       H         -3.14596019  *  -1.67592838  *   0.78102811  *
    32       H         -3.10912918  *   1.37386619  *  -0.90691540  *
    33       H         -3.13966938  *   3.74818772  *  -0.19693883  *
    34       H         -2.14399647  *   3.35217248  *   1.27763043  *



          CARTESIAN COORDINATES 

    NO.       ATOM           X           Y           Z

     1         C          0.0895     -0.8463      0.7785
     2         C         -1.0000     -0.2065     -0.0744
     3         C          2.2630     -0.5738      0.6019
     4         C          1.2256     -1.5445     -0.0097
     5         C          1.1270      0.1392      1.3731
     6         C          2.9914      0.2816     -0.4142
     7         C         -1.7913     -1.2595     -0.8579
     8         C         -1.9286      0.6442      0.8017
     9         C          3.9518      1.2457      0.2449
    10         C         -2.5667     -2.2208      0.0163
    11         C         -2.6093      1.7059      0.0120
    12         C         -2.6303      2.9819      0.3791
    13         H          2.9952     -1.0760      1.2686
    14         H         -0.3733     -1.5023      1.5468
    15         H         -0.5013      0.4662     -0.8176
    16         H          3.5367     -0.3786     -1.1173
    17         H          2.2591      0.8384     -1.0340
    18         H          1.3764     -2.6030      0.2481
    19         H          1.1349     -1.4852     -1.1067
    20         H         -2.4917     -0.7383     -1.5422
    21         H         -1.0992     -1.8254     -1.5135
    22         H          0.9791      1.1961      1.0961
    23         H          1.2187      0.0998      2.4684
    24         H         -1.3571      1.0857      1.6435
    25         H         -2.7025     -0.0089      1.2679
    26         H          4.7200      0.7202      0.8277
    27         H          4.4694      1.8636     -0.4997
    28         H          3.4293      1.9255      0.9317
    29         H         -1.9061     -2.9205      0.5456
    30         H         -3.2709     -2.8193     -0.5745
    31         H         -3.1460     -1.6759      0.7810
    32         H         -3.1091      1.3739     -0.9069
    33         H         -3.1397      3.7482     -0.1969
    34         H         -2.1440      3.3522      1.2776

  H: (PM3): J. J. P. STEWART, J. COMP. CHEM. 10, 209 (1989).
  C: (PM3): J. J. P. STEWART, J. COMP. CHEM. 10, 209 (1989).

           Empirical Formula: C12 H22  =    34 atoms



      MOLECULAR POINT GROUP   :   C1  


      RHF CALCULATION, NO. OF DOUBLY OCCUPIED LEVELS = 35



          HEAT OF FORMATION =     -17.225982 KCALS/MOLE


          CARTESIAN COORDINATE DERIVATIVES

   NUMBER  ATOM         X            Y            Z

     1       C     -0.004983     0.030383     0.011075
     2       C      0.011835     0.011770     0.005504
     3       C     -0.002011    -0.004105     0.000300
     4       C     -0.037175    -0.008060    -0.012276
     5       C     -0.013367     0.000758     0.026526
     6       C      0.016778    -0.011042    -0.042363
     7       C      0.018254     0.000245     0.004375
     8       C      0.010173     0.013247     0.000170
     9       C     -0.004636     0.015865    -0.002025
    10       C     -0.003400    -0.010661    -0.016300
    11       C      0.005050    -0.036240     0.052603
    12       C     -0.012773     0.048344    -0.023687
    13       H     -0.027014     0.008797     0.020899
    14       H      0.011243     0.006674    -0.010652
    15       H      0.019268     0.007081    -0.031631
    16       H      0.037883    -0.016244    -0.028650
    17       H      0.022852    -0.018193    -0.017130
    18       H     -0.031858    -0.031530    -0.003132
    19       H     -0.014319    -0.004963    -0.013178
    20       H      0.029183     0.007937    -0.022646
    21       H      0.027169    -0.014335     0.006543
    22       H     -0.011793    -0.002011    -0.002026
    23       H     -0.020093    -0.003470     0.022696
    24       H     -0.009609    -0.021194     0.005635
    25       H      0.025107     0.023489     0.023718
    26       H     -0.012024     0.024310    -0.018474
    27       H      0.007297     0.006545    -0.000742
    28       H      0.009204    -0.013177     0.023257
    29       H      0.007885     0.008807     0.038161
    30       H     -0.028613    -0.022982    -0.009415
    31       H      0.011011    -0.006812    -0.025871
    32       H     -0.012898    -0.008276     0.035287
    33       H     -0.022036     0.010297    -0.000899
    34       H     -0.001590     0.008748     0.004347



          GRADIENT NORM =   0.19341

          MOLECULAR WEIGHT =  166.31



          ROTATIONAL CONSTANTS IN CM(-1)

          A =    0.03864976   B =    0.01764582   C =    0.01351994



           PRINCIPAL MOMENTS OF INERTIA IN UNITS OF 10**(-40)*GRAM-CM**2

          A =      724.2671   B =     1586.3672   C =     2070.4787


          ORIENTATION OF MOLECULE IN FORCE CALCULATION

    NO.       ATOM         X         Y         Z

     1          C      -0.7750   -0.6035    0.3303
     2          C       0.7494   -0.6035    0.3303
     3          C      -2.1153    1.1381    0.3303
     4          C      -1.4391    0.2740    1.4205
     5          C      -1.4357    0.2768   -0.7605
     6          C      -1.7085    2.5971    0.3496
     7          C       1.3114   -1.2438    1.6043
     8          C       1.2799   -1.3097   -0.9240
     9          C      -2.3590    3.3790   -0.7692
    10          C       0.9730   -2.7110    1.7546
    11          C       2.6539   -0.8557   -1.2710
    12          C       2.9990   -0.4538   -2.4886
    13          H      -3.2225    1.0537    0.3266
    14          H      -1.1494   -1.6497    0.3267
    15          H       1.0911    0.4625    0.3067
    16          H      -1.9819    3.0352    1.3299
    17          H      -0.6046    2.6827    0.2815
    18          H      -2.1353   -0.2654    2.0792
    19          H      -0.7356    0.8226    2.0680
    20          H       2.4136   -1.1187    1.6060
    21          H       0.9460   -0.6833    2.4882
    22          H      -0.7314    0.8277   -1.4057
    23          H      -2.1305   -0.2607   -1.4222
    24          H       0.5858   -1.1469   -1.7736
    25          H       1.2982   -2.4110   -0.7518
    26          H      -3.4546    3.3533   -0.7000
    27          H      -2.0531    4.4327   -0.7487
    28          H      -2.0845    2.9750   -1.7531
    29          H      -0.0889   -2.8669    1.9871
    30          H       1.5558   -3.1752    2.5596
    31          H       1.1879   -3.2608    0.8225
    32          H       3.3859   -0.8749   -0.4535
    33          H       4.0069   -0.1355   -2.7360
    34          H       2.3041   -0.4149   -3.3233


    FIRST DERIVATIVES WILL BE USED IN THE CALCULATION OF SECOND DERIVATIVES

          ESTIMATED TIME TO COMPLETE CALCULATION =        4.78 SECONDS

    FOR POINT-GROUP C1   THERE ARE   1 UNIQUE SYMMETRY FUNCTIONS.

 STEP:   1 TIME =     0.04 SECS, INTEGRAL =      0.04 TIME LEFT: 172799.95
 STEP:   2 TIME =     0.04 SECS, INTEGRAL =      0.08 TIME LEFT: 172799.91
 STEP:   3 TIME =     0.04 SECS, INTEGRAL =      0.12 TIME LEFT: 172799.87
 STEP:   4 TIME =     0.04 SECS, INTEGRAL =      0.16 TIME LEFT: 172799.83
 STEP:   5 TIME =     0.04 SECS, INTEGRAL =      0.20 TIME LEFT: 172799.79
 STEP:   6 TIME =     0.04 SECS, INTEGRAL =      0.23 TIME LEFT: 172799.75
 STEP:   7 TIME =     0.04 SECS, INTEGRAL =      0.27 TIME LEFT: 172799.71
 STEP:   8 TIME =     0.04 SECS, INTEGRAL =      0.31 TIME LEFT: 172799.68
 STEP:   9 TIME =     0.04 SECS, INTEGRAL =      0.35 TIME LEFT: 172799.64
 STEP:  10 TIME =     0.04 SECS, INTEGRAL =      0.39 TIME LEFT: 172799.60
 STEP:  11 TIME =     0.04 SECS, INTEGRAL =      0.43 TIME LEFT: 172799.56
 STEP:  12 TIME =     0.04 SECS, INTEGRAL =      0.47 TIME LEFT: 172799.52
 STEP:  13 TIME =     0.04 SECS, INTEGRAL =      0.51 TIME LEFT: 172799.48
 STEP:  14 TIME =     0.04 SECS, INTEGRAL =      0.55 TIME LEFT: 172799.44
 STEP:  15 TIME =     0.04 SECS, INTEGRAL =      0.59 TIME LEFT: 172799.40
 STEP:  16 TIME =     0.04 SECS, INTEGRAL =      0.62 TIME LEFT: 172799.36
 STEP:  17 TIME =     0.04 SECS, INTEGRAL =      0.66 TIME LEFT: 172799.32
 STEP:  18 TIME =     0.04 SECS, INTEGRAL =      0.70 TIME LEFT: 172799.29
 STEP:  19 TIME =     0.04 SECS, INTEGRAL =      0.74 TIME LEFT: 172799.25
 STEP:  20 TIME =     0.04 SECS, INTEGRAL =      0.78 TIME LEFT: 172799.21
 STEP:  21 TIME =     0.04 SECS, INTEGRAL =      0.82 TIME LEFT: 172799.17
 STEP:  22 TIME =     0.04 SECS, INTEGRAL =      0.86 TIME LEFT: 172799.13
 STEP:  23 TIME =     0.04 SECS, INTEGRAL =      0.90 TIME LEFT: 172799.09
 STEP:  24 TIME =     0.04 SECS, INTEGRAL =      0.94 TIME LEFT: 172799.05
 STEP:  25 TIME =     0.04 SECS, INTEGRAL =      0.98 TIME LEFT: 172799.01
 STEP:  26 TIME =     0.04 SECS, INTEGRAL =      1.02 TIME LEFT: 172798.97
 STEP:  27 TIME =     0.04 SECS, INTEGRAL =      1.06 TIME LEFT: 172798.93
 STEP:  28 TIME =     0.04 SECS, INTEGRAL =      1.10 TIME LEFT: 172798.89
 STEP:  29 TIME =     0.04 SECS, INTEGRAL =      1.14 TIME LEFT: 172798.85
 STEP:  30 TIME =     0.04 SECS, INTEGRAL =      1.18 TIME LEFT: 172798.80
 STEP:  31 TIME =     0.04 SECS, INTEGRAL =      1.22 TIME LEFT: 172798.77
 STEP:  32 TIME =     0.04 SECS, INTEGRAL =      1.27 TIME LEFT: 172798.72
 STEP:  33 TIME =     0.04 SECS, INTEGRAL =      1.30 TIME LEFT: 172798.68
 STEP:  34 TIME =     0.04 SECS, INTEGRAL =      1.34 TIME LEFT: 172798.64
 STEP:  35 TIME =     0.04 SECS, INTEGRAL =      1.39 TIME LEFT: 172798.60
 STEP:  36 TIME =     0.04 SECS, INTEGRAL =      1.43 TIME LEFT: 172798.56
 STEP:  37 TIME =     0.04 SECS, INTEGRAL =      1.46 TIME LEFT: 172798.52
 STEP:  38 TIME =     0.04 SECS, INTEGRAL =      1.51 TIME LEFT: 172798.48
 STEP:  39 TIME =     0.04 SECS, INTEGRAL =      1.55 TIME LEFT: 172798.44
 STEP:  40 TIME =     0.04 SECS, INTEGRAL =      1.59 TIME LEFT: 172798.40
 STEP:  41 TIME =     0.04 SECS, INTEGRAL =      1.62 TIME LEFT: 172798.36
 STEP:  42 TIME =     0.04 SECS, INTEGRAL =      1.67 TIME LEFT: 172798.32
 STEP:  43 TIME =     0.04 SECS, INTEGRAL =      1.71 TIME LEFT: 172798.28
 STEP:  44 TIME =     0.04 SECS, INTEGRAL =      1.75 TIME LEFT: 172798.24
 STEP:  45 TIME =     0.04 SECS, INTEGRAL =      1.79 TIME LEFT: 172798.20
 STEP:  46 TIME =     0.04 SECS, INTEGRAL =      1.83 TIME LEFT: 172798.16
 STEP:  47 TIME =     0.04 SECS, INTEGRAL =      1.88 TIME LEFT: 172798.11
 STEP:  48 TIME =     0.04 SECS, INTEGRAL =      1.91 TIME LEFT: 172798.07
 STEP:  49 TIME =     0.04 SECS, INTEGRAL =      1.95 TIME LEFT: 172798.04
 STEP:  50 TIME =     0.04 SECS, INTEGRAL =      1.99 TIME LEFT: 172798.00
 STEP:  51 TIME =     0.04 SECS, INTEGRAL =      2.04 TIME LEFT: 172797.95
 STEP:  52 TIME =     0.04 SECS, INTEGRAL =      2.07 TIME LEFT: 172797.91
 STEP:  53 TIME =     0.04 SECS, INTEGRAL =      2.11 TIME LEFT: 172797.88
 STEP:  54 TIME =     0.04 SECS, INTEGRAL =      2.15 TIME LEFT: 172797.84
 STEP:  55 TIME =     0.04 SECS, INTEGRAL =      2.20 TIME LEFT: 172797.79
 STEP:  56 TIME =     0.04 SECS, INTEGRAL =      2.24 TIME LEFT: 172797.75
 STEP:  57 TIME =     0.04 SECS, INTEGRAL =      2.28 TIME LEFT: 172797.71
 STEP:  58 TIME =     0.04 SECS, INTEGRAL =      2.31 TIME LEFT: 172797.68
 STEP:  59 TIME =     0.04 SECS, INTEGRAL =      2.36 TIME LEFT: 172797.63
 STEP:  60 TIME =     0.05 SECS, INTEGRAL =      2.40 TIME LEFT: 172797.59
 STEP:  61 TIME =     0.04 SECS, INTEGRAL =      2.44 TIME LEFT: 172797.55
 STEP:  62 TIME =     0.04 SECS, INTEGRAL =      2.48 TIME LEFT: 172797.51
 STEP:  63 TIME =     0.04 SECS, INTEGRAL =      2.52 TIME LEFT: 172797.46
 STEP:  64 TIME =     0.04 SECS, INTEGRAL =      2.56 TIME LEFT: 172797.43
 STEP:  65 TIME =     0.04 SECS, INTEGRAL =      2.60 TIME LEFT: 172797.39
 STEP:  66 TIME =     0.04 SECS, INTEGRAL =      2.64 TIME LEFT: 172797.35
 STEP:  67 TIME =     0.04 SECS, INTEGRAL =      2.68 TIME LEFT: 172797.30
 STEP:  68 TIME =     0.04 SECS, INTEGRAL =      2.73 TIME LEFT: 172797.26
 STEP:  69 TIME =     0.04 SECS, INTEGRAL =      2.76 TIME LEFT: 172797.23
 STEP:  70 TIME =     0.04 SECS, INTEGRAL =      2.80 TIME LEFT: 172797.19
 STEP:  71 TIME =     0.05 SECS, INTEGRAL =      2.85 TIME LEFT: 172797.14
 STEP:  72 TIME =     0.04 SECS, INTEGRAL =      2.89 TIME LEFT: 172797.10
 STEP:  73 TIME =     0.04 SECS, INTEGRAL =      2.93 TIME LEFT: 172797.06
 STEP:  74 TIME =     0.04 SECS, INTEGRAL =      2.97 TIME LEFT: 172797.02
 STEP:  75 TIME =     0.04 SECS, INTEGRAL =      3.01 TIME LEFT: 172796.98
 STEP:  76 TIME =     0.04 SECS, INTEGRAL =      3.05 TIME LEFT: 172796.94
 STEP:  77 TIME =     0.04 SECS, INTEGRAL =      3.09 TIME LEFT: 172796.90
 STEP:  78 TIME =     0.04 SECS, INTEGRAL =      3.13 TIME LEFT: 172796.86
 STEP:  79 TIME =     0.04 SECS, INTEGRAL =      3.17 TIME LEFT: 172796.82
 STEP:  80 TIME =     0.04 SECS, INTEGRAL =      3.21 TIME LEFT: 172796.78
 STEP:  81 TIME =     0.04 SECS, INTEGRAL =      3.25 TIME LEFT: 172796.73
 STEP:  82 TIME =     0.04 SECS, INTEGRAL =      3.30 TIME LEFT: 172796.69
 STEP:  83 TIME =     0.04 SECS, INTEGRAL =      3.34 TIME LEFT: 172796.65
 STEP:  84 TIME =     0.04 SECS, INTEGRAL =      3.38 TIME LEFT: 172796.61
 STEP:  85 TIME =     0.04 SECS, INTEGRAL =      3.41 TIME LEFT: 172796.58
 STEP:  86 TIME =     0.04 SECS, INTEGRAL =      3.45 TIME LEFT: 172796.54
 STEP:  87 TIME =     0.04 SECS, INTEGRAL =      3.50 TIME LEFT: 172796.49
 STEP:  88 TIME =     0.04 SECS, INTEGRAL =      3.54 TIME LEFT: 172796.45
 STEP:  89 TIME =     0.04 SECS, INTEGRAL =      3.58 TIME LEFT: 172796.41
 STEP:  90 TIME =     0.04 SECS, INTEGRAL =      3.62 TIME LEFT: 172796.37
 STEP:  91 TIME =     0.04 SECS, INTEGRAL =      3.66 TIME LEFT: 172796.33
 STEP:  92 TIME =     0.04 SECS, INTEGRAL =      3.70 TIME LEFT: 172796.29
 STEP:  93 TIME =     0.04 SECS, INTEGRAL =      3.73 TIME LEFT: 172796.25
 STEP:  94 TIME =     0.04 SECS, INTEGRAL =      3.77 TIME LEFT: 172796.21
 STEP:  95 TIME =     0.05 SECS, INTEGRAL =      3.82 TIME LEFT: 172796.17
 STEP:  96 TIME =     0.04 SECS, INTEGRAL =      3.86 TIME LEFT: 172796.12
 STEP:  97 TIME =     0.04 SECS, INTEGRAL =      3.90 TIME LEFT: 172796.09
 STEP:  98 TIME =     0.05 SECS, INTEGRAL =      3.95 TIME LEFT: 172796.04
 STEP:  99 TIME =     0.04 SECS, INTEGRAL =      3.99 TIME LEFT: 172796.00
 STEP: 100 TIME =     0.04 SECS, INTEGRAL =      4.03 TIME LEFT: 172795.96
 STEP: 101 TIME =     0.04 SECS, INTEGRAL =      4.07 TIME LEFT: 172795.92
 STEP: 102 TIME =     0.04 SECS, INTEGRAL =      4.11 TIME LEFT: 172795.88

(To convert to Hartree/Bohr^2, multiply by (10^(-21) x N x a0^2)/(4.184 x 627.51) =  0.0642)


           FORCE MATRIX IN MILLIDYNES/ANGSTROM


                  C  1       C  2       C  3       C  4       C  5       C  6
 ------------------------------------------------------------------------------
     C    1  14.425696
     C    2   3.980313  14.160027
     C    3   1.795267   0.040352  14.564381
     C    4   3.439511   0.518777   3.502444  14.322564
     C    5   3.420980   0.523046   3.487477   1.834275  14.306055
     C    6   0.039952   0.005436   4.303877   0.552107   0.544535  14.486365
     C    7   0.610083   3.763236   0.005023   0.047858   0.050067   0.001041
     C    8   0.636892   3.727287   0.004942   0.049385   0.052324   0.001028
     C    9   0.005069   0.001142   0.658718   0.051246   0.032357   4.471402
     C   10   0.051766   0.596204   0.000444   0.005420   0.003164   0.000344
     C   11   0.048937   0.667777   0.000583   0.008459   0.002591   0.000411
     C   12   0.008129   0.043031   0.000352   0.001804   0.000860   0.000404
     H   13   0.028216   0.001637   4.426227   0.428225   0.429778   0.431430
     H   14   4.394937   0.435594   0.028084   0.429358   0.427989   0.002052
     H   15   0.430247   4.161203   0.002627   0.022984   0.026187   0.004374
     H   16   0.003400   0.000729   0.434125   0.019432   0.047758   4.458112
     H   17   0.002593   0.004431   0.450248   0.021344   0.024434   4.420070
     H   18   0.442205   0.033473   0.442133   4.712169   0.031689   0.033995
     H   19   0.452758   0.024963   0.453014   4.622657   0.028013   0.032680
     H   20   0.049900   0.437363   0.000654   0.003246   0.008370   0.000290
     H   21   0.023600   0.440455   0.000705   0.019825   0.002080   0.000531
     H   22   0.451659   0.025000   0.453266   0.027942   4.622060   0.027488
     H   23   0.441485   0.034017   0.441393   0.031783   4.711655   0.034248
     H   24   0.071598   0.442898   0.001354   0.002562   0.027473   0.000698
     H   25   0.012230   0.457401   0.000374   0.001534   0.002434   0.000156
     H   26   0.000327   0.000276   0.023568   0.001615   0.002062   0.464248
     H   27   0.000638   0.000268   0.052463   0.008759   0.002192   0.451174
     H   28   0.000513   0.000381   0.020178   0.001846   0.007254   0.463817
     H   29   0.018167   0.009886   0.000208   0.001558   0.000716   0.000179
     H   30   0.003660   0.051417   0.000053   0.000396   0.000536   0.000070
     H   31   0.004775   0.025551   0.000119   0.000452   0.000336   0.000154
     H   32   0.002040   0.022974   0.000188   0.000667   0.000496   0.000187
     H   33   0.003126   0.017630   0.000103   0.000628   0.000232   0.000101
     H   34   0.002319   0.010419   0.000236   0.000464   0.000449   0.000181


                  C  7       C  8       C  9       C 10       C 11       C 12
 ------------------------------------------------------------------------------
     C    7  14.235015
     C    8   0.614265  14.523852
     C    9   0.000575   0.000714  14.370426
     C   10   4.424673   0.080437   0.000130  14.293184
     C   11   0.043509   4.954647   0.000348   0.004125  18.156129
     C   12   0.002935   0.840072   0.000415   0.001947  11.066736  18.022499
     H   13   0.000454   0.000570   0.031100   0.000249   0.000176   0.000155
     H   14   0.018111   0.023606   0.000594   0.020002   0.001327   0.000714
     H   15   0.417885   0.429550   0.000564   0.048206   0.051351   0.003221
     H   16   0.000393   0.000256   0.440159   0.000156   0.000106   0.000148
     H   17   0.000388   0.000452   0.437847   0.000247   0.000247   0.000287
     H   18   0.002021   0.006183   0.006406   0.000941   0.001309   0.000525
     H   19   0.018963   0.003260   0.003036   0.000992   0.000999   0.000246
     H   20   4.415571   0.019814   0.000190   0.436585   0.018661   0.001598
     H   21   4.434499   0.049679   0.000293   0.436653   0.002419   0.000869
     H   22   0.003242   0.013521   0.008941   0.000355   0.001206   0.000787
     H   23   0.006515   0.002342   0.001723   0.000407   0.000591   0.000365
     H   24   0.045497   4.419210   0.000144   0.005180   0.459201   0.050588
     H   25   0.048240   4.218548   0.000104   0.108835   0.415239   0.033959
     H   26   0.000166   0.000132   4.725218   0.000042   0.000106   0.000110
     H   27   0.000168   0.000193   4.752458   0.000039   0.000135   0.000179
     H   28   0.000199   0.000140   4.713456   0.000106   0.000128   0.000221
     H   29   0.463255   0.003340   0.000149   4.719792   0.000988   0.000559
     H   30   0.452825   0.006506   0.000048   4.767480   0.001245   0.000473
     H   31   0.465559   0.093677   0.000039   4.545247   0.002606   0.001156
     H   32   0.017556   0.432967   0.000119   0.001692   4.761444   0.454076
     H   33   0.000637   0.140564   0.000115   0.000331   0.462403   5.106901
     H   34   0.000917   0.099801   0.000171   0.000567   0.491501   5.068322


                  H 13       H 14       H 15       H 16       H 17       H 18
 ------------------------------------------------------------------------------
     H   13   4.927479
     H   14   0.002531   4.893790
     H   15   0.000543   0.042095   4.632006
     H   16   0.024717   0.000655   0.000326   5.067451
     H   17   0.043739   0.000513   0.010486   0.568977   5.032431
     H   18   0.026441   0.027246   0.001477   0.001938   0.001311   5.330396
     H   19   0.030900   0.031190   0.019151   0.012284   0.017179   0.552449
     H   20   0.000150   0.001731   0.037821   0.000120   0.000125   0.000384
     H   21   0.000405   0.001705   0.035130   0.000158   0.000176   0.001021
     H   22   0.030659   0.031156   0.022538   0.003511   0.024318   0.000996
     H   23   0.026775   0.027405   0.001527   0.005942   0.001783   0.003470
     H   24   0.000479   0.006463   0.013063   0.000224   0.000253   0.000487
     H   25   0.000088   0.004913   0.040633   0.000049   0.000148   0.000436
     H   26   0.021563   0.000111   0.000187   0.024621   0.048063   0.000332
     H   27   0.001952   0.000139   0.000138   0.028942   0.030447   0.001244
     H   28   0.001943   0.000290   0.000163   0.048686   0.024474   0.000415
     H   29   0.000097   0.020381   0.001372   0.000053   0.000055   0.002414
     H   30   0.000041   0.000937   0.008140   0.000026   0.000066   0.000253
     H   31   0.000109   0.002442   0.002758   0.000068   0.000066   0.000297
     H   32   0.000105   0.000692   0.007357   0.000066   0.000141   0.000142
     H   33   0.000028   0.000162   0.000983   0.000038   0.000096   0.000113
     H   34   0.000087   0.000234   0.000782   0.000070   0.000147   0.000133


                  H 19       H 20       H 21       H 22       H 23       H 24
 ------------------------------------------------------------------------------
     H   19   5.256414
     H   20   0.000848   5.018567
     H   21   0.020336   0.568007   5.045778
     H   22   0.002797   0.000695   0.000439   5.259651
     H   23   0.000975   0.001336   0.000459   0.552375   5.331065
     H   24   0.000576   0.001991   0.007830   0.026996   0.002884   5.026272
     H   25   0.000439   0.003565   0.003155   0.000551   0.000314   0.544703
     H   26   0.000448   0.000040   0.000052   0.000474   0.000343   0.000053
     H   27   0.000725   0.000057   0.000101   0.000623   0.000325   0.000052
     H   28   0.000436   0.000070   0.000070   0.013423   0.000832   0.000147
     H   29   0.000455   0.048260   0.030090   0.000313   0.000170   0.000548
     H   30   0.000266   0.035894   0.023237   0.000182   0.000129   0.000272
     H   31   0.000421   0.019079   0.048016   0.000123   0.000107   0.001541
     H   32   0.000313   0.021952   0.001239   0.000477   0.000240   0.039869
     H   33   0.000104   0.000388   0.000160   0.000275   0.000119   0.003202
     H   34   0.000098   0.000383   0.000276   0.000495   0.000209   0.029567


                  H 25       H 26       H 27       H 28       H 29       H 30
 ------------------------------------------------------------------------------
     H   25   4.898613
     H   26   0.000039   5.467643
     H   27   0.000025   0.574083   5.488832
     H   28   0.000025   0.576726   0.571935   5.452897
     H   29   0.000936   0.000026   0.000049   0.000035   5.453649
     H   30   0.002632   0.000016   0.000010   0.000022   0.575582   5.492589
     H   31   0.151172   0.000013   0.000015   0.000036   0.567406   0.552590
     H   32   0.017312   0.000049   0.000028   0.000060   0.000661   0.000584
     H   33   0.018393   0.000034   0.000050   0.000070   0.000087   0.000121
     H   34   0.012334   0.000054   0.000068   0.000109   0.000113   0.000102


                  H 31       H 32       H 33       H 34
 ------------------------------------------------------
     H   31   5.337966
     H   32   0.000812   5.130460
     H   33   0.000245   0.081565   5.497284
     H   34   0.000254   0.121084   0.425110   5.466077


          HEAT OF FORMATION =     -17.225982 KCALS/MOLE

          ZERO POINT ENERGY     194.632 KCAL/MOL


           NORMAL COORDINATE ANALYSIS (Total motion = 1 Angstrom)


   Root No.       1         2         3         4         5         6         7         8

                 1 A       2 A       3 A       4 A       5 A       6 A       7 A       8 A   

                  26.2      46.2      56.1      65.2      85.9     109.6     178.3     180.7
  
           1   -0.0035   -0.0102   -0.0046    0.0110   -0.0050   -0.0055   -0.0012    0.0033
           2   -0.0095   -0.0108    0.0019    0.0027   -0.0077    0.0041   -0.0029    0.0033
           3    0.0098   -0.0095    0.0174   -0.0044   -0.0003   -0.0022    0.0082    0.0050
           4   -0.0034   -0.0099   -0.0046    0.0107   -0.0049   -0.0053   -0.0012    0.0036
           5   -0.0109    0.0070    0.0026   -0.0070   -0.0046   -0.0066    0.0002    0.0052
           6    0.0084   -0.0040    0.0132    0.0113    0.0025    0.0052    0.0089    0.0114
           7    0.0078   -0.0073   -0.0023    0.0068    0.0097   -0.0024    0.0005   -0.0046
           8   -0.0006   -0.0084    0.0039   -0.0008    0.0039    0.0076   -0.0009   -0.0023
           9   -0.0036   -0.0028    0.0081   -0.0104   -0.0129   -0.0097   -0.0146   -0.0090
          10    0.0001   -0.0230    0.0008    0.0012   -0.0012   -0.0107   -0.0111   -0.0179
          11    0.0017   -0.0249    0.0121   -0.0014    0.0035    0.0052    0.0029   -0.0049
          12    0.0031   -0.0061    0.0129   -0.0073   -0.0069   -0.0062   -0.0034   -0.0021
          13   -0.0020   -0.0111   -0.0099    0.0283   -0.0064    0.0106    0.0063    0.0166
          14   -0.0166   -0.0072   -0.0079    0.0122   -0.0165    0.0131   -0.0096    0.0058
          15    0.0030   -0.0061    0.0129   -0.0073   -0.0070   -0.0058   -0.0032   -0.0018
          16    0.0245    0.0146    0.0024   -0.0108    0.0358   -0.0105    0.0047   -0.0075
          17   -0.0050   -0.0145    0.0029    0.0037   -0.0028    0.0097   -0.0019   -0.0016
          18   -0.0166    0.0129   -0.0095    0.0043   -0.0268    0.0024   -0.0103    0.0012
          19   -0.0023   -0.0046   -0.0034   -0.0046   -0.0071   -0.0097    0.0123    0.0110
          20   -0.0099    0.0227   -0.0180   -0.0120   -0.0018    0.0007   -0.0059   -0.0045
          21    0.0083    0.0014    0.0026    0.0154    0.0051    0.0107   -0.0003    0.0030
          22   -0.0036    0.0012   -0.0029    0.0166    0.0039   -0.0076   -0.0086   -0.0067
          23   -0.0107    0.0050    0.0250   -0.0090   -0.0019   -0.0112    0.0088    0.0124
          24    0.0079    0.0019    0.0016    0.0145    0.0050    0.0067    0.0007    0.0025
          25    0.0375    0.0398    0.0105   -0.0108   -0.0296   -0.0017   -0.0026    0.0025
          26   -0.0083    0.0051   -0.0105    0.0041    0.0188    0.0141    0.0150    0.0013
          27   -0.0264    0.0122   -0.0237    0.0045    0.0264    0.0002    0.0060   -0.0027
          28    0.0013    0.0110    0.0074   -0.0193    0.0054    0.0571    0.0092    0.0075
          29   -0.0106    0.0203   -0.0235   -0.0088   -0.0050   -0.0166   -0.0049   -0.0042
          30    0.0086    0.0116   -0.0256    0.0140    0.0018   -0.0102    0.0041   -0.0000
          31   -0.0143   -0.0047   -0.0056   -0.0009   -0.0006   -0.0072   -0.0059   -0.0023
          32    0.0118    0.0201    0.0359    0.0253    0.0132   -0.0153    0.0002   -0.0061
          33   -0.0051   -0.0016    0.0053   -0.0097    0.0068    0.0040    0.0019   -0.0020
          34   -0.0461   -0.0021    0.0094   -0.0237    0.0013   -0.0126   -0.0036   -0.0062
          35    0.0687   -0.0158   -0.0186   -0.0069   -0.0001   -0.0065   -0.0021   -0.0033
          36    0.0046   -0.0127   -0.0084   -0.0269    0.0030    0.0054    0.0018   -0.0023
          37    0.0069   -0.0083   -0.0025    0.0077    0.0083   -0.0021    0.0003   -0.0042
          38    0.0116    0.0072    0.0073   -0.0133    0.0227    0.0027    0.0019   -0.0048
          39   -0.0019   -0.0098    0.0145   -0.0247   -0.0081   -0.0214   -0.0239   -0.0275
          40   -0.0052    0.0011   -0.0045    0.0048   -0.0041   -0.0126    0.0015    0.0070
          41   -0.0088   -0.0147    0.0019    0.0048   -0.0079    0.0068   -0.0038    0.0020
          42    0.0188   -0.0193    0.0279   -0.0151    0.0093   -0.0074    0.0135   -0.0031
          43   -0.0037   -0.0228   -0.0061    0.0175   -0.0087   -0.0006   -0.0036    0.0043
          44   -0.0107    0.0111    0.0036   -0.0091   -0.0032   -0.0080    0.0011    0.0050
          45    0.0079   -0.0098    0.0303    0.0167    0.0033    0.0023    0.0137    0.0185
          46    0.0264    0.0105   -0.0007   -0.0250    0.1105   -0.0240    0.0137   -0.0156
          47    0.0077   -0.0181    0.0172   -0.0072   -0.0072    0.0022   -0.0119   -0.0041
          48   -0.0218    0.0134   -0.0169    0.0052   -0.0039    0.0020   -0.0031   -0.0000
          49    0.0258    0.0168    0.0030   -0.0114    0.0327   -0.0102    0.0042   -0.0068
          50   -0.0186   -0.0314   -0.0018    0.0179   -0.0208    0.0162   -0.0030   -0.0017
          51   -0.0138    0.0259   -0.0056    0.0148   -0.1011    0.0153   -0.0187    0.0111
          52   -0.0051   -0.0333    0.0023   -0.0016   -0.0086   -0.0158   -0.0192   -0.0270
          53    0.0101   -0.0336    0.0187   -0.0042    0.0125    0.0068    0.0070   -0.0116
          54    0.0045   -0.0241    0.0199   -0.0126   -0.0072   -0.0105   -0.0086   -0.0170
          55    0.0021   -0.0313    0.0039   -0.0042    0.0007   -0.0133   -0.0172   -0.0311
          56    0.0008   -0.0359    0.0165   -0.0007    0.0005    0.0038    0.0044   -0.0056
          57    0.0016    0.0123    0.0057   -0.0021   -0.0064   -0.0021    0.0017    0.0125
          58   -0.0026   -0.0059   -0.0043   -0.0036   -0.0082   -0.0155    0.0131    0.0115
          59   -0.0073    0.0347   -0.0101   -0.0224    0.0079    0.0510   -0.0106   -0.0085
          60    0.0084    0.0017    0.0080    0.0232    0.0120    0.0407   -0.0182   -0.0078
          61   -0.0038   -0.0115   -0.0101   -0.0060   -0.0174   -0.0583    0.0294    0.0222
          62   -0.0107    0.0253   -0.0375   -0.0083   -0.0062   -0.0257   -0.0051   -0.0071
          63    0.0082   -0.0031    0.0121    0.0125    0.0037    0.0076    0.0061    0.0091
          64   -0.0012   -0.0123   -0.0132    0.0393   -0.0086    0.0210    0.0098    0.0246
          65   -0.0281   -0.0078   -0.0146    0.0207   -0.0314    0.0164   -0.0136    0.0130
          66   -0.0059   -0.0079    0.0034    0.0119   -0.0218    0.0083   -0.0028    0.0128
          67   -0.0082   -0.0144   -0.0144    0.0421   -0.0172    0.0190    0.0103    0.0307
          68   -0.0193   -0.0051   -0.0135    0.0178   -0.0205    0.0194   -0.0144    0.0060
          69    0.0118   -0.0044    0.0223   -0.0263    0.0075   -0.0196   -0.0035   -0.0167
          70   -0.0132   -0.0005   -0.0046    0.0022    0.0036   -0.0084   -0.0080   -0.0069
          71   -0.0268   -0.0112    0.0330   -0.0404   -0.0119   -0.0114    0.0222    0.0297
          72    0.0126    0.0001    0.0045    0.0201    0.0035    0.0071    0.0026    0.0056
          73    0.0152    0.0162    0.0041    0.0491    0.0163   -0.0068   -0.0190   -0.0225
          74   -0.0094    0.0066    0.0223   -0.0064   -0.0014   -0.0110    0.0069    0.0103
          75    0.0133    0.0107   -0.0157    0.0281    0.0070    0.0057   -0.0100   -0.0089
          76    0.0369    0.0385    0.0100   -0.0111   -0.0248   -0.0025   -0.0040    0.0037
          77    0.0036    0.0205   -0.0071   -0.0102    0.0538    0.0035   -0.0695    0.0870
          78   -0.0310   -0.0014   -0.0295   -0.0055    0.1151   -0.0158   -0.0457    0.0472
          79    0.0483    0.0550    0.0128   -0.0243    0.0055   -0.0115   -0.0814    0.0834
          80   -0.0113    0.0005   -0.0109    0.0078    0.0091    0.0167    0.0364   -0.0211
          81   -0.0344    0.0256   -0.0360    0.0154    0.0024    0.0145    0.0827   -0.0604
          82    0.0376    0.0457    0.0150    0.0033   -0.1218    0.0162    0.0722   -0.0717
          83   -0.0198    0.0102   -0.0241    0.0151    0.0103    0.0257    0.0936   -0.0608
          84   -0.0217    0.0117   -0.0169    0.0040    0.0044    0.0005   -0.0051    0.0020
          85    0.0007    0.0119    0.0074   -0.0243    0.0043    0.0507    0.0267    0.0201
          86   -0.0136    0.0107   -0.0365    0.0007   -0.0154   -0.0710    0.0026    0.0013
          87    0.0038    0.0092   -0.0344   -0.0022   -0.0103   -0.0762    0.0884    0.0605
          88   -0.0011    0.0134    0.0066   -0.0357    0.0008    0.0318    0.0699    0.0513
          89   -0.0078    0.0328   -0.0329   -0.0115    0.0011    0.0150   -0.0237   -0.0218
          90    0.0120    0.0171   -0.0303    0.0243    0.0087    0.0264   -0.0505   -0.0417
          91    0.0075    0.0201    0.0172   -0.0089    0.0214    0.1413   -0.0712   -0.0515
          92   -0.0112    0.0156   -0.0059   -0.0128   -0.0035   -0.0085    0.0058    0.0069
          93    0.0104    0.0165   -0.0337    0.0188    0.0046    0.0047   -0.0208   -0.0202
          94    0.0047   -0.0110   -0.0198    0.0053   -0.0053   -0.0031   -0.0060    0.0036
          95   -0.0188    0.0620    0.0896    0.0794    0.0361   -0.0265   -0.0047   -0.0246
          96   -0.0230    0.0050    0.0193   -0.0143    0.0116   -0.0001    0.0019   -0.0079
          97   -0.0542   -0.0060    0.0082   -0.0365   -0.0018   -0.0124   -0.0015   -0.0030
          98    0.0870   -0.0057   -0.0127    0.0182    0.0110   -0.0097   -0.0090   -0.0189
          99   -0.0051   -0.0155   -0.0059   -0.0464    0.0046    0.0019    0.0015   -0.0093
         100   -0.0660    0.0040    0.0239   -0.0316    0.0060   -0.0176   -0.0035   -0.0130
         101    0.1007   -0.0579   -0.0729   -0.0608   -0.0228    0.0046    0.0025    0.0148
         102    0.0226   -0.0198   -0.0229   -0.0229   -0.0019    0.0101    0.0019    0.0041


   Root No.       9        10        11        12        13        14        15        16

                 9 A      10 A      11 A      12 A      13 A      14 A      15 A      16 A   

                 208.5     250.9     257.9     332.9     344.1     389.3     405.8     447.1
  
           1   -0.0101    0.0012   -0.0056    0.0064   -0.0075   -0.0069    0.0214    0.0037
           2   -0.0050   -0.0009   -0.0046   -0.0083   -0.0089   -0.0068    0.0398   -0.0138
           3   -0.0109    0.0109    0.0031    0.0041    0.0140   -0.0257   -0.0119   -0.0091
           4   -0.0112    0.0017   -0.0071   -0.0007   -0.0051   -0.0080    0.0184    0.0022
           5   -0.0195   -0.0058   -0.0028    0.0024   -0.0175    0.0022    0.0100   -0.0044
           6   -0.0140   -0.0010   -0.0003   -0.0006    0.0023    0.0107    0.0015   -0.0001
           7    0.0041   -0.0128    0.0119    0.0148    0.0018    0.0078   -0.0342   -0.0060
           8    0.0079   -0.0071    0.0062   -0.0166    0.0025    0.0015   -0.0103   -0.0146
           9    0.0063   -0.0138    0.0025   -0.0135   -0.0000   -0.0034    0.0030    0.0282
          10    0.0127    0.0016   -0.0143    0.0291   -0.0112    0.0232    0.0001    0.0181
          11    0.0036    0.0153   -0.0122    0.0103    0.0007   -0.0020    0.0102   -0.0328
          12   -0.0029   -0.0022    0.0036   -0.0028    0.0080   -0.0189   -0.0046    0.0128
          13   -0.0042   -0.0052    0.0207    0.0270    0.0085   -0.0148   -0.0109    0.0061
          14    0.0112   -0.0180    0.0145   -0.0126   -0.0035    0.0031    0.0232    0.0153
          15   -0.0023   -0.0008    0.0027   -0.0085    0.0098   -0.0201   -0.0081    0.0152
          16   -0.0066   -0.0229    0.0144   -0.0017   -0.0024    0.0010    0.0092   -0.0143
          17    0.0110   -0.0038    0.0052   -0.0148    0.0045    0.0026   -0.0251   -0.0081
          18    0.0067   -0.0009   -0.0014    0.0054   -0.0027    0.0078   -0.0064   -0.0339
          19   -0.0038    0.0264    0.0239   -0.0162   -0.0141    0.0074    0.0026   -0.0006
          20   -0.0042   -0.0086   -0.0012    0.0161   -0.0112   -0.0148   -0.0110    0.0020
          21   -0.0094   -0.0131   -0.0150    0.0101    0.0121    0.0001    0.0035    0.0041
          22    0.0003   -0.0018   -0.0183   -0.0280   -0.0102   -0.0072   -0.0132   -0.0043
          23   -0.0233   -0.0097   -0.0024    0.0067    0.0139    0.0334   -0.0080    0.0074
          24   -0.0066   -0.0011   -0.0052   -0.0116   -0.0250    0.0032   -0.0026   -0.0053
          25   -0.0011    0.0085   -0.0077    0.0050   -0.0017    0.0002    0.0075   -0.0012
          26    0.0009    0.0289   -0.0163   -0.0068    0.0065   -0.0063   -0.0146    0.0349
          27   -0.0041    0.0050   -0.0049    0.0102   -0.0028    0.0030    0.0062   -0.0196
          28    0.0146   -0.0003    0.0003   -0.0070    0.0012    0.0065    0.0045   -0.0007
          29   -0.0058   -0.0005    0.0068    0.0130   -0.0101   -0.0114   -0.0117    0.0028
          30    0.0151    0.0025   -0.0002   -0.0085    0.0466    0.0274    0.0133    0.0024
          31   -0.0076   -0.0049   -0.0188   -0.0268   -0.0081    0.0023   -0.0185   -0.0009
          32    0.0147    0.0046    0.0066    0.0047    0.0038    0.0055   -0.0003    0.0017
          33    0.0085    0.0045    0.0085    0.0031   -0.0443    0.0107   -0.0039    0.0067
          34    0.0074    0.0034   -0.0005   -0.0026    0.0440   -0.0120    0.0045   -0.0072
          35    0.0050    0.0017   -0.0001   -0.0005    0.0151   -0.0061    0.0029   -0.0023
          36    0.0100    0.0063    0.0121    0.0091   -0.0272    0.0027    0.0046    0.0039
          37    0.0043   -0.0117    0.0112    0.0166    0.0016    0.0076   -0.0328   -0.0038
          38    0.0031   -0.0168    0.0114   -0.0358    0.0030   -0.0003   -0.0096   -0.0303
          39    0.0147   -0.0160   -0.0120   -0.0179   -0.0103    0.0155    0.0126    0.0509
          40   -0.0234   -0.0012   -0.0107    0.0001   -0.0148   -0.0091    0.0257    0.0038
          41    0.0003   -0.0002   -0.0025   -0.0059   -0.0060   -0.0055    0.0370   -0.0136
          42   -0.0117    0.0294   -0.0130    0.0168    0.0178   -0.0328   -0.0203   -0.0383
          43   -0.0102    0.0010   -0.0118   -0.0005   -0.0035   -0.0161    0.0489   -0.0028
          44   -0.0191   -0.0056   -0.0009    0.0029   -0.0175    0.0058   -0.0000   -0.0023
          45   -0.0213   -0.0051   -0.0031   -0.0064    0.0154    0.0369    0.0060    0.0034
          46   -0.0202   -0.0424    0.0239   -0.0191   -0.0050   -0.0113    0.0566    0.0209
          47    0.0128   -0.0195    0.0125   -0.0317    0.0042   -0.0028   -0.0099    0.0144
          48    0.0020    0.0012   -0.0024    0.0084   -0.0033    0.0069   -0.0003   -0.0344
          49   -0.0067   -0.0213    0.0131   -0.0016   -0.0026    0.0006    0.0114   -0.0135
          50    0.0190   -0.0035    0.0090   -0.0022    0.0073    0.0119   -0.0656   -0.0282
          51    0.0176    0.0227   -0.0146    0.0207   -0.0010    0.0171   -0.0399   -0.0633
          52    0.0188    0.0110   -0.0326    0.0458   -0.0216    0.0374    0.0280    0.0323
          53    0.0120    0.0240   -0.0145    0.0299    0.0072    0.0095   -0.0207   -0.0470
          54    0.0104    0.0146   -0.0173    0.0301    0.0026    0.0050   -0.0006    0.0161
          55    0.0282    0.0036   -0.0207    0.0452   -0.0136    0.0471   -0.0161    0.0284
          56   -0.0005    0.0326   -0.0285    0.0283   -0.0023   -0.0050    0.0354   -0.0410
          57   -0.0160   -0.0188    0.0236   -0.0336    0.0128   -0.0408   -0.0079    0.0081
          58   -0.0046    0.0297    0.0269   -0.0187   -0.0151    0.0097    0.0034   -0.0011
          59    0.0066   -0.0334   -0.0228    0.0329   -0.0044   -0.0289   -0.0165    0.0052
          60   -0.0178   -0.0478   -0.0537    0.0416    0.0213   -0.0341    0.0111    0.0110
          61   -0.0028    0.0657    0.0649   -0.0496   -0.0267    0.0413   -0.0008   -0.0075
          62    0.0037    0.0038    0.0109    0.0099    0.0029   -0.0064   -0.0105    0.0035
          63   -0.0139   -0.0053   -0.0061    0.0009   -0.0013    0.0084    0.0017    0.0007
          64    0.0015   -0.0092    0.0378    0.0387    0.0204   -0.0221   -0.0340    0.0136
          65    0.0101   -0.0212    0.0173   -0.0089   -0.0062    0.0004    0.0540    0.0435
          66    0.0030   -0.0075    0.0229    0.0065    0.0199   -0.0297   -0.0073    0.0455
          67   -0.0097   -0.0010    0.0284    0.0403    0.0138   -0.0314    0.0090    0.0215
          68    0.0247   -0.0327    0.0314   -0.0102    0.0027    0.0105   -0.0003    0.0368
          69   -0.0074    0.0067   -0.0188   -0.0240   -0.0006   -0.0089   -0.0097   -0.0174
          70    0.0013   -0.0030   -0.0167   -0.0273   -0.0185    0.0021   -0.0216   -0.0001
          71   -0.0441   -0.0192   -0.0003    0.0302    0.0283    0.0675   -0.0112    0.0322
          72   -0.0109   -0.0014   -0.0057   -0.0081   -0.0142    0.0012    0.0040   -0.0047
          73    0.0236    0.0073   -0.0184   -0.0442   -0.0114   -0.0351   -0.0159   -0.0210
          74   -0.0214   -0.0086   -0.0025    0.0045    0.0130    0.0297   -0.0063    0.0049
          75    0.0018    0.0062   -0.0050   -0.0278   -0.0235   -0.0109    0.0088   -0.0204
          76   -0.0011    0.0075   -0.0070    0.0050   -0.0017    0.0002    0.0078   -0.0015
          77    0.0185    0.0701   -0.0413    0.0042    0.0085   -0.0086   -0.0197    0.0620
          78    0.0024    0.0010    0.0005    0.0126   -0.0032    0.0035    0.0079   -0.0260
          79    0.0149    0.0491   -0.0326    0.0164    0.0001   -0.0024    0.0045    0.0267
          80   -0.0034    0.0172   -0.0091   -0.0102    0.0060   -0.0055   -0.0141    0.0271
          81   -0.0254    0.0186   -0.0162    0.0126   -0.0014   -0.0067    0.0207    0.0255
          82   -0.0126   -0.0027   -0.0035   -0.0008   -0.0020    0.0007    0.0072   -0.0061
          83   -0.0215    0.0301   -0.0191   -0.0076    0.0073   -0.0148    0.0002    0.0714
          84    0.0018    0.0016   -0.0027    0.0089   -0.0032    0.0065   -0.0002   -0.0353
          85    0.0337   -0.0137   -0.0131   -0.0058   -0.0024    0.0021    0.0052   -0.0019
          86   -0.0111    0.0196    0.0255    0.0035   -0.0228   -0.0101   -0.0137    0.0031
          87    0.0973   -0.0443   -0.0485   -0.0088    0.0208    0.0074    0.0148   -0.0028
          88    0.0796   -0.0448   -0.0442   -0.0031   -0.0139   -0.0095    0.0060   -0.0046
          89   -0.0029    0.0080    0.0157    0.0040    0.0210    0.0088   -0.0030    0.0004
[...]
 REDUCED MASS        0.5107         C  3 -- C  6          +1.0% ( 10.1%)     23.7%
 EFFECTIVE MASS      1.4694
 FORCE CONSTANT      2.6280

 VIBRATION         81   81A           ATOM PAIR      ENERGY CONTRIBUTION    RADIAL
 FREQUENCY          2999.15         C  8 -- H 24         +74.8% ( 85.7%)     99.5%
 TRANSITION DIPOLE   0.0799         C  8 -- H 25         +22.8% ( 47.3%)     91.1%
 TRAVEL (Ang.)       0.1951         C  8 -- C 11          +0.7% (  8.3%)     26.8%
 REDUCED MASS        0.5906         C  2 -- C  8          +0.7% (  8.1%)     24.6%
 EFFECTIVE MASS      1.2984
 FORCE CONSTANT      3.1297

 VIBRATION         82   82A           ATOM PAIR      ENERGY CONTRIBUTION    RADIAL
 FREQUENCY          3021.53         C  7 -- H 21         +47.0% ( 68.0%)     98.2%
 TRANSITION DIPOLE   0.0819         C  7 -- H 20         +38.3% ( 61.4%)     97.0%
 TRAVEL (Ang.)       0.2430         C  4 -- H 19          +5.3% ( 22.7%)     98.7%
 REDUCED MASS        0.3779         C 11 -- H 32          +4.4% ( 20.8%)    100.0%
 EFFECTIVE MASS      1.3047
 FORCE CONSTANT      2.0326

 VIBRATION         83   83A           ATOM PAIR      ENERGY CONTRIBUTION    RADIAL
 FREQUENCY          3027.55         C  5 -- H 22         +28.6% ( 54.5%)     98.4%
 TRANSITION DIPOLE   0.0394         C  6 -- H 16         +21.0% ( 46.7%)     98.4%
 TRAVEL (Ang.)       0.3394         C  6 -- H 17         +15.6% ( 40.2%)     96.7%
 REDUCED MASS        0.1934         C  5 -- H 23         +14.1% ( 38.2%)     94.1%
 EFFECTIVE MASS      1.4211         C  4 -- H 19         +10.3% ( 32.7%)     98.1%
 FORCE CONSTANT      1.0444

 VIBRATION         84   84A           ATOM PAIR      ENERGY CONTRIBUTION    RADIAL
 FREQUENCY          3028.64         C  6 -- H 16         +31.2% ( 56.3%)     98.5%
 TRANSITION DIPOLE   0.0193         C  6 -- H 17         +22.6% ( 47.9%)     96.6%
 TRAVEL (Ang.)       0.3266         C  4 -- H 19         +16.3% ( 40.7%)     98.4%
 REDUCED MASS        0.2087         C  5 -- H 22         +11.0% ( 33.4%)     98.1%
 EFFECTIVE MASS      1.3839
 FORCE CONSTANT      1.1280

 VIBRATION         85   85A           ATOM PAIR      ENERGY CONTRIBUTION    RADIAL
 FREQUENCY          3030.80         C  4 -- H 19         +33.6% ( 60.1%)     98.3%
 TRANSITION DIPOLE   0.1027         C  5 -- H 22         +26.0% ( 52.9%)     98.3%
 TRAVEL (Ang.)       0.2999         C  4 -- H 18         +17.2% ( 43.0%)     94.3%
 REDUCED MASS        0.2474         C  5 -- H 23         +13.0% ( 37.4%)     94.1%
 EFFECTIVE MASS      1.5249
 FORCE CONSTANT      1.3391

 VIBRATION         86   86A           ATOM PAIR      ENERGY CONTRIBUTION    RADIAL
 FREQUENCY          3034.73         C 11 -- H 32         +89.9% ( 96.0%)    100.0%
 TRANSITION DIPOLE   0.2324         C  7 -- H 20          +3.0% ( 17.4%)     98.6%
 TRAVEL (Ang.)       0.1675         C  7 -- H 21          +2.2% ( 15.0%)     96.7%
 REDUCED MASS        0.7916         C 11 -- C 12          +1.3% ( 11.7%)     31.1%
 EFFECTIVE MASS      1.4892
 FORCE CONSTANT      4.2955

 VIBRATION         87   87A           ATOM PAIR      ENERGY CONTRIBUTION    RADIAL
 FREQUENCY          3046.35         C 10 -- H 31         +78.4% ( 91.0%)     99.3%
 TRANSITION DIPOLE   0.0398         C 10 -- H 29         +14.6% ( 39.3%)     85.0%
 TRAVEL (Ang.)       0.1834         C 10 -- H 30          +4.6% ( 22.0%)     57.6%
 REDUCED MASS        0.6582         C  7 -- H 21          +1.0% ( 10.3%)     99.6%
 EFFECTIVE MASS      1.4804
 FORCE CONSTANT      3.5990

 VIBRATION         88   88A           ATOM PAIR      ENERGY CONTRIBUTION    RADIAL
 FREQUENCY          3076.81         C  9 -- H 28         +57.5% ( 78.2%)     98.1%
 TRANSITION DIPOLE   0.0072         C  9 -- H 26         +39.2% ( 64.6%)     95.4%
 TRAVEL (Ang.)       0.2068         C  9 -- H 27          +1.9% ( 14.2%)     21.5%
 REDUCED MASS        0.5124         C  6 -- C  9          +1.0% ( 10.2%)      0.0%
 EFFECTIVE MASS      1.5010
 FORCE CONSTANT      2.8582

 VIBRATION         89   89A           ATOM PAIR      ENERGY CONTRIBUTION    RADIAL
 FREQUENCY          3082.07         C 10 -- H 30         +48.2% ( 71.6%)     97.3%
 TRANSITION DIPOLE   0.0107         C 10 -- H 29         +47.8% ( 71.3%)     96.5%
 TRAVEL (Ang.)       0.2112         C 10 -- H 31          +2.7% ( 16.8%)     30.7%
 REDUCED MASS        0.4905         C  7 -- C 10          +1.0% ( 10.3%)      0.0%
 EFFECTIVE MASS      1.5040
 FORCE CONSTANT      2.7454

 VIBRATION         90   90A           ATOM PAIR      ENERGY CONTRIBUTION    RADIAL
 FREQUENCY          3084.15         C  9 -- H 27         +60.2% ( 80.0%)     98.6%
 TRANSITION DIPOLE   0.0023         C  9 -- H 26         +27.2% ( 53.8%)     91.3%
 TRAVEL (Ang.)       0.2141         C  9 -- H 28         +11.2% ( 34.5%)     75.9%
 REDUCED MASS        0.4771         C  6 -- C  9          +1.0% ( 10.3%)      0.0%
 EFFECTIVE MASS      1.5036
 FORCE CONSTANT      2.6739

 VIBRATION         91   91A           ATOM PAIR      ENERGY CONTRIBUTION    RADIAL
 FREQUENCY          3097.54         C  4 -- H 18         +36.0% ( 59.5%)     98.9%
 TRANSITION DIPOLE   0.1073         C  5 -- H 23         +30.5% ( 54.8%)     98.9%
 TRAVEL (Ang.)       0.2842         C  4 -- H 19         +17.2% ( 41.1%)     93.9%
 REDUCED MASS        0.2696         C  5 -- H 22         +14.5% ( 37.7%)     93.9%
 EFFECTIVE MASS      1.2693
 FORCE CONSTANT      1.5239

 VIBRATION         92   92A           ATOM PAIR      ENERGY CONTRIBUTION    RADIAL
 FREQUENCY          3100.36         C  5 -- H 23         +35.9% ( 59.5%)     98.7%
 TRANSITION DIPOLE   0.0154         C  4 -- H 18         +30.3% ( 54.7%)     98.7%
 TRAVEL (Ang.)       0.2838         C  5 -- H 22         +17.0% ( 41.0%)     93.4%
 REDUCED MASS        0.2700         C  4 -- H 19         +14.4% ( 37.7%)     93.3%
 EFFECTIVE MASS      1.3114
 FORCE CONSTANT      1.5291

 VIBRATION         93   93A           ATOM PAIR      ENERGY CONTRIBUTION    RADIAL
 FREQUENCY          3134.99         C 12 -- H 34         +91.5% ( 97.4%)     99.9%
 TRANSITION DIPOLE   0.1890         C 12 -- H 33          +7.2% ( 27.2%)     72.5%
 TRAVEL (Ang.)       0.1592         C 11 -- C 12          +1.3% ( 11.7%)     21.5%
 REDUCED MASS        0.8489
 EFFECTIVE MASS      1.5392
 FORCE CONSTANT      4.9156

 VIBRATION         94   94A           ATOM PAIR      ENERGY CONTRIBUTION    RADIAL
 FREQUENCY          3147.78         C 12 -- H 33         +91.6% ( 96.3%)     99.7%
 TRANSITION DIPOLE   0.2562         C 12 -- H 34          +6.1% ( 24.9%)     43.5%
 TRAVEL (Ang.)       0.1621         C 11 -- C 12          +1.6% ( 12.7%)     73.3%
 REDUCED MASS        0.8153         C 11 -- H 32          +0.7% (  8.2%)     94.1%
 EFFECTIVE MASS      1.4626
 FORCE CONSTANT      4.7597

 VIBRATION         95   95A           ATOM PAIR      ENERGY CONTRIBUTION    RADIAL
 FREQUENCY          3168.37         C 10 -- H 30         +47.7% ( 66.7%)     98.5%
 TRANSITION DIPOLE   0.0230         C 10 -- H 29         +37.0% ( 58.7%)     97.3%
 TRAVEL (Ang.)       0.2388         C 10 -- H 31         +15.0% ( 37.4%)     90.4%
 REDUCED MASS        0.3731         C  7 -- C 10          +0.3% (  5.5%)     85.1%
 EFFECTIVE MASS      1.1533
 FORCE CONSTANT      2.2069

 VIBRATION         96   96A           ATOM PAIR      ENERGY CONTRIBUTION    RADIAL
 FREQUENCY          3179.57         C  9 -- H 27         +37.3% ( 58.8%)     97.7%
 TRANSITION DIPOLE   0.0130         C  9 -- H 26         +32.6% ( 54.9%)     97.0%
 TRAVEL (Ang.)       0.2538         C  9 -- H 28         +29.8% ( 52.5%)     96.5%
 REDUCED MASS        0.3293         C  6 -- C  9          +0.3% (  5.1%)     99.3%
 EFFECTIVE MASS      1.1369
 FORCE CONSTANT      1.9615

      SYMMETRY NUMBER FOR POINT-GROUP C1  =  1


          SYSTEM IS A GROUND STATE



 InChI=1S/C12H22/c1-4-7-11(6-3)12-8-10(5-2)9-12/h4,10-12H,1,5-9H2,2-3H3


          MOLECULE IS NOT LINEAR

          THERE ARE 96 GENUINE VIBRATIONS IN THIS SYSTEM
          THIS THERMODYNAMICS CALCULATION IS LIMITED TO
          MOLECULES WHICH HAVE NO INTERNAL ROTATIONS




                    CALCULATED THERMODYNAMIC PROPERTIES
                                          *
   TEMP. (K)   PARTITION FUNCTION   H.O.F.    ENTHALPY  HEAT CAPACITY ENTROPY
                                   KCAL/MOL   CAL/MOLE    CAL/K/MOL  CAL/K/MOL


 298.00  VIB.     0.1954D+06                  7078.3960    46.9942    47.9626
         ROT.     0.1740D+07                   888.2803     2.9808    31.5356
         INT.     0.3400D+12                  7966.6763    49.9750    79.4982
         TRA.     0.2073D+28                  1480.4672     4.9680    41.2320
         TOT.                      -17.226    9447.1434    54.9430   120.7302

 200.00  VIB.     0.3642D+04                  3309.3609    30.6185    32.8423
         ROT.     0.9566D+06                   596.1613     2.9808    30.3470
         INT.     0.3484D+10                  3905.5222    33.5993    63.1892
         TRA.     0.1140D+28                   993.6021     4.9680    39.2509
         TOT.                      -21.774    4899.1244    38.5673   102.4401

 210.00  VIB.     0.5514D+04                  3622.8222    32.0822    34.3713
         ROT.     0.1029D+07                   625.9693     2.9808    30.4924
         INT.     0.5675D+10                  4248.7916    35.0630    64.8637
         TRA.     0.1227D+28                  1043.2822     4.9680    39.4932
         TOT.                      -21.381    5292.0738    40.0310   104.3570

 220.00  VIB.     0.8326D+04                  3951.1768    33.5974    35.8986
         ROT.     0.1104D+07                   655.7774     2.9808    30.6311
         INT.     0.9189D+10                  4606.9542    36.5782    66.5296
         TRA.     0.1315D+28                  1092.9623     4.9680    39.7244
         TOT.                      -20.973    5699.9165    41.5462   106.2540

 230.00  VIB.     0.1254D+05                  4294.9447    35.1648    37.4264
         ROT.     0.1180D+07                   685.5855     2.9808    30.7636
         INT.     0.1480D+11                  4980.5302    38.1456    68.1900
         TRA.     0.1406D+28                  1142.6424     4.9680    39.9452
         TOT.                      -20.550    6123.1726    43.1136   108.1352

 240.00  VIB.     0.1885D+05                  4654.6440    36.7834    38.9570
         ROT.     0.1258D+07                   715.3935     2.9808    30.8904
         INT.     0.2371D+11                  5370.0376    39.7642    69.8475
         TRA.     0.1499D+28                  1192.3226     4.9680    40.1566
         TOT.                      -20.111    6562.3601    44.7322   110.0041

 250.00  VIB.     0.2829D+05                  5030.7748    38.4506    40.4923
         ROT.     0.1337D+07                   745.2016     2.9808    31.0121
         INT.     0.3782D+11                  5775.9764    41.4314    71.5044
         TRA.     0.1593D+28                  1242.0027     4.9680    40.3594
         TOT.                      -19.655    7017.9791    46.3994   111.8638

 260.00  VIB.     0.4238D+05                  5423.8062    40.1628    42.0335
         ROT.     0.1418D+07                   775.0097     2.9808    31.1290
         INT.     0.6010D+11                  6198.8158    43.1436    73.1625
         TRA.     0.1690D+28                  1291.6828     4.9680    40.5543
         TOT.                      -19.183    7490.4986    48.1116   113.7168

 270.00  VIB.     0.6343D+05                  5834.1664    41.9156    43.5820
         ROT.     0.1501D+07                   804.8177     2.9808    31.2415
         INT.     0.9519D+11                  6638.9841    44.8964    74.8236
         TRA.     0.1788D+28                  1341.3629     4.9680    40.7418
         TOT.                      -18.693    7980.3470    49.8644   115.5653

 280.00  VIB.     0.9485D+05                  6262.2356    43.7037    45.1386
         ROT.     0.1585D+07                   834.6258     2.9808    31.3499
         INT.     0.1503D+12                  7096.8614    46.6845    76.4885
         TRA.     0.1888D+28                  1391.0430     4.9680    40.9225
         TOT.                      -18.185    8487.9043    51.6526   117.4110

 290.00  VIB.     0.1417D+06                  6708.3410    45.5219    46.7039
         ROT.     0.1670D+07                   864.4339     2.9808    31.4545
         INT.     0.2367D+12                  7572.7749    48.5027    78.1584
         TRA.     0.1990D+28                  1440.7231     4.9680    41.0968
         TOT.                      -17.660    9013.4979    53.4707   119.2552

 300.00  VIB.     0.2117D+06                  7172.7545    47.3644    48.2781
         ROT.     0.1757D+07                   894.2419     2.9808    31.5556
         INT.     0.3721D+12                  8066.9964    50.3452    79.8337
         TRA.     0.2094D+28                  1490.4032     4.9680    41.2652
         TOT.                      -17.116    9557.3996    55.3132   121.0989

 310.00  VIB.     0.3161D+06                  7655.6914    49.2257    49.8615
         ROT.     0.1846D+07                   924.0500     2.9808    31.6533
         INT.     0.5836D+12                  8579.7414    52.2065    81.5148
         TRA.     0.2200D+28                  1540.0833     4.9680    41.4281
         TOT.                      -16.553   10119.8247    57.1745   122.9430

 320.00  VIB.     0.4720D+06                  8157.3119    51.1002    51.4539
         ROT.     0.1936D+07                   953.8580     2.9808    31.7479
         INT.     0.9139D+12                  9111.1699    54.0810    83.2019
         TRA.     0.2307D+28                  1589.7634     4.9680    41.5859
         TOT.                      -15.972   10700.9333    59.0490   124.7877

 330.00  VIB.     0.7048D+06                  8677.7220    52.9827    53.0552
         ROT.     0.2028D+07                   983.6661     2.9808    31.8397
         INT.     0.1429D+13                  9661.3881    55.9636    84.8949
         TRA.     0.2416D+28                  1639.4435     4.9680    41.7387
         TOT.                      -15.372   11300.8316    60.9316   126.6336

 340.00  VIB.     0.1053D+07                  9216.9771    54.8684    54.6649
         ROT.     0.2120D+07                  1013.4742     2.9808    31.9287
         INT.     0.2232D+13                 10230.4512    57.8492    86.5935
         TRA.     0.2527D+28                  1689.1236     4.9680    41.8870
         TOT.                      -14.754   11919.5749    62.8172   128.4806

 350.00  VIB.     0.1572D+07                  9775.0846    56.7525    56.2826
         ROT.     0.2215D+07                  1043.2822     2.9808    32.0151
         INT.     0.3482D+13                 10818.3668    59.7333    88.2976
         TRA.     0.2639D+28                  1738.8037     4.9680    42.0310
         TOT.                      -14.116   12557.1705    64.7013   130.3287

 360.00  VIB.     0.2350D+07                 10352.0082    58.6309    57.9077
         ROT.     0.2310D+07                  1073.0903     2.9808    32.0990
         INT.     0.5429D+13                 11425.0985    61.6118    90.0067
         TRA.     0.2753D+28                  1788.4838     4.9680    42.1710
         TOT.                      -13.460   13213.5824    66.5798   132.1777

 370.00  VIB.     0.3513D+07                 10947.6718    60.4999    59.5396
         ROT.     0.2407D+07                  1102.8984     2.9808    32.1807
         INT.     0.8457D+13                 12050.5702    63.4807    91.7203
         TRA.     0.2869D+28                  1838.1639     4.9680    42.3071
         TOT.                      -12.784   13888.7341    68.4487   134.0274

 380.00  VIB.     0.5255D+07                 11561.9634    62.3560    61.1777
         ROT.     0.2505D+07                  1132.7064     2.9808    32.2602
         INT.     0.1317D+14                 12694.6698    65.3368    93.4379
         TRA.     0.2986D+28                  1887.8440     4.9680    42.4396
         TOT.                      -12.091   14582.5139    70.3048   135.8775

 390.00  VIB.     0.7865D+07                 12194.7392    64.1963    62.8213
         ROT.     0.2605D+07                  1162.5145     2.9808    32.3376
         INT.     0.2049D+14                 13357.2537    67.1771    95.1589
         TRA.     0.3104D+28                  1937.5242     4.9680    42.5687
         TOT.                      -11.378   15294.7778    72.1451   137.7276

 400.00  VIB.     0.1178D+08                 12845.8278    66.0182    64.4696
         ROT.     0.2706D+07                  1192.3226     2.9808    32.4131
         INT.     0.3187D+14                 14038.1504    68.9990    96.8827
         TRA.     0.3224D+28                  1987.2043     4.9680    42.6944
         TOT.                      -10.648   16025.3546    73.9670   139.5771

   *: NOTE: HEATS OF FORMATION ARE RELATIVE TO THE
            ELEMENTS IN THEIR STANDARD STATE AT 298K
              (=  Standard Enthalpy of Formation).

            Hvib:  Zero-point energy is not included.
                   frequencies of less than zero cm-1 are not included.
            Hrot = (3/2)RT
            Htra = (3/2)RT + pV = (5/2)RT

            Heat capacity is Cp, not Cv

          For more information, see: HTTP://OpenMOPAC.net/Manual/thermochemistry.html


           FORCE CONSTANT IN CARTESIAN COORDINATES (Millidynes/A)

    ATOM   CHEMICAL       X               Y               Z
   NUMBER   SYMBOL  FORCE CONSTANT  FORCE CONSTANT  FORCE CONSTANT

      1       C        8.806689        9.398795        6.441154
      2       C        8.281157        8.342123        7.894847
      3       C        9.150809        9.339211        6.358234
      4       C        7.622471        7.004180        9.731692
      5       C        7.623887        6.992097        9.713669
      6       C        8.300199        8.360516        8.428041
      7       C        8.280503        8.282097        8.080960
      8       C        9.016032        7.794641        8.274385
      9       C        8.220138        8.461890        8.205423
     10       C        8.243846        8.151465        8.353461
     11       C        9.197904        3.762825       14.121810
     12       C        9.152743        3.365978       13.934226
     13       H        4.800714        0.792793        0.666124
     14       H        1.204294        4.344295        0.665540
     15       H        1.103899        4.157715        0.740922
     16       H        1.004672        1.363041        4.010009
     17       H        4.877829        0.755565        0.740429
     18       H        2.544825        1.792892        2.292412
     19       H        2.537869        1.819592        2.227173
     20       H        4.874702        0.766730        0.700739
     21       H        1.213597        1.773402        3.385178
     22       H        2.552878        1.840376        2.216547
     23       H        2.537631        1.786839        2.306072
     24       H        2.390730        0.797955        3.220903
     25       H        0.664666        4.644913        0.996741
     26       H        5.341438        0.699048        0.737700
     27       H        1.085683        4.996984        0.708336
     28       H        1.008033        1.374516        4.372455
     29       H        5.085162        0.787682        0.878677
     30       H        2.071448        1.483992        3.229769
     31       H        0.863327        1.854465        4.055230
     32       H        2.685858        0.401685        3.085973
     33       H        4.785118        0.781480        0.908167
     34       H        2.626905        0.386844        3.445257

 **********************
 *                    *
 * JOB ENDED NORMALLY *
 *                    *
 **********************



 TOTAL JOB TIME:             9.30 SECONDS

 == MOPAC DONE ==
