 *******************************************************************************
 **                                                                           **
 **                              MOPAC v23.1.2                                **
 **                                                                           **
 *******************************************************************************
 **          Digital Object Identifier (DOI): 10.5281/zenodo.6511958          **
 **    Visit the DOI location for information on how to cite this program.    **
 *******************************************************************************

                              PM3 CALCULATION RESULTS

 *******************************************************************************
 *  CALCULATION DONE: (MAX THREADS = 1)              Tue Jun  3 16:29:11 2025  *
 *  PM3        - The PM3 Hamiltonian to be used
 *  PRECISE    - TIGHTER CRITERIA TO BE USED
 *  NOSYM      - POINT-GROUP SYMMETRY SET TO C1
 *  THREADS=1  - MULTI-THREADING NOT USED
 *  T=         - A TIME OF 172800.0 SECONDS REQUESTED
 *  DUMP=N     - RESTART FILE WRITTEN EVERY 7200.0 SECONDS REQUESTED
 *******************************************************************************
pm3  precise nosym THREADS=1
 InChI=1S/C7H8/c1-6-4-3-5-7(6)2/h3-4H,1-2,5H2

   ATOM   CHEMICAL          X               Y               Z
  NUMBER   SYMBOL      (ANGSTROMS)     (ANGSTROMS)     (ANGSTROMS)

     1       C         -0.34070000  *  -1.49120000  *   0.27940000  *
     2       C         -0.73550000  *  -0.07250000  *   0.02490000  *
     3       C          0.47880000  *   0.72290000  *  -0.14040000  *
     4       C          1.15750000  *  -1.41500000  *   0.24180000  *
     5       C          1.60130000  *  -0.18560000  *   0.00890000  *
     6       C         -1.99510000  *   0.36110000  *  -0.03500000  *
     7       C          0.57620000  *   2.03010000  *  -0.38220000  *
     8       H         -0.71640000  *  -2.15880000  *  -0.52480000  *
     9       H         -0.68800000  *  -1.82720000  *   1.27960000  *
    10       H          1.81050000  *  -2.26530000  *   0.38780000  *
    11       H          2.64730000  *   0.08550000  *  -0.05740000  *
    12       H         -0.30290000  *   2.65120000  *  -0.48250000  *
    13       H          1.54850000  *   2.49530000  *  -0.48300000  *
    14       H         -2.81540000  *  -0.33110000  *   0.10520000  *
    15       H         -2.22610000  *   1.40040000  *  -0.22240000  *



          CARTESIAN COORDINATES 

    NO.       ATOM           X           Y           Z

     1         C         -0.3407     -1.4912      0.2794
     2         C         -0.7355     -0.0725      0.0249
     3         C          0.4788      0.7229     -0.1404
     4         C          1.1575     -1.4150      0.2418
     5         C          1.6013     -0.1856      0.0089
     6         C         -1.9951      0.3611     -0.0350
     7         C          0.5762      2.0301     -0.3822
     8         H         -0.7164     -2.1588     -0.5248
     9         H         -0.6880     -1.8272      1.2796
    10         H          1.8105     -2.2653      0.3878
    11         H          2.6473      0.0855     -0.0574
    12         H         -0.3029      2.6512     -0.4825
    13         H          1.5485      2.4953     -0.4830
    14         H         -2.8154     -0.3311      0.1052
    15         H         -2.2261      1.4004     -0.2224

  H: (PM3): J. J. P. STEWART, J. COMP. CHEM. 10, 209 (1989).
  C: (PM3): J. J. P. STEWART, J. COMP. CHEM. 10, 209 (1989).

           Empirical Formula: C7 H8  =    15 atoms



      MOLECULAR POINT GROUP   :   C1  


      RHF CALCULATION, NO. OF DOUBLY OCCUPIED LEVELS = 18


          Geometry optimization using EF

          DIAGONAL MATRIX USED AS START HESSIAN

 CYCLE:     1 TIME:   0.012 TIME LEFT:  2.00D  GRAD.:    57.307 HEAT:  47.44370
 CYCLE:     2 TIME:   0.008 TIME LEFT:  2.00D  GRAD.:    51.679 HEAT:  47.00790
 CYCLE:     3 TIME:   0.004 TIME LEFT:  2.00D  GRAD.:    25.101 HEAT:  46.35524
 CYCLE:     4 TIME:   0.004 TIME LEFT:  2.00D  GRAD.:    59.074 HEAT:  46.31926
 CYCLE:     5 TIME:   0.004 TIME LEFT:  2.00D  GRAD.:    43.340 HEAT:  45.98558
 CYCLE:     6 TIME:   0.008 TIME LEFT:  2.00D  GRAD.:    32.317 HEAT:  45.74408
 CYCLE:     7 TIME:   0.004 TIME LEFT:  2.00D  GRAD.:    26.032 HEAT:  45.68748
 CYCLE:     8 TIME:   0.004 TIME LEFT:  2.00D  GRAD.:    14.342 HEAT:  45.53499
 CYCLE:     9 TIME:   0.008 TIME LEFT:  2.00D  GRAD.:    10.503 HEAT:  45.50014
 CYCLE:    10 TIME:   0.004 TIME LEFT:  2.00D  GRAD.:    10.502 HEAT:  45.48847
 CYCLE:    11 TIME:   0.008 TIME LEFT:  2.00D  GRAD.:     9.341 HEAT:  45.47152
 CYCLE:    12 TIME:   0.004 TIME LEFT:  2.00D  GRAD.:     5.502 HEAT:  45.45567
 CYCLE:    13 TIME:   0.004 TIME LEFT:  2.00D  GRAD.:     2.954 HEAT:  45.44955
 CYCLE:    14 TIME:   0.004 TIME LEFT:  2.00D  GRAD.:     3.775 HEAT:  45.44810
 CYCLE:    15 TIME:   0.004 TIME LEFT:  2.00D  GRAD.:     1.910 HEAT:  45.44539
 CYCLE:    16 TIME:   0.004 TIME LEFT:  2.00D  GRAD.:     1.976 HEAT:  45.44473
 CYCLE:    17 TIME:   0.004 TIME LEFT:  2.00D  GRAD.:     0.778 HEAT:  45.44334
 CYCLE:    18 TIME:   0.004 TIME LEFT:  2.00D  GRAD.:     0.962 HEAT:  45.44274
 CYCLE:    19 TIME:   0.004 TIME LEFT:  2.00D  GRAD.:     0.781 HEAT:  45.44220
 CYCLE:    20 TIME:   0.008 TIME LEFT:  2.00D  GRAD.:     0.387 HEAT:  45.44194
 CYCLE:    21 TIME:   0.004 TIME LEFT:  2.00D  GRAD.:     0.275 HEAT:  45.44183
 CYCLE:    22 TIME:   0.004 TIME LEFT:  2.00D  GRAD.:     0.366 HEAT:  45.44169
 CYCLE:    23 TIME:   0.004 TIME LEFT:  2.00D  GRAD.:     0.318 HEAT:  45.44156
 CYCLE:    24 TIME:   0.004 TIME LEFT:  2.00D  GRAD.:     0.235 HEAT:  45.44147
 CYCLE:    25 TIME:   0.004 TIME LEFT:  2.00D  GRAD.:     0.268 HEAT:  45.44135
 CYCLE:    26 TIME:   0.008 TIME LEFT:  2.00D  GRAD.:     0.364 HEAT:  45.44120
 CYCLE:    27 TIME:   0.008 TIME LEFT:  2.00D  GRAD.:     0.203 HEAT:  45.44111
 CYCLE:    28 TIME:   0.004 TIME LEFT:  2.00D  GRAD.:     0.074 HEAT:  45.44108
 CYCLE:    29 TIME:   0.008 TIME LEFT:  2.00D  GRAD.:     0.064 HEAT:  45.44108
 CYCLE:    30 TIME:   0.004 TIME LEFT:  2.00D  GRAD.:     0.052 HEAT:  45.44107
 CYCLE:    31 TIME:   0.008 TIME LEFT:  2.00D  GRAD.:     0.034 HEAT:  45.44107

     GRADIENT =  0.03395 IS LESS THAN CUTOFF =  0.05000



 -------------------------------------------------------------------------------
 pm3  precise nosym THREADS=1
 InChI=1S/C7H8/c1-6-4-3-5-7(6)2/h3-4H,1-2,5H2



     GEOMETRY OPTIMISED USING EIGENVECTOR FOLLOWING (EF).     
     SCF FIELD WAS ACHIEVED                                   


                              PM3 CALCULATION
                                                       MOPAC v23.1.2 MacOS
                                                       Tue Jun  3 16:29:11 2025




          FINAL HEAT OF FORMATION =         45.44107 KCAL/MOL =     190.12543 KJ/MOL


          COSMO AREA              =        141.13 SQUARE ANGSTROMS
          COSMO VOLUME            =        133.40 CUBIC ANGSTROMS

          GRADIENT NORM           =          0.03395          =       0.00877 PER ATOM
          IONIZATION POTENTIAL    =          8.906545 EV
          HOMO LUMO ENERGIES (EV) =         -8.907  0.014
          NO. OF FILLED LEVELS    =         18
          MOLECULAR WEIGHT        =         92.1402         POINT GROUP:  C1  

          MOLECULAR DIMENSIONS (Angstroms)

            Atom       Atom       Distance
            H    15    H    10     5.53504
            H    14    H    13     5.11071
            H     8    H     9     1.77489


          SCF CALCULATIONS        =         36

          WALL-CLOCK TIME         =      0.180 SECONDS
          COMPUTATION TIME        =      0.111 SECONDS




   ATOM   CHEMICAL          X               Y               Z
  NUMBER   SYMBOL      (ANGSTROMS)     (ANGSTROMS)     (ANGSTROMS)

     1       C         -0.32536067  *  -1.49497523  *   0.28013545  *
     2       C         -0.74433192  *  -0.06846351  *   0.02429891  *
     3       C          0.48299718  *   0.73231726  *  -0.14217503  *
     4       C          1.17435894  *  -1.44193677  *   0.24639782  *
     5       C          1.61650141  *  -0.19504934  *   0.01020759  *
     6       C         -1.99948586  *   0.36611886  *  -0.03609706  *
     7       C          0.57241269  *   2.03939132  *  -0.38364438  *
     8       H         -0.72265436  *  -2.18240645  *  -0.48938029  *
     9       H         -0.69457494  *  -1.86106390  *   1.25595203  *
    10       H          1.77985251  *  -2.33380733  *   0.40055130  *
    11       H          2.65189067  *   0.13516209  *  -0.06695984  *
    12       H         -0.29988568  *   2.67832335  *  -0.48721601  *
    13       H          1.52707330  *   2.54484636  *  -0.49156607  *
    14       H         -2.85067808  *  -0.29397623  *   0.09849178  *
    15       H         -2.25293704  *   1.40571898  *  -0.22332184  *

                             CARTESIAN COORDINATES

   1    C       -0.325360670    -1.494975234     0.280135448
   2    C       -0.744331915    -0.068463505     0.024298907
   3    C        0.482997181     0.732317260    -0.142175031
   4    C        1.174358940    -1.441936775     0.246397825
   5    C        1.616501415    -0.195049343     0.010207587
   6    C       -1.999485861     0.366118857    -0.036097058
   7    C        0.572412693     2.039391324    -0.383644384
   8    H       -0.722654361    -2.182406449    -0.489380295
   9    H       -0.694574936    -1.861063900     1.255952027
  10    H        1.779852512    -2.333807326     0.400551301
  11    H        2.651890670     0.135162091    -0.066959838
  12    H       -0.299885676     2.678323346    -0.487216010
  13    H        1.527073303     2.544846361    -0.491566069
  14    H       -2.850678076    -0.293976231     0.098491776
  15    H       -2.252937037     1.405718977    -0.223321837


           Empirical Formula: C7 H8  =    15 atoms



      MOLECULAR POINT GROUP   :   C1  


                  EIGENVALUES  
 -39.97225 -31.12734 -30.64396 -24.75135 -22.35078 -19.43690 -17.67258 -17.17003
 -15.34296 -15.01269 -14.72271 -14.07443 -13.10961 -12.90839 -11.95580 -11.81929
 -10.39807  -8.90654   0.01382   1.02415   2.49772   3.14516   3.23152   3.58079
   3.69606   3.75549   3.97487   4.09440   4.45521   4.47430   4.87359   5.08746
   5.28102   5.88042   5.97170   6.32909


              NET ATOMIC CHARGES AND DIPOLE CONTRIBUTIONS

  ATOM NO.   TYPE          CHARGE      No. of ELECS.   s-Pop       p-Pop       
    1          C          -0.031390        4.0314     1.14243     2.88896
    2          C          -0.080253        4.0803     1.18995     2.89030
    3          C          -0.049908        4.0499     1.17594     2.87397
    4          C          -0.139040        4.1390     1.20487     2.93418
    5          C          -0.114770        4.1148     1.18970     2.92507
    6          C          -0.150565        4.1506     1.17599     2.97457
    7          C          -0.137092        4.1371     1.17672     2.96037
    8          H           0.066899        0.9331     0.93310
    9          H           0.066899        0.9331     0.93310
   10          H           0.112486        0.8875     0.88751
   11          H           0.115233        0.8848     0.88477
   12          H           0.085556        0.9144     0.91444
   13          H           0.084866        0.9151     0.91513
   14          H           0.084276        0.9157     0.91572
   15          H           0.086803        0.9132     0.91320
 DIPOLE           X         Y         Z       TOTAL
 POINT-CHG.    -0.006    -0.341     0.063     0.347
 HYBRID        -0.022     0.013    -0.002     0.026
 SUM           -0.028    -0.329     0.061     0.335


          ATOMIC ORBITAL ELECTRON POPULATIONS

     Atom    s        px        py        pz   
    1  C   1.14243   0.93811   0.94188   1.00898
    2  C   1.18995   0.94070   0.95289   0.99671
    3  C   1.17594   0.92882   0.94488   1.00027
    4  C   1.20487   0.96442   0.97335   0.99641
    5  C   1.18970   0.96725   0.94529   1.01253
    6  C   1.17599   0.95144   1.00779   1.01535
    7  C   1.17672   1.01165   0.94730   1.00141
    8  H   0.93310
    9  H   0.93310
   10  H   0.88751
   11  H   0.88477
   12  H   0.91444
   13  H   0.91513
   14  H   0.91572
   15  H   0.91320
 *******************************************************************************
 **                                                                           **
 **                              MOPAC v23.1.2                                **
 **                                                                           **
 *******************************************************************************
 **          Digital Object Identifier (DOI): 10.5281/zenodo.6511958          **
 **    Visit the DOI location for information on how to cite this program.    **
 *******************************************************************************

                              PM3 CALCULATION RESULTS

 *******************************************************************************
 *  CALCULATION DONE: (MAX THREADS = 1)              Tue Jun  3 16:29:11 2025  *
 *  PM3        - The PM3 Hamiltonian to be used
 *  OLDGEO     - PREVIOUS GEOMETRY TO BE USED
 *  PRECISE    - TIGHTER CRITERIA TO BE USED
 *  NOSYM      - POINT-GROUP SYMMETRY SET TO C1
 *  THREADS=1  - MULTI-THREADING NOT USED
 *  T=         - A TIME OF 172800.0 SECONDS REQUESTED
 *  DUMP=N     - RESTART FILE WRITTEN EVERY 7200.0 SECONDS REQUESTED
 *  THERMO     - THERMODYNAMIC QUANTITIES TO BE CALCULATED
 *******************************************************************************
oldgeo thermo nosym precise THREADS=1  pm3
 InChI=1S/C7H8/c1-6-4-3-5-7(6)2/h3-4H,1-2,5H2

   ATOM   CHEMICAL          X               Y               Z
  NUMBER   SYMBOL      (ANGSTROMS)     (ANGSTROMS)     (ANGSTROMS)

     1       C         -0.32536067  *  -1.49497523  *   0.28013545  *
     2       C         -0.74433192  *  -0.06846351  *   0.02429891  *
     3       C          0.48299718  *   0.73231726  *  -0.14217503  *
     4       C          1.17435894  *  -1.44193677  *   0.24639782  *
     5       C          1.61650141  *  -0.19504934  *   0.01020759  *
     6       C         -1.99948586  *   0.36611886  *  -0.03609706  *
     7       C          0.57241269  *   2.03939132  *  -0.38364438  *
     8       H         -0.72265436  *  -2.18240645  *  -0.48938029  *
     9       H         -0.69457494  *  -1.86106390  *   1.25595203  *
    10       H          1.77985251  *  -2.33380733  *   0.40055130  *
    11       H          2.65189067  *   0.13516209  *  -0.06695984  *
    12       H         -0.29988568  *   2.67832335  *  -0.48721601  *
    13       H          1.52707330  *   2.54484636  *  -0.49156607  *
    14       H         -2.85067808  *  -0.29397623  *   0.09849178  *
    15       H         -2.25293704  *   1.40571898  *  -0.22332184  *



          CARTESIAN COORDINATES 

    NO.       ATOM           X           Y           Z

     1         C         -0.3254     -1.4950      0.2801
     2         C         -0.7443     -0.0685      0.0243
     3         C          0.4830      0.7323     -0.1422
     4         C          1.1744     -1.4419      0.2464
     5         C          1.6165     -0.1950      0.0102
     6         C         -1.9995      0.3661     -0.0361
     7         C          0.5724      2.0394     -0.3836
     8         H         -0.7227     -2.1824     -0.4894
     9         H         -0.6946     -1.8611      1.2560
    10         H          1.7799     -2.3338      0.4006
    11         H          2.6519      0.1352     -0.0670
    12         H         -0.2999      2.6783     -0.4872
    13         H          1.5271      2.5448     -0.4916
    14         H         -2.8507     -0.2940      0.0985
    15         H         -2.2529      1.4057     -0.2233

  H: (PM3): J. J. P. STEWART, J. COMP. CHEM. 10, 209 (1989).
  C: (PM3): J. J. P. STEWART, J. COMP. CHEM. 10, 209 (1989).

           Empirical Formula: C7 H8  =    15 atoms



      MOLECULAR POINT GROUP   :   C1  


      RHF CALCULATION, NO. OF DOUBLY OCCUPIED LEVELS = 18



          HEAT OF FORMATION =      45.441067 KCALS/MOLE


          CARTESIAN COORDINATE DERIVATIVES

   NUMBER  ATOM         X            Y            Z

     1       C     -0.004369     0.011658    -0.001808
     2       C      0.002387    -0.004643     0.003900
     3       C      0.003206     0.008836    -0.002750
     4       C     -0.005356    -0.001133    -0.006336
     5       C      0.002643    -0.004327     0.002715
     6       C     -0.003938     0.003826    -0.000256
     7       C      0.004810     0.008689     0.000025
     8       H      0.006067    -0.005040     0.001133
     9       H      0.007393     0.005308    -0.001214
    10       H     -0.005913     0.001140     0.004269
    11       H     -0.006858    -0.010145    -0.001430
    12       H     -0.002275    -0.008029     0.000250
    13       H      0.001743     0.002559    -0.000246
    14       H     -0.000490     0.002285     0.003006
    15       H      0.000948    -0.010985    -0.001257



          GRADIENT NORM =   0.03317

          MOLECULAR WEIGHT =   92.14



          ROTATIONAL CONSTANTS IN CM(-1)

          A =    0.12634824   B =    0.11143587   C =    0.05988004



           PRINCIPAL MOMENTS OF INERTIA IN UNITS OF 10**(-40)*GRAM-CM**2

          A =      221.5524   B =      251.2006   C =      467.4805


          ORIENTATION OF MOLECULE IN FORCE CALCULATION

    NO.       ATOM         X         Y         Z

     1          C      -1.3385   -0.8214   -0.0001
     2          C       0.1701   -0.8214   -0.0001
     3          C       0.6147    0.5849   -0.0001
     4          C      -1.6991    0.6357    0.0004
     5          C      -0.6029    1.4130    0.0004
     6          C       0.9399   -1.9055   -0.0000
     7          C       1.8667    1.0400   -0.0004
     8          H      -1.7477   -1.3391    0.8871
     9          H      -1.7476   -1.3382   -0.8878
    10          H      -2.7368    0.9661    0.0009
    11          H      -0.5651    2.5018    0.0006
    12          H       2.7307    0.3817   -0.0008
    13          H       2.0979    2.1007   -0.0004
    14          H       0.5293   -2.9104    0.0001
    15          H       2.0250   -1.8556   -0.0001


    FIRST DERIVATIVES WILL BE USED IN THE CALCULATION OF SECOND DERIVATIVES

          ESTIMATED TIME TO COMPLETE CALCULATION =        0.70 SECONDS

    FOR POINT-GROUP C1   THERE ARE   1 UNIQUE SYMMETRY FUNCTIONS.

 STEP:   1 TIME =     0.02 SECS, INTEGRAL =      0.02 TIME LEFT: 172799.98
 STEP:   2 TIME =     0.01 SECS, INTEGRAL =      0.03 TIME LEFT: 172799.96
 STEP:   3 TIME =     0.01 SECS, INTEGRAL =      0.04 TIME LEFT: 172799.95
 STEP:   4 TIME =     0.01 SECS, INTEGRAL =      0.05 TIME LEFT: 172799.94
 STEP:   5 TIME =     0.01 SECS, INTEGRAL =      0.07 TIME LEFT: 172799.93
 STEP:   6 TIME =     0.01 SECS, INTEGRAL =      0.08 TIME LEFT: 172799.92
 STEP:   7 TIME =     0.01 SECS, INTEGRAL =      0.09 TIME LEFT: 172799.91
 STEP:   8 TIME =     0.01 SECS, INTEGRAL =      0.10 TIME LEFT: 172799.89
 STEP:   9 TIME =     0.02 SECS, INTEGRAL =      0.12 TIME LEFT: 172799.88
 STEP:  10 TIME =     0.01 SECS, INTEGRAL =      0.13 TIME LEFT: 172799.87
 STEP:  11 TIME =     0.01 SECS, INTEGRAL =      0.14 TIME LEFT: 172799.86
 STEP:  12 TIME =     0.01 SECS, INTEGRAL =      0.15 TIME LEFT: 172799.84
 STEP:  13 TIME =     0.01 SECS, INTEGRAL =      0.16 TIME LEFT: 172799.84
 STEP:  14 TIME =     0.01 SECS, INTEGRAL =      0.17 TIME LEFT: 172799.83
 STEP:  15 TIME =     0.01 SECS, INTEGRAL =      0.18 TIME LEFT: 172799.82
 STEP:  16 TIME =     0.01 SECS, INTEGRAL =      0.19 TIME LEFT: 172799.80
 STEP:  17 TIME =     0.01 SECS, INTEGRAL =      0.20 TIME LEFT: 172799.79
 STEP:  18 TIME =     0.01 SECS, INTEGRAL =      0.21 TIME LEFT: 172799.78
 STEP:  19 TIME =     0.01 SECS, INTEGRAL =      0.22 TIME LEFT: 172799.77
 STEP:  20 TIME =     0.01 SECS, INTEGRAL =      0.23 TIME LEFT: 172799.77
 STEP:  21 TIME =     0.01 SECS, INTEGRAL =      0.24 TIME LEFT: 172799.75
 STEP:  22 TIME =     0.01 SECS, INTEGRAL =      0.25 TIME LEFT: 172799.74
 STEP:  23 TIME =     0.01 SECS, INTEGRAL =      0.27 TIME LEFT: 172799.73
 STEP:  24 TIME =     0.01 SECS, INTEGRAL =      0.28 TIME LEFT: 172799.72
 STEP:  25 TIME =     0.01 SECS, INTEGRAL =      0.29 TIME LEFT: 172799.71
 STEP:  26 TIME =     0.01 SECS, INTEGRAL =      0.30 TIME LEFT: 172799.70
 STEP:  27 TIME =     0.01 SECS, INTEGRAL =      0.31 TIME LEFT: 172799.68
 STEP:  28 TIME =     0.01 SECS, INTEGRAL =      0.32 TIME LEFT: 172799.67
 STEP:  29 TIME =     0.01 SECS, INTEGRAL =      0.34 TIME LEFT: 172799.66
 STEP:  30 TIME =     0.01 SECS, INTEGRAL =      0.35 TIME LEFT: 172799.65
 STEP:  31 TIME =     0.01 SECS, INTEGRAL =      0.36 TIME LEFT: 172799.64
 STEP:  32 TIME =     0.01 SECS, INTEGRAL =      0.37 TIME LEFT: 172799.62
 STEP:  33 TIME =     0.01 SECS, INTEGRAL =      0.38 TIME LEFT: 172799.61
 STEP:  34 TIME =     0.01 SECS, INTEGRAL =      0.39 TIME LEFT: 172799.60
 STEP:  35 TIME =     0.01 SECS, INTEGRAL =      0.41 TIME LEFT: 172799.59
 STEP:  36 TIME =     0.01 SECS, INTEGRAL =      0.42 TIME LEFT: 172799.58
 STEP:  37 TIME =     0.01 SECS, INTEGRAL =      0.43 TIME LEFT: 172799.57
 STEP:  38 TIME =     0.01 SECS, INTEGRAL =      0.44 TIME LEFT: 172799.55
 STEP:  39 TIME =     0.02 SECS, INTEGRAL =      0.46 TIME LEFT: 172799.54
 STEP:  40 TIME =     0.01 SECS, INTEGRAL =      0.47 TIME LEFT: 172799.53
 STEP:  41 TIME =     0.01 SECS, INTEGRAL =      0.48 TIME LEFT: 172799.52
 STEP:  42 TIME =     0.01 SECS, INTEGRAL =      0.49 TIME LEFT: 172799.50
 STEP:  43 TIME =     0.01 SECS, INTEGRAL =      0.50 TIME LEFT: 172799.50
 STEP:  44 TIME =     0.01 SECS, INTEGRAL =      0.51 TIME LEFT: 172799.48
 STEP:  45 TIME =     0.01 SECS, INTEGRAL =      0.52 TIME LEFT: 172799.47

(To convert to Hartree/Bohr^2, multiply by (10^(-21) x N x a0^2)/(4.184 x 627.51) =  0.0642)


           FORCE MATRIX IN MILLIDYNES/ANGSTROM


                  C  1       C  2       C  3       C  4       C  5       C  6
 ------------------------------------------------------------------------------
     C    1  14.888185
     C    2   4.270535  19.236804
     C    3   0.850799   4.808867  19.551035
     C    4   4.534623   1.016959   1.436042  18.161504
     C    5   1.184301   1.024021   5.005107  10.207954  18.535464
     C    6   0.701016  10.731322   0.840395   0.055734   0.051532  17.980743
     C    7   0.053784   0.819899  10.513237   0.103984   0.892003   0.104338
     H    8   4.505195   0.432385   0.032990   0.429081   0.037859   0.019564
     H    9   4.505147   0.432361   0.032960   0.429026   0.037847   0.019567
     H   10   0.408727   0.044299   0.117289   5.042870   0.446439   0.007881
     H   11   0.117959   0.042477   0.427876   0.447048   5.025524   0.006970
     H   12   0.010730   0.090133   0.476570   0.011089   0.127924   0.018843
     H   13   0.011756   0.128054   0.473414   0.009060   0.090864   0.010494
     H   14   0.088997   0.476612   0.133264   0.002399   0.008939   5.109617
     H   15   0.126258   0.478584   0.093898   0.007066   0.004473   5.078076


                  C  7       H  8       H  9       H 10       H 11       H 12
 ------------------------------------------------------------------------------
     C    7  17.869251
     H    8   0.004618   5.104581
     H    9   0.004612   0.555494   5.104473
     H   10   0.009311   0.012362   0.012359   5.435109
     H   11   0.014303   0.015911   0.015915   0.047750   5.419052
     H   12   5.081597   0.000791   0.000791   0.009041   0.002179   5.457435
     H   13   5.109262   0.001205   0.001205   0.005726   0.009708   0.403745
     H   14   0.010054   0.010417   0.010421   0.001185   0.001231   0.007740
     H   15   0.018987   0.012175   0.012186   0.001653   0.000771   0.021706


                  H 13       H 14       H 15
 ------------------------------------------
     H   13   5.481139
     H   14   0.007177   5.484704
     H   15   0.007731   0.408080   5.457773


          HEAT OF FORMATION =      45.441067 KCALS/MOLE

          ZERO POINT ENERGY      78.798 KCAL/MOL


           NORMAL COORDINATE ANALYSIS (Total motion = 1 Angstrom)


   Root No.       1         2         3         4         5         6         7         8

                 1 A       2 A       3 A       4 A       5 A       6 A       7 A       8 A   

                  97.8     261.9     309.5     397.2     426.9     580.2     601.6     614.4
  
           1   -0.0000    0.0000    0.0173    0.0000    0.0321   -0.0000   -0.0557    0.0000
           2   -0.0000   -0.0000   -0.0009    0.0000   -0.0114   -0.0000   -0.0420    0.0000
           3    0.0644    0.0127    0.0000   -0.0158    0.0000   -0.0038   -0.0000   -0.0036
           4   -0.0000    0.0000    0.0203    0.0000    0.0255   -0.0000   -0.0509    0.0000
           5    0.0000   -0.0000   -0.0073    0.0000    0.0376    0.0000    0.0383   -0.0000
           6    0.0052    0.0494    0.0000    0.0593   -0.0000   -0.0373    0.0001    0.0086
           7   -0.0000    0.0000    0.0212   -0.0000   -0.0011    0.0000    0.0588   -0.0000
           8   -0.0000   -0.0000   -0.0050    0.0000    0.0460   -0.0000    0.0079    0.0000
           9   -0.0022    0.0664   -0.0000    0.0263   -0.0000    0.0321   -0.0001   -0.0388
          10   -0.0000   -0.0000    0.0151   -0.0000   -0.0097    0.0000    0.0046   -0.0000
          11    0.0000    0.0000   -0.0056   -0.0000   -0.0271   -0.0000   -0.0427    0.0000
          12   -0.0149   -0.0664    0.0000    0.0315   -0.0000    0.0127   -0.0000   -0.0147
          13   -0.0000    0.0000    0.0155   -0.0000   -0.0322    0.0000    0.0223   -0.0000
          14    0.0000    0.0000   -0.0095    0.0000    0.0097   -0.0000   -0.0556    0.0000
          15   -0.0542    0.0381   -0.0000   -0.0401    0.0000   -0.0117    0.0000    0.0203
          16    0.0000    0.0000   -0.0599   -0.0000   -0.0344   -0.0000   -0.0427    0.0000
          17   -0.0000   -0.0000   -0.0645   -0.0000   -0.0035    0.0000    0.0604   -0.0000
          18   -0.0569   -0.0281    0.0000   -0.0198    0.0000    0.0056   -0.0000   -0.0018
          19    0.0000   -0.0000   -0.0119    0.0000    0.0251    0.0000    0.0655   -0.0000
          20   -0.0000    0.0000    0.0871   -0.0000   -0.0235    0.0000    0.0253   -0.0000
          21    0.0525   -0.0420    0.0000   -0.0072   -0.0000   -0.0046   -0.0000    0.0029
          22    0.0389   -0.0211    0.0181   -0.0727    0.0534    0.0782   -0.0506    0.0028
          23    0.0614    0.0579   -0.0020   -0.0835   -0.0290    0.0287   -0.0538    0.0452
          24    0.1186    0.0374   -0.0001   -0.1009   -0.0000    0.0516   -0.0033    0.0255
          25   -0.0390    0.0212    0.0180    0.0728    0.0532   -0.0783   -0.0504   -0.0027
          26   -0.0615   -0.0579   -0.0020    0.0836   -0.0291   -0.0288   -0.0538   -0.0452
          27    0.1185    0.0374    0.0001   -0.1008    0.0002    0.0516    0.0032    0.0255
          28   -0.0000   -0.0001    0.0155   -0.0000   -0.0218    0.0000    0.0202    0.0000
          29    0.0000    0.0000   -0.0050   -0.0001   -0.0643   -0.0000    0.0075   -0.0000
          30   -0.0350   -0.1778    0.0000    0.0795   -0.0001    0.0320    0.0000    0.0414
          31   -0.0000    0.0000    0.0167   -0.0001   -0.0777   -0.0000   -0.0173    0.0001
          32    0.0000   -0.0000   -0.0092    0.0000    0.0108   -0.0000   -0.0544   -0.0000
          33   -0.1136    0.0589   -0.0000   -0.1139    0.0001   -0.0623    0.0002    0.1848
          34    0.0000   -0.0000    0.0454   -0.0000   -0.0333    0.0001    0.0930    0.0000
          35   -0.0000    0.0000    0.1651   -0.0001   -0.1028    0.0000    0.0605   -0.0001
          36    0.1022   -0.0940    0.0000    0.0679   -0.0001    0.0139    0.0003    0.3059
          37    0.0000   -0.0000   -0.1100    0.0001    0.1217   -0.0000    0.0394   -0.0001
          38   -0.0000    0.0000    0.1099   -0.0000   -0.0461    0.0000    0.0328    0.0000
          39    0.0514   -0.0917    0.0000   -0.1168    0.0000   -0.0699   -0.0002   -0.2442
          40    0.0000   -0.0000   -0.1560   -0.0001   -0.1271   -0.0000   -0.0108    0.0000
          41   -0.0000   -0.0000   -0.0267   -0.0000    0.0328    0.0000    0.0494   -0.0000
          42   -0.0605   -0.0975    0.0000   -0.0960    0.0001   -0.2258    0.0002   -0.0227
          43    0.0000    0.0000   -0.0572   -0.0000   -0.0316   -0.0000   -0.0456    0.0000
          44   -0.0000   -0.0000   -0.1629   -0.0001   -0.1011    0.0001    0.1120   -0.0001
          45   -0.1088   -0.0328    0.0000   -0.0262    0.0000    0.2922   -0.0004    0.0064


   Root No.       9        10        11        12        13        14        15        16

                 9 A      10 A      11 A      12 A      13 A      14 A      15 A      16 A   

                 700.6     763.9     781.2     867.6     911.9     918.4     959.2     978.7
  
           1   -0.0000    0.0061   -0.0000   -0.0270    0.0376    0.0000   -0.0291   -0.0000
           2    0.0000   -0.0688    0.0001   -0.0082    0.0157   -0.0000   -0.0091   -0.0000
           3   -0.0081   -0.0001   -0.0282   -0.0000    0.0000    0.0532   -0.0000    0.0253
           4   -0.0000   -0.0359    0.0000   -0.0046   -0.0121   -0.0000    0.0036   -0.0000
           5   -0.0000    0.0041   -0.0000   -0.0329   -0.0007   -0.0000   -0.0111   -0.0000
           6   -0.0532    0.0000    0.0066   -0.0000   -0.0000   -0.0281    0.0000   -0.0100
           7    0.0000   -0.0417    0.0000    0.0083    0.0064    0.0000    0.0067    0.0000
           8   -0.0000    0.0121   -0.0000    0.0345   -0.0023    0.0000    0.0127    0.0000
           9    0.0618    0.0001    0.0373   -0.0000   -0.0000    0.0197   -0.0000   -0.0017
          10    0.0000    0.1164   -0.0001    0.0081   -0.0041    0.0000    0.0076   -0.0000
          11   -0.0000   -0.0321    0.0000   -0.0037   -0.0028   -0.0000   -0.0050    0.0000
          12    0.0122   -0.0001   -0.0213   -0.0000    0.0000   -0.0120    0.0000   -0.0330
          13   -0.0000    0.0401   -0.0000   -0.0100   -0.0151   -0.0000   -0.0229    0.0000
          14    0.0000    0.0771   -0.0001    0.0200    0.0158    0.0000    0.0403    0.0000
          15    0.0024   -0.0001   -0.0342    0.0000    0.0000   -0.0419    0.0000    0.0318
          16    0.0000   -0.0288    0.0000    0.0013   -0.0414   -0.0000    0.0269    0.0000
          17    0.0000    0.0222   -0.0000   -0.0473   -0.0163    0.0000   -0.0087   -0.0000
          18    0.0008    0.0000    0.0009    0.0000   -0.0000   -0.0121    0.0000   -0.0286
          19   -0.0000   -0.0512    0.0000    0.0185    0.0157   -0.0000    0.0324    0.0000
          20   -0.0000   -0.0078    0.0000    0.0430   -0.0193    0.0000   -0.0270   -0.0000
          21   -0.0008    0.0000    0.0021   -0.0000   -0.0000    0.0091   -0.0000   -0.0085
          22    0.0526   -0.0085    0.0300   -0.0701    0.0666   -0.0529   -0.0846   -0.1226
          23   -0.0172   -0.0691    0.0993    0.0171    0.0020   -0.1341    0.0225    0.0178
          24    0.0064   -0.0047    0.0472   -0.0041    0.0052   -0.0542   -0.0058   -0.0227
          25   -0.0526   -0.0086   -0.0300   -0.0701    0.0666    0.0529   -0.0846    0.1226
          26    0.0172   -0.0696   -0.0993    0.0171    0.0020    0.1342    0.0226   -0.0178
          27    0.0064    0.0048    0.0471    0.0041   -0.0052   -0.0541    0.0058   -0.0227
          28   -0.0000    0.1121   -0.0000    0.0086   -0.0315    0.0000   -0.0046    0.0000
          29    0.0000   -0.0524   -0.0000    0.0015   -0.0880    0.0000   -0.0373   -0.0000
          30   -0.0539    0.0006    0.3112   -0.0000   -0.0000   -0.0221   -0.0001    0.1477
          31   -0.0000    0.0141    0.0000   -0.0775   -0.0436    0.0001   -0.1426   -0.0001
          32    0.0000    0.0785   -0.0001    0.0229    0.0166   -0.0001    0.0453    0.0000
          33   -0.1262    0.0002    0.1281    0.0000    0.0000    0.2415    0.0001   -0.1349
          34    0.0000   -0.0695    0.0000   -0.0705    0.0867   -0.0000    0.1428    0.0001
          35   -0.0000   -0.0286    0.0000   -0.0807    0.0754   -0.0000    0.1207    0.0000
          36    0.0697   -0.0001   -0.0851    0.0000   -0.0000   -0.0597   -0.0000    0.0487
          37   -0.0001   -0.0499    0.0000    0.2015   -0.0857   -0.0000   -0.1201   -0.0000
          38    0.0000   -0.0093    0.0000    0.0022    0.0048    0.0000    0.0099    0.0000
          39   -0.1874    0.0000    0.0028   -0.0001    0.0000   -0.0497    0.0000    0.0276
          40    0.0000   -0.0181    0.0000    0.1411    0.1437   -0.0000   -0.0370   -0.0000
          41    0.0000    0.0186   -0.0000   -0.1046   -0.0883    0.0000    0.0147    0.0000
          42    0.2086    0.0001    0.0507    0.0000    0.0000    0.0527   -0.0000    0.1086
          43   -0.0000   -0.0315    0.0000    0.0004   -0.0487   -0.0000    0.0310    0.0000
          44   -0.0000    0.0513   -0.0001    0.0593    0.1948    0.0000   -0.1032   -0.0000
          45   -0.1035   -0.0002   -0.0635   -0.0000   -0.0000    0.0898   -0.0000    0.1417


   Root No.      17        18        19        20        21        22        23        24

                17 A      18 A      19 A      20 A      21 A      22 A      23 A      24 A   

                1008.3    1017.7    1057.2    1057.9    1094.3    1178.7    1270.4    1307.8
  
           1    0.0000   -0.0000   -0.0140   -0.0002   -0.0092   -0.0011    0.0345    0.0109
           2    0.0000    0.0000   -0.0456   -0.0007   -0.0186   -0.0143   -0.0142   -0.0216
           3    0.0021   -0.0319    0.0001   -0.0042    0.0000   -0.0000   -0.0000   -0.0000
           4    0.0000    0.0000    0.0043    0.0001   -0.0133    0.0410   -0.0184    0.0316
           5    0.0000    0.0000   -0.0005    0.0000   -0.0095    0.0281   -0.0248    0.0019
           6   -0.0012    0.0314   -0.0007    0.0383   -0.0000   -0.0000    0.0000    0.0000
           7    0.0000    0.0000   -0.0021   -0.0000    0.0057   -0.0142   -0.0078    0.0106
           8   -0.0000    0.0000    0.0139    0.0002   -0.0043    0.0360   -0.0140   -0.0138
           9    0.0373   -0.0005    0.0003   -0.0185    0.0000    0.0000    0.0000   -0.0000
          10    0.0000    0.0000   -0.0283   -0.0004   -0.0200   -0.0006   -0.0034   -0.0132
          11   -0.0000   -0.0000    0.0369    0.0006    0.0168   -0.0230   -0.0106    0.0321
          12   -0.0046    0.0429    0.0006   -0.0323    0.0000   -0.0000   -0.0000    0.0000
          13    0.0000   -0.0000   -0.0074   -0.0001   -0.0090   -0.0092   -0.0252    0.0086
          14   -0.0000    0.0000    0.0230    0.0004    0.0320   -0.0124    0.0121    0.0036
          15   -0.0141   -0.0230   -0.0003    0.0184    0.0000    0.0000    0.0000   -0.0000
          16   -0.0000    0.0000    0.0019    0.0000    0.0085   -0.0129    0.0044    0.0002
          17    0.0000   -0.0000   -0.0152   -0.0002    0.0019   -0.0143    0.0048   -0.0113
          18    0.0006   -0.0503    0.0004   -0.0241    0.0000    0.0000   -0.0000    0.0000
          19   -0.0000    0.0000    0.0137    0.0002    0.0169   -0.0024    0.0017   -0.0005
          20    0.0000    0.0000   -0.0054   -0.0001    0.0105   -0.0183    0.0039    0.0029
          21   -0.0746   -0.0022   -0.0002    0.0122   -0.0000   -0.0000   -0.0000    0.0000
          22    0.0708   -0.0013    0.0999    0.2035   -0.0124   -0.1199   -0.0188   -0.1045
          23   -0.0605    0.0958   -0.1672   -0.1449   -0.0408    0.0702    0.0751   -0.0501
          24   -0.0008    0.0260   -0.0168    0.0060   -0.0116   -0.0053    0.0243   -0.0616
          25   -0.0708    0.0014    0.1067   -0.2004   -0.0124   -0.1198   -0.0188   -0.1045
          26    0.0606   -0.0960   -0.1720    0.1397   -0.0408    0.0702    0.0751   -0.0502
          27   -0.0007    0.0259    0.0164    0.0067    0.0115    0.0053   -0.0242    0.0615
          28    0.0000   -0.0000    0.0323    0.0005   -0.1190    0.0366    0.0372   -0.0368
          29   -0.0000    0.0001    0.2272    0.0035   -0.2860    0.0919    0.1149   -0.0363
          30    0.0065   -0.1304   -0.0011    0.0682   -0.0000    0.0000    0.0000    0.0000
          31    0.0000    0.0000    0.0660    0.0011    0.3068    0.2082    0.0527   -0.0741
          32   -0.0000   -0.0000    0.0238    0.0004    0.0242   -0.0192    0.0099    0.0071
          33    0.0563    0.0740    0.0008   -0.0456   -0.0001   -0.0001   -0.0000    0.0000
          34    0.0001    0.0000    0.0483    0.0007    0.0285    0.0171    0.0880   -0.0501
          35   -0.0000    0.0000    0.0396    0.0006    0.0225    0.0110    0.1084   -0.0600
          36    0.2918   -0.0049    0.0008   -0.0442    0.0000   -0.0000   -0.0000    0.0000
          37    0.0001    0.0000   -0.0138   -0.0002    0.0614   -0.0863    0.1585   -0.0487
          38   -0.0000   -0.0000    0.0024    0.0000    0.0031   -0.0003   -0.0251    0.0106
          39    0.2937    0.0251    0.0006   -0.0343   -0.0000    0.0000   -0.0001    0.0000
          40    0.0000    0.0000    0.0381    0.0006   -0.0202    0.0701   -0.1254   -0.1425
          41    0.0000    0.0000   -0.0314   -0.0005    0.0126   -0.0478    0.0615    0.0539
          42    0.0173    0.1997   -0.0015    0.0879   -0.0000    0.0000   -0.0000   -0.0000
          43   -0.0000    0.0000    0.0026    0.0000    0.0100   -0.0133   -0.0043   -0.0142
          44    0.0000    0.0000   -0.0083   -0.0001   -0.0391    0.0415    0.0893    0.1989
          45   -0.0135    0.1848   -0.0014    0.0773    0.0000   -0.0000   -0.0000   -0.0000


   Root No.      25        26        27        28        29        30        31        32

                25 A      26 A      27 A      28 A      29 A      30 A      31 A      32 A   

                1343.1    1351.0    1391.4    1424.3    1798.2    1894.2    1917.1    2975.4
  
           1   -0.0422    0.0421    0.0271    0.0478    0.0129    0.0122    0.0186   -0.0000
           2    0.0362   -0.0230    0.0703   -0.0007    0.0122   -0.0102   -0.0035    0.0000
           3    0.0000   -0.0000    0.0000   -0.0000    0.0000   -0.0000    0.0000   -0.0611
           4    0.0391   -0.0038   -0.0266   -0.0707   -0.0174   -0.0905   -0.0839   -0.0000
           5    0.0187    0.0181   -0.0182   -0.0596    0.0186    0.0915    0.1536    0.0000
           6   -0.0000    0.0000    0.0000   -0.0000   -0.0000   -0.0000   -0.0000   -0.0001
           7   -0.0261   -0.0039    0.0082   -0.0501    0.0073    0.1655   -0.1217   -0.0000
           8    0.0049   -0.0190   -0.0045    0.1373   -0.0004    0.0386   -0.0665   -0.0000
           9    0.0000   -0.0000   -0.0000    0.0000   -0.0000   -0.0000    0.0000   -0.0001
          10    0.0165   -0.0107    0.0118   -0.0068   -0.1642    0.0091    0.0188   -0.0000
          11   -0.0093    0.0283   -0.0448    0.0375   -0.1423    0.0097    0.0048   -0.0000
          12   -0.0000    0.0000   -0.0000    0.0000    0.0000    0.0000   -0.0000   -0.0001
          13    0.0186    0.0117   -0.0304    0.0649    0.1855   -0.0362    0.0056    0.0000
          14   -0.0147   -0.0065    0.0092   -0.0715    0.1079   -0.0032   -0.0161   -0.0000
          15   -0.0000   -0.0000    0.0000   -0.0000   -0.0000    0.0000   -0.0000   -0.0003
          16    0.0019   -0.0174    0.0058    0.0234    0.0150    0.0610    0.0705    0.0000
          17   -0.0151    0.0207    0.0051   -0.0166   -0.0202   -0.0817   -0.1031   -0.0000
          18    0.0000   -0.0000    0.0000    0.0000    0.0000    0.0000    0.0000   -0.0001
          19   -0.0315   -0.0153    0.0130    0.0064   -0.0207   -0.1211    0.0879    0.0000
          20   -0.0158   -0.0020    0.0062   -0.0189   -0.0025   -0.0420    0.0344    0.0000
          21    0.0000    0.0000   -0.0000   -0.0000    0.0000    0.0000   -0.0000   -0.0000
          22    0.0179   -0.1108   -0.0843   -0.0185   -0.0202   -0.0066   -0.0088   -0.1768
          23   -0.0855   -0.0213   -0.1579   -0.0243    0.0326    0.0065    0.0096   -0.2241
          24   -0.0385   -0.0615   -0.1612   -0.0384    0.0024    0.0038   -0.0050    0.3697
          25    0.0179   -0.1108   -0.0843   -0.0186   -0.0202   -0.0066   -0.0088    0.1768
          26   -0.0855   -0.0214   -0.1580   -0.0244    0.0326    0.0065    0.0095    0.2238
          27    0.0384    0.0615    0.1610    0.0384   -0.0023   -0.0038    0.0050    0.3701
          28   -0.0001   -0.0222    0.0520   -0.0390   -0.1282    0.0074    0.0236    0.0000
          29   -0.0648   -0.0067    0.0747   -0.0688    0.0993   -0.0021   -0.0118   -0.0000
          30   -0.0000    0.0000    0.0000   -0.0000    0.0001   -0.0000   -0.0000   -0.0013
          31   -0.0180   -0.0684    0.0764   -0.0166   -0.0466    0.0258   -0.0171   -0.0000
          32   -0.0154   -0.0047    0.0051   -0.0724    0.1540   -0.0076   -0.0247   -0.0000
          33   -0.0000    0.0000   -0.0000   -0.0000    0.0001   -0.0000    0.0000   -0.0008
          34    0.1179    0.0443   -0.0246    0.0619   -0.0142   -0.0537    0.0349    0.0000
          35    0.1728    0.0723   -0.0423    0.0590    0.0138    0.0811   -0.0614   -0.0000
          36   -0.0000   -0.0000    0.0000   -0.0000    0.0000    0.0000   -0.0000   -0.0002
          37    0.1787    0.0998   -0.0371   -0.0691    0.0091    0.0222   -0.0002    0.0000
          38   -0.0565   -0.0249    0.0165    0.0010   -0.0106   -0.0947    0.0697    0.0000
          39   -0.0001   -0.0000    0.0000    0.0000   -0.0000   -0.0000    0.0000    0.0002
          40   -0.0279    0.1412   -0.0112   -0.0969   -0.0154   -0.0603   -0.0566   -0.0000
          41   -0.0008   -0.0482    0.0114    0.0302   -0.0112   -0.0501   -0.0740   -0.0000
          42    0.0000    0.0000   -0.0000    0.0000   -0.0000    0.0000    0.0000    0.0005
          43   -0.0027   -0.0066    0.0070    0.0192    0.0170    0.0729    0.0848    0.0000
          44    0.0776   -0.1425   -0.0273    0.0118    0.0084    0.0287    0.0403   -0.0000
          45   -0.0000    0.0000    0.0000   -0.0000   -0.0000    0.0000   -0.0000   -0.0009


   Root No.      33        34        35        36        37        38        39

                33 A      34 A      35 A      36 A      37 A      38 A      39 A   

                3047.3    3119.7    3131.7    3137.0    3138.3    3143.7    3144.1
  
           1   -0.0261    0.0001    0.0002    0.0001   -0.0010   -0.0000    0.0003
           2   -0.0332    0.0004   -0.0001   -0.0002   -0.0014   -0.0001   -0.0003
           3   -0.0000    0.0000    0.0000    0.0000    0.0000    0.0000   -0.0000
           4   -0.0008    0.0000    0.0013    0.0018    0.0004    0.0008   -0.0027
           5   -0.0000    0.0002   -0.0023   -0.0027   -0.0007   -0.0004    0.0030
           6    0.0000    0.0000    0.0000    0.0000   -0.0000   -0.0000   -0.0000
           7    0.0005    0.0001    0.0028   -0.0027    0.0020    0.0025   -0.0006
           8    0.0003    0.0001    0.0013   -0.0010    0.0004    0.0005    0.0003
           9   -0.0000    0.0000   -0.0000    0.0000   -0.0000   -0.0000    0.0000
          10    0.0011   -0.0311    0.0028   -0.0046   -0.0387   -0.0015    0.0014
          11   -0.0011    0.0106   -0.0007    0.0011    0.0078    0.0003   -0.0003
          12   -0.0000    0.0000   -0.0000    0.0000    0.0000    0.0000   -0.0000
          13    0.0003   -0.0017    0.0000    0.0004    0.0052   -0.0001   -0.0002
          14   -0.0003   -0.0428   -0.0010    0.0033    0.0319    0.0017   -0.0011
          15   -0.0000   -0.0000   -0.0000    0.0000    0.0000    0.0000   -0.0000
          16    0.0000   -0.0004   -0.0284   -0.0258    0.0017   -0.0059   -0.0317
          17   -0.0001   -0.0000    0.0045    0.0081   -0.0020    0.0019   -0.0564
          18    0.0000    0.0000    0.0000   -0.0000    0.0000   -0.0000    0.0000
          19   -0.0001   -0.0011   -0.0293    0.0228   -0.0059    0.0024    0.0037
          20   -0.0000   -0.0003    0.0095   -0.0001    0.0025   -0.0586   -0.0012
          21   -0.0000    0.0000    0.0000   -0.0000    0.0000   -0.0000   -0.0000
          22    0.1566   -0.0007   -0.0001    0.0003    0.0030    0.0001    0.0005
          23    0.1982    0.0009   -0.0004    0.0003    0.0055    0.0001    0.0000
          24   -0.3870   -0.0001    0.0006   -0.0006   -0.0090   -0.0002   -0.0005
          25    0.1565   -0.0007   -0.0001    0.0003    0.0030    0.0001    0.0005
          26    0.1977    0.0009   -0.0004    0.0003    0.0055    0.0001    0.0000
          27    0.3871    0.0001   -0.0006    0.0006    0.0090    0.0002    0.0005
          28   -0.0144    0.3752   -0.0310    0.0491    0.3988    0.0142   -0.0136
          29    0.0029   -0.1224    0.0100   -0.0157   -0.1275   -0.0045    0.0043
          30    0.0000   -0.0002    0.0000   -0.0000   -0.0002   -0.0000    0.0000
          31    0.0007    0.0141    0.0004   -0.0011   -0.0113   -0.0014    0.0004
          32    0.0122    0.4975    0.0109   -0.0339   -0.3316   -0.0180    0.0112
          33    0.0000    0.0001    0.0000   -0.0000   -0.0001   -0.0000    0.0000
          34   -0.0006    0.0102    0.2992   -0.2110    0.0578   -0.1806   -0.0374
          35    0.0004   -0.0079   -0.2321    0.1668   -0.0449    0.1241    0.0298
          36    0.0000   -0.0000   -0.0001    0.0001   -0.0000    0.0001    0.0000
          37    0.0000    0.0024    0.0144   -0.0270    0.0006    0.1243   -0.0017
          38   -0.0001    0.0094    0.1057   -0.1531    0.0127    0.5652   -0.0128
          39   -0.0000    0.0000    0.0000   -0.0000    0.0000    0.0000   -0.0000
          40   -0.0011   -0.0001   -0.0270   -0.0426    0.0107   -0.0098    0.2639
          41   -0.0013    0.0000   -0.0459   -0.0847    0.0242   -0.0195    0.6414
          42    0.0000   -0.0000    0.0000    0.0000   -0.0000    0.0000   -0.0001
          43    0.0006    0.0047    0.3466    0.3292   -0.0298    0.0752    0.1424
          44    0.0002    0.0002    0.0182    0.0191   -0.0022    0.0049   -0.0073
          45   -0.0000   -0.0000   -0.0000   -0.0000    0.0000   -0.0000   -0.0000


           MASS-WEIGHTED COORDINATE ANALYSIS (NORMAL COORDINATES)


   Root No.       1         2         3         4         5         6         7         8

                 1 A       2 A       3 A       4 A       5 A       6 A       7 A       8 A   

                  97.8     261.9     309.5     397.2     426.9     580.2     601.6     614.4
  
           1   -0.0000    0.0001    0.1061    0.0003    0.2540   -0.0003   -0.3106    0.0002
           2   -0.0001   -0.0000   -0.0055    0.0001   -0.0902   -0.0003   -0.2338    0.0002
           3    0.4535    0.0863    0.0000   -0.1282    0.0001   -0.0296   -0.0000   -0.0268
           4   -0.0000    0.0001    0.1249    0.0002    0.2019   -0.0003   -0.2837    0.0002
           5    0.0000   -0.0000   -0.0446    0.0001    0.2970    0.0002    0.2134   -0.0002
           6    0.0366    0.3365    0.0000    0.4800   -0.0004   -0.2888    0.0006    0.0629
           7   -0.0000    0.0001    0.1301   -0.0000   -0.0084    0.0003    0.3278   -0.0003
           8   -0.0000   -0.0000   -0.0305    0.0002    0.3636   -0.0000    0.0438    0.0000
           9   -0.0154    0.4522   -0.0001    0.2132   -0.0001    0.2485   -0.0003   -0.2842
          10   -0.0000   -0.0001    0.0928   -0.0000   -0.0770    0.0001    0.0254   -0.0001
          11    0.0001    0.0002   -0.0347   -0.0002   -0.2146   -0.0002   -0.2377    0.0002
          12   -0.1048   -0.4520    0.0000    0.2549   -0.0002    0.0982   -0.0002   -0.1077
          13   -0.0001    0.0000    0.0951   -0.0003   -0.2546    0.0002    0.1243   -0.0001
          14    0.0001    0.0000   -0.0581    0.0002    0.0764   -0.0002   -0.3099    0.0002
          15   -0.3820    0.2595   -0.0001   -0.3248    0.0003   -0.0903    0.0001    0.1489
          16    0.0000    0.0000   -0.3682   -0.0001   -0.2723   -0.0002   -0.2380    0.0002
          17   -0.0000   -0.0001   -0.3961   -0.0001   -0.0280    0.0003    0.3362   -0.0003
          18   -0.4005   -0.1911    0.0000   -0.1602    0.0001    0.0437   -0.0001   -0.0129
          19    0.0001   -0.0001   -0.0729    0.0000    0.1983    0.0003    0.3652   -0.0003
          20   -0.0000    0.0000    0.5349   -0.0002   -0.1860    0.0001    0.1411   -0.0001
          21    0.3697   -0.2857    0.0000   -0.0581   -0.0001   -0.0358   -0.0001    0.0212
          22    0.0794   -0.0416    0.0321   -0.1706    0.1223    0.1754   -0.0817    0.0060
          23    0.1253    0.1141   -0.0036   -0.1959   -0.0664    0.0643   -0.0868    0.0960
          24    0.2420    0.0738   -0.0002   -0.2367   -0.0000    0.1157   -0.0053    0.0542
          25   -0.0795    0.0417    0.0321    0.1708    0.1219   -0.1757   -0.0813   -0.0058
          26   -0.1254   -0.1142   -0.0036    0.1961   -0.0667   -0.0646   -0.0868   -0.0960
          27    0.2418    0.0737    0.0002   -0.2365    0.0004    0.1156    0.0051    0.0541
          28   -0.0000   -0.0001    0.0275   -0.0000   -0.0499    0.0001    0.0326    0.0000
          29    0.0001    0.0001   -0.0088   -0.0002   -0.1473   -0.0000    0.0121   -0.0000
          30   -0.0714   -0.3506    0.0000    0.1864   -0.0001    0.0718    0.0000    0.0880
          31   -0.0000    0.0000    0.0298   -0.0002   -0.1779   -0.0000   -0.0279    0.0001
          32    0.0001   -0.0000   -0.0163    0.0001    0.0247   -0.0000   -0.0878   -0.0000
          33   -0.2317    0.1161   -0.0001   -0.2673    0.0002   -0.1397    0.0004    0.3925
          34    0.0001   -0.0001    0.0808   -0.0000   -0.0764    0.0001    0.1502    0.0001
          35   -0.0000    0.0000    0.2938   -0.0002   -0.2356    0.0001    0.0976   -0.0001
          36    0.2084   -0.1854    0.0000    0.1594   -0.0001    0.0312    0.0005    0.6499
          37    0.0000   -0.0001   -0.1957    0.0001    0.2788   -0.0000    0.0636   -0.0002
          38   -0.0000    0.0000    0.1955   -0.0001   -0.1056    0.0001    0.0530    0.0000
          39    0.1048   -0.1809    0.0000   -0.2740    0.0001   -0.1568   -0.0004   -0.5188
          40    0.0000   -0.0000   -0.2776   -0.0002   -0.2912   -0.0000   -0.0174    0.0000
          41   -0.0000   -0.0000   -0.0476   -0.0000    0.0751    0.0000    0.0797   -0.0001
          42   -0.1235   -0.1922    0.0000   -0.2252    0.0001   -0.5064    0.0004   -0.0482
          43    0.0000    0.0000   -0.1018   -0.0000   -0.0724   -0.0001   -0.0737    0.0001
          44   -0.0000   -0.0000   -0.2899   -0.0002   -0.2316    0.0003    0.1808   -0.0001
          45   -0.2220   -0.0647    0.0000   -0.0615    0.0001    0.6554   -0.0007    0.0135


   Root No.       9        10        11        12        13        14        15        16

                 9 A      10 A      11 A      12 A      13 A      14 A      15 A      16 A   

                 700.6     763.9     781.2     867.6     911.9     918.4     959.2     978.7
  
           1   -0.0000    0.0313   -0.0001   -0.2078    0.3167    0.0000   -0.2404   -0.0001
           2    0.0000   -0.3541    0.0005   -0.0630    0.1319   -0.0002   -0.0751   -0.0001
           3   -0.0622   -0.0004   -0.2179   -0.0000    0.0001    0.4146   -0.0000    0.2246
           4   -0.0000   -0.1845    0.0003   -0.0352   -0.1015   -0.0000    0.0297   -0.0000
           5   -0.0000    0.0212   -0.0001   -0.2535   -0.0062   -0.0000   -0.0918   -0.0000
           6   -0.4095    0.0002    0.0510   -0.0000   -0.0000   -0.2189    0.0000   -0.0886
           7    0.0001   -0.2144    0.0003    0.0636    0.0536    0.0000    0.0553    0.0000
           8   -0.0001    0.0621   -0.0001    0.2658   -0.0192    0.0000    0.1048    0.0000
           9    0.4755    0.0004    0.2888   -0.0000   -0.0000    0.1538   -0.0000   -0.0151
          10    0.0000    0.5989   -0.0008    0.0624   -0.0345    0.0001    0.0625   -0.0001
          11   -0.0000   -0.1650    0.0003   -0.0283   -0.0240   -0.0000   -0.0417    0.0001
          12    0.0943   -0.0003   -0.1650   -0.0000    0.0000   -0.0938    0.0000   -0.2933
          13   -0.0000    0.2061   -0.0004   -0.0767   -0.1268   -0.0000   -0.1895    0.0000
          14    0.0000    0.3965   -0.0004    0.1540    0.1333    0.0001    0.3330    0.0000
          15    0.0185   -0.0003   -0.2649    0.0001    0.0000   -0.3267    0.0000    0.2825
          16    0.0000   -0.1481    0.0002    0.0102   -0.3483   -0.0000    0.2222    0.0001
          17    0.0000    0.1144   -0.0002   -0.3642   -0.1375    0.0000   -0.0720   -0.0000
          18    0.0058    0.0000    0.0071    0.0000   -0.0000   -0.0942    0.0000   -0.2537
          19   -0.0000   -0.2634    0.0003    0.1426    0.1321   -0.0000    0.2680    0.0001
          20   -0.0000   -0.0403    0.0000    0.3313   -0.1627    0.0000   -0.2233   -0.0000
          21   -0.0061    0.0001    0.0161   -0.0000   -0.0001    0.0708   -0.0001   -0.0752
          22    0.1173   -0.0127    0.0673   -0.1565    0.1624   -0.1193   -0.2025   -0.3152
          23   -0.0383   -0.1030    0.2226    0.0382    0.0048   -0.3027    0.0540    0.0457
          24    0.0142   -0.0070    0.1058   -0.0091    0.0127   -0.1222   -0.0139   -0.0585
          25   -0.1174   -0.0128   -0.0673   -0.1565    0.1624    0.1193   -0.2027    0.3153
          26    0.0384   -0.1037   -0.2225    0.0382    0.0048    0.3029    0.0541   -0.0457
          27    0.0142    0.0072    0.1056    0.0091   -0.0126   -0.1220    0.0139   -0.0585
          28   -0.0000    0.1670   -0.0000    0.0192   -0.0767    0.0000   -0.0109    0.0001
          29    0.0000   -0.0781   -0.0001    0.0033   -0.2146    0.0000   -0.0894   -0.0001
          30   -0.1202    0.0008    0.6974   -0.0001   -0.0001   -0.0500   -0.0002    0.3797
          31   -0.0001    0.0210    0.0000   -0.1730   -0.1063    0.0001   -0.3417   -0.0002
          32    0.0001    0.1169   -0.0002    0.0512    0.0406   -0.0001    0.1085    0.0001
          33   -0.2813    0.0003    0.2871    0.0000    0.0001    0.5450    0.0002   -0.3469
          34    0.0000   -0.1035    0.0001   -0.1574    0.2114   -0.0001    0.3421    0.0001
          35   -0.0000   -0.0426    0.0001   -0.1801    0.1839   -0.0000    0.2891    0.0001
          36    0.1555   -0.0002   -0.1907    0.0001   -0.0000   -0.1348   -0.0001    0.1251
          37   -0.0001   -0.0744    0.0001    0.4497   -0.2090   -0.0000   -0.2876   -0.0000
          38    0.0000   -0.0138    0.0000    0.0049    0.0118    0.0000    0.0237    0.0000
          39   -0.4180    0.0001    0.0062   -0.0001    0.0001   -0.1122    0.0001    0.0710
          40    0.0000   -0.0270    0.0001    0.3148    0.3502   -0.0000   -0.0886   -0.0000
          41    0.0001    0.0277   -0.0001   -0.2333   -0.2152    0.0000    0.0353    0.0001
          42    0.4652    0.0002    0.1137    0.0000    0.0000    0.1189   -0.0000    0.2792
          43   -0.0000   -0.0469    0.0001    0.0009   -0.1188   -0.0000    0.0742    0.0000
          44   -0.0000    0.0765   -0.0001    0.1323    0.4750    0.0000   -0.2472   -0.0000
          45   -0.2309   -0.0003   -0.1422   -0.0000   -0.0000    0.2027   -0.0000    0.3642


   Root No.      17        18        19        20        21        22        23        24

                17 A      18 A      19 A      20 A      21 A      22 A      23 A      24 A   

                1008.3    1017.7    1057.2    1057.9    1094.3    1178.7    1270.4    1307.8
  
           1    0.0000   -0.0001   -0.1052   -0.0017   -0.0648   -0.0094    0.3120    0.0961
           2    0.0000    0.0000   -0.3421   -0.0056   -0.1315   -0.1175   -0.1284   -0.1904
           3    0.0137   -0.2468    0.0005   -0.0327    0.0000   -0.0000   -0.0001   -0.0000
           4    0.0000    0.0000    0.0326    0.0006   -0.0943    0.3371   -0.1666    0.2785
           5    0.0000    0.0000   -0.0037    0.0000   -0.0670    0.2305   -0.2240    0.0170
           6   -0.0077    0.2427   -0.0050    0.3009   -0.0000   -0.0000    0.0000    0.0000
           7    0.0001    0.0000   -0.0159   -0.0003    0.0405   -0.1165   -0.0708    0.0933
           8   -0.0000    0.0000    0.1045    0.0017   -0.0305    0.2960   -0.1266   -0.1216
           9    0.2440   -0.0042    0.0024   -0.1455    0.0000    0.0001    0.0000   -0.0000
          10    0.0000    0.0000   -0.2126   -0.0035   -0.1415   -0.0047   -0.0311   -0.1163
          11   -0.0000   -0.0000    0.2772    0.0046    0.1189   -0.1890   -0.0956    0.2826
          12   -0.0302    0.3320    0.0043   -0.2541    0.0001   -0.0000   -0.0000    0.0001
          13    0.0000   -0.0001   -0.0554   -0.0008   -0.0638   -0.0757   -0.2275    0.0759
          14   -0.0000    0.0000    0.1727    0.0028    0.2265   -0.1018    0.1097    0.0316
          15   -0.0923   -0.1779   -0.0023    0.1446    0.0001    0.0000    0.0001   -0.0000
          16   -0.0000    0.0000    0.0139    0.0002    0.0603   -0.1060    0.0401    0.0019
          17    0.0000   -0.0001   -0.1144   -0.0019    0.0137   -0.1179    0.0433   -0.0994
          18    0.0037   -0.3887    0.0032   -0.1897    0.0000    0.0000   -0.0000    0.0000
          19   -0.0002    0.0000    0.1032    0.0017    0.1194   -0.0198    0.0156   -0.0043
          20    0.0001    0.0000   -0.0402   -0.0007    0.0745   -0.1504    0.0357    0.0256
          21   -0.4886   -0.0168   -0.0016    0.0959   -0.0000   -0.0000   -0.0000    0.0000
          22    0.1342   -0.0030    0.2172    0.4637   -0.0255   -0.2855   -0.0491   -0.2665
          23   -0.1147    0.2147   -0.3636   -0.3302   -0.0837    0.1672    0.1966   -0.1277
          24   -0.0015    0.0582   -0.0365    0.0138   -0.0237   -0.0126    0.0637   -0.1570
          25   -0.1343    0.0031    0.2321   -0.4565   -0.0255   -0.2852   -0.0491   -0.2664
          26    0.1148   -0.2150   -0.3740    0.3182   -0.0836    0.1670    0.1967   -0.1279
          27   -0.0014    0.0580    0.0357    0.0152    0.0236    0.0127   -0.0635    0.1569
          28    0.0000   -0.0001    0.0701    0.0012   -0.2441    0.0870    0.0974   -0.0938
          29   -0.0000    0.0002    0.4940    0.0080   -0.5867    0.2188    0.3007   -0.0924
          30    0.0124   -0.2922   -0.0024    0.1554   -0.0001    0.0000    0.0001    0.0000
          31    0.0000    0.0001    0.1434    0.0024    0.6293    0.4956    0.1381   -0.1890
          32   -0.0000   -0.0000    0.0518    0.0009    0.0496   -0.0458    0.0258    0.0182
          33    0.1067    0.1658    0.0017   -0.1038   -0.0001   -0.0001   -0.0000    0.0001
          34    0.0001    0.0000    0.1049    0.0017    0.0585    0.0407    0.2304   -0.1276
          35   -0.0001    0.0000    0.0862    0.0014    0.0462    0.0261    0.2837   -0.1531
          36    0.5533   -0.0110    0.0017   -0.1008    0.0000   -0.0000   -0.0000    0.0000
          37    0.0002    0.0000   -0.0300   -0.0005    0.1259   -0.2054    0.4149   -0.1242
          38   -0.0001   -0.0000    0.0053    0.0001    0.0064   -0.0007   -0.0657    0.0270
          39    0.5569    0.0563    0.0013   -0.0782   -0.0000    0.0001   -0.0001    0.0000
          40    0.0000    0.0000    0.0828    0.0014   -0.0414    0.1669   -0.3283   -0.3632
          41    0.0000    0.0000   -0.0683   -0.0011    0.0258   -0.1138    0.1609    0.1374
          42    0.0329    0.4474   -0.0034    0.2004   -0.0000    0.0000   -0.0000   -0.0000
          43   -0.0000    0.0000    0.0058    0.0001    0.0205   -0.0318   -0.0112   -0.0361
          44    0.0000    0.0000   -0.0181   -0.0002   -0.0803    0.0988    0.2337    0.5071
          45   -0.0256    0.4141   -0.0030    0.1761    0.0000   -0.0000   -0.0000   -0.0001


   Root No.      25        26        27        28        29        30        31        32

                25 A      26 A      27 A      28 A      29 A      30 A      31 A      32 A   

                1343.1    1351.0    1391.4    1424.3    1798.2    1894.2    1917.1    2975.4
  
           1   -0.3218    0.3642    0.1844    0.2192    0.0407    0.0439    0.0665   -0.0000
           2    0.2759   -0.1987    0.4786   -0.0032    0.0385   -0.0367   -0.0127    0.0001
           3    0.0001   -0.0001    0.0002   -0.0000    0.0000   -0.0000    0.0000   -0.3041
           4    0.2981   -0.0325   -0.1809   -0.3246   -0.0550   -0.3267   -0.3008   -0.0000
           5    0.1424    0.1565   -0.1242   -0.2735    0.0587    0.3303    0.5504    0.0000
           6   -0.0000    0.0000    0.0000   -0.0000   -0.0000   -0.0000   -0.0000   -0.0006
           7   -0.1993   -0.0339    0.0562   -0.2297    0.0230    0.5974   -0.4362   -0.0000
           8    0.0371   -0.1645   -0.0306    0.6298   -0.0013    0.1394   -0.2383   -0.0000
           9    0.0001   -0.0000   -0.0000    0.0001   -0.0000   -0.0002    0.0001   -0.0005
          10    0.1260   -0.0928    0.0802   -0.0314   -0.5192    0.0327    0.0673   -0.0000
          11   -0.0711    0.2450   -0.3048    0.1720   -0.4497    0.0352    0.0174   -0.0000
          12   -0.0001    0.0001   -0.0001    0.0000    0.0000    0.0000   -0.0000   -0.0007
          13    0.1418    0.1015   -0.2069    0.2979    0.5864   -0.1309    0.0200    0.0000
          14   -0.1120   -0.0562    0.0629   -0.3280    0.3409   -0.0116   -0.0576   -0.0000
          15   -0.0001   -0.0000    0.0001   -0.0001   -0.0001    0.0000   -0.0000   -0.0014
          16    0.0142   -0.1503    0.0393    0.1074    0.0475    0.2203    0.2525    0.0000
          17   -0.1150    0.1788    0.0344   -0.0763   -0.0638   -0.2951   -0.3695   -0.0000
          18    0.0000   -0.0000    0.0000    0.0000    0.0000    0.0000    0.0000   -0.0006
          19   -0.2406   -0.1321    0.0883    0.0295   -0.0654   -0.4372    0.3151    0.0000
          20   -0.1202   -0.0174    0.0424   -0.0868   -0.0080   -0.1517    0.1231    0.0000
          21    0.0001    0.0000   -0.0000   -0.0000    0.0000    0.0001   -0.0001   -0.0001
          22    0.0396   -0.2777   -0.1663   -0.0246   -0.0185   -0.0069   -0.0091   -0.2549
          23   -0.1889   -0.0535   -0.3114   -0.0323    0.0298    0.0068    0.0099   -0.3232
          24   -0.0850   -0.1542   -0.3180   -0.0511    0.0022    0.0039   -0.0052    0.5331
          25    0.0396   -0.2776   -0.1664   -0.0247   -0.0185   -0.0069   -0.0091    0.2549
          26   -0.1889   -0.0536   -0.3117   -0.0324    0.0298    0.0068    0.0099    0.3228
          27    0.0848    0.1541    0.3176    0.0511   -0.0021   -0.0039    0.0052    0.5336
          28   -0.0003   -0.0555    0.1027   -0.0518   -0.1174    0.0077    0.0245    0.0000
          29   -0.1433   -0.0169    0.1472   -0.0915    0.0909   -0.0022   -0.0122   -0.0000
          30   -0.0000    0.0000    0.0000   -0.0000    0.0001   -0.0000   -0.0000   -0.0018
          31   -0.0399   -0.1715    0.1507   -0.0221   -0.0427    0.0270   -0.0177   -0.0000
          32   -0.0340   -0.0117    0.0100   -0.0962    0.1411   -0.0079   -0.0257   -0.0000
          33   -0.0000    0.0000   -0.0000   -0.0000    0.0000   -0.0000    0.0000   -0.0011
          34    0.2606    0.1109   -0.0486    0.0822   -0.0130   -0.0561    0.0363    0.0000
          35    0.3820    0.1812   -0.0834    0.0783    0.0126    0.0848   -0.0637   -0.0000
          36   -0.0000   -0.0000    0.0000   -0.0000    0.0000    0.0000   -0.0000   -0.0002
          37    0.3949    0.2501   -0.0732   -0.0919    0.0083    0.0232   -0.0002    0.0000
          38   -0.1248   -0.0625    0.0325    0.0013   -0.0097   -0.0990    0.0724    0.0000
          39   -0.0001   -0.0001    0.0000    0.0000   -0.0000   -0.0000    0.0000    0.0002
          40   -0.0616    0.3540   -0.0220   -0.1287   -0.0141   -0.0631   -0.0587   -0.0000
          41   -0.0018   -0.1209    0.0225    0.0401   -0.0103   -0.0524   -0.0768   -0.0000
          42    0.0000    0.0000   -0.0000    0.0000   -0.0000    0.0000    0.0000    0.0008
          43   -0.0060   -0.0164    0.0138    0.0255    0.0155    0.0763    0.0880    0.0000
          44    0.1716   -0.3571   -0.0538    0.0157    0.0077    0.0300    0.0418   -0.0000
          45   -0.0000    0.0000    0.0000   -0.0000   -0.0000    0.0000   -0.0000   -0.0014


   Root No.      33        34        35        36        37        38        39

                33 A      34 A      35 A      36 A      37 A      38 A      39 A   

                3047.3    3119.7    3131.7    3137.0    3138.3    3143.7    3144.1
  
           1   -0.1347    0.0004    0.0012    0.0004   -0.0062   -0.0002    0.0013
           2   -0.1712    0.0019   -0.0004   -0.0013   -0.0087   -0.0004   -0.0013
           3   -0.0000    0.0000    0.0000    0.0000    0.0000    0.0000   -0.0000
           4   -0.0040    0.0003    0.0082    0.0127    0.0026    0.0041   -0.0123
           5   -0.0001    0.0010   -0.0143   -0.0193   -0.0039   -0.0021    0.0138
           6    0.0000    0.0000    0.0000    0.0000   -0.0000   -0.0000   -0.0000
           7    0.0028    0.0004    0.0179   -0.0193    0.0119    0.0132   -0.0028
           8    0.0016    0.0008    0.0084   -0.0072    0.0022    0.0024    0.0014
           9   -0.0000    0.0000   -0.0000    0.0000   -0.0000   -0.0000    0.0000
          10    0.0057   -0.1619    0.0173   -0.0332   -0.2345   -0.0077    0.0065
          11   -0.0056    0.0552   -0.0045    0.0077    0.0474    0.0015   -0.0012
          12   -0.0000    0.0001   -0.0000    0.0000    0.0001    0.0000   -0.0000
          13    0.0013   -0.0089    0.0002    0.0028    0.0313   -0.0008   -0.0008
          14   -0.0017   -0.2229   -0.0064    0.0236    0.1936    0.0088   -0.0053
          15   -0.0000   -0.0000   -0.0000    0.0000    0.0000    0.0000   -0.0000
          16    0.0002   -0.0019   -0.1785   -0.1843    0.0105   -0.0308   -0.1471
          17   -0.0003   -0.0000    0.0282    0.0576   -0.0122    0.0099   -0.2613
          18    0.0000    0.0000    0.0000   -0.0000    0.0000   -0.0000    0.0000
          19   -0.0003   -0.0056   -0.1845    0.1626   -0.0356    0.0124    0.0171
          20   -0.0002   -0.0016    0.0599   -0.0005    0.0149   -0.3080   -0.0055
          21   -0.0000    0.0000    0.0001   -0.0001    0.0000   -0.0000   -0.0000
          22    0.2337   -0.0011   -0.0002    0.0006    0.0052    0.0001    0.0007
          23    0.2959    0.0014   -0.0008    0.0006    0.0096    0.0002    0.0000
          24   -0.5778   -0.0002    0.0010   -0.0013   -0.0158   -0.0003   -0.0007
          25    0.2336   -0.0011   -0.0002    0.0006    0.0052    0.0001    0.0007
          26    0.2952    0.0014   -0.0008    0.0006    0.0096    0.0002    0.0000
          27    0.5779    0.0002   -0.0010    0.0013    0.0158    0.0003    0.0007
          28   -0.0214    0.5666   -0.0566    0.1015    0.7001    0.0217   -0.0182
          29    0.0043   -0.1849    0.0182   -0.0325   -0.2238   -0.0069    0.0058
          30    0.0000   -0.0002    0.0000   -0.0000   -0.0003   -0.0000    0.0000
          31    0.0011    0.0214    0.0008   -0.0023   -0.0199   -0.0022    0.0005
          32    0.0182    0.7514    0.0199   -0.0702   -0.5822   -0.0274    0.0150
          33    0.0000    0.0002    0.0000   -0.0000   -0.0001   -0.0000    0.0000
          34   -0.0009    0.0155    0.5456   -0.4366    0.1014   -0.2750   -0.0503
          35    0.0007   -0.0119   -0.4233    0.3452   -0.0789    0.1890    0.0400
          36    0.0000   -0.0000   -0.0002    0.0002   -0.0000    0.0001    0.0000
          37    0.0000    0.0036    0.0262   -0.0558    0.0011    0.1893   -0.0023
          38   -0.0002    0.0141    0.1928   -0.3168    0.0223    0.8607   -0.0171
          39   -0.0000    0.0000    0.0000   -0.0000    0.0000    0.0000   -0.0000
          40   -0.0017   -0.0002   -0.0493   -0.0882    0.0187   -0.0149    0.3543
          41   -0.0019    0.0000   -0.0836   -0.1753    0.0424   -0.0297    0.8614
          42    0.0000   -0.0000    0.0000    0.0000   -0.0000    0.0000   -0.0001
          43    0.0009    0.0071    0.6321    0.6812   -0.0524    0.1146    0.1913
          44    0.0002    0.0003    0.0332    0.0395   -0.0038    0.0074   -0.0098
          45   -0.0000   -0.0000   -0.0000   -0.0000    0.0000   -0.0000   -0.0000


          DESCRIPTION OF VIBRATIONS


 VIBRATION          1    1A           ATOM PAIR      ENERGY CONTRIBUTION    RADIAL
 FREQUENCY            97.82         C  1 -- C  4         +21.9% (508.8%)      0.0%
 TRANSITION DIPOLE   0.0560         C  1 -- C  2         +19.8% (483.8%)      0.0%
 TRAVEL (Ang.)       0.7229         C  1 -- H  8         +17.2% (450.5%)     99.6%
 REDUCED MASS        1.3191         C  1 -- H  9         +17.2% (450.5%)     99.6%
 EFFECTIVE MASS    218.4666
 FORCE CONSTANT      0.0074

 VIBRATION          2    2A           ATOM PAIR      ENERGY CONTRIBUTION    RADIAL
 FREQUENCY           261.91         C  3 -- C  7         +18.4% (136.5%)      0.0%
 TRANSITION DIPOLE   0.2136         C  4 -- C  5         +17.9% (134.8%)      0.0%
 TRAVEL (Ang.)       0.4402         C  1 -- C  4         +12.7% (113.3%)      0.0%
 REDUCED MASS        1.3286         C  2 -- C  6         +10.1% (101.3%)      0.0%
 EFFECTIVE MASS     24.1514
 FORCE CONSTANT      0.0537

 VIBRATION          3    3A           ATOM PAIR      ENERGY CONTRIBUTION    RADIAL
 FREQUENCY           309.48         C  2 -- C  6         +18.7% (205.4%)      0.0%
 TRANSITION DIPOLE   0.0120         C  3 -- C  7         +18.7% (205.3%)      0.0%
 TRAVEL (Ang.)       0.3229         C  6 -- H 15         +14.4% (180.2%)     89.3%
 REDUCED MASS        2.0893         C  7 -- H 12         +14.3% (179.8%)     88.1%
 EFFECTIVE MASS     54.2023         C  6 -- H 14         +11.5% (160.7%)     98.2%
 FORCE CONSTANT      0.1179         C  7 -- H 13         +11.3% (159.6%)     98.2%

 VIBRATION          4    4A           ATOM PAIR      ENERGY CONTRIBUTION    RADIAL
 FREQUENCY           397.19         C  1 -- H  9         +14.8% ( 91.5%)      5.8%
 TRANSITION DIPOLE   0.2771         C  1 -- H  8         +14.8% ( 91.5%)      5.8%
 TRAVEL (Ang.)       0.4333         C  1 -- C  2         +13.9% ( 88.5%)      0.0%
 REDUCED MASS        0.9042         C  2 -- C  6         +12.8% ( 85.1%)      0.0%
 EFFECTIVE MASS     13.0853
 FORCE CONSTANT      0.0840

 VIBRATION          5    5A           ATOM PAIR      ENERGY CONTRIBUTION    RADIAL
 FREQUENCY           426.90         C  3 -- C  7         +12.0% (125.2%)      0.0%
 TRANSITION DIPOLE   0.0219         C  2 -- C  6         +11.5% (122.6%)      0.0%
 TRAVEL (Ang.)       0.4669         C  3 -- C  5          +9.5% (111.3%)      1.2%
 REDUCED MASS        0.7246         C  2 -- C  3          +9.0% (108.5%)      0.0%
 EFFECTIVE MASS     19.3947
 FORCE CONSTANT      0.0778

 VIBRATION          6    6A           ATOM PAIR      ENERGY CONTRIBUTION    RADIAL
 FREQUENCY           580.21         C  6 -- H 15         +31.2% ( 81.6%)      0.0%
 TRANSITION DIPOLE   0.0429         C  6 -- H 14         +21.6% ( 67.9%)      0.0%
 TRAVEL (Ang.)       0.5463         C  2 -- C  3         +10.6% ( 47.5%)      0.0%
 REDUCED MASS        0.3894         C  1 -- H  9          +7.7% ( 40.7%)      0.8%
 EFFECTIVE MASS      3.6471
 FORCE CONSTANT      0.0772

 VIBRATION          7    7A           ATOM PAIR      ENERGY CONTRIBUTION    RADIAL
 FREQUENCY           601.58         C  2 -- C  3         +13.9% (124.3%)      0.1%
 TRANSITION DIPOLE   0.0884         C  1 -- C  2         +10.1% (106.2%)      0.4%
 TRAVEL (Ang.)       0.2801         C  3 -- C  5          +8.9% ( 99.6%)      0.6%
 REDUCED MASS        1.4286         C  6 -- H 15          +8.4% ( 97.0%)     48.2%
 EFFECTIVE MASS     16.7677
 FORCE CONSTANT      0.3046

 VIBRATION          8    8A           ATOM PAIR      ENERGY CONTRIBUTION    RADIAL
 FREQUENCY           614.38         C  7 -- H 12         +36.3% ( 77.3%)      0.0%
 TRANSITION DIPOLE   0.2202         C  7 -- H 13         +24.9% ( 64.0%)      0.0%
 TRAVEL (Ang.)       0.5498         C  5 -- H 11          +9.8% ( 40.2%)      0.0%
 REDUCED MASS        0.3631         C  3 -- C  5          +7.7% ( 35.6%)      0.0%
 EFFECTIVE MASS      2.7100
 FORCE CONSTANT      0.0808

 VIBRATION          9    9A           ATOM PAIR      ENERGY CONTRIBUTION    RADIAL
 FREQUENCY           700.57         C  2 -- C  3         +24.0% ( 64.6%)      0.0%
 TRANSITION DIPOLE   0.1921         C  6 -- H 14         +13.8% ( 49.0%)      0.0%
 TRAVEL (Ang.)       0.3040         C  7 -- H 13         +11.1% ( 43.9%)      0.0%
 REDUCED MASS        1.0414         C  3 -- C  7          +9.1% ( 39.7%)      0.0%
 EFFECTIVE MASS      5.5476
 FORCE CONSTANT      0.3011

 VIBRATION         10   10A           ATOM PAIR      ENERGY CONTRIBUTION    RADIAL
 FREQUENCY           763.93         C  1 -- C  4         +18.9% (115.1%)      0.6%
 TRANSITION DIPOLE   0.0857         C  4 -- C  5         +18.2% (112.9%)      0.0%
 TRAVEL (Ang.)       0.1849         C  3 -- C  5         +12.6% ( 93.9%)      8.8%
 REDUCED MASS        2.5811         C  4 -- H 10         +12.0% ( 91.6%)     98.8%
 EFFECTIVE MASS     16.2830
 FORCE CONSTANT      0.8875

 VIBRATION         11   11A           ATOM PAIR      ENERGY CONTRIBUTION    RADIAL
 FREQUENCY           781.22         C  4 -- H 10         +35.8% ( 76.9%)      0.0%
 TRANSITION DIPOLE   0.3923         C  1 -- H  9         +11.9% ( 44.3%)     10.7%
 TRAVEL (Ang.)       0.4457         C  1 -- H  8         +11.9% ( 44.3%)     10.8%
 REDUCED MASS        0.4345         C  5 -- H 11         +11.6% ( 43.7%)      0.0%
 EFFECTIVE MASS      3.2261
 FORCE CONSTANT      0.1562

 VIBRATION         12   12A           ATOM PAIR      ENERGY CONTRIBUTION    RADIAL
 FREQUENCY           867.59         C  7 -- H 13         +13.2% ( 68.4%)     32.0%
 TRANSITION DIPOLE   0.0540         C  7 -- H 12         +12.5% ( 66.6%)      1.4%
 TRAVEL (Ang.)       0.3479         C  2 -- C  3         +12.4% ( 66.4%)     98.6%
 REDUCED MASS        0.6420         C  6 -- H 14         +12.0% ( 65.3%)     50.8%
 EFFECTIVE MASS      8.4897         C  6 -- H 15         +11.3% ( 63.4%)      0.1%
 FORCE CONSTANT      0.2847

 VIBRATION         13   13A           ATOM PAIR      ENERGY CONTRIBUTION    RADIAL
 FREQUENCY           911.86         C  6 -- H 15         +19.1% ( 71.0%)     15.5%
 TRANSITION DIPOLE   0.0244         C  6 -- H 14         +18.4% ( 69.8%)      7.5%
 TRAVEL (Ang.)       0.3700         C  1 -- C  2          +9.3% ( 49.7%)     90.2%
 REDUCED MASS        0.5401         C  2 -- C  6          +8.0% ( 46.1%)      1.6%
 EFFECTIVE MASS      6.2813
 FORCE CONSTANT      0.2646

 VIBRATION         14   14A           ATOM PAIR      ENERGY CONTRIBUTION    RADIAL
 FREQUENCY           918.36         C  5 -- H 11         +20.1% ( 61.2%)      0.0%
 TRANSITION DIPOLE   0.3229         C  1 -- H  8         +18.6% ( 58.9%)     15.2%
 TRAVEL (Ang.)       0.3363         C  1 -- H  9         +18.6% ( 58.9%)     15.2%
 REDUCED MASS        0.6490         C  1 -- C  2         +15.2% ( 53.3%)      0.0%
 EFFECTIVE MASS      5.0109         C  1 -- C  4         +13.1% ( 49.5%)      0.0%
 FORCE CONSTANT      0.3225

 VIBRATION         15   15A           ATOM PAIR      ENERGY CONTRIBUTION    RADIAL
 FREQUENCY           959.22         C  7 -- H 12         +14.4% ( 60.8%)     23.6%
 TRANSITION DIPOLE   0.0877         C  7 -- H 13         +13.4% ( 58.7%)      4.1%
 TRAVEL (Ang.)       0.3431         C  5 -- H 11         +10.8% ( 52.8%)     71.7%
 REDUCED MASS        0.5972         C  4 -- C  5         +10.2% ( 51.3%)      0.1%
 EFFECTIVE MASS      7.1798         C  3 -- C  5         +10.1% ( 50.9%)     97.7%
 FORCE CONSTANT      0.3238

 VIBRATION         16   16A           ATOM PAIR      ENERGY CONTRIBUTION    RADIAL
 FREQUENCY           978.71         C  4 -- H 10         +14.7% ( 43.4%)      0.0%
 TRANSITION DIPOLE   0.4086         C  1 -- H  9         +13.2% ( 41.1%)      9.6%
 TRAVEL (Ang.)       0.4578         C  1 -- H  8         +13.2% ( 41.1%)      9.6%
 REDUCED MASS        0.3287         C  5 -- H 11         +12.7% ( 40.3%)      0.0%
 EFFECTIVE MASS      3.5983         C  6 -- H 15         +12.0% ( 39.1%)      0.0%
 FORCE CONSTANT      0.1855

 VIBRATION         17   17A           ATOM PAIR      ENERGY CONTRIBUTION    RADIAL
 FREQUENCY          1008.25         C  7 -- H 12         +37.7% ( 62.3%)      0.0%
 TRANSITION DIPOLE   0.6267         C  7 -- H 13         +37.7% ( 62.3%)      0.0%
 TRAVEL (Ang.)       0.2694         C  3 -- C  7         +11.3% ( 34.1%)      0.0%
 REDUCED MASS        0.9217         C  1 -- H  9          +3.3% ( 18.3%)      0.2%
 EFFECTIVE MASS      3.3069
 FORCE CONSTANT      0.5520

 VIBRATION         18   18A           ATOM PAIR      ENERGY CONTRIBUTION    RADIAL
 FREQUENCY          1017.72         C  6 -- H 14         +19.3% ( 49.6%)      0.0%
 TRANSITION DIPOLE   0.3874         C  6 -- H 15         +17.6% ( 47.4%)      0.0%
 TRAVEL (Ang.)       0.3319         C  4 -- H 10         +11.0% ( 37.4%)      0.0%
 REDUCED MASS        0.6015         C  1 -- C  4          +9.8% ( 35.5%)      0.0%
 EFFECTIVE MASS      4.6601
 FORCE CONSTANT      0.3670

 VIBRATION         19   19A           ATOM PAIR      ENERGY CONTRIBUTION    RADIAL
 FREQUENCY          1057.21         C  1 -- C  4         +21.9% ( 64.2%)     99.5%
 TRANSITION DIPOLE   0.1219         C  4 -- H 10         +16.4% ( 55.6%)     32.6%
 TRAVEL (Ang.)       0.3472         C  1 -- H  9         +14.7% ( 52.5%)     16.5%
 REDUCED MASS        0.5290         C  1 -- H  8         +14.0% ( 51.3%)     18.2%
 EFFECTIVE MASS      5.6587
 FORCE CONSTANT      0.3484

 VIBRATION         20   20A           ATOM PAIR      ENERGY CONTRIBUTION    RADIAL
 FREQUENCY          1057.94         C  1 -- H  8         +30.8% ( 56.2%)      0.1%
 TRANSITION DIPOLE   0.1123         C  1 -- H  9         +29.6% ( 55.0%)      0.1%
 TRAVEL (Ang.)       0.4085         C  2 -- C  6          +5.2% ( 23.1%)      0.0%
 REDUCED MASS        0.3819         C  4 -- H 10          +5.2% ( 23.1%)      0.0%
 EFFECTIVE MASS      2.9769
 FORCE CONSTANT      0.2519

 VIBRATION         21   21A           ATOM PAIR      ENERGY CONTRIBUTION    RADIAL
 FREQUENCY          1094.28         C  5 -- H 11         +32.2% ( 68.3%)      4.6%
 TRANSITION DIPOLE   0.0133         C  4 -- H 10         +31.2% ( 67.3%)      2.7%
 TRAVEL (Ang.)       0.3983         C  4 -- C  5          +8.3% ( 34.6%)     89.6%
 REDUCED MASS        0.3884         C  3 -- C  5          +6.4% ( 30.5%)     69.2%
 EFFECTIVE MASS      3.1201
 FORCE CONSTANT      0.2740

 VIBRATION         22   22A           ATOM PAIR      ENERGY CONTRIBUTION    RADIAL
 FREQUENCY          1178.71         C  5 -- H 11         +15.7% ( 49.7%)      1.7%
 TRANSITION DIPOLE   0.0262         C  2 -- C  6         +11.9% ( 43.4%)      0.2%
 TRAVEL (Ang.)       0.3129         C  2 -- C  3         +11.2% ( 42.1%)      2.6%
 REDUCED MASS        0.5844         C  1 -- C  2         +10.7% ( 41.1%)     49.8%
 EFFECTIVE MASS      4.7259
 FORCE CONSTANT      0.4784

 VIBRATION         23   23A           ATOM PAIR      ENERGY CONTRIBUTION    RADIAL
 FREQUENCY          1270.39         C  1 -- C  2         +13.1% ( 41.9%)     96.2%
 TRANSITION DIPOLE   0.0818         C  7 -- H 13          +9.3% ( 35.4%)      0.1%
 TRAVEL (Ang.)       0.3793         C  1 -- H  8          +9.3% ( 35.3%)      0.4%
 REDUCED MASS        0.3690         C  1 -- H  9          +9.3% ( 35.2%)      0.4%
 EFFECTIVE MASS      3.9128
 FORCE CONSTANT      0.3509

 VIBRATION         24   24A           ATOM PAIR      ENERGY CONTRIBUTION    RADIAL
 FREQUENCY          1307.78         C  6 -- H 15         +17.2% ( 45.1%)      0.0%
 TRANSITION DIPOLE   0.0844         C  1 -- C  4         +12.7% ( 38.7%)     96.8%
 TRAVEL (Ang.)       0.3955         C  6 -- H 14          +9.4% ( 33.4%)      3.5%
 REDUCED MASS        0.3297         C  1 -- H  8          +8.8% ( 32.3%)      0.3%
 EFFECTIVE MASS      3.6323
 FORCE CONSTANT      0.3322

 VIBRATION         25   25A           ATOM PAIR      ENERGY CONTRIBUTION    RADIAL
 FREQUENCY          1343.13         C  7 -- H 12         +14.8% ( 50.2%)      1.8%
 TRANSITION DIPOLE   0.0597         C  1 -- C  2         +14.1% ( 48.9%)     95.6%
 TRAVEL (Ang.)       0.2650         C  7 -- H 13         +12.3% ( 45.6%)      4.2%
 REDUCED MASS        0.7151         C  1 -- H  8          +9.4% ( 40.0%)      0.1%
 EFFECTIVE MASS      5.9180
 FORCE CONSTANT      0.7601

 VIBRATION         26   26A           ATOM PAIR      ENERGY CONTRIBUTION    RADIAL
 FREQUENCY          1351.05         C  1 -- C  4         +13.7% ( 45.4%)     72.0%
 TRANSITION DIPOLE   0.1043         C  1 -- H  8         +13.1% ( 44.4%)      0.5%
 TRAVEL (Ang.)       0.3049         C  1 -- H  9         +13.1% ( 44.4%)      0.5%
 REDUCED MASS        0.5369         C  6 -- H 14         +11.3% ( 41.3%)      2.2%
 EFFECTIVE MASS      4.8489         C  6 -- H 15         +10.4% ( 39.6%)      3.9%
 FORCE CONSTANT      0.5774

 VIBRATION         27   27A           ATOM PAIR      ENERGY CONTRIBUTION    RADIAL
 FREQUENCY          1391.36         C  1 -- H  9         +20.4% ( 58.8%)      7.0%
 TRANSITION DIPOLE   0.0837         C  1 -- H  8         +20.4% ( 58.8%)      7.0%
 TRAVEL (Ang.)       0.2090         C  1 -- C  4         +20.0% ( 58.1%)     86.6%
 REDUCED MASS        1.1099         C  1 -- C  2         +14.7% ( 49.8%)     26.9%
 EFFECTIVE MASS      6.0952
 FORCE CONSTANT      1.2660

 VIBRATION         28   28A           ATOM PAIR      ENERGY CONTRIBUTION    RADIAL
 FREQUENCY          1424.29         C  3 -- C  5         +27.0% ( 77.2%)     79.5%
 TRANSITION DIPOLE   0.3151         C  2 -- C  3         +22.9% ( 71.1%)     96.0%
 TRAVEL (Ang.)       0.1194         C  3 -- C  7         +13.8% ( 55.2%)      0.0%
 REDUCED MASS        3.3221         C  1 -- C  2          +8.0% ( 42.1%)     80.2%
 EFFECTIVE MASS     11.3485
 FORCE CONSTANT      3.9707

 VIBRATION         29   29A           ATOM PAIR      ENERGY CONTRIBUTION    RADIAL
 FREQUENCY          1798.19         C  4 -- C  5         +45.2% ( 99.8%)    100.0%
 TRANSITION DIPOLE   0.3514         C  1 -- C  4         +13.9% ( 55.3%)     20.9%
 TRAVEL (Ang.)       0.0848         C  3 -- C  5         +13.2% ( 54.0%)     17.2%
 REDUCED MASS        5.2180         C  4 -- H 10         +12.9% ( 53.3%)     10.6%
 EFFECTIVE MASS     11.8979         C  5 -- H 11         +12.7% ( 52.8%)     11.3%
 FORCE CONSTANT      9.9409

 VIBRATION         30   30A           ATOM PAIR      ENERGY CONTRIBUTION    RADIAL
 FREQUENCY          1894.16         C  3 -- C  7         +27.5% ( 78.1%)     99.4%
 TRANSITION DIPOLE   0.0560         C  2 -- C  3         +17.6% ( 62.6%)      1.0%
 TRAVEL (Ang.)       0.1083         C  2 -- C  6         +16.4% ( 60.4%)     99.0%
 REDUCED MASS        3.0364         C  3 -- C  5         +12.5% ( 52.7%)     48.4%
 EFFECTIVE MASS     11.8986
 FORCE CONSTANT      6.4186

 VIBRATION         31   31A           ATOM PAIR      ENERGY CONTRIBUTION    RADIAL
 FREQUENCY          1917.13         C  2 -- C  6         +27.2% ( 77.5%)     99.4%
 TRANSITION DIPOLE   0.1054         C  2 -- C  3         +20.5% ( 67.4%)     98.2%
 TRAVEL (Ang.)       0.1043         C  3 -- C  7         +16.3% ( 60.0%)     99.0%
 REDUCED MASS        3.2327         C  1 -- C  2         +11.9% ( 51.4%)     29.9%
 EFFECTIVE MASS     11.9191
 FORCE CONSTANT      7.0004

 VIBRATION         32   32A           ATOM PAIR      ENERGY CONTRIBUTION    RADIAL
 FREQUENCY          2975.38         C  1 -- H  9         +48.9% ( 72.5%)     96.7%
 TRANSITION DIPOLE   0.0733         C  1 -- H  8         +48.9% ( 72.5%)     96.7%
 TRAVEL (Ang.)       0.2092         C  1 -- C  2          +1.1% ( 10.8%)      0.0%
 REDUCED MASS        0.5178         C  1 -- C  4          +1.1% ( 10.8%)      0.0%
 EFFECTIVE MASS      1.5355
 FORCE CONSTANT      2.7006

 VIBRATION         33   33A           ATOM PAIR      ENERGY CONTRIBUTION    RADIAL
 FREQUENCY          3047.34         C  1 -- H  8         +49.3% ( 69.3%)     97.4%
 TRANSITION DIPOLE   0.1464         C  1 -- H  9         +49.2% ( 69.3%)     97.4%
 TRAVEL (Ang.)       0.2139         C  1 -- C  2          +0.7% (  8.4%)     36.9%
 REDUCED MASS        0.4834         C  1 -- C  4          +0.7% (  8.4%)     34.2%
 EFFECTIVE MASS      1.2850
 FORCE CONSTANT      2.6450

 VIBRATION         34   34A           ATOM PAIR      ENERGY CONTRIBUTION    RADIAL
 FREQUENCY          3119.65         C  5 -- H 11         +59.8% ( 78.6%)    100.0%
 TRANSITION DIPOLE   0.3943         C  4 -- H 10         +37.5% ( 62.2%)    100.0%
 TRAVEL (Ang.)       0.2102         C  4 -- C  5          +1.2% ( 11.0%)      1.3%
 REDUCED MASS        0.4890         C  3 -- C  5          +1.0% (  9.9%)     27.9%
 EFFECTIVE MASS      1.4729
 FORCE CONSTANT      2.8040

 VIBRATION         35   35A           ATOM PAIR      ENERGY CONTRIBUTION    RADIAL
 FREQUENCY          3131.69         C  7 -- H 12         +50.4% ( 71.6%)     99.6%
 TRANSITION DIPOLE   0.3357         C  6 -- H 15         +42.6% ( 65.8%)     99.8%
 TRAVEL (Ang.)       0.2258         C  7 -- H 13          +3.9% ( 20.0%)     49.2%
 REDUCED MASS        0.4223         C  6 -- H 14          +1.2% ( 11.0%)     10.2%
 EFFECTIVE MASS      1.4476
 FORCE CONSTANT      2.4402

 VIBRATION         36   36A           ATOM PAIR      ENERGY CONTRIBUTION    RADIAL
 FREQUENCY          3137.05         C  6 -- H 15         +49.5% ( 70.6%)     99.6%
 TRANSITION DIPOLE   0.2471         C  7 -- H 12         +32.5% ( 57.2%)     98.4%
 TRAVEL (Ang.)       0.2469         C  7 -- H 13         +10.6% ( 32.7%)     85.6%
 REDUCED MASS        0.3527         C  6 -- H 14          +4.0% ( 20.2%)     50.6%
 EFFECTIVE MASS      1.4288
 FORCE CONSTANT      2.0451

 VIBRATION         37   37A           ATOM PAIR      ENERGY CONTRIBUTION    RADIAL
 FREQUENCY          3138.31         C  4 -- H 10         +57.2% ( 77.1%)     99.9%
 TRANSITION DIPOLE   0.3915         C  5 -- H 11         +36.1% ( 61.2%)     99.9%
 TRAVEL (Ang.)       0.2143         C  4 -- C  5          +2.4% ( 15.8%)     98.7%
 REDUCED MASS        0.4677         C  7 -- H 12          +1.7% ( 13.4%)     99.7%
 EFFECTIVE MASS      1.6477
 FORCE CONSTANT      2.7139

 VIBRATION         38   38A           ATOM PAIR      ENERGY CONTRIBUTION    RADIAL
 FREQUENCY          3143.67         C  7 -- H 13         +82.9% ( 92.9%)     99.6%
 TRANSITION DIPOLE   0.2319         C  7 -- H 12         +14.2% ( 38.5%)     85.2%
 TRAVEL (Ang.)       0.1715         C  6 -- H 15          +1.3% ( 11.9%)     99.6%
 REDUCED MASS        0.7291         C  3 -- C  7          +1.3% ( 11.7%)     11.8%
 EFFECTIVE MASS      1.5682
 FORCE CONSTANT      4.2453

 VIBRATION         39   39A           ATOM PAIR      ENERGY CONTRIBUTION    RADIAL
 FREQUENCY          3144.11         C  6 -- H 14         +92.2% ( 97.7%)     99.9%
 TRANSITION DIPOLE   0.2514         C  6 -- H 15          +5.9% ( 24.8%)     68.8%
 TRAVEL (Ang.)       0.1582         C  2 -- C  6          +1.4% ( 11.8%)     22.8%
 REDUCED MASS        0.8572         C  7 -- H 12          +0.4% (  6.6%)     99.7%
 EFFECTIVE MASS      1.5416
 FORCE CONSTANT      4.9926

      SYMMETRY NUMBER FOR POINT-GROUP C1  =  1


          SYSTEM IS A GROUND STATE



 InChI=1S/C7H8/c1-6-4-3-5-7(6)2/h3-4H,1-2,5H2


          MOLECULE IS NOT LINEAR

          THERE ARE 39 GENUINE VIBRATIONS IN THIS SYSTEM
          THIS THERMODYNAMICS CALCULATION IS LIMITED TO
          MOLECULES WHICH HAVE NO INTERNAL ROTATIONS




                    CALCULATED THERMODYNAMIC PROPERTIES
                                          *
   TEMP. (K)   PARTITION FUNCTION   H.O.F.    ENTHALPY  HEAT CAPACITY ENTROPY
                                   KCAL/MOL   CAL/MOLE    CAL/K/MOL  CAL/K/MOL


 298.00  VIB.     0.9177D+01                  2168.5027    18.5751    11.6818
         ROT.     0.1820D+06                   888.2803     2.9808    27.0489
         INT.     0.1670D+07                  3056.7830    21.5559    38.7307
         TRA.     0.8551D+27                  1480.4672     4.9680    39.4718
         TOT.                       45.441    4537.2502    26.5239    78.2025

 200.00  VIB.     0.3106D+01                   771.8381    10.0604     6.1115
         ROT.     0.1000D+06                   596.1613     2.9808    25.8602
         INT.     0.3108D+06                  1367.9993    13.0412    31.9718
         TRA.     0.4701D+27                   993.6021     4.9680    37.4906
         TOT.                       43.265    2361.6015    18.0092    69.4624

 210.00  VIB.     0.3428D+01                   876.5101    10.8774     6.6221
         ROT.     0.1076D+06                   625.9693     2.9808    26.0057
         INT.     0.3690D+06                  1502.4794    13.8582    32.6277
         TRA.     0.5058D+27                  1043.2822     4.9680    37.7330
         TOT.                       43.450    2545.7617    18.8262    70.3607

 220.00  VIB.     0.3794D+01                   989.4483    11.7132     7.1473
         ROT.     0.1154D+06                   655.7774     2.9808    26.1443
         INT.     0.4379D+06                  1645.2257    14.6940    33.2916
         TRA.     0.5424D+27                  1092.9623     4.9680    37.9641
         TOT.                       43.642    2738.1880    19.6620    71.2558

 230.00  VIB.     0.4211D+01                  1110.8287    12.5653     7.6867
         ROT.     0.1234D+06                   685.5855     2.9808    26.2768
         INT.     0.5196D+06                  1796.4142    15.5461    33.9635
         TRA.     0.5798D+27                  1142.6424     4.9680    38.1850
         TOT.                       43.843    2939.0567    20.5142    72.1485

 240.00  VIB.     0.4687D+01                  1240.7999    13.4309     8.2397
         ROT.     0.1315D+06                   715.3935     2.9808    26.4037
         INT.     0.6164D+06                  1956.1934    16.4117    34.6434
         TRA.     0.6180D+27                  1192.3226     4.9680    38.3964
         TOT.                       44.052    3148.5160    21.3797    73.0398

 250.00  VIB.     0.5230D+01                  1379.4818    14.3070     8.8057
         ROT.     0.1398D+06                   745.2016     2.9808    26.5254
         INT.     0.7313D+06                  2124.6834    17.2878    35.3311
         TRA.     0.6570D+27                  1242.0027     4.9680    38.5992
         TOT.                       44.271    3366.6860    22.2558    73.9303

 260.00  VIB.     0.5853D+01                  1526.9663    15.1909     9.3841
         ROT.     0.1483D+06                   775.0097     2.9808    26.6423
         INT.     0.8679D+06                  2301.9759    18.1718    36.0264
         TRA.     0.6968D+27                  1291.6828     4.9680    38.7941
         TOT.                       44.497    3593.6587    23.1398    74.8204

 270.00  VIB.     0.6565D+01                  1683.3177    16.0800     9.9741
         ROT.     0.1569D+06                   804.8177     2.9808    26.7548
         INT.     0.1030D+07                  2488.1354    19.0608    36.7288
         TRA.     0.7374D+27                  1341.3629     4.9680    38.9816
         TOT.                       44.733    3829.4983    24.0288    75.7104

 280.00  VIB.     0.7383D+01                  1848.5740    16.9715    10.5750
         ROT.     0.1657D+06                   834.6258     2.9808    26.8632
         INT.     0.1224D+07                  2683.1997    19.9523    37.4381
         TRA.     0.7788D+27                  1391.0430     4.9680    39.1622
         TOT.                       44.978    4074.2427    24.9203    76.6004

 290.00  VIB.     0.8324D+01                  2022.7482    17.8632    11.1861
         ROT.     0.1747D+06                   864.4339     2.9808    26.9678
         INT.     0.1454D+07                  2887.1821    20.8440    38.1538
         TRA.     0.8209D+27                  1440.7231     4.9680    39.3366
         TOT.                       45.232    4327.9052    25.8120    77.4904

 300.00  VIB.     0.9405D+01                  2205.8306    18.7528    11.8067
         ROT.     0.1838D+06                   894.2419     2.9808    27.0688
         INT.     0.1729D+07                  3100.0725    21.7336    38.8755
         TRA.     0.8637D+27                  1490.4032     4.9680    39.5050
         TOT.                       45.494    4590.4757    26.7016    78.3805

 310.00  VIB.     0.1065D+02                  2397.7900    19.6383    12.4360
         ROT.     0.1931D+06                   924.0500     2.9808    27.1666
         INT.     0.2056D+07                  3321.8400    22.6191    39.6026
         TRA.     0.9072D+27                  1540.0833     4.9680    39.6679
         TOT.                       45.766    4861.9233    27.5871    79.2705

 320.00  VIB.     0.1209D+02                  2598.5763    20.5179    13.0734
         ROT.     0.2025D+06                   953.8580     2.9808    27.2612
         INT.     0.2448D+07                  3552.4343    23.4987    40.3346
         TRA.     0.9515D+27                  1589.7634     4.9680    39.8256
         TOT.                       46.046    5142.1977    28.4667    80.1602

 330.00  VIB.     0.1375D+02                  2808.1223    21.3900    13.7181
         ROT.     0.2120D+06                   983.6661     2.9808    27.3529
         INT.     0.2916D+07                  3791.7884    24.3708    41.0711
         TRA.     0.9964D+27                  1639.4435     4.9680    39.9785
         TOT.                       46.335    5431.2319    29.3388    81.0496

 340.00  VIB.     0.1567D+02                  3026.3457    22.2531    14.3695
         ROT.     0.2218D+06                  1013.4742     2.9808    27.4419
         INT.     0.3475D+07                  4039.8199    25.2339    41.8115
         TRA.     0.1042D+28                  1689.1236     4.9680    40.1268
         TOT.                       46.633    5728.9435    30.2020    81.9383

 350.00  VIB.     0.1790D+02                  3253.1513    23.1062    15.0269
         ROT.     0.2316D+06                  1043.2822     2.9808    27.5283
         INT.     0.4145D+07                  4296.4335    26.0870    42.5553
         TRA.     0.1088D+28                  1738.8037     4.9680    40.2708
         TOT.                       46.939    6035.2373    31.0550    82.8261

 360.00  VIB.     0.2047D+02                  3488.4324    23.9481    15.6897
         ROT.     0.2416D+06                  1073.0903     2.9808    27.6123
         INT.     0.4946D+07                  4561.5227    26.9289    43.3020
         TRA.     0.1135D+28                  1788.4838     4.9680    40.4108
         TOT.                       47.254    6350.0065    31.8969    83.7128

 370.00  VIB.     0.2346D+02                  3732.0729    24.7779    16.3572
         ROT.     0.2517D+06                  1102.8984     2.9808    27.6940
         INT.     0.5907D+07                  4834.9713    27.7588    44.0511
         TRA.     0.1183D+28                  1838.1639     4.9680    40.5469
         TOT.                       47.577    6673.1352    32.7268    84.5980

 380.00  VIB.     0.2694D+02                  3983.9488    25.5951    17.0288
         ROT.     0.2620D+06                  1132.7064     2.9808    27.7735
         INT.     0.7057D+07                  5116.6552    28.5759    44.8023
         TRA.     0.1231D+28                  1887.8440     4.9680    40.6794
         TOT.                       47.908    7004.4993    33.5439    85.4817

 390.00  VIB.     0.3097D+02                  4243.9297    26.3989    17.7041
         ROT.     0.2724D+06                  1162.5145     2.9808    27.8509
         INT.     0.8437D+07                  5406.4442    29.3797    45.5550
         TRA.     0.1280D+28                  1937.5242     4.9680    40.8084
         TOT.                       48.248    7343.9684    34.3477    86.3634

 400.00  VIB.     0.3567D+02                  4511.8803    27.1889    18.3825
         ROT.     0.2830D+06                  1192.3226     2.9808    27.9264
         INT.     0.1009D+08                  5704.2028    30.1697    46.3088
         TRA.     0.1330D+28                  1987.2043     4.9680    40.9342
         TOT.                       48.595    7691.4071    35.1377    87.2430

   *: NOTE: HEATS OF FORMATION ARE RELATIVE TO THE
            ELEMENTS IN THEIR STANDARD STATE AT 298K
              (=  Standard Enthalpy of Formation).

            Hvib:  Zero-point energy is not included.
                   frequencies of less than zero cm-1 are not included.
            Hrot = (3/2)RT
            Htra = (3/2)RT + pV = (5/2)RT

            Heat capacity is Cp, not Cv

          For more information, see: HTTP://OpenMOPAC.net/Manual/thermochemistry.html


           FORCE CONSTANT IN CARTESIAN COORDINATES (Millidynes/A)

    ATOM   CHEMICAL       X               Y               Z
   NUMBER   SYMBOL  FORCE CONSTANT  FORCE CONSTANT  FORCE CONSTANT

      1       C        8.475268        9.288699        7.879465
      2       C       11.209387       14.413354        2.605936
      3       C       16.263845       10.013757        2.399087
      4       C       14.725497       10.062241        2.334912
      5       C       12.079555       13.412605        2.184502
      6       C       11.208622       13.300236        1.940050
      7       C       14.516833        9.864494        1.913847
      8       H        1.216797        1.547116        3.544730
      9       H        1.216470        1.543955        3.547980
     10       H        4.938552        1.145970        0.343359
     11       H        0.710042        5.357375        0.346908
     12       H        3.659740        2.426232        0.328840
     13       H        0.882922        5.220722        0.327178
     14       H        1.365920        4.738100        0.327565
     15       H        5.393468        0.694363        0.332341

 **********************
 *                    *
 * JOB ENDED NORMALLY *
 *                    *
 **********************



 TOTAL JOB TIME:             0.98 SECONDS

 == MOPAC DONE ==
