 *******************************************************************************
 **                                                                           **
 **                              MOPAC v23.1.2                                **
 **                                                                           **
 *******************************************************************************
 **          Digital Object Identifier (DOI): 10.5281/zenodo.6511958          **
 **    Visit the DOI location for information on how to cite this program.    **
 *******************************************************************************

                              PM3 CALCULATION RESULTS

 *******************************************************************************
 *  CALCULATION DONE: (MAX THREADS = 1)              Tue Jun  3 16:28:03 2025  *
 *  PM3        - The PM3 Hamiltonian to be used
 *  PRECISE    - TIGHTER CRITERIA TO BE USED
 *  NOSYM      - POINT-GROUP SYMMETRY SET TO C1
 *  THREADS=1  - MULTI-THREADING NOT USED
 *  T=         - A TIME OF 172800.0 SECONDS REQUESTED
 *  DUMP=N     - RESTART FILE WRITTEN EVERY 7200.0 SECONDS REQUESTED
 *******************************************************************************
pm3  precise nosym THREADS=1
 InChI=1S/C7H10/c1-2-7-5-3-4-6-7/h3,5-6H,2,4H2,1H3

   ATOM   CHEMICAL          X               Y               Z
  NUMBER   SYMBOL      (ANGSTROMS)     (ANGSTROMS)     (ANGSTROMS)

     1       C         -1.43250000  *  -0.02290000  *  -0.76640000  *
     2       C          2.12190000  *   0.68730000  *   0.26300000  *
     3       C         -2.31030000  *  -0.03800000  *   0.47990000  *
     4       C          0.01910000  *  -0.01430000  *  -0.39260000  *
     5       C          0.74150000  *   1.07110000  *  -0.15780000  *
     6       C          2.03320000  *  -0.80460000  *   0.24150000  *
     7       C          0.82500000  *  -1.19330000  *  -0.13090000  *
     8       H         -1.67220000  *   0.87460000  *  -1.37710000  *
     9       H         -1.65000000  *  -0.92340000  *  -1.37990000  *
    10       H          2.87410000  *   1.05020000  *  -0.46870000  *
    11       H          2.33860000  *   1.05490000  *   1.28800000  *
    12       H         -3.37970000  *  -0.04980000  *   0.18130000  *
    13       H         -2.12240000  *   0.86830000  *   1.09460000  *
    14       H         -2.10050000  *  -0.94390000  *   1.08820000  *
    15       H          0.37540000  *   2.08620000  *  -0.24370000  *
    16       H          2.83790000  *  -1.48050000  *   0.49880000  *
    17       H          0.50080000  *  -2.22190000  *  -0.21830000  *



          CARTESIAN COORDINATES 

    NO.       ATOM           X           Y           Z

     1         C         -1.4325     -0.0229     -0.7664
     2         C          2.1219      0.6873      0.2630
     3         C         -2.3103     -0.0380      0.4799
     4         C          0.0191     -0.0143     -0.3926
     5         C          0.7415      1.0711     -0.1578
     6         C          2.0332     -0.8046      0.2415
     7         C          0.8250     -1.1933     -0.1309
     8         H         -1.6722      0.8746     -1.3771
     9         H         -1.6500     -0.9234     -1.3799
    10         H          2.8741      1.0502     -0.4687
    11         H          2.3386      1.0549      1.2880
    12         H         -3.3797     -0.0498      0.1813
    13         H         -2.1224      0.8683      1.0946
    14         H         -2.1005     -0.9439      1.0882
    15         H          0.3754      2.0862     -0.2437
    16         H          2.8379     -1.4805      0.4988
    17         H          0.5008     -2.2219     -0.2183

  H: (PM3): J. J. P. STEWART, J. COMP. CHEM. 10, 209 (1989).
  C: (PM3): J. J. P. STEWART, J. COMP. CHEM. 10, 209 (1989).

           Empirical Formula: C7 H10  =    17 atoms



      MOLECULAR POINT GROUP   :   C1  


      RHF CALCULATION, NO. OF DOUBLY OCCUPIED LEVELS = 19


          Geometry optimization using EF

          DIAGONAL MATRIX USED AS START HESSIAN

 CYCLE:     1 TIME:   0.004 TIME LEFT:  2.00D  GRAD.:   113.325 HEAT:  21.10089
 CYCLE:     2 TIME:   0.012 TIME LEFT:  2.00D  GRAD.:    67.955 HEAT:  19.50123
 CYCLE:     3 TIME:   0.004 TIME LEFT:  2.00D  GRAD.:    32.617 HEAT:  18.39821
 CYCLE:     4 TIME:   0.008 TIME LEFT:  2.00D  GRAD.:    41.639 HEAT:  18.21517
 CYCLE:     5 TIME:   0.004 TIME LEFT:  2.00D  GRAD.:    36.903 HEAT:  18.00046
 CYCLE:     6 TIME:   0.008 TIME LEFT:  2.00D  GRAD.:    28.261 HEAT:  17.83943
 CYCLE:     7 TIME:   0.004 TIME LEFT:  2.00D  GRAD.:    22.151 HEAT:  17.70373
 CYCLE:     8 TIME:   0.008 TIME LEFT:  2.00D  GRAD.:    14.573 HEAT:  17.58567
 CYCLE:     9 TIME:   0.008 TIME LEFT:  2.00D  GRAD.:    10.071 HEAT:  17.53018
 CYCLE:    10 TIME:   0.004 TIME LEFT:  2.00D  GRAD.:    13.741 HEAT:  17.50144
 CYCLE:    11 TIME:   0.008 TIME LEFT:  2.00D  GRAD.:    14.758 HEAT:  17.48036
 CYCLE:    12 TIME:   0.004 TIME LEFT:  2.00D  GRAD.:    16.403 HEAT:  17.47294
 CYCLE:    13 TIME:   0.004 TIME LEFT:  2.00D  GRAD.:     9.648 HEAT:  17.41736
 CYCLE:    14 TIME:   0.008 TIME LEFT:  2.00D  GRAD.:     9.034 HEAT:  17.39772
 CYCLE:    15 TIME:   0.004 TIME LEFT:  2.00D  GRAD.:     6.094 HEAT:  17.37757
 CYCLE:    16 TIME:   0.004 TIME LEFT:  2.00D  GRAD.:     6.265 HEAT:  17.36714
 CYCLE:    17 TIME:   0.004 TIME LEFT:  2.00D  GRAD.:     4.324 HEAT:  17.35021
 CYCLE:    18 TIME:   0.004 TIME LEFT:  2.00D  GRAD.:     5.104 HEAT:  17.33837
 CYCLE:    19 TIME:   0.008 TIME LEFT:  2.00D  GRAD.:     5.421 HEAT:  17.32426
 CYCLE:    20 TIME:   0.004 TIME LEFT:  2.00D  GRAD.:     3.956 HEAT:  17.30839
 CYCLE:    21 TIME:   0.004 TIME LEFT:  2.00D  GRAD.:     5.326 HEAT:  17.30396
 CYCLE:    22 TIME:   0.008 TIME LEFT:  2.00D  GRAD.:     4.046 HEAT:  17.29396
 CYCLE:    23 TIME:   0.004 TIME LEFT:  2.00D  GRAD.:     3.948 HEAT:  17.28767
 CYCLE:    24 TIME:   0.004 TIME LEFT:  2.00D  GRAD.:     3.354 HEAT:  17.28190
 CYCLE:    25 TIME:   0.008 TIME LEFT:  2.00D  GRAD.:     1.456 HEAT:  17.27706
 CYCLE:    26 TIME:   0.004 TIME LEFT:  2.00D  GRAD.:     1.201 HEAT:  17.27473
 CYCLE:    27 TIME:   0.008 TIME LEFT:  2.00D  GRAD.:     1.429 HEAT:  17.27091
 CYCLE:    28 TIME:   0.008 TIME LEFT:  2.00D  GRAD.:     1.438 HEAT:  17.26799
 CYCLE:    29 TIME:   0.004 TIME LEFT:  2.00D  GRAD.:     1.114 HEAT:  17.26496
 CYCLE:    30 TIME:   0.008 TIME LEFT:  2.00D  GRAD.:     1.162 HEAT:  17.26162
 CYCLE:    31 TIME:   0.004 TIME LEFT:  2.00D  GRAD.:     1.387 HEAT:  17.25786
 CYCLE:    32 TIME:   0.004 TIME LEFT:  2.00D  GRAD.:     1.552 HEAT:  17.25317
 CYCLE:    33 TIME:   0.008 TIME LEFT:  2.00D  GRAD.:     1.275 HEAT:  17.24851
 CYCLE:    34 TIME:   0.004 TIME LEFT:  2.00D  GRAD.:     0.983 HEAT:  17.24521
 CYCLE:    35 TIME:   0.008 TIME LEFT:  2.00D  GRAD.:     0.785 HEAT:  17.24319
 CYCLE:    36 TIME:   0.004 TIME LEFT:  2.00D  GRAD.:     0.633 HEAT:  17.24173
 CYCLE:    37 TIME:   0.004 TIME LEFT:  2.00D  GRAD.:     0.499 HEAT:  17.24056
 CYCLE:    38 TIME:   0.008 TIME LEFT:  2.00D  GRAD.:     0.428 HEAT:  17.23982
 CYCLE:    39 TIME:   0.004 TIME LEFT:  2.00D  GRAD.:     0.411 HEAT:  17.23942
 CYCLE:    40 TIME:   0.004 TIME LEFT:  2.00D  GRAD.:     0.420 HEAT:  17.23907
 CYCLE:    41 TIME:   0.008 TIME LEFT:  2.00D  GRAD.:     0.510 HEAT:  17.23849
 CYCLE:    42 TIME:   0.004 TIME LEFT:  2.00D  GRAD.:     0.643 HEAT:  17.23757
 CYCLE:    43 TIME:   0.008 TIME LEFT:  2.00D  GRAD.:     0.783 HEAT:  17.23630
 CYCLE:    44 TIME:   0.004 TIME LEFT:  2.00D  GRAD.:     0.897 HEAT:  17.23456
 CYCLE:    45 TIME:   0.004 TIME LEFT:  2.00D  GRAD.:     0.875 HEAT:  17.23318
 CYCLE:    46 TIME:   0.008 TIME LEFT:  2.00D  GRAD.:     1.334 HEAT:  17.22916
 CYCLE:    47 TIME:   0.004 TIME LEFT:  2.00D  GRAD.:     1.260 HEAT:  17.22682
 CYCLE:    48 TIME:   0.008 TIME LEFT:  2.00D  GRAD.:     2.014 HEAT:  17.21894
 CYCLE:    49 TIME:   0.004 TIME LEFT:  2.00D  GRAD.:     1.435 HEAT:  17.21459
 CYCLE:    50 TIME:   0.008 TIME LEFT:  2.00D  GRAD.:     1.172 HEAT:  17.20743
 CYCLE:    51 TIME:   0.004 TIME LEFT:  2.00D  GRAD.:     1.177 HEAT:  17.19155
 CYCLE:    52 TIME:   0.008 TIME LEFT:  2.00D  GRAD.:     2.616 HEAT:  17.18108
 CYCLE:    53 TIME:   0.004 TIME LEFT:  2.00D  GRAD.:     1.742 HEAT:  17.17465
 CYCLE:    54 TIME:   0.008 TIME LEFT:  2.00D  GRAD.:     1.657 HEAT:  17.16604
 CYCLE:    55 TIME:   0.004 TIME LEFT:  2.00D  GRAD.:     1.582 HEAT:  17.15967
 CYCLE:    56 TIME:   0.008 TIME LEFT:  2.00D  GRAD.:     3.191 HEAT:  17.16076
 CYCLE:    57 TIME:   0.004 TIME LEFT:  2.00D  GRAD.:     1.204 HEAT:  17.15249
 CYCLE:    58 TIME:   0.008 TIME LEFT:  2.00D  GRAD.:     1.036 HEAT:  17.14902
 CYCLE:    59 TIME:   0.004 TIME LEFT:  2.00D  GRAD.:     1.452 HEAT:  17.14339
 CYCLE:    60 TIME:   0.008 TIME LEFT:  2.00D  GRAD.:     0.988 HEAT:  17.14116
 CYCLE:    61 TIME:   0.008 TIME LEFT:  2.00D  GRAD.:     0.855 HEAT:  17.13987
 CYCLE:    62 TIME:   0.004 TIME LEFT:  2.00D  GRAD.:     1.750 HEAT:  17.13997
 CYCLE:    63 TIME:   0.008 TIME LEFT:  2.00D  GRAD.:     1.014 HEAT:  17.13478
 CYCLE:    64 TIME:   0.008 TIME LEFT:  2.00D  GRAD.:     0.821 HEAT:  17.13357
 CYCLE:    65 TIME:   0.004 TIME LEFT:  2.00D  GRAD.:     1.361 HEAT:  17.12983
 CYCLE:    66 TIME:   0.008 TIME LEFT:  2.00D  GRAD.:     0.883 HEAT:  17.12828
 CYCLE:    67 TIME:   0.008 TIME LEFT:  2.00D  GRAD.:     0.621 HEAT:  17.12585
 CYCLE:    68 TIME:   0.004 TIME LEFT:  2.00D  GRAD.:     0.790 HEAT:  17.12332
 CYCLE:    69 TIME:   0.008 TIME LEFT:  2.00D  GRAD.:     0.974 HEAT:  17.12054
 CYCLE:    70 TIME:   0.004 TIME LEFT:  2.00D  GRAD.:     1.049 HEAT:  17.11857
 CYCLE:    71 TIME:   0.008 TIME LEFT:  2.00D  GRAD.:     1.298 HEAT:  17.11381
 CYCLE:    72 TIME:   0.008 TIME LEFT:  2.00D  GRAD.:     1.318 HEAT:  17.10943
 CYCLE:    73 TIME:   0.004 TIME LEFT:  2.00D  GRAD.:     2.101 HEAT:  17.10523
 CYCLE:    74 TIME:   0.008 TIME LEFT:  2.00D  GRAD.:     1.254 HEAT:  17.10220
 CYCLE:    75 TIME:   0.008 TIME LEFT:  2.00D  GRAD.:     0.744 HEAT:  17.10057
 CYCLE:    76 TIME:   0.008 TIME LEFT:  2.00D  GRAD.:     0.769 HEAT:  17.09907
 CYCLE:    77 TIME:   0.004 TIME LEFT:  2.00D  GRAD.:     1.560 HEAT:  17.09716
 CYCLE:    78 TIME:   0.008 TIME LEFT:  2.00D  GRAD.:     0.545 HEAT:  17.09553
 CYCLE:    79 TIME:   0.008 TIME LEFT:  2.00D  GRAD.:     0.367 HEAT:  17.09504
 CYCLE:    80 TIME:   0.004 TIME LEFT:  2.00D  GRAD.:     0.249 HEAT:  17.09468
 CYCLE:    81 TIME:   0.008 TIME LEFT:  2.00D  GRAD.:     0.225 HEAT:  17.09461
 CYCLE:    82 TIME:   0.008 TIME LEFT:  2.00D  GRAD.:     0.164 HEAT:  17.09457
 CYCLE:    83 TIME:   0.008 TIME LEFT:  2.00D  GRAD.:     0.068 HEAT:  17.09452
 CYCLE:    84 TIME:   0.008 TIME LEFT:  2.00D  GRAD.:     0.043 HEAT:  17.09451

     GRADIENT =  0.04304 IS LESS THAN CUTOFF =  0.05000



 -------------------------------------------------------------------------------
 pm3  precise nosym THREADS=1
 InChI=1S/C7H10/c1-2-7-5-3-4-6-7/h3,5-6H,2,4H2,1H3



     GEOMETRY OPTIMISED USING EIGENVECTOR FOLLOWING (EF).     
     SCF FIELD WAS ACHIEVED                                   


                              PM3 CALCULATION
                                                       MOPAC v23.1.2 MacOS
                                                       Tue Jun  3 16:28:04 2025




          FINAL HEAT OF FORMATION =         17.09451 KCAL/MOL =      71.52344 KJ/MOL


          COSMO AREA              =        145.94 SQUARE ANGSTROMS
          COSMO VOLUME            =        138.29 CUBIC ANGSTROMS

          GRADIENT NORM           =          0.04304          =       0.01044 PER ATOM
          IONIZATION POTENTIAL    =          9.120116 EV
          HOMO LUMO ENERGIES (EV) =         -9.120  0.349
          NO. OF FILLED LEVELS    =         19
          MOLECULAR WEIGHT        =         94.1560         POINT GROUP:  C1  

          MOLECULAR DIMENSIONS (Angstroms)

            Atom       Atom       Distance
            H    12    H    10     6.50860
            H    15    H    16     4.20294
            H    11    H     9     3.28474


          SCF CALCULATIONS        =         90

          WALL-CLOCK TIME         =      0.520 SECONDS
          COMPUTATION TIME        =      0.279 SECONDS




   ATOM   CHEMICAL          X               Y               Z
  NUMBER   SYMBOL      (ANGSTROMS)     (ANGSTROMS)     (ANGSTROMS)

     1       C         -1.43684784  *   0.10897809  *  -0.72943075  *
     2       C          2.19898166  *   0.65851621  *   0.15818341  *
     3       C         -2.33962299  *  -0.26690683  *   0.42687563  *
     4       C         -0.00897794  *   0.08818315  *  -0.33840564  *
     5       C          0.84326904  *   1.14010480  *  -0.27097533  *
     6       C          1.99367135  *  -0.82025788  *   0.32537222  *
     7       C          0.71175263  *  -1.13547502  *   0.03527275  *
     8       H         -1.70691644  *   1.11234982  *  -1.11387719  *
     9       H         -1.58535135  *  -0.59194300  *  -1.57495430  *
    10       H          2.97093839  *   0.88085396  *  -0.60067394  *
    11       H          2.52183980  *   1.13521110  *   1.10145597  *
    12       H         -3.39275248  *  -0.28002153  *   0.11880563  *
    13       H         -2.24784958  *   0.44270985  *   1.25910005  *
    14       H         -2.09666121  *  -1.26341671  *   0.81968366  *
    15       H          0.62791532  *   2.18454309  *  -0.48572985  *
    16       H          2.79127555  *  -1.49120711  *   0.63560200  *
    17       H          0.24271180  *  -2.11761887  *   0.06147853  *

                             CARTESIAN COORDINATES

   1    C       -1.436847839     0.108978086    -0.729430749
   2    C        2.198981664     0.658516211     0.158183410
   3    C       -2.339622990    -0.266906831     0.426875633
   4    C       -0.008977941     0.088183155    -0.338405635
   5    C        0.843269038     1.140104795    -0.270975330
   6    C        1.993671349    -0.820257882     0.325372217
   7    C        0.711752632    -1.135475022     0.035272752
   8    H       -1.706916436     1.112349815    -1.113877194
   9    H       -1.585351348    -0.591943005    -1.574954296
  10    H        2.970938393     0.880853964    -0.600673943
  11    H        2.521839801     1.135211098     1.101455974
  12    H       -3.392752483    -0.280021531     0.118805629
  13    H       -2.247849581     0.442709854     1.259100047
  14    H       -2.096661207    -1.263416706     0.819683660
  15    H        0.627915318     2.184543093    -0.485729849
  16    H        2.791275550    -1.491207108     0.635602003
  17    H        0.242711796    -2.117618865     0.061478534


           Empirical Formula: C7 H10  =    17 atoms



      MOLECULAR POINT GROUP   :   C1  


                  EIGENVALUES  
 -40.19045 -34.03271 -27.34588 -26.51968 -22.24662 -19.46215 -18.26944 -17.19579
 -15.28839 -14.94396 -14.53192 -13.85923 -13.44409 -13.26665 -12.94785 -12.25116
 -11.74152 -10.60537  -9.12012   0.34858   1.95152   3.29805   3.39109   3.70754
   3.78189   3.96469   4.10709   4.14542   4.30535   4.32941   4.43079   4.64403
   4.79663   4.90397   4.96674   5.81688   5.91012   6.23350


              NET ATOMIC CHARGES AND DIPOLE CONTRIBUTIONS

  ATOM NO.   TYPE          CHARGE      No. of ELECS.   s-Pop       p-Pop       
    1          C          -0.033364        4.0334     1.13711     2.89626
    2          C          -0.047949        4.0479     1.14484     2.90311
    3          C          -0.106073        4.1061     1.13739     2.96868
    4          C          -0.103065        4.1031     1.19625     2.90681
    5          C          -0.164625        4.1646     1.20580     2.95882
    6          C          -0.163346        4.1633     1.20699     2.95635
    7          C          -0.110555        4.1106     1.19052     2.92004
    8          H           0.049805        0.9502     0.95020
    9          H           0.053195        0.9468     0.94680
   10          H           0.080319        0.9197     0.91968
   11          H           0.080583        0.9194     0.91942
   12          H           0.036028        0.9640     0.96397
   13          H           0.040658        0.9593     0.95934
   14          H           0.040128        0.9599     0.95987
   15          H           0.117551        0.8824     0.88245
   16          H           0.114971        0.8850     0.88503
   17          H           0.115739        0.8843     0.88426
 DIPOLE           X         Y         Z       TOTAL
 POINT-CHG.     0.221     0.189     0.032     0.293
 HYBRID         0.055     0.009     0.028     0.063
 SUM            0.276     0.199     0.060     0.346


          ATOMIC ORBITAL ELECTRON POPULATIONS

     Atom    s        px        py        pz   
    1  C   1.13711   0.91430   1.01093   0.97103
    2  C   1.14484   0.96102   0.94075   1.00134
    3  C   1.13739   0.98066   1.01000   0.97802
    4  C   1.19625   0.95574   0.94531   1.00576
    5  C   1.20580   0.95730   0.97633   1.02520
    6  C   1.20699   0.97370   0.96610   1.01656
    7  C   1.19052   0.94869   0.96592   1.00543
    8  H   0.95020
    9  H   0.94680
   10  H   0.91968
   11  H   0.91942
   12  H   0.96397
   13  H   0.95934
   14  H   0.95987
   15  H   0.88245
   16  H   0.88503
   17  H   0.88426
 *******************************************************************************
 **                                                                           **
 **                              MOPAC v23.1.2                                **
 **                                                                           **
 *******************************************************************************
 **          Digital Object Identifier (DOI): 10.5281/zenodo.6511958          **
 **    Visit the DOI location for information on how to cite this program.    **
 *******************************************************************************

                              PM3 CALCULATION RESULTS

 *******************************************************************************
 *  CALCULATION DONE: (MAX THREADS = 1)              Tue Jun  3 16:28:04 2025  *
 *  PM3        - The PM3 Hamiltonian to be used
 *  OLDGEO     - PREVIOUS GEOMETRY TO BE USED
 *  PRECISE    - TIGHTER CRITERIA TO BE USED
 *  NOSYM      - POINT-GROUP SYMMETRY SET TO C1
 *  THREADS=1  - MULTI-THREADING NOT USED
 *  T=         - A TIME OF 172800.0 SECONDS REQUESTED
 *  DUMP=N     - RESTART FILE WRITTEN EVERY 7200.0 SECONDS REQUESTED
 *  THERMO     - THERMODYNAMIC QUANTITIES TO BE CALCULATED
 *******************************************************************************
oldgeo thermo nosym precise THREADS=1  pm3
 InChI=1S/C7H10/c1-2-7-5-3-4-6-7/h3,5-6H,2,4H2,1H3

   ATOM   CHEMICAL          X               Y               Z
  NUMBER   SYMBOL      (ANGSTROMS)     (ANGSTROMS)     (ANGSTROMS)

     1       C         -1.43684784  *   0.10897809  *  -0.72943075  *
     2       C          2.19898166  *   0.65851621  *   0.15818341  *
     3       C         -2.33962299  *  -0.26690683  *   0.42687563  *
     4       C         -0.00897794  *   0.08818315  *  -0.33840564  *
     5       C          0.84326904  *   1.14010480  *  -0.27097533  *
     6       C          1.99367135  *  -0.82025788  *   0.32537222  *
     7       C          0.71175263  *  -1.13547502  *   0.03527275  *
     8       H         -1.70691644  *   1.11234982  *  -1.11387719  *
     9       H         -1.58535135  *  -0.59194300  *  -1.57495430  *
    10       H          2.97093839  *   0.88085396  *  -0.60067394  *
    11       H          2.52183980  *   1.13521110  *   1.10145597  *
    12       H         -3.39275248  *  -0.28002153  *   0.11880563  *
    13       H         -2.24784958  *   0.44270985  *   1.25910005  *
    14       H         -2.09666121  *  -1.26341671  *   0.81968366  *
    15       H          0.62791532  *   2.18454309  *  -0.48572985  *
    16       H          2.79127555  *  -1.49120711  *   0.63560200  *
    17       H          0.24271180  *  -2.11761887  *   0.06147853  *



          CARTESIAN COORDINATES 

    NO.       ATOM           X           Y           Z

     1         C         -1.4368      0.1090     -0.7294
     2         C          2.1990      0.6585      0.1582
     3         C         -2.3396     -0.2669      0.4269
     4         C         -0.0090      0.0882     -0.3384
     5         C          0.8433      1.1401     -0.2710
     6         C          1.9937     -0.8203      0.3254
     7         C          0.7118     -1.1355      0.0353
     8         H         -1.7069      1.1123     -1.1139
     9         H         -1.5854     -0.5919     -1.5750
    10         H          2.9709      0.8809     -0.6007
    11         H          2.5218      1.1352      1.1015
    12         H         -3.3928     -0.2800      0.1188
    13         H         -2.2478      0.4427      1.2591
    14         H         -2.0967     -1.2634      0.8197
    15         H          0.6279      2.1845     -0.4857
    16         H          2.7913     -1.4912      0.6356
    17         H          0.2427     -2.1176      0.0615

  H: (PM3): J. J. P. STEWART, J. COMP. CHEM. 10, 209 (1989).
  C: (PM3): J. J. P. STEWART, J. COMP. CHEM. 10, 209 (1989).

           Empirical Formula: C7 H10  =    17 atoms



      MOLECULAR POINT GROUP   :   C1  


      RHF CALCULATION, NO. OF DOUBLY OCCUPIED LEVELS = 19



          HEAT OF FORMATION =      17.094513 KCALS/MOLE


          CARTESIAN COORDINATE DERIVATIVES

   NUMBER  ATOM         X            Y            Z

     1       C      0.002058    -0.006380    -0.001325
     2       C      0.008672    -0.005402     0.006673
     3       C      0.009551    -0.000815     0.005323
     4       C      0.002274    -0.001911     0.003992
     5       C      0.004727    -0.002141     0.005496
     6       C      0.008797     0.000540    -0.000088
     7       C      0.005287     0.000071     0.002900
     8       H     -0.022624     0.009248     0.001536
     9       H      0.000000     0.001902    -0.009568
    10       H     -0.007728     0.004392     0.001864
    11       H     -0.008933     0.002631     0.004746
    12       H     -0.006954     0.003845    -0.004562
    13       H     -0.005754    -0.004907     0.000530
    14       H     -0.005107    -0.006472    -0.008828
    15       H      0.004212     0.002699    -0.004279
    16       H      0.009938    -0.000705    -0.004918
    17       H      0.001583     0.003404     0.000509



          GRADIENT NORM =   0.04321

          MOLECULAR WEIGHT =   94.16



          ROTATIONAL CONSTANTS IN CM(-1)

          A =    0.20589905   B =    0.06150455   C =    0.05227116



           PRINCIPAL MOMENTS OF INERTIA IN UNITS OF 10**(-40)*GRAM-CM**2

          A =      135.9538   B =      455.1331   C =      535.5296


          ORIENTATION OF MOLECULE IN FORCE CALCULATION

    NO.       ATOM         X         Y         Z

     1          C      -1.7423   -0.3432   -0.3310
     2          C       2.0405   -0.3432   -0.3310
     3          C      -2.3933    1.0242   -0.3310
     4          C      -0.2811   -0.2538   -0.1091
     5          C       0.7067   -0.5784   -0.9788
     6          C       1.6675    0.1628    1.0335
     7          C       0.3215    0.2096    1.1472
     8          H      -1.9463   -0.8629   -1.2879
     9          H      -2.1852   -0.9784    0.4618
    10          H       2.6367   -1.2718   -0.2738
    11          H       2.6414    0.3964   -0.8906
    12          H      -3.4797    0.9453   -0.4637
    13          H      -2.0067    1.6563   -1.1406
    14          H      -2.2123    1.5560    0.6128
    15          H       0.6010   -0.9552   -1.9938
    16          H       2.4095    0.4362    1.7801
    17          H      -0.2658    0.5318    2.0054


    FIRST DERIVATIVES WILL BE USED IN THE CALCULATION OF SECOND DERIVATIVES

          ESTIMATED TIME TO COMPLETE CALCULATION =        1.59 SECONDS

    FOR POINT-GROUP C1   THERE ARE   1 UNIQUE SYMMETRY FUNCTIONS.

 STEP:   1 TIME =     0.02 SECS, INTEGRAL =      0.02 TIME LEFT: 172799.98
 STEP:   2 TIME =     0.01 SECS, INTEGRAL =      0.03 TIME LEFT: 172799.96
 STEP:   3 TIME =     0.02 SECS, INTEGRAL =      0.04 TIME LEFT: 172799.95
 STEP:   4 TIME =     0.01 SECS, INTEGRAL =      0.05 TIME LEFT: 172799.94
 STEP:   5 TIME =     0.01 SECS, INTEGRAL =      0.07 TIME LEFT: 172799.93
 STEP:   6 TIME =     0.01 SECS, INTEGRAL =      0.08 TIME LEFT: 172799.91
 STEP:   7 TIME =     0.02 SECS, INTEGRAL =      0.09 TIME LEFT: 172799.90
 STEP:   8 TIME =     0.01 SECS, INTEGRAL =      0.11 TIME LEFT: 172799.89
 STEP:   9 TIME =     0.01 SECS, INTEGRAL =      0.12 TIME LEFT: 172799.88
 STEP:  10 TIME =     0.02 SECS, INTEGRAL =      0.13 TIME LEFT: 172799.86
 STEP:  11 TIME =     0.02 SECS, INTEGRAL =      0.15 TIME LEFT: 172799.84
 STEP:  12 TIME =     0.02 SECS, INTEGRAL =      0.16 TIME LEFT: 172799.83
 STEP:  13 TIME =     0.01 SECS, INTEGRAL =      0.18 TIME LEFT: 172799.82
 STEP:  14 TIME =     0.01 SECS, INTEGRAL =      0.19 TIME LEFT: 172799.80
 STEP:  15 TIME =     0.01 SECS, INTEGRAL =      0.20 TIME LEFT: 172799.79
 STEP:  16 TIME =     0.02 SECS, INTEGRAL =      0.21 TIME LEFT: 172799.78
 STEP:  17 TIME =     0.02 SECS, INTEGRAL =      0.23 TIME LEFT: 172799.76
 STEP:  18 TIME =     0.02 SECS, INTEGRAL =      0.25 TIME LEFT: 172799.75
 STEP:  19 TIME =     0.01 SECS, INTEGRAL =      0.26 TIME LEFT: 172799.73
 STEP:  20 TIME =     0.01 SECS, INTEGRAL =      0.27 TIME LEFT: 172799.72
 STEP:  21 TIME =     0.01 SECS, INTEGRAL =      0.28 TIME LEFT: 172799.71
 STEP:  22 TIME =     0.02 SECS, INTEGRAL =      0.30 TIME LEFT: 172799.70
 STEP:  23 TIME =     0.01 SECS, INTEGRAL =      0.31 TIME LEFT: 172799.68
 STEP:  24 TIME =     0.01 SECS, INTEGRAL =      0.32 TIME LEFT: 172799.67
 STEP:  25 TIME =     0.02 SECS, INTEGRAL =      0.34 TIME LEFT: 172799.66
 STEP:  26 TIME =     0.01 SECS, INTEGRAL =      0.35 TIME LEFT: 172799.64
 STEP:  27 TIME =     0.01 SECS, INTEGRAL =      0.36 TIME LEFT: 172799.63
 STEP:  28 TIME =     0.02 SECS, INTEGRAL =      0.38 TIME LEFT: 172799.62
 STEP:  29 TIME =     0.02 SECS, INTEGRAL =      0.39 TIME LEFT: 172799.60
 STEP:  30 TIME =     0.01 SECS, INTEGRAL =      0.40 TIME LEFT: 172799.59
 STEP:  31 TIME =     0.01 SECS, INTEGRAL =      0.41 TIME LEFT: 172799.58
 STEP:  32 TIME =     0.01 SECS, INTEGRAL =      0.43 TIME LEFT: 172799.57
 STEP:  33 TIME =     0.02 SECS, INTEGRAL =      0.44 TIME LEFT: 172799.55
 STEP:  34 TIME =     0.01 SECS, INTEGRAL =      0.45 TIME LEFT: 172799.54
 STEP:  35 TIME =     0.01 SECS, INTEGRAL =      0.46 TIME LEFT: 172799.53
 STEP:  36 TIME =     0.02 SECS, INTEGRAL =      0.48 TIME LEFT: 172799.51
 STEP:  37 TIME =     0.01 SECS, INTEGRAL =      0.49 TIME LEFT: 172799.50
 STEP:  38 TIME =     0.01 SECS, INTEGRAL =      0.50 TIME LEFT: 172799.49
 STEP:  39 TIME =     0.02 SECS, INTEGRAL =      0.52 TIME LEFT: 172799.47
 STEP:  40 TIME =     0.01 SECS, INTEGRAL =      0.53 TIME LEFT: 172799.46
 STEP:  41 TIME =     0.02 SECS, INTEGRAL =      0.55 TIME LEFT: 172799.45
 STEP:  42 TIME =     0.01 SECS, INTEGRAL =      0.56 TIME LEFT: 172799.43
 STEP:  43 TIME =     0.01 SECS, INTEGRAL =      0.57 TIME LEFT: 172799.42
 STEP:  44 TIME =     0.01 SECS, INTEGRAL =      0.58 TIME LEFT: 172799.41
 STEP:  45 TIME =     0.02 SECS, INTEGRAL =      0.60 TIME LEFT: 172799.39
 STEP:  46 TIME =     0.01 SECS, INTEGRAL =      0.61 TIME LEFT: 172799.38
 STEP:  47 TIME =     0.01 SECS, INTEGRAL =      0.62 TIME LEFT: 172799.37
 STEP:  48 TIME =     0.01 SECS, INTEGRAL =      0.63 TIME LEFT: 172799.36
 STEP:  49 TIME =     0.01 SECS, INTEGRAL =      0.64 TIME LEFT: 172799.35
 STEP:  50 TIME =     0.01 SECS, INTEGRAL =      0.66 TIME LEFT: 172799.34
 STEP:  51 TIME =     0.01 SECS, INTEGRAL =      0.67 TIME LEFT: 172799.32

(To convert to Hartree/Bohr^2, multiply by (10^(-21) x N x a0^2)/(4.184 x 627.51) =  0.0642)


           FORCE MATRIX IN MILLIDYNES/ANGSTROM


                  C  1       C  2       C  3       C  4       C  5       C  6
 ------------------------------------------------------------------------------
     C    1  14.843321
     C    2   0.127606  14.881535
     C    3   4.381067   0.021446  14.338014
     C    4   5.206065   1.239318   0.715375  18.798565
     C    5   0.658987   4.425030   0.030212   9.431075  17.862988
     C    6   0.054668   4.402707   0.002969   1.591190   1.123778  17.910378
     C    7   0.522103   1.254883   0.037832   4.954678   1.546162   9.711304
     H    8   4.461111   0.002533   0.438816   0.449373   0.030405   0.008333
     H    9   4.440909   0.017054   0.446062   0.428640   0.032429   0.003836
     H   10   0.018538   4.514726   0.002713   0.043368   0.415073   0.416827
     H   11   0.018234   4.514288   0.003667   0.043597   0.414530   0.416680
     H   12   0.450725   0.003638   4.751745   0.053577   0.004856   0.000468
     H   13   0.461561   0.000917   4.750350   0.016324   0.002658   0.000599
     H   14   0.463727   0.000958   4.720461   0.023930   0.001397   0.000747
     H   15   0.048478   0.400171   0.007352   0.453835   5.074399   0.042440
     H   16   0.006603   0.402653   0.000706   0.102552   0.043562   5.084927
     H   17   0.008274   0.116789   0.008134   0.426705   0.047511   0.445593


                  C  7       H  8       H  9       H 10       H 11       H 12
 ------------------------------------------------------------------------------
     C    7  18.258410
     H    8   0.042759   5.052774
     H    9   0.015302   0.559870   5.029331
     H   10   0.045487   0.000509   0.003300   5.120916
     H   11   0.045435   0.000463   0.002103   0.547668   5.120256
     H   12   0.002223   0.028666   0.029389   0.000475   0.000786   5.485797
     H   13   0.001833   0.024906   0.049210   0.000193   0.000306   0.571813
     H   14   0.006002   0.048799   0.023370   0.000164   0.000230   0.569269
     H   15   0.092874   0.012054   0.005130   0.011126   0.010804   0.001434
     H   16   0.443743   0.001445   0.000606   0.011160   0.011148   0.000120
     H   17   5.050428   0.001742   0.004335   0.016080   0.015938   0.001076


                  H 13       H 14       H 15       H 16       H 17
 ------------------------------------------------------------------
     H   13   5.487489
     H   14   0.578403   5.458996
     H   15   0.000530   0.000515   5.478601
     H   16   0.000131   0.000333   0.010819   5.484218
     H   17   0.000874   0.010652   0.005130   0.042532   5.446804


          HEAT OF FORMATION =      17.094513 KCALS/MOLE

          ZERO POINT ENERGY      93.261 KCAL/MOL


           NORMAL COORDINATE ANALYSIS (Total motion = 1 Angstrom)


   Root No.       1         2         3         4         5         6         7         8

                 1 A       2 A       3 A       4 A       5 A       6 A       7 A       8 A   

                  53.5     156.8     169.4     301.9     343.9     391.7     593.6     662.2
  
           1    0.0070   -0.0079   -0.0026   -0.0053    0.0016    0.0030    0.0378    0.0584
           2    0.0060   -0.0084   -0.0031   -0.0219   -0.0121   -0.0335    0.0020    0.0287
           3   -0.0371   -0.0036   -0.0116    0.0359   -0.0233   -0.0164   -0.0004    0.0135
           4    0.0068   -0.0083   -0.0003    0.0013   -0.0114   -0.0202   -0.0286   -0.0285
           5   -0.0246    0.0308    0.0149   -0.0154   -0.0251    0.0050   -0.0007   -0.0108
           6    0.0159   -0.0103    0.0053    0.0165    0.0004   -0.0105   -0.0094   -0.0083
           7   -0.0145    0.0486    0.0269    0.0303    0.0139    0.0417    0.0236    0.0065
           8   -0.0045    0.0199    0.0120   -0.0049   -0.0079   -0.0200   -0.0170   -0.0001
           9    0.0545    0.0091    0.0175    0.0153   -0.0055    0.0015    0.0025    0.0008
          10    0.0043   -0.0082   -0.0022    0.0014   -0.0070   -0.0091    0.0143    0.0303
          11    0.0057   -0.0408   -0.0214   -0.0003   -0.0080    0.0180    0.0786   -0.0348
          12   -0.0192    0.0088   -0.0097   -0.0322    0.0294    0.0173   -0.0194    0.0185
          13    0.0134   -0.0062    0.0072    0.0126   -0.0186   -0.0241   -0.0152   -0.0063
          14   -0.0268   -0.0279   -0.0150    0.0320    0.0368    0.0149   -0.0204   -0.0086
          15    0.0031    0.0067   -0.0008   -0.0303    0.0005    0.0050   -0.0075   -0.0280
          16   -0.0072   -0.0127   -0.0163   -0.0227    0.0087   -0.0017   -0.0204   -0.0284
          17    0.0159    0.0301    0.0147    0.0054    0.0354   -0.0352    0.0139   -0.0051
          18   -0.0030   -0.0111    0.0010    0.0025   -0.0162    0.0108   -0.0051    0.0012
          19   -0.0082   -0.0130   -0.0173   -0.0231    0.0092   -0.0002   -0.0167   -0.0227
          20    0.0324   -0.0198   -0.0106    0.0100   -0.0126    0.0526   -0.0162    0.0072
          21   -0.0229    0.0031   -0.0062   -0.0257    0.0245    0.0010    0.0249    0.0159
          22    0.0209   -0.0135   -0.0179   -0.0621    0.0442    0.0366    0.0402    0.0752
          23    0.0701    0.0134    0.0150   -0.0668    0.0251   -0.0095   -0.0296    0.0371
          24   -0.0751   -0.0140   -0.0176    0.0739   -0.0536   -0.0371    0.0167    0.0046
          25    0.0105   -0.0397   -0.0077    0.0330   -0.0342   -0.0155    0.0951    0.0564
          26   -0.0568   -0.0041   -0.0070    0.0229   -0.0435   -0.0591   -0.0028    0.0204
          27   -0.0852   -0.0186   -0.0175    0.0936   -0.0695   -0.0486    0.0283    0.0061
          28   -0.0048    0.0348    0.0207   -0.0585   -0.1041    0.0003   -0.0396   -0.0002
          29   -0.0300    0.0590    0.0290   -0.0528   -0.0833    0.0156   -0.0053    0.0079
          30    0.0496   -0.0080    0.0132    0.0514    0.0579   -0.0724    0.0408   -0.0328
          31    0.0235   -0.0498   -0.0150    0.0713    0.0720   -0.0492   -0.0215   -0.0551
          32   -0.0466    0.0524    0.0255   -0.0585   -0.1137    0.0482   -0.0334    0.0290
          33    0.0048   -0.0268    0.0034    0.0370   -0.0235    0.0136   -0.0426    0.0143
          34   -0.0118    0.0587   -0.0001    0.0323    0.0106    0.0376    0.0254    0.0137
          35   -0.0126    0.0756    0.0285    0.0301    0.0062    0.0261   -0.0321   -0.1068
          36    0.0364   -0.1051    0.2309   -0.0168    0.0153    0.0159    0.0030   -0.0073
          37   -0.0156    0.1591   -0.1134    0.0768    0.0062    0.0593    0.0186   -0.0493
          38    0.0603    0.0500   -0.0533   -0.0188   -0.0084   -0.0288   -0.0097    0.0196
          39    0.1047    0.0851   -0.1005    0.0265   -0.0098    0.0024    0.0058   -0.0096
          40   -0.0344   -0.0230    0.2199    0.0198    0.0398    0.0787    0.0204   -0.0543
          41   -0.0693   -0.0424    0.0738   -0.0090   -0.0153   -0.0360   -0.0218    0.0332
          42    0.0949    0.0581   -0.0538    0.0201   -0.0062    0.0042    0.0062   -0.0075
          43    0.0240   -0.0031    0.0199    0.0333   -0.0377   -0.0451   -0.0405   -0.0327
          44   -0.0515   -0.0394   -0.0212    0.0630    0.0954    0.0057   -0.1492    0.0902
          45    0.0111    0.0106    0.0003   -0.0436   -0.0194    0.0104    0.0429   -0.0620
          46   -0.0149   -0.0149   -0.0254   -0.0378    0.0222    0.0115   -0.0074   -0.0158
          47    0.0282    0.0642    0.0318    0.0113    0.0901   -0.1021   -0.0218    0.0493
          48    0.0002   -0.0213    0.0038    0.0152   -0.0496    0.0222   -0.0055   -0.0322
          49   -0.0160   -0.0162   -0.0274   -0.0432    0.0251    0.0139   -0.0280   -0.0478
          50    0.0606   -0.0380   -0.0207    0.0208   -0.0291    0.1183   -0.1724    0.0987
          51   -0.0387    0.0078   -0.0092   -0.0432    0.0414   -0.0140    0.0757   -0.0352


   Root No.       9        10        11        12        13        14        15        16

                 9 A      10 A      11 A      12 A      13 A      14 A      15 A      16 A   

                 757.8     803.0     809.7     831.1     926.8     973.9     980.5    1007.4
  
           1   -0.0083    0.0011   -0.0007    0.0064   -0.0019   -0.0053    0.0019    0.0030
           2   -0.0057   -0.0001   -0.0003    0.0029    0.0005   -0.0084    0.0037   -0.0008
           3   -0.0107    0.0192   -0.0110   -0.0333   -0.0024   -0.0043   -0.0011    0.0263
           4   -0.0002    0.0618    0.0163    0.0041    0.0001   -0.0113    0.0036    0.0096
           5   -0.0330   -0.0071   -0.0269    0.0133    0.0309    0.0045    0.0392   -0.0004
           6    0.0150   -0.0357   -0.0006   -0.0111   -0.0115   -0.0069   -0.0137   -0.0065
           7    0.0018    0.0003    0.0011    0.0019   -0.0043   -0.0369    0.0076   -0.0146
           8   -0.0052    0.0015   -0.0030    0.0022   -0.0042    0.0052   -0.0029   -0.0003
           9   -0.0007    0.0045   -0.0022   -0.0100    0.0032   -0.0023    0.0021   -0.0163
          10   -0.0060   -0.0033   -0.0036   -0.0007   -0.0005    0.0279   -0.0077    0.0108
          11    0.0344    0.0124    0.0098   -0.0134    0.0255   -0.0087    0.0088    0.0085
          12   -0.0134    0.0215    0.0044    0.0102   -0.0098   -0.0009   -0.0020    0.0058
          13   -0.0024    0.0277    0.0061    0.0019   -0.0001    0.0186   -0.0056   -0.0047
          14    0.0073    0.0241   -0.0158    0.0076   -0.0275   -0.0190   -0.0407   -0.0056
          15    0.0033    0.0353    0.0235    0.0084    0.0119   -0.0286    0.0264   -0.0133
          16    0.0056   -0.0486   -0.0113   -0.0048   -0.0002   -0.0119    0.0034    0.0005
          17   -0.0116   -0.0296    0.0151   -0.0086   -0.0044   -0.0090   -0.0428   -0.0015
          18    0.0066   -0.0530   -0.0229   -0.0040    0.0013   -0.0030    0.0185    0.0118
          19    0.0046   -0.0464   -0.0112   -0.0045   -0.0002   -0.0043    0.0013   -0.0001
          20   -0.0243   -0.0003    0.0155    0.0005   -0.0397    0.0275    0.0261   -0.0042
          21    0.0083    0.0176    0.0029    0.0136    0.0166    0.0437   -0.0244   -0.0124
          22   -0.0280    0.0456   -0.0190   -0.0498   -0.0153   -0.0167   -0.0047    0.1742
          23   -0.0415    0.0490   -0.0503   -0.1328    0.0065   -0.0129    0.0058   -0.0341
          24    0.0139   -0.0182    0.0218    0.0569   -0.0029    0.0016   -0.0010    0.0086
          25    0.0288   -0.0238    0.0236    0.0246    0.0523    0.0316    0.0184   -0.1248
          26    0.0112   -0.0464    0.0360    0.1332   -0.0285   -0.0267   -0.0016    0.0164
          27    0.0243   -0.0337    0.0336    0.0865    0.0038    0.0000    0.0042   -0.0316
          28    0.1008    0.0535    0.1155   -0.0469   -0.0263   -0.0199   -0.1173    0.0232
          29    0.0306   -0.0160    0.0396   -0.0211    0.0198   -0.0008   -0.0430    0.0103
          30   -0.0845   -0.0448    0.0108   -0.0042    0.1324    0.0144   -0.0307    0.0235
          31   -0.1044    0.1089   -0.0753    0.0546    0.0254    0.0403    0.1095    0.0055
          32    0.0782   -0.0177    0.0116   -0.0220   -0.0723    0.0217   -0.0254   -0.0155
          33    0.0419   -0.0019   -0.0540   -0.0010   -0.1160    0.0715    0.0209   -0.0304
          34   -0.0012    0.0032   -0.0014   -0.0044   -0.0050   -0.0480    0.0106   -0.0258
          35    0.0311   -0.0013    0.0096   -0.0177    0.0422    0.1942   -0.0368    0.0929
          36    0.0096   -0.0173    0.0145    0.0496   -0.0089   -0.0005   -0.0043    0.0345
          37    0.0157    0.0193   -0.0055   -0.0655    0.0371    0.0677   -0.0038   -0.0058
          38    0.0016   -0.0388    0.0233    0.1162   -0.0414   -0.0454   -0.0044    0.0536
          39    0.0113   -0.0194    0.0162    0.0515   -0.0077    0.0052   -0.0045    0.0318
          40    0.0287   -0.0173    0.0212    0.0340    0.0112    0.0565   -0.0109    0.0696
          41   -0.0323    0.0468   -0.0394   -0.1096    0.0115   -0.0214    0.0101   -0.0996
          42    0.0105   -0.0190    0.0157    0.0507   -0.0087   -0.0035   -0.0025    0.0276
          43   -0.0002   -0.0176   -0.0098   -0.0128   -0.0012    0.0628   -0.0235   -0.0600
          44    0.0253   -0.0772    0.2258   -0.0540    0.1013    0.0061    0.1480    0.0050
          45   -0.0035    0.0781   -0.0640    0.0330   -0.0357   -0.0442   -0.0411   -0.0122
          46    0.0076   -0.0715   -0.0147    0.0033    0.0015    0.0808   -0.0235   -0.0527
          47    0.2644    0.0441   -0.0991   -0.0030   -0.0366   -0.0008    0.1788    0.0350
          48   -0.0962   -0.0592    0.0219   -0.0140    0.0115   -0.0970   -0.0363    0.0508
          49    0.0118   -0.0112    0.0044    0.0113    0.0049    0.0218   -0.0089   -0.0578
          50    0.0851    0.0481   -0.0901    0.0588    0.2231   -0.0190   -0.1298   -0.0147
          51   -0.0276    0.0242    0.0533    0.0029   -0.0782    0.0800    0.0267   -0.0474


   Root No.      17        18        19        20        21        22        23        24

                17 A      18 A      19 A      20 A      21 A      22 A      23 A      24 A   

                1017.2    1032.6    1041.7    1077.2    1089.2    1115.9    1123.9    1200.9
  
           1   -0.0095   -0.0013   -0.0032    0.0234   -0.0080    0.0020   -0.0105   -0.0056
           2   -0.0029    0.0046   -0.0023    0.0155   -0.0032    0.0741    0.0395    0.0039
           3    0.0137    0.0083    0.0133    0.0022    0.0025   -0.0269    0.0388   -0.0090
           4   -0.0109    0.0014   -0.0196   -0.0189    0.0055   -0.0009    0.0033    0.0038
           5    0.0091    0.0027   -0.0006    0.0063   -0.0032    0.0006    0.0002   -0.0090
           6    0.0130    0.0119   -0.0029    0.0187   -0.0090    0.0010    0.0002   -0.0246
           7    0.0179    0.0064    0.0040   -0.0142    0.0039   -0.0003    0.0104    0.0037
           8   -0.0005   -0.0051    0.0009   -0.0022   -0.0015   -0.0769   -0.0387   -0.0004
           9   -0.0045   -0.0038   -0.0038   -0.0026   -0.0016    0.0326   -0.0462    0.0015
          10   -0.0063   -0.0066   -0.0021   -0.0165    0.0079    0.0002   -0.0017   -0.0096
          11    0.0074    0.0201    0.0101   -0.0132    0.0028   -0.0037   -0.0059    0.0054
          12   -0.0065   -0.0048   -0.0084    0.0102   -0.0076    0.0042   -0.0007    0.0223
          13    0.0012   -0.0125    0.0241   -0.0056    0.0015   -0.0003   -0.0003   -0.0369
          14   -0.0008   -0.0317   -0.0032    0.0153   -0.0119    0.0041    0.0036   -0.0031
          15   -0.0112    0.0019    0.0246    0.0203   -0.0258   -0.0002    0.0026   -0.0105
          16   -0.0055   -0.0017   -0.0003   -0.0021   -0.0081    0.0001   -0.0008    0.0122
          17   -0.0238    0.0297    0.0099   -0.0133    0.0050   -0.0016   -0.0002   -0.0036
          18   -0.0185   -0.0289   -0.0031   -0.0263    0.0107   -0.0023    0.0012   -0.0091
          19    0.0016    0.0041   -0.0072    0.0021    0.0026   -0.0002   -0.0015    0.0161
          20    0.0068   -0.0276   -0.0071   -0.0082    0.0060    0.0009    0.0025    0.0076
          21    0.0024   -0.0019    0.0058   -0.0372    0.0208   -0.0043    0.0018    0.0193
          22    0.0372    0.0457    0.0655    0.1033   -0.0419   -0.0158   -0.1816   -0.0058
          23    0.0060    0.0002   -0.0076   -0.0199    0.0208    0.0277    0.2487   -0.0149
          24   -0.0021    0.0002    0.0019    0.0067   -0.0041    0.0032   -0.0381    0.0017
          25   -0.1216   -0.0312   -0.0751    0.1335   -0.0532   -0.2069    0.0836    0.0555
          26    0.0240    0.0040    0.0094   -0.0262    0.0083    0.2814   -0.0740   -0.0124
          27   -0.0260   -0.0087   -0.0171    0.0278   -0.0130    0.0235   -0.0011    0.0122
          28    0.0498   -0.0444   -0.1058   -0.0282   -0.0195   -0.0006    0.0034    0.0778
          29    0.0577   -0.0322   -0.0663    0.0035   -0.0232    0.0011   -0.0006    0.0413
          30    0.1759   -0.0859   -0.1657    0.0446   -0.0749    0.0053   -0.0072    0.0605
          31   -0.0049    0.1270   -0.0552   -0.0443   -0.0151   -0.0025    0.0020    0.0776
          32    0.0098    0.1084   -0.0197    0.0161   -0.0282    0.0006   -0.0058    0.0072
          33    0.0208    0.2868   -0.0671    0.0067   -0.0639   -0.0008   -0.0099    0.0720
          34    0.0211    0.0065    0.0033   -0.0179    0.0045    0.0032   -0.0006    0.0055
          35   -0.0965   -0.0223   -0.0173    0.0828   -0.0243    0.0121   -0.0099   -0.0167
          36    0.0102    0.0073    0.0098    0.0023   -0.0010   -0.0299    0.0374   -0.0003
          37   -0.0533   -0.0091   -0.0197    0.0417   -0.0133    0.1570   -0.0130    0.0036
          38    0.0534    0.0149    0.0281   -0.0248    0.0096   -0.2548    0.0671   -0.0057
          39    0.0062    0.0053    0.0075    0.0053   -0.0007   -0.0324    0.0278   -0.0025
          40   -0.0192    0.0104    0.0037    0.0432   -0.0065    0.0493    0.1116   -0.0027
          41   -0.0151   -0.0257   -0.0186   -0.0288   -0.0034   -0.0191   -0.2185    0.0035
          42    0.0108    0.0075    0.0081    0.0024    0.0009   -0.0114    0.0377    0.0002
          43    0.0869   -0.0421    0.2302    0.0892    0.0669    0.0186    0.0077    0.2287
          44    0.0000    0.0531    0.0250   -0.0144   -0.0064   -0.0129   -0.0072   -0.0153
          45   -0.0205   -0.0260   -0.0077    0.0233   -0.0370    0.0043    0.0062   -0.0345
          46    0.0584   -0.0078    0.0561   -0.0600   -0.1909    0.0008    0.0203   -0.0976
          47    0.0104   -0.0860   -0.0392    0.0122    0.0630   -0.0007   -0.0065    0.0325
          48   -0.0941    0.0197   -0.0421    0.0197    0.1704   -0.0035   -0.0172    0.0869
          49    0.0844    0.0660   -0.0519    0.1191    0.2062   -0.0101   -0.0199   -0.1487
          50    0.0063    0.0738    0.0145   -0.0022    0.0546   -0.0068   -0.0052   -0.0288
          51    0.0579    0.0012   -0.0324    0.0373    0.1422   -0.0082   -0.0073   -0.0774


   Root No.      25        26        27        28        29        30        31        32

                25 A      26 A      27 A      28 A      29 A      30 A      31 A      32 A   

                1243.5    1322.8    1350.0    1374.7    1391.5    1403.4    1411.5    1416.3
  
           1   -0.0172    0.0448   -0.0050   -0.0082    0.0310   -0.0016    0.0076    0.0165
           2    0.0225   -0.0262    0.0059   -0.0155    0.0107    0.0001   -0.0067   -0.0437
           3    0.0007    0.0015   -0.0045   -0.0016    0.0025   -0.0012    0.0000   -0.0016
           4    0.0265    0.0014    0.0635    0.0333    0.0387   -0.0008    0.0028    0.0078
           5    0.0012    0.0066    0.0375   -0.0059   -0.0089   -0.0001   -0.0004   -0.0007
           6    0.0029    0.0186    0.1019   -0.0158   -0.0238   -0.0001   -0.0010   -0.0011
           7    0.0061   -0.0049    0.0005    0.0082   -0.0050    0.0089   -0.0416   -0.0243
           8   -0.0019   -0.0083    0.0032   -0.0198    0.0077    0.0024   -0.0024    0.0577
           9    0.0017   -0.0011    0.0005    0.0004   -0.0006   -0.0408   -0.0084    0.0004
          10   -0.0255   -0.0031    0.0062   -0.0122   -0.0029   -0.0000    0.0004    0.0005
          11   -0.0113    0.0083    0.0031   -0.0021    0.0054   -0.0001    0.0014    0.0055
          12   -0.0131    0.0092    0.0110   -0.0072    0.0136   -0.0000    0.0020    0.0038
          13   -0.0254   -0.0300   -0.0445   -0.0114   -0.0268    0.0012   -0.0030   -0.0096
          14   -0.0045   -0.0015   -0.0160   -0.0015   -0.0006   -0.0001   -0.0002   -0.0012
          15   -0.0166   -0.0012   -0.0443   -0.0037   -0.0019   -0.0003   -0.0002   -0.0004
          16   -0.0056   -0.0046    0.0020   -0.0011   -0.0084    0.0000   -0.0006   -0.0015
          17    0.0116    0.0015   -0.0241    0.0046    0.0104    0.0000    0.0007    0.0015
          18    0.0321    0.0035   -0.0652    0.0124    0.0281    0.0002    0.0018    0.0036
          19   -0.0121   -0.0078    0.0102   -0.0029   -0.0149    0.0000   -0.0014   -0.0030
          20    0.0025   -0.0074    0.0101    0.0024   -0.0076    0.0002   -0.0011   -0.0025
          21    0.0038   -0.0181    0.0270    0.0064   -0.0204   -0.0000   -0.0022   -0.0049
          22    0.1361   -0.0859   -0.0192    0.0878   -0.1106    0.0081   -0.0238    0.0135
          23   -0.0427    0.0755   -0.0412    0.1119   -0.0906    0.0035    0.0014    0.1209
          24    0.0042   -0.0228    0.0203   -0.0781    0.0752   -0.0052    0.0012   -0.0781
          25    0.0905   -0.0619    0.0050    0.0493   -0.0600    0.0023   -0.0193   -0.0026
          26   -0.0293    0.0691   -0.0325    0.1016   -0.0800    0.0040    0.0023    0.1077
          27    0.0177    0.0148   -0.0257    0.1079   -0.1052    0.0024   -0.0065    0.0938
          28    0.0835    0.0869   -0.1159   -0.0868   -0.0725    0.0008   -0.0034   -0.0080
          29    0.0259    0.0470   -0.0829   -0.0669   -0.0637    0.0008   -0.0035   -0.0089
          30   -0.0809   -0.0761   -0.0820    0.0703    0.0710   -0.0006    0.0035    0.0073
          31    0.0834    0.0857   -0.1153   -0.0863   -0.0719    0.0007   -0.0038   -0.0092
          32   -0.0732   -0.0854    0.0104    0.0969    0.0949   -0.0010    0.0051    0.0116
          33   -0.0453   -0.0268   -0.1158    0.0097    0.0124    0.0000    0.0003   -0.0006
          34    0.0132   -0.0194    0.0029   -0.0030   -0.0048   -0.0485   -0.0033    0.0004
          35   -0.0526    0.1135   -0.0203    0.0693    0.0060   -0.0062   -0.1967   -0.1374
          36   -0.0025    0.0037    0.0019    0.0006    0.0032    0.4142    0.0224   -0.0083
          37    0.0218   -0.0390    0.0086   -0.0420    0.0083    0.2208    0.2316    0.0764
          38   -0.0253    0.0537   -0.0137    0.0669   -0.0299   -0.0438    0.1359   -0.1411
          39   -0.0070    0.0238   -0.0070    0.0350   -0.0202    0.0570    0.2199   -0.0858
          40    0.0193   -0.0337    0.0019   -0.0309   -0.0005   -0.2779    0.2343    0.0578
          41   -0.0222    0.0574   -0.0107    0.0723   -0.0321    0.0141    0.1612   -0.1516
          42    0.0089   -0.0269    0.0069   -0.0367    0.0184    0.0333   -0.1401    0.0849
          43    0.0285    0.0502   -0.0176    0.0174    0.0658   -0.0015    0.0066    0.0165
          44   -0.0131    0.0004   -0.0183   -0.0023   -0.0038    0.0000    0.0003    0.0020
          45   -0.0212   -0.0093   -0.0479   -0.0078   -0.0105   -0.0002   -0.0014   -0.0043
          46    0.1012    0.0361   -0.0416    0.0224    0.0604   -0.0003    0.0046    0.0108
          47   -0.0223   -0.0117   -0.0103   -0.0023   -0.0114    0.0002   -0.0010   -0.0024
          48   -0.0579   -0.0320   -0.0281   -0.0062   -0.0303    0.0004   -0.0027   -0.0069
          49    0.0562    0.0311   -0.1000    0.0032    0.0452    0.0033    0.0030    0.0063
          50    0.0153    0.0020   -0.0137    0.0040    0.0058   -0.0008    0.0008    0.0022
          51    0.0476    0.0038   -0.0379    0.0117    0.0158    0.0024    0.0000   -0.0001


   Root No.      33        34        35        36        37        38        39        40

                33 A      34 A      35 A      36 A      37 A      38 A      39 A      40 A   

                1495.3    1744.6    1834.7    2950.2    2984.4    3025.8    3052.5    3079.9
  
           1   -0.0864    0.0237   -0.0539    0.0084    0.0000   -0.0194    0.0001   -0.0003
           2   -0.0006    0.0008    0.0019    0.0049   -0.0000   -0.0342   -0.0000   -0.0009
           3   -0.0249    0.0048   -0.0009   -0.0576    0.0001   -0.0070    0.0000   -0.0026
           4   -0.0060   -0.0102    0.0005    0.0000   -0.0002   -0.0000    0.0382   -0.0001
           5    0.0025    0.0016   -0.0000    0.0000   -0.0572   -0.0001   -0.0061    0.0000
           6    0.0064    0.0042   -0.0000    0.0000    0.0212    0.0000   -0.0160    0.0000
           7    0.0137   -0.0004    0.0003   -0.0004    0.0000    0.0037   -0.0001   -0.0099
           8   -0.0082   -0.0001    0.0002   -0.0001    0.0000    0.0011   -0.0000   -0.0058
           9    0.0029   -0.0001   -0.0001    0.0029   -0.0000    0.0010   -0.0001   -0.0489
          10    0.0858   -0.0621    0.1998    0.0004   -0.0000   -0.0002   -0.0009    0.0002
          11    0.0488    0.0102   -0.0372   -0.0001   -0.0002    0.0000    0.0001   -0.0001
          12    0.1374    0.0263   -0.0959   -0.0003    0.0001   -0.0000    0.0003   -0.0001
          13    0.0230    0.0432   -0.1380   -0.0006   -0.0000   -0.0000    0.0009   -0.0001
          14   -0.0160   -0.0157    0.0366    0.0001   -0.0002   -0.0002    0.0004   -0.0000
          15   -0.0442   -0.0420    0.0971   -0.0001    0.0001   -0.0002    0.0010   -0.0001
          16   -0.0175    0.1959    0.0571   -0.0000   -0.0000   -0.0000   -0.0003    0.0000
          17    0.0057   -0.0108   -0.0069    0.0000   -0.0002    0.0000   -0.0005    0.0000
          18    0.0155   -0.0271   -0.0181    0.0000    0.0001    0.0000   -0.0013    0.0001
          19   -0.0332   -0.1875   -0.0794    0.0003    0.0000    0.0001   -0.0001    0.0006
          20   -0.0297    0.0047   -0.0007    0.0001   -0.0002    0.0001   -0.0002   -0.0003
          21   -0.0814    0.0109   -0.0033    0.0001    0.0001    0.0002   -0.0005   -0.0007
          22   -0.0009   -0.0087    0.0422    0.0814   -0.0001    0.0697    0.0000    0.0036
          23    0.0144    0.0052   -0.0079    0.2058   -0.0003    0.1927    0.0002    0.0173
          24   -0.0426    0.0110   -0.0162    0.3651   -0.0006    0.4068    0.0003    0.0263
          25    0.0929    0.0033   -0.0180   -0.1833   -0.0001    0.1597    0.0002   -0.0022
          26    0.0132    0.0018   -0.0084   -0.2668   -0.0000    0.2251    0.0003   -0.0065
          27    0.0779   -0.0027    0.0038    0.3252    0.0001   -0.3244   -0.0004    0.0031
          28   -0.0042   -0.0013    0.0163   -0.0003   -0.2590    0.0000   -0.2264    0.0003
          29    0.0009    0.0024    0.0151    0.0004    0.3880    0.0001    0.3944   -0.0005
          30   -0.0277    0.0262    0.0231   -0.0000   -0.0190    0.0000   -0.0370    0.0000
          31   -0.0038   -0.0011    0.0160    0.0001    0.2614    0.0003   -0.2281    0.0003
          32   -0.0188    0.0152    0.0035    0.0000    0.3064    0.0004   -0.3219    0.0004
          33   -0.0204    0.0214    0.0272   -0.0000   -0.2379   -0.0003    0.2277   -0.0003
          34    0.0147   -0.0003   -0.0009    0.0011    0.0000   -0.0358    0.0006    0.1492
          35   -0.0377    0.0071   -0.0122    0.0003   -0.0000   -0.0067    0.0001    0.0122
          36   -0.0053    0.0003   -0.0001    0.0007    0.0000   -0.0044    0.0000   -0.0061
          37   -0.0181    0.0007   -0.0023    0.0108   -0.0000   -0.0036    0.0000   -0.1123
          38    0.0181   -0.0011    0.0027    0.0102   -0.0000   -0.0064    0.0000   -0.1656
          39    0.0061   -0.0005    0.0012   -0.0179    0.0000    0.0101   -0.0001    0.1921
          40   -0.0148    0.0020   -0.0042   -0.0061   -0.0000   -0.0026    0.0001    0.0808
          41    0.0262   -0.0027    0.0036   -0.0080    0.0000   -0.0083    0.0004    0.2243
          42   -0.0099    0.0015   -0.0017   -0.0208    0.0000   -0.0174    0.0007    0.3986
          43    0.0582   -0.0274    0.0620   -0.0006    0.0000   -0.0004    0.0000    0.0000
          44   -0.0198   -0.0173    0.0401    0.0005   -0.0008    0.0011   -0.0048    0.0004
          45   -0.0496   -0.0476    0.1115    0.0021    0.0003    0.0024   -0.0129    0.0012
          46    0.0485    0.0588    0.0132   -0.0000   -0.0000    0.0001    0.0098   -0.0011
          47   -0.0175    0.0504    0.0115   -0.0000   -0.0009    0.0000    0.0029   -0.0004
          48   -0.0464    0.1365    0.0314   -0.0000    0.0003    0.0001    0.0079   -0.0011
          49    0.0722   -0.0556    0.0369    0.0008   -0.0000    0.0007   -0.0072   -0.0054
          50   -0.0095    0.0487    0.0269   -0.0001   -0.0006   -0.0006    0.0038    0.0030
          51   -0.0230    0.1293    0.0738   -0.0006    0.0003   -0.0014    0.0100    0.0086


   Root No.      41        42        43        44        45

                41 A      42 A      43 A      44 A      45 A   

                3086.7    3130.7    3143.1    3152.1    3181.5
  
           1   -0.0015   -0.0001    0.0003   -0.0002   -0.0004
           2   -0.0022   -0.0001    0.0001   -0.0001    0.0003
           3    0.0006   -0.0001    0.0001   -0.0001   -0.0001
           4   -0.0000   -0.0006    0.0007   -0.0018   -0.0000
           5    0.0000    0.0002   -0.0001    0.0003    0.0000
           6    0.0000    0.0004   -0.0002    0.0008    0.0000
           7   -0.0456    0.0005    0.0002    0.0001   -0.0109
           8   -0.0219   -0.0002    0.0000   -0.0002    0.0218
           9    0.0119    0.0010    0.0001    0.0003   -0.0018
          10    0.0003    0.0001   -0.0033    0.0022    0.0001
          11   -0.0003    0.0001    0.0009   -0.0000    0.0000
          12    0.0000    0.0003    0.0025   -0.0000    0.0000
          13   -0.0000   -0.0005   -0.0022    0.0009   -0.0000
          14   -0.0000   -0.0012   -0.0187    0.0062    0.0000
          15   -0.0001   -0.0032   -0.0505    0.0166    0.0001
          16    0.0000    0.0155   -0.0143   -0.0302   -0.0002
          17    0.0000    0.0065   -0.0044   -0.0094   -0.0000
          18    0.0000    0.0177   -0.0120   -0.0257   -0.0001
          19    0.0001    0.0266    0.0052    0.0162    0.0005
          20   -0.0000   -0.0140   -0.0016   -0.0069   -0.0002
          21   -0.0000   -0.0373   -0.0043   -0.0184   -0.0006
          22    0.0014   -0.0000    0.0002   -0.0001   -0.0000
          23    0.0080    0.0001   -0.0014    0.0006    0.0020
          24    0.0177    0.0005   -0.0030    0.0013    0.0023
          25    0.0104    0.0001    0.0000   -0.0000    0.0003
          26    0.0205    0.0002   -0.0001    0.0001    0.0016
          27   -0.0248   -0.0006    0.0004   -0.0004   -0.0014
          28    0.0002    0.0014   -0.0034    0.0061    0.0000
          29   -0.0004   -0.0018    0.0037   -0.0107   -0.0001
          30    0.0000    0.0009   -0.0020    0.0004    0.0000
          31    0.0002    0.0014   -0.0034    0.0062    0.0000
          32    0.0003    0.0019   -0.0041    0.0083    0.0000
          33   -0.0002   -0.0005    0.0010   -0.0066   -0.0000
          34    0.4367   -0.0087   -0.0023   -0.0043    0.3189
          35    0.0338   -0.0010   -0.0002   -0.0006    0.0414
          36    0.0627   -0.0006   -0.0002   -0.0004    0.0389
          37    0.1177    0.0039    0.0004    0.0022   -0.1276
          38    0.2024    0.0055    0.0006    0.0032   -0.1765
          39   -0.2801   -0.0070   -0.0006   -0.0043    0.2487
          40   -0.0093   -0.0011   -0.0001    0.0000   -0.0583
          41    0.0256   -0.0023   -0.0004    0.0004   -0.1320
          42    0.0753   -0.0044   -0.0008    0.0008   -0.2657
          43    0.0001    0.0041    0.0594   -0.0182   -0.0001
          44    0.0005    0.0154    0.2095   -0.0645   -0.0002
          45    0.0015    0.0416    0.5656   -0.1739   -0.0005
          46   -0.0004   -0.2039    0.1490    0.2969    0.0014
          47   -0.0001   -0.0763    0.0553    0.1097    0.0005
          48   -0.0004   -0.2083    0.1508    0.2995    0.0014
          49   -0.0004   -0.2925   -0.0383   -0.1357   -0.0049
          50    0.0001    0.1618    0.0207    0.0742    0.0027
          51    0.0007    0.4326    0.0554    0.1983    0.0070


           MASS-WEIGHTED COORDINATE ANALYSIS (NORMAL COORDINATES)


   Root No.       1         2         3         4         5         6         7         8

                 1 A       2 A       3 A       4 A       5 A       6 A       7 A       8 A   

                  53.5     156.8     169.4     301.9     343.9     391.7     593.6     662.2
  
           1    0.0576   -0.0636   -0.0208   -0.0451    0.0136    0.0245    0.2702    0.4628
           2    0.0492   -0.0677   -0.0249   -0.1850   -0.1041   -0.2745    0.0142    0.2278
           3   -0.3070   -0.0289   -0.0933    0.3033   -0.1998   -0.1348   -0.0026    0.1068
           4    0.0561   -0.0671   -0.0026    0.0109   -0.0979   -0.1655   -0.2044   -0.2263
           5   -0.2033    0.2481    0.1197   -0.1305   -0.2147    0.0412   -0.0047   -0.0855
           6    0.1316   -0.0826    0.0428    0.1391    0.0031   -0.0859   -0.0669   -0.0659
           7   -0.1201    0.3911    0.2169    0.2564    0.1190    0.3415    0.1684    0.0519
           8   -0.0376    0.1604    0.0967   -0.0418   -0.0676   -0.1642   -0.1217   -0.0009
           9    0.4505    0.0732    0.1407    0.1297   -0.0470    0.0123    0.0177    0.0066
          10    0.0355   -0.0663   -0.0175    0.0122   -0.0601   -0.0749    0.1024    0.2406
          11    0.0470   -0.3279   -0.1720   -0.0027   -0.0684    0.1476    0.5617   -0.2757
          12   -0.1585    0.0708   -0.0782   -0.2719    0.2522    0.1422   -0.1387    0.1469
          13    0.1110   -0.0497    0.0579    0.1067   -0.1594   -0.1979   -0.1087   -0.0502
          14   -0.2214   -0.2243   -0.1209    0.2707    0.3150    0.1222   -0.1461   -0.0679
          15    0.0257    0.0535   -0.0064   -0.2557    0.0043    0.0408   -0.0537   -0.2222
          16   -0.0592   -0.1018   -0.1310   -0.1918    0.0746   -0.0140   -0.1459   -0.2255
          17    0.1312    0.2417    0.1183    0.0454    0.3031   -0.2888    0.0990   -0.0403
          18   -0.0245   -0.0891    0.0082    0.0212   -0.1387    0.0885   -0.0363    0.0096
          19   -0.0681   -0.1048   -0.1391   -0.1951    0.0785   -0.0018   -0.1196   -0.1802
          20    0.2678   -0.1589   -0.0854    0.0849   -0.1083    0.4313   -0.1158    0.0570
          21   -0.1892    0.0249   -0.0498   -0.2175    0.2099    0.0082    0.1778    0.1257
          22    0.0501   -0.0314   -0.0417   -0.1521    0.1097    0.0869    0.0832    0.1728
          23    0.1678    0.0311    0.0350   -0.1636    0.0623   -0.0225   -0.0614    0.0852
          24   -0.1798   -0.0327   -0.0410    0.1810   -0.1329   -0.0882    0.0346    0.0106
          25    0.0251   -0.0926   -0.0180    0.0807   -0.0849   -0.0367    0.1970    0.1296
          26   -0.1359   -0.0096   -0.0163    0.0561   -0.1080   -0.1403   -0.0058    0.0469
          27   -0.2040   -0.0433   -0.0409    0.2291   -0.1725   -0.1154    0.0587    0.0141
          28   -0.0115    0.0811    0.0482   -0.1433   -0.2584    0.0007   -0.0819   -0.0004
          29   -0.0718    0.1375    0.0676   -0.1293   -0.2067    0.0371   -0.0109    0.0181
          30    0.1187   -0.0187    0.0308    0.1258    0.1436   -0.1719    0.0844   -0.0753
          31    0.0564   -0.1160   -0.0350    0.1746    0.1786   -0.1169   -0.0446   -0.1265
          32   -0.1117    0.1221    0.0594   -0.1431   -0.2823    0.1146   -0.0692    0.0666
          33    0.0115   -0.0624    0.0079    0.0905   -0.0583    0.0323   -0.0881    0.0328
          34   -0.0282    0.1369   -0.0002    0.0790    0.0263    0.0894    0.0527    0.0314
          35   -0.0301    0.1762    0.0665    0.0736    0.0154    0.0620   -0.0664   -0.2453
          36    0.0872   -0.2450    0.5387   -0.0412    0.0380    0.0377    0.0063   -0.0168
          37   -0.0373    0.3707   -0.2645    0.1880    0.0155    0.1408    0.0385   -0.1132
          38    0.1445    0.1164   -0.1242   -0.0461   -0.0209   -0.0684   -0.0201    0.0450
          39    0.2508    0.1983   -0.2343    0.0648   -0.0243    0.0058    0.0119   -0.0220
          40   -0.0824   -0.0537    0.5130    0.0484    0.0988    0.1869    0.0422   -0.1248
          41   -0.1658   -0.0988    0.1721   -0.0221   -0.0379   -0.0856   -0.0452    0.0763
          42    0.2272    0.1353   -0.1255    0.0492   -0.0154    0.0099    0.0128   -0.0171
          43    0.0574   -0.0073    0.0464    0.0815   -0.0936   -0.1071   -0.0838   -0.0750
          44   -0.1232   -0.0918   -0.0494    0.1544    0.2367    0.0135   -0.3089    0.2071
          45    0.0266    0.0248    0.0006   -0.1067   -0.0482    0.0248    0.0888   -0.1424
          46   -0.0357   -0.0348   -0.0593   -0.0926    0.0551    0.0273   -0.0154   -0.0363
          47    0.0675    0.1496    0.0741    0.0276    0.2235   -0.2424   -0.0451    0.1132
          48    0.0005   -0.0497    0.0090    0.0372   -0.1230    0.0526   -0.0113   -0.0740
          49   -0.0384   -0.0377   -0.0640   -0.1058    0.0623    0.0330   -0.0580   -0.1097
          50    0.1451   -0.0886   -0.0483    0.0509   -0.0722    0.2810   -0.3569    0.2266
          51   -0.0926    0.0182   -0.0214   -0.1058    0.1027   -0.0333    0.1568   -0.0809


   Root No.       9        10        11        12        13        14        15        16

                 9 A      10 A      11 A      12 A      13 A      14 A      15 A      16 A   

                 757.8     803.0     809.7     831.1     926.8     973.9     980.5    1007.4
  
           1   -0.0673    0.0074   -0.0058    0.0612   -0.0161   -0.0442    0.0146    0.0298
           2   -0.0468   -0.0010   -0.0028    0.0276    0.0044   -0.0697    0.0288   -0.0075
           3   -0.0875    0.1291   -0.0977   -0.3192   -0.0196   -0.0360   -0.0085    0.2604
           4   -0.0016    0.4159    0.1454    0.0388    0.0011   -0.0939    0.0281    0.0952
           5   -0.2692   -0.0480   -0.2396    0.1270    0.2576    0.0372    0.3022   -0.0035
           6    0.1223   -0.2404   -0.0055   -0.1064   -0.0961   -0.0573   -0.1055   -0.0645
           7    0.0143    0.0018    0.0098    0.0181   -0.0360   -0.3064    0.0585   -0.1445
           8   -0.0421    0.0099   -0.0266    0.0211   -0.0353    0.0433   -0.0220   -0.0032
           9   -0.0059    0.0300   -0.0199   -0.0957    0.0269   -0.0193    0.0158   -0.1615
          10   -0.0490   -0.0225   -0.0323   -0.0064   -0.0040    0.2315   -0.0591    0.1070
          11    0.2806    0.0837    0.0873   -0.1286    0.2125   -0.0723    0.0680    0.0845
          12   -0.1093    0.1447    0.0396    0.0974   -0.0815   -0.0074   -0.0154    0.0578
          13   -0.0198    0.1862    0.0544    0.0184   -0.0006    0.1543   -0.0430   -0.0465
          14    0.0595    0.1622   -0.1406    0.0728   -0.2292   -0.1579   -0.3136   -0.0553
          15    0.0272    0.2375    0.2095    0.0806    0.0989   -0.2373    0.2034   -0.1320
          16    0.0454   -0.3270   -0.1010   -0.0459   -0.0014   -0.0988    0.0262    0.0050
          17   -0.0946   -0.1993    0.1342   -0.0826   -0.0367   -0.0748   -0.3302   -0.0146
          18    0.0537   -0.3568   -0.2039   -0.0379    0.0104   -0.0245    0.1425    0.1165
          19    0.0373   -0.3122   -0.0996   -0.0428   -0.0020   -0.0354    0.0098   -0.0007
          20   -0.1978   -0.0023    0.1379    0.0046   -0.3310    0.2281    0.2010   -0.0414
          21    0.0680    0.1186    0.0257    0.1306    0.1382    0.3628   -0.1879   -0.1226
          22   -0.0660    0.0888   -0.0491   -0.1381   -0.0369   -0.0402   -0.0105    0.4992
          23   -0.0979    0.0956   -0.1298   -0.3685    0.0158   -0.0310    0.0129   -0.0978
          24    0.0329   -0.0354    0.0562    0.1578   -0.0070    0.0038   -0.0023    0.0247
          25    0.0680   -0.0464    0.0609    0.0684    0.1263    0.0760    0.0411   -0.3576
          26    0.0264   -0.0905    0.0928    0.3695   -0.0688   -0.0643   -0.0035    0.0471
          27    0.0574   -0.0656    0.0869    0.2401    0.0091    0.0000    0.0093   -0.0905
          28    0.2380    0.1042    0.2982   -0.1301   -0.0635   -0.0478   -0.2620    0.0665
          29    0.0723   -0.0312    0.1024   -0.0586    0.0478   -0.0019   -0.0959    0.0294
          30   -0.1995   -0.0874    0.0278   -0.0118    0.3195    0.0345   -0.0687    0.0673
          31   -0.2465    0.2123   -0.1944    0.1516    0.0613    0.0970    0.2446    0.0157
          32    0.1845   -0.0346    0.0299   -0.0612   -0.1745    0.0522   -0.0567   -0.0443
          33    0.0989   -0.0037   -0.1394   -0.0027   -0.2799    0.1721    0.0466   -0.0870
          34   -0.0028    0.0062   -0.0037   -0.0122   -0.0121   -0.1156    0.0236   -0.0740
          35    0.0734   -0.0024    0.0249   -0.0492    0.1018    0.4671   -0.0821    0.2664
          36    0.0227   -0.0337    0.0373    0.1375   -0.0215   -0.0012   -0.0095    0.0989
          37    0.0370    0.0376   -0.0143   -0.1818    0.0896    0.1628   -0.0086   -0.0167
          38    0.0038   -0.0757    0.0602    0.3224   -0.0998   -0.1092   -0.0099    0.1536
          39    0.0267   -0.0379    0.0418    0.1428   -0.0185    0.0126   -0.0101    0.0910
          40    0.0679   -0.0337    0.0549    0.0942    0.0270    0.1359   -0.0243    0.1995
          41   -0.0762    0.0911   -0.1018   -0.3040    0.0277   -0.0516    0.0226   -0.2854
          42    0.0249   -0.0370    0.0406    0.1406   -0.0211   -0.0085   -0.0055    0.0792
          43   -0.0004   -0.0342   -0.0253   -0.0355   -0.0030    0.1511   -0.0526   -0.1719
          44    0.0598   -0.1504    0.5830   -0.1499    0.2446    0.0147    0.3305    0.0144
          45   -0.0082    0.1523   -0.1653    0.0915   -0.0861   -0.1063   -0.0919   -0.0349
          46    0.0179   -0.1393   -0.0379    0.0091    0.0036    0.1944   -0.0525   -0.1512
          47    0.6241    0.0860   -0.2559   -0.0083   -0.0883   -0.0019    0.3993    0.1004
          48   -0.2272   -0.1154    0.0565   -0.0390    0.0276   -0.2333   -0.0810    0.1455
          49    0.0279   -0.0219    0.0112    0.0313    0.0117    0.0524   -0.0198   -0.1658
          50    0.2009    0.0938   -0.2328    0.1632    0.5384   -0.0457   -0.2898   -0.0421
          51   -0.0652    0.0472    0.1376    0.0081   -0.1888    0.1924    0.0597   -0.1358


   Root No.      17        18        19        20        21        22        23        24

                17 A      18 A      19 A      20 A      21 A      22 A      23 A      24 A   

                1017.2    1032.6    1041.7    1077.2    1089.2    1115.9    1123.9    1200.9
  
           1   -0.0918   -0.0100   -0.0280    0.2162   -0.0649    0.0110   -0.0705   -0.0463
           2   -0.0280    0.0350   -0.0203    0.1428   -0.0256    0.4167    0.2661    0.0321
           3    0.1314    0.0636    0.1170    0.0201    0.0203   -0.1512    0.2615   -0.0743
           4   -0.1051    0.0108   -0.1721   -0.1750    0.0446   -0.0050    0.0225    0.0315
           5    0.0876    0.0205   -0.0051    0.0584   -0.0257    0.0035    0.0015   -0.0746
           6    0.1253    0.0917   -0.0252    0.1725   -0.0729    0.0056    0.0012   -0.2034
           7    0.1717    0.0495    0.0349   -0.1311    0.0314   -0.0018    0.0698    0.0304
           8   -0.0046   -0.0394    0.0078   -0.0208   -0.0123   -0.4320   -0.2612   -0.0036
           9   -0.0434   -0.0294   -0.0334   -0.0240   -0.0130    0.1833   -0.3113    0.0121
          10   -0.0605   -0.0507   -0.0183   -0.1528    0.0640    0.0013   -0.0117   -0.0797
          11    0.0712    0.1548    0.0885   -0.1217    0.0230   -0.0208   -0.0396    0.0447
          12   -0.0624   -0.0371   -0.0736    0.0940   -0.0620    0.0236   -0.0048    0.1849
          13    0.0116   -0.0960    0.2117   -0.0515    0.0123   -0.0017   -0.0021   -0.3055
          14   -0.0073   -0.2439   -0.0279    0.1415   -0.0969    0.0231    0.0245   -0.0256
          15   -0.1080    0.0146    0.2160    0.1881   -0.2091   -0.0010    0.0172   -0.0866
          16   -0.0533   -0.0129   -0.0027   -0.0194   -0.0659    0.0007   -0.0053    0.1014
          17   -0.2292    0.2284    0.0868   -0.1233    0.0403   -0.0091   -0.0016   -0.0299
          18   -0.1781   -0.2225   -0.0272   -0.2429    0.0871   -0.0128    0.0080   -0.0752
          19    0.0153    0.0313   -0.0632    0.0190    0.0213   -0.0012   -0.0103    0.1335
          20    0.0653   -0.2124   -0.0622   -0.0755    0.0491    0.0050    0.0169    0.0633
          21    0.0231   -0.0147    0.0514   -0.3444    0.1686   -0.0240    0.0123    0.1598
          22    0.1037    0.1017    0.1670    0.2767   -0.0986   -0.0257   -0.3546   -0.0138
          23    0.0167    0.0005   -0.0193   -0.0533    0.0489    0.0451    0.4856   -0.0357
          24   -0.0059    0.0005    0.0049    0.0178   -0.0097    0.0052   -0.0744    0.0041
          25   -0.3386   -0.0694   -0.1915    0.3576   -0.1250   -0.3369    0.1633    0.1331
          26    0.0668    0.0089    0.0239   -0.0703    0.0195    0.4582   -0.1446   -0.0299
          27   -0.0724   -0.0194   -0.0435    0.0745   -0.0305    0.0383   -0.0021    0.0292
          28    0.1389   -0.0989   -0.2695   -0.0755   -0.0460   -0.0009    0.0065    0.1867
          29    0.1608   -0.0717   -0.1691    0.0093   -0.0545    0.0019   -0.0012    0.0990
          30    0.4901   -0.1914   -0.4223    0.1193   -0.1762    0.0086   -0.0140    0.1452
          31   -0.0135    0.2829   -0.1407   -0.1186   -0.0355   -0.0041    0.0038    0.1863
          32    0.0272    0.2414   -0.0503    0.0430   -0.0662    0.0009   -0.0113    0.0173
          33    0.0580    0.6387   -0.1710    0.0180   -0.1503   -0.0014   -0.0193    0.1728
          34    0.0588    0.0144    0.0084   -0.0478    0.0106    0.0052   -0.0012    0.0131
          35   -0.2689   -0.0496   -0.0442    0.2218   -0.0572    0.0198   -0.0193   -0.0400
          36    0.0285    0.0163    0.0251    0.0063   -0.0022   -0.0486    0.0730   -0.0008
          37   -0.1484   -0.0203   -0.0502    0.1117   -0.0312    0.2557   -0.0255    0.0086
          38    0.1487    0.0331    0.0717   -0.0663    0.0225   -0.4149    0.1311   -0.0137
          39    0.0173    0.0118    0.0190    0.0142   -0.0016   -0.0528    0.0542   -0.0060
          40   -0.0536    0.0231    0.0095    0.1158   -0.0153    0.0804    0.2179   -0.0064
          41   -0.0420   -0.0573   -0.0473   -0.0772   -0.0081   -0.0310   -0.4267    0.0084
          42    0.0300    0.0168    0.0206    0.0065    0.0022   -0.0185    0.0737    0.0005
          43    0.2420   -0.0937    0.5864    0.2389    0.1574    0.0304    0.0150    0.5487
          44    0.0000    0.1183    0.0637   -0.0385   -0.0151   -0.0210   -0.0140   -0.0368
          45   -0.0572   -0.0580   -0.0195    0.0625   -0.0870    0.0070    0.0121   -0.0827
          46    0.1627   -0.0174    0.1429   -0.1608   -0.4489    0.0014    0.0396   -0.2343
          47    0.0291   -0.1916   -0.0998    0.0326    0.1481   -0.0012   -0.0127    0.0780
          48   -0.2622    0.0439   -0.1073    0.0527    0.4009   -0.0058   -0.0337    0.2086
          49    0.2351    0.1470   -0.1322    0.3189    0.4849   -0.0165   -0.0389   -0.3567
          50    0.0175    0.1644    0.0371   -0.0060    0.1283   -0.0111   -0.0101   -0.0691
          51    0.1612    0.0026   -0.0825    0.0998    0.3344   -0.0134   -0.0142   -0.1857


   Root No.      25        26        27        28        29        30        31        32

                25 A      26 A      27 A      28 A      29 A      30 A      31 A      32 A   

                1243.5    1322.8    1350.0    1374.7    1391.5    1403.4    1411.5    1416.3
  
           1   -0.1574    0.4147   -0.0277   -0.0764    0.2673   -0.0097    0.0490    0.1262
           2    0.2062   -0.2423    0.0326   -0.1436    0.0921    0.0009   -0.0437   -0.3343
           3    0.0063    0.0137   -0.0248   -0.0145    0.0215   -0.0072    0.0001   -0.0124
           4    0.2425    0.0129    0.3525    0.3091    0.3336   -0.0045    0.0179    0.0598
           5    0.0105    0.0615    0.2081   -0.0552   -0.0767   -0.0003   -0.0029   -0.0054
           6    0.0266    0.1722    0.5658   -0.1465   -0.2052   -0.0007   -0.0064   -0.0082
           7    0.0561   -0.0453    0.0030    0.0766   -0.0429    0.0537   -0.2690   -0.1860
           8   -0.0173   -0.0773    0.0176   -0.1837    0.0667    0.0144   -0.0156    0.4411
           9    0.0155   -0.0106    0.0030    0.0034   -0.0052   -0.2460   -0.0547    0.0032
          10   -0.2339   -0.0290    0.0345   -0.1135   -0.0249   -0.0001    0.0024    0.0040
          11   -0.1035    0.0765    0.0171   -0.0194    0.0467   -0.0007    0.0088    0.0419
          12   -0.1200    0.0855    0.0612   -0.0665    0.1174   -0.0002    0.0128    0.0292
          13   -0.2332   -0.2777   -0.2473   -0.1057   -0.2311    0.0071   -0.0195   -0.0738
          14   -0.0414   -0.0137   -0.0889   -0.0143   -0.0055   -0.0007   -0.0015   -0.0089
          15   -0.1522   -0.0112   -0.2459   -0.0341   -0.0163   -0.0018   -0.0012   -0.0033
          16   -0.0510   -0.0424    0.0109   -0.0100   -0.0722    0.0001   -0.0037   -0.0116
          17    0.1065    0.0136   -0.1338    0.0426    0.0899    0.0001    0.0044    0.0111
          18    0.2940    0.0327   -0.3620    0.1155    0.2417    0.0011    0.0114    0.0277
          19   -0.1105   -0.0721    0.0565   -0.0266   -0.1282    0.0002   -0.0088   -0.0227
          20    0.0232   -0.0683    0.0561    0.0219   -0.0652    0.0011   -0.0070   -0.0190
          21    0.0348   -0.1673    0.1496    0.0598   -0.1755   -0.0000   -0.0145   -0.0373
          22    0.3613   -0.2303   -0.0310    0.2363   -0.2757    0.0142   -0.0447    0.0300
          23   -0.1134    0.2024   -0.0663    0.3011   -0.2260    0.0061    0.0026    0.2681
          24    0.0113   -0.0611    0.0326   -0.2100    0.1876   -0.0091    0.0023   -0.1731
          25    0.2404   -0.1659    0.0080    0.1327   -0.1497    0.0040   -0.0362   -0.0058
          26   -0.0777    0.1853   -0.0523    0.2732   -0.1995    0.0070    0.0043    0.2387
          27    0.0471    0.0398   -0.0413    0.2902   -0.2622    0.0042   -0.0122    0.2078
          28    0.2216    0.2329   -0.1864   -0.2334   -0.1809    0.0014   -0.0063   -0.0177
          29    0.0687    0.1261   -0.1334   -0.1800   -0.1590    0.0014   -0.0066   -0.0197
          30   -0.2149   -0.2041   -0.1318    0.1892    0.1770   -0.0010    0.0066    0.0162
          31    0.2216    0.2297   -0.1854   -0.2321   -0.1793    0.0012   -0.0071   -0.0203
          32   -0.1943   -0.2289    0.0167    0.2606    0.2367   -0.0017    0.0096    0.0258
          33   -0.1202   -0.0719   -0.1862    0.0261    0.0310    0.0001    0.0006   -0.0013
          34    0.0350   -0.0519    0.0047   -0.0082   -0.0120   -0.0848   -0.0062    0.0008
          35   -0.1398    0.3042   -0.0326    0.1864    0.0150   -0.0108   -0.3688   -0.3046
          36   -0.0067    0.0100    0.0031    0.0015    0.0081    0.7238    0.0420   -0.0184
          37    0.0578   -0.1046    0.0138   -0.1130    0.0208    0.3859    0.4342    0.1694
          38   -0.0673    0.1439   -0.0221    0.1800   -0.0746   -0.0765    0.2547   -0.3127
          39   -0.0186    0.0639   -0.0112    0.0940   -0.0503    0.0996    0.4123   -0.1902
          40    0.0512   -0.0903    0.0031   -0.0830   -0.0012   -0.4857    0.4393    0.1281
          41   -0.0590    0.1538   -0.0172    0.1946   -0.0800    0.0246    0.3022   -0.3360
          42    0.0237   -0.0722    0.0110   -0.0988    0.0458    0.0581   -0.2626    0.1881
          43    0.0757    0.1347   -0.0284    0.0469    0.1642   -0.0027    0.0125    0.0365
          44   -0.0349    0.0012   -0.0294   -0.0062   -0.0096    0.0000    0.0005    0.0045
          45   -0.0563   -0.0249   -0.0771   -0.0209   -0.0263   -0.0003   -0.0025   -0.0095
          46    0.2688    0.0967   -0.0669    0.0602    0.1507   -0.0005    0.0087    0.0240
          47   -0.0592   -0.0312   -0.0165   -0.0062   -0.0284    0.0004   -0.0018   -0.0054
          48   -0.1539   -0.0859   -0.0453   -0.0167   -0.0755    0.0007   -0.0050   -0.0153
          49    0.1492    0.0835   -0.1608    0.0087    0.1127    0.0058    0.0055    0.0140
          50    0.0406    0.0055   -0.0221    0.0108    0.0145   -0.0014    0.0014    0.0048
          51    0.1263    0.0101   -0.0610    0.0315    0.0395    0.0042    0.0000   -0.0003


   Root No.      33        34        35        36        37        38        39        40

                33 A      34 A      35 A      36 A      37 A      38 A      39 A      40 A   

                1495.3    1744.6    1834.7    2950.2    2984.4    3025.8    3052.5    3079.9
  
           1   -0.3780    0.0797   -0.1740    0.0440    0.0001   -0.1045    0.0003   -0.0015
           2   -0.0026    0.0028    0.0061    0.0256   -0.0001   -0.1846   -0.0001   -0.0052
[...]
 REDUCED MASS        3.3466         C  2 -- H 11         +14.8% ( 61.9%)      0.2%
 EFFECTIVE MASS      9.8636
 FORCE CONSTANT      3.5937

 VIBRATION         28   28A           ATOM PAIR      ENERGY CONTRIBUTION    RADIAL
 FREQUENCY          1374.71         C  2 -- H 10         +13.9% ( 41.6%)      6.9%
 TRANSITION DIPOLE   0.1846         C  2 -- H 11         +13.8% ( 41.6%)      6.9%
 TRAVEL (Ang.)       0.3948         C  1 -- H  8         +12.1% ( 38.9%)      2.8%
 REDUCED MASS        0.3148         C  1 -- H  9         +11.1% ( 37.3%)      3.5%
 EFFECTIVE MASS      3.3351
 FORCE CONSTANT      0.3505

 VIBRATION         29   29A           ATOM PAIR      ENERGY CONTRIBUTION    RADIAL
 FREQUENCY          1391.55         C  2 -- C  6         +12.1% ( 46.0%)     80.8%
 TRANSITION DIPOLE   0.0876         C  2 -- C  5         +10.6% ( 43.0%)     46.5%
 TRAVEL (Ang.)       0.2900         C  1 -- H  8         +10.2% ( 42.1%)      2.6%
 REDUCED MASS        0.5762         C  2 -- H 10         +10.0% ( 41.8%)      8.5%
 EFFECTIVE MASS      5.6199         C  2 -- H 11         +10.0% ( 41.8%)      8.5%
 FORCE CONSTANT      0.6574

 VIBRATION         30   30A           ATOM PAIR      ENERGY CONTRIBUTION    RADIAL
 FREQUENCY          1403.37         C  3 -- H 12         +53.2% ( 63.0%)      0.0%
 TRANSITION DIPOLE   0.0333         C  3 -- H 14         +24.6% ( 42.8%)      8.2%
 TRAVEL (Ang.)       0.3389         C  3 -- H 13         +17.1% ( 35.7%)     15.2%
 REDUCED MASS        0.4183         C  1 -- C  3          +5.0% ( 19.3%)      0.4%
 EFFECTIVE MASS      1.5503
 FORCE CONSTANT      0.4853

 VIBRATION         31   31A           ATOM PAIR      ENERGY CONTRIBUTION    RADIAL
 FREQUENCY          1411.46         C  3 -- H 13         +41.7% ( 57.3%)      0.4%
 TRANSITION DIPOLE   0.0688         C  3 -- H 14         +35.2% ( 52.7%)      1.3%
 TRAVEL (Ang.)       0.3480         C  3 -- H 12         +14.4% ( 33.7%)     29.9%
 REDUCED MASS        0.3945         C  1 -- C  3          +6.6% ( 22.9%)     25.0%
 EFFECTIVE MASS      1.7352
 FORCE CONSTANT      0.4631

 VIBRATION         32   32A           ATOM PAIR      ENERGY CONTRIBUTION    RADIAL
 FREQUENCY          1416.30         C  1 -- C  3         +20.2% ( 55.2%)     99.6%
 TRANSITION DIPOLE   0.0189         C  3 -- H 14         +18.3% ( 52.7%)      3.7%
 TRAVEL (Ang.)       0.2286         C  3 -- H 13         +18.2% ( 52.4%)      3.8%
 REDUCED MASS        0.9111         C  3 -- H 12         +14.8% ( 47.4%)      2.8%
 EFFECTIVE MASS      4.7901         C  1 -- H  8         +10.2% ( 39.4%)      4.0%
 FORCE CONSTANT      1.0768         C  1 -- H  9         +10.1% ( 39.1%)      3.5%

 VIBRATION         33   33A           ATOM PAIR      ENERGY CONTRIBUTION    RADIAL
 FREQUENCY          1495.34         C  4 -- C  7         +22.8% ( 80.3%)     99.7%
 TRANSITION DIPOLE   0.5374         C  1 -- C  4         +20.4% ( 75.8%)     66.6%
 TRAVEL (Ang.)       0.1029         C  4 -- C  5         +16.3% ( 67.7%)     18.1%
 REDUCED MASS        4.2600         C  4 -- C  6         +13.4% ( 61.6%)     89.0%
 EFFECTIVE MASS     11.4106
 FORCE CONSTANT      5.6123

 VIBRATION         34   34A           ATOM PAIR      ENERGY CONTRIBUTION    RADIAL
 FREQUENCY          1744.59         C  6 -- C  7         +32.3% ( 96.4%)    100.0%
 TRANSITION DIPOLE   0.5039         C  4 -- C  6         +11.6% ( 57.8%)     50.9%
 TRAVEL (Ang.)       0.0941         C  2 -- C  6         +10.3% ( 54.5%)     16.1%
 REDUCED MASS        4.3661         C  5 -- C  7         +10.2% ( 54.1%)     15.9%
 EFFECTIVE MASS     11.9761
 FORCE CONSTANT      7.8294

 VIBRATION         35   35A           ATOM PAIR      ENERGY CONTRIBUTION    RADIAL
 FREQUENCY          1834.69         C  4 -- C  5         +29.8% ( 90.8%)     95.8%
 TRANSITION DIPOLE   0.2661         C  4 -- C  7         +14.4% ( 63.0%)      0.6%
 TRAVEL (Ang.)       0.0896         C  1 -- C  4         +14.2% ( 62.8%)     73.0%
 REDUCED MASS        4.5805         C  4 -- C  6         +13.0% ( 60.0%)     21.6%
 EFFECTIVE MASS     11.8367
 FORCE CONSTANT      9.0842

 VIBRATION         36   36A           ATOM PAIR      ENERGY CONTRIBUTION    RADIAL
 FREQUENCY          2950.23         C  1 -- H  9         +51.9% ( 74.8%)     96.8%
 TRANSITION DIPOLE   0.0305         C  1 -- H  8         +45.5% ( 70.0%)     96.1%
 TRAVEL (Ang.)       0.2099         C  1 -- C  3          +1.2% ( 11.3%)      0.0%
 REDUCED MASS        0.5187         C  1 -- C  4          +1.2% ( 11.2%)      0.0%
 EFFECTIVE MASS      1.5489
 FORCE CONSTANT      2.6602

 VIBRATION         37   37A           ATOM PAIR      ENERGY CONTRIBUTION    RADIAL
 FREQUENCY          2984.41         C  2 -- H 11         +49.0% ( 72.5%)     96.8%
 TRANSITION DIPOLE   0.1508         C  2 -- H 10         +48.9% ( 72.4%)     96.8%
 TRAVEL (Ang.)       0.2090         C  2 -- C  5          +1.1% ( 10.6%)      0.0%
 REDUCED MASS        0.5172         C  2 -- C  6          +1.1% ( 10.6%)      0.0%
 EFFECTIVE MASS      1.5314
 FORCE CONSTANT      2.7139

 VIBRATION         38   38A           ATOM PAIR      ENERGY CONTRIBUTION    RADIAL
 FREQUENCY          3025.80         C  1 -- H  8         +52.6% ( 71.5%)     98.0%
 TRANSITION DIPOLE   0.0323         C  1 -- H  9         +45.6% ( 66.6%)     97.2%
 TRAVEL (Ang.)       0.2152         C  1 -- C  3          +0.6% (  7.9%)     26.1%
 REDUCED MASS        0.4813         C  1 -- C  4          +0.6% (  7.8%)     30.5%
 EFFECTIVE MASS      1.2774
 FORCE CONSTANT      2.5963

 VIBRATION         39   39A           ATOM PAIR      ENERGY CONTRIBUTION    RADIAL
 FREQUENCY          3052.54         C  2 -- H 10         +49.3% ( 69.4%)     97.3%
 TRANSITION DIPOLE   0.2759         C  2 -- H 11         +49.1% ( 69.3%)     97.3%
 TRAVEL (Ang.)       0.2138         C  2 -- C  6          +0.7% (  8.5%)     35.7%
 REDUCED MASS        0.4831         C  2 -- C  5          +0.7% (  8.5%)     35.6%
 EFFECTIVE MASS      1.2881
 FORCE CONSTANT      2.6521

 VIBRATION         40   40A           ATOM PAIR      ENERGY CONTRIBUTION    RADIAL
 FREQUENCY          3079.93         C  3 -- H 14         +66.4% ( 84.1%)     98.9%
 TRANSITION DIPOLE   0.0227         C  3 -- H 13         +24.5% ( 51.1%)     90.5%
 TRAVEL (Ang.)       0.2023         C  3 -- H 12          +7.7% ( 28.6%)     67.8%
 REDUCED MASS        0.5350         C  1 -- C  3          +1.0% ( 10.2%)      0.0%
 EFFECTIVE MASS      1.5016
 FORCE CONSTANT      2.9901

 VIBRATION         41   41A           ATOM PAIR      ENERGY CONTRIBUTION    RADIAL
 FREQUENCY          3086.69         C  3 -- H 12         +57.0% ( 77.9%)     98.1%
 TRANSITION DIPOLE   0.0140         C  3 -- H 13         +39.1% ( 64.5%)     95.2%
 TRAVEL (Ang.)       0.2077         C  3 -- H 14          +2.6% ( 16.6%)     31.7%
 REDUCED MASS        0.5062         C  1 -- C  3          +1.0% ( 10.3%)      0.1%
 EFFECTIVE MASS      1.5049
 FORCE CONSTANT      2.8414

 VIBRATION         42   42A           ATOM PAIR      ENERGY CONTRIBUTION    RADIAL
 FREQUENCY          3130.74         C  7 -- H 17         +73.1% ( 87.6%)    100.0%
 TRANSITION DIPOLE   0.3839         C  6 -- H 16         +22.1% ( 48.1%)    100.0%
 TRAVEL (Ang.)       0.1905         C  6 -- C  7          +1.3% ( 11.6%)      7.5%
 REDUCED MASS        0.5934         C  4 -- C  7          +1.2% ( 11.4%)     28.7%
 EFFECTIVE MASS      1.4900
 FORCE CONSTANT      3.4267

 VIBRATION         43   43A           ATOM PAIR      ENERGY CONTRIBUTION    RADIAL
 FREQUENCY          3143.11         C  5 -- H 15         +83.0% ( 93.5%)    100.0%
 TRANSITION DIPOLE   0.5161         C  6 -- H 16         +10.8% ( 33.8%)    100.0%
 TRAVEL (Ang.)       0.1723         C  4 -- C  5          +1.5% ( 12.6%)     48.8%
 REDUCED MASS        0.7224         C  2 -- C  5          +1.4% ( 12.2%)     25.7%
 EFFECTIVE MASS      1.5420
 FORCE CONSTANT      4.2049

 VIBRATION         44   44A           ATOM PAIR      ENERGY CONTRIBUTION    RADIAL
 FREQUENCY          3152.13         C  6 -- H 16         +61.8% ( 80.8%)    100.0%
 TRANSITION DIPOLE   0.2573         C  7 -- H 17         +20.7% ( 46.8%)     99.9%
 TRAVEL (Ang.)       0.2152         C  5 -- H 15         +11.3% ( 34.6%)    100.0%
 REDUCED MASS        0.4620         C  6 -- C  7          +2.1% ( 14.8%)     93.6%
 EFFECTIVE MASS      1.6507
 FORCE CONSTANT      2.7043

 VIBRATION         45   45A           ATOM PAIR      ENERGY CONTRIBUTION    RADIAL
 FREQUENCY          3181.53         C  3 -- H 13         +35.8% ( 57.6%)     97.5%
 TRANSITION DIPOLE   0.0164         C  3 -- H 12         +34.3% ( 56.4%)     97.3%
 TRAVEL (Ang.)       0.2540         C  3 -- H 14         +29.5% ( 52.3%)     96.4%
 REDUCED MASS        0.3286         C  1 -- C  3          +0.3% (  5.1%)     99.4%
 EFFECTIVE MASS      1.1360
 FORCE CONSTANT      1.9599

      SYMMETRY NUMBER FOR POINT-GROUP C1  =  1


          SYSTEM IS A GROUND STATE



 InChI=1S/C7H10/c1-2-7-5-3-4-6-7/h3,5-6H,2,4H2,1H3


          MOLECULE IS NOT LINEAR

          THERE ARE 45 GENUINE VIBRATIONS IN THIS SYSTEM
          THIS THERMODYNAMICS CALCULATION IS LIMITED TO
          MOLECULES WHICH HAVE NO INTERNAL ROTATIONS




                    CALCULATED THERMODYNAMIC PROPERTIES
                                          *
   TEMP. (K)   PARTITION FUNCTION   H.O.F.    ENTHALPY  HEAT CAPACITY ENTROPY
                                   KCAL/MOL   CAL/MOLE    CAL/K/MOL  CAL/K/MOL


 298.00  VIB.     0.3710D+02                  2656.2141    20.1338    16.0943
         ROT.     0.2054D+06                   888.2803     2.9808    27.2892
         INT.     0.7618D+07                  3544.4944    23.1146    43.3836
         TRA.     0.8833D+27                  1480.4672     4.9680    39.5363
         TOT.                       17.095    5024.9616    28.0826    82.9198

 200.00  VIB.     0.8991D+01                  1108.8829    11.7773     9.9087
         ROT.     0.1129D+06                   596.1613     2.9808    26.1006
         INT.     0.1015D+07                  1705.0442    14.7581    36.0092
         TRA.     0.4856D+27                   993.6021     4.9680    37.5551
         TOT.                       14.768    2698.6463    19.7261    73.5644

 210.00  VIB.     0.1034D+02                  1230.3637    12.5239    10.5012
         ROT.     0.1215D+06                   625.9693     2.9808    26.2460
         INT.     0.1256D+07                  1856.3331    15.5047    36.7472
         TRA.     0.5225D+27                  1043.2822     4.9680    37.7975
         TOT.                       14.969    2899.6153    20.4727    74.5447

 220.00  VIB.     0.1191D+02                  1359.4606    13.3004    11.1016
         ROT.     0.1303D+06                   655.7774     2.9808    26.3847
         INT.     0.1551D+07                  2015.2380    16.2812    37.4863
         TRA.     0.5603D+27                  1092.9623     4.9680    38.0286
         TOT.                       15.178    3108.2004    21.2492    75.5149

 230.00  VIB.     0.1372D+02                  1496.4656    14.1052    11.7105
         ROT.     0.1392D+06                   685.5855     2.9808    26.5172
         INT.     0.1910D+07                  2182.0511    17.0860    38.2277
         TRA.     0.5989D+27                  1142.6424     4.9680    38.2495
         TOT.                       15.394    3324.6936    22.0540    76.4772

 240.00  VIB.     0.1583D+02                  1641.6528    14.9364    12.3283
         ROT.     0.1484D+06                   715.3935     2.9808    26.6440
         INT.     0.2349D+07                  2357.0463    17.9172    38.9723
         TRA.     0.6384D+27                  1192.3226     4.9680    38.4609
         TOT.                       15.619    3549.3689    22.8852    77.4332

 250.00  VIB.     0.1828D+02                  1795.2729    15.7914    12.9553
         ROT.     0.1578D+06                   745.2016     2.9808    26.7657
         INT.     0.2884D+07                  2540.4745    18.7722    39.7210
         TRA.     0.6787D+27                  1242.0027     4.9680    38.6637
         TOT.                       15.852    3782.4772    23.7402    78.3847

 260.00  VIB.     0.2113D+02                  1957.5501    16.6673    13.5916
         ROT.     0.1674D+06                   775.0097     2.9808    26.8826
         INT.     0.3537D+07                  2732.5597    19.6481    40.4743
         TRA.     0.7198D+27                  1291.6828     4.9680    38.8586
         TOT.                       16.094    4024.2425    24.6161    79.3328

 270.00  VIB.     0.2446D+02                  2128.6790    17.5612    14.2374
         ROT.     0.1771D+06                   804.8177     2.9808    26.9951
         INT.     0.4332D+07                  2933.4967    20.5420    41.2325
         TRA.     0.7618D+27                  1341.3629     4.9680    39.0461
         TOT.                       16.344    4274.8596    25.5100    80.2786

 280.00  VIB.     0.2835D+02                  2308.8242    18.4700    14.8924
         ROT.     0.1870D+06                   834.6258     2.9808    27.1035
         INT.     0.5303D+07                  3143.4500    21.4509    41.9959
         TRA.     0.8045D+27                  1391.0430     4.9680    39.2267
         TOT.                       16.604    4534.4930    26.4189    81.2227

 290.00  VIB.     0.3290D+02                  2498.1194    19.3907    15.5566
         ROT.     0.1971D+06                   864.4339     2.9808    27.2081
         INT.     0.6486D+07                  3362.5533    22.3715    42.7647
         TRA.     0.8479D+27                  1440.7231     4.9680    39.4011
         TOT.                       16.873    4803.2763    27.3395    82.1658

 300.00  VIB.     0.3823D+02                  2696.6681    20.3203    16.2296
         ROT.     0.2074D+06                   894.2419     2.9808    27.3092
         INT.     0.7930D+07                  3590.9100    23.3011    43.5388
         TRA.     0.8922D+27                  1490.4032     4.9680    39.5695
         TOT.                       17.151    5081.3132    28.2691    83.1083

 310.00  VIB.     0.4448D+02                  2904.5447    21.2558    16.9112
         ROT.     0.2179D+06                   924.0500     2.9808    27.4069
         INT.     0.9692D+07                  3828.5946    24.2366    44.3181
         TRA.     0.9372D+27                  1540.0833     4.9680    39.7324
         TOT.                       17.438    5368.6779    29.2046    84.0505

 320.00  VIB.     0.5182D+02                  3121.7957    22.1947    17.6008
         ROT.     0.2285D+06                   953.8580     2.9808    27.5016
         INT.     0.1184D+08                  4075.6538    25.1755    45.1024
         TRA.     0.9829D+27                  1589.7634     4.9680    39.8901
         TOT.                       17.735    5665.4172    30.1435    84.9925

 330.00  VIB.     0.6046D+02                  3348.4420    23.1345    18.2982
         ROT.     0.2393D+06                   983.6661     2.9808    27.5933
         INT.     0.1447D+08                  4332.1081    26.1153    45.8915
         TRA.     0.1029D+28                  1639.4435     4.9680    40.0430
         TOT.                       18.041    5971.5516    31.0833    85.9345

 340.00  VIB.     0.7062D+02                  3584.4804    24.0728    19.0027
         ROT.     0.2503D+06                  1013.4742     2.9808    27.6823
         INT.     0.1767D+08                  4597.9546    27.0536    46.6850
         TRA.     0.1076D+28                  1689.1236     4.9680    40.1913
         TOT.                       18.357    6287.0782    32.0216    86.8763

 350.00  VIB.     0.8260D+02                  3829.8859    25.0076    19.7141
         ROT.     0.2614D+06                  1043.2822     2.9808    27.7687
         INT.     0.2159D+08                  4873.1682    27.9884    47.4827
         TRA.     0.1124D+28                  1738.8037     4.9680    40.3353
         TOT.                       18.682    6611.9719    32.9564    87.8181

 360.00  VIB.     0.9673D+02                  4084.6139    25.9370    20.4316
         ROT.     0.2727D+06                  1073.0903     2.9808    27.8526
         INT.     0.2638D+08                  5157.7042    28.9178    48.2842
         TRA.     0.1173D+28                  1788.4838     4.9680    40.4753
         TOT.                       19.016    6946.1880    33.8858    88.7595

 370.00  VIB.     0.1134D+03                  4348.6021    26.8594    21.1548
         ROT.     0.2841D+06                  1102.8984     2.9808    27.9343
         INT.     0.3223D+08                  5451.5005    29.8402    49.0891
         TRA.     0.1222D+28                  1838.1639     4.9680    40.6114
         TOT.                       19.359    7289.6644    34.8082    89.7005

 380.00  VIB.     0.1332D+03                  4621.7731    27.7733    21.8833
         ROT.     0.2957D+06                  1132.7064     2.9808    28.0138
         INT.     0.3938D+08                  5754.4795    30.7541    49.8971
         TRA.     0.1272D+28                  1887.8440     4.9680    40.7439
         TOT.                       19.712    7642.3236    35.7221    90.6410

 390.00  VIB.     0.1565D+03                  4904.0357    28.6775    22.6164
         ROT.     0.3074D+06                  1162.5145     2.9808    28.0912
         INT.     0.4813D+08                  6066.5502    31.6583    50.7076
         TRA.     0.1322D+28                  1937.5242     4.9680    40.8729
         TOT.                       20.074    8004.0744    36.6263    91.5806

 400.00  VIB.     0.1842D+03                  5195.2875    29.5710    23.3537
         ROT.     0.3193D+06                  1192.3226     2.9808    28.1667
         INT.     0.5883D+08                  6387.6101    32.5518    51.5204
         TRA.     0.1374D+28                  1987.2043     4.9680    40.9987
         TOT.                       20.444    8374.8143    37.5198    92.5192

   *: NOTE: HEATS OF FORMATION ARE RELATIVE TO THE
            ELEMENTS IN THEIR STANDARD STATE AT 298K
              (=  Standard Enthalpy of Formation).

            Hvib:  Zero-point energy is not included.
                   frequencies of less than zero cm-1 are not included.
            Hrot = (3/2)RT
            Htra = (3/2)RT + pV = (5/2)RT

            Heat capacity is Cp, not Cv

          For more information, see: HTTP://OpenMOPAC.net/Manual/thermochemistry.html


           FORCE CONSTANT IN CARTESIAN COORDINATES (Millidynes/A)

    ATOM   CHEMICAL       X               Y               Z
   NUMBER   SYMBOL  FORCE CONSTANT  FORCE CONSTANT  FORCE CONSTANT

      1       C        9.144420        8.164866        8.361284
      2       C        9.692663        7.814884        8.054249
      3       C        8.437583        8.183051        8.210869
      4       C       14.982318        3.725444        9.790817
      5       C       10.530003        3.706523       12.514721
      6       C       14.687224        3.216139        8.857342
      7       C       13.994014        3.281105       10.009470
      8       H        0.839222        1.571864        3.952469
      9       H        1.311678        2.018827        2.958498
     10       H        1.843964        3.800456        0.624809
     11       H        1.863765        2.665727        1.737243
     12       H        5.287295        0.763863        0.733859
     13       H        1.311612        2.180285        3.291929
     14       H        0.823241        1.735263        4.202673
     15       H        0.743830        0.941977        4.769818
     16       H        2.885751        0.678561        2.895630
     17       H        2.046840        0.802125        3.590300

 **********************
 *                    *
 * JOB ENDED NORMALLY *
 *                    *
 **********************



 TOTAL JOB TIME:             1.83 SECONDS

 == MOPAC DONE ==
