 *******************************************************************************
 **                                                                           **
 **                              MOPAC v23.1.2                                **
 **                                                                           **
 *******************************************************************************
 **          Digital Object Identifier (DOI): 10.5281/zenodo.6511958          **
 **    Visit the DOI location for information on how to cite this program.    **
 *******************************************************************************

                              PM3 CALCULATION RESULTS

 *******************************************************************************
 *  CALCULATION DONE: (MAX THREADS = 1)              Tue Jun  3 16:28:30 2025  *
 *  PM3        - The PM3 Hamiltonian to be used
 *  PRECISE    - TIGHTER CRITERIA TO BE USED
 *  NOSYM      - POINT-GROUP SYMMETRY SET TO C1
 *  THREADS=1  - MULTI-THREADING NOT USED
 *  T=         - A TIME OF 172800.0 SECONDS REQUESTED
 *  DUMP=N     - RESTART FILE WRITTEN EVERY 7200.0 SECONDS REQUESTED
 *******************************************************************************
pm3  precise nosym THREADS=1
 InChI=1S/C7H8/c1-2-7-5-3-4-6-7/h2-3,5-6H,1,4H2

   ATOM   CHEMICAL          X               Y               Z
  NUMBER   SYMBOL      (ANGSTROMS)     (ANGSTROMS)     (ANGSTROMS)

     1       C         -2.05290000  *  -0.35410000  *  -0.27440000  *
     2       C          0.25080000  *  -0.12700000  *  -0.20820000  *
     3       C         -0.73560000  *  -0.68680000  *  -0.89310000  *
     4       C         -1.63030000  *   0.49260000  *   0.88050000  *
     5       C         -0.31390000  *   0.61680000  *   0.91050000  *
     6       C          1.67730000  *  -0.26310000  *  -0.56000000  *
     7       C          2.65340000  *   0.30830000  *   0.14260000  *
     8       H         -2.56820000  *  -1.27290000  *   0.07640000  *
     9       H         -2.68550000  *   0.22550000  *  -0.97910000  *
    10       H         -0.60340000  *  -1.29870000  *  -1.77650000  *
    11       H         -2.30100000  *   0.94590000  *   1.59850000  *
    12       H          0.22980000  *   1.18330000  *   1.65420000  *
    13       H          1.94450000  *  -0.85380000  *  -1.42820000  *
    14       H          3.68340000  *   0.17470000  *  -0.16160000  *
    15       H          2.45150000  *   0.90940000  *   1.01830000  *



          CARTESIAN COORDINATES 

    NO.       ATOM           X           Y           Z

     1         C         -2.0529     -0.3541     -0.2744
     2         C          0.2508     -0.1270     -0.2082
     3         C         -0.7356     -0.6868     -0.8931
     4         C         -1.6303      0.4926      0.8805
     5         C         -0.3139      0.6168      0.9105
     6         C          1.6773     -0.2631     -0.5600
     7         C          2.6534      0.3083      0.1426
     8         H         -2.5682     -1.2729      0.0764
     9         H         -2.6855      0.2255     -0.9791
    10         H         -0.6034     -1.2987     -1.7765
    11         H         -2.3010      0.9459      1.5985
    12         H          0.2298      1.1833      1.6542
    13         H          1.9445     -0.8538     -1.4282
    14         H          3.6834      0.1747     -0.1616
    15         H          2.4515      0.9094      1.0183

  H: (PM3): J. J. P. STEWART, J. COMP. CHEM. 10, 209 (1989).
  C: (PM3): J. J. P. STEWART, J. COMP. CHEM. 10, 209 (1989).

           Empirical Formula: C7 H8  =    15 atoms



      MOLECULAR POINT GROUP   :   C1  


      RHF CALCULATION, NO. OF DOUBLY OCCUPIED LEVELS = 18


          Geometry optimization using EF

          DIAGONAL MATRIX USED AS START HESSIAN

 CYCLE:     1 TIME:   0.004 TIME LEFT:  2.00D  GRAD.:   122.163 HEAT:  50.99669
 CYCLE:     2 TIME:   0.012 TIME LEFT:  2.00D  GRAD.:    63.311 HEAT:  49.15558
 CYCLE:     3 TIME:   0.004 TIME LEFT:  2.00D  GRAD.:    56.999 HEAT:  48.75764
 CYCLE:     4 TIME:   0.004 TIME LEFT:  2.00D  GRAD.:    64.457 HEAT:  48.46629
 CYCLE:     5 TIME:   0.008 TIME LEFT:  2.00D  GRAD.:    33.935 HEAT:  47.85029
 CYCLE:     6 TIME:   0.008 TIME LEFT:  2.00D  GRAD.:    25.548 HEAT:  47.67213
 CYCLE:     7 TIME:   0.004 TIME LEFT:  2.00D  GRAD.:    23.179 HEAT:  47.53178
 CYCLE:     8 TIME:   0.004 TIME LEFT:  2.00D  GRAD.:    24.063 HEAT:  47.36625
 CYCLE:     9 TIME:   0.004 TIME LEFT:  2.00D  GRAD.:    25.721 HEAT:  47.24177
 CYCLE:    10 TIME:   0.008 TIME LEFT:  2.00D  GRAD.:    29.606 HEAT:  47.18778
 CYCLE:    11 TIME:   0.004 TIME LEFT:  2.00D  GRAD.:    17.870 HEAT:  47.07268
 CYCLE:    12 TIME:   0.008 TIME LEFT:  2.00D  GRAD.:     8.665 HEAT:  47.01572
 CYCLE:    13 TIME:   0.004 TIME LEFT:  2.00D  GRAD.:     8.776 HEAT:  47.00870
 CYCLE:    14 TIME:   0.004 TIME LEFT:  2.00D  GRAD.:     7.566 HEAT:  46.99449
 CYCLE:    15 TIME:   0.008 TIME LEFT:  2.00D  GRAD.:     4.892 HEAT:  46.98549
 CYCLE:    16 TIME:   0.004 TIME LEFT:  2.00D  GRAD.:     4.046 HEAT:  46.98021
 CYCLE:    17 TIME:   0.004 TIME LEFT:  2.00D  GRAD.:     2.400 HEAT:  46.97537
 CYCLE:    18 TIME:   0.008 TIME LEFT:  2.00D  GRAD.:     3.210 HEAT:  46.97185
 CYCLE:    19 TIME:   0.008 TIME LEFT:  2.00D  GRAD.:     1.854 HEAT:  46.96773
 CYCLE:    20 TIME:   0.004 TIME LEFT:  2.00D  GRAD.:     4.446 HEAT:  46.96792
 CYCLE:    21 TIME:   0.004 TIME LEFT:  2.00D  GRAD.:     1.153 HEAT:  46.96304
 CYCLE:    22 TIME:   0.004 TIME LEFT:  2.00D  GRAD.:     0.824 HEAT:  46.96229
 CYCLE:    23 TIME:   0.004 TIME LEFT:  2.00D  GRAD.:     0.948 HEAT:  46.96148
 CYCLE:    24 TIME:   0.008 TIME LEFT:  2.00D  GRAD.:     0.812 HEAT:  46.96104
 CYCLE:    25 TIME:   0.004 TIME LEFT:  2.00D  GRAD.:     0.508 HEAT:  46.96062
 CYCLE:    26 TIME:   0.004 TIME LEFT:  2.00D  GRAD.:     0.578 HEAT:  46.96017
 CYCLE:    27 TIME:   0.008 TIME LEFT:  2.00D  GRAD.:     0.545 HEAT:  46.95977
 CYCLE:    28 TIME:   0.004 TIME LEFT:  2.00D  GRAD.:     0.437 HEAT:  46.95936
 CYCLE:    29 TIME:   0.004 TIME LEFT:  2.00D  GRAD.:     0.425 HEAT:  46.95894
 CYCLE:    30 TIME:   0.004 TIME LEFT:  2.00D  GRAD.:     0.428 HEAT:  46.95862
 CYCLE:    31 TIME:   0.008 TIME LEFT:  2.00D  GRAD.:     0.448 HEAT:  46.95832
 CYCLE:    32 TIME:   0.004 TIME LEFT:  2.00D  GRAD.:     0.318 HEAT:  46.95805
 CYCLE:    33 TIME:   0.004 TIME LEFT:  2.00D  GRAD.:     0.242 HEAT:  46.95782
 CYCLE:    34 TIME:   0.004 TIME LEFT:  2.00D  GRAD.:     0.137 HEAT:  46.95773
 CYCLE:    35 TIME:   0.008 TIME LEFT:  2.00D  GRAD.:     0.052 HEAT:  46.95772
 CYCLE:    36 TIME:   0.004 TIME LEFT:  2.00D  GRAD.:     0.037 HEAT:  46.95771

     GRADIENT =  0.03690 IS LESS THAN CUTOFF =  0.05000



 -------------------------------------------------------------------------------
 pm3  precise nosym THREADS=1
 InChI=1S/C7H8/c1-2-7-5-3-4-6-7/h2-3,5-6H,1,4H2



     GEOMETRY OPTIMISED USING EIGENVECTOR FOLLOWING (EF).     
     SCF FIELD WAS ACHIEVED                                   


                              PM3 CALCULATION
                                                       MOPAC v23.1.2 MacOS
                                                       Tue Jun  3 16:28:30 2025




          FINAL HEAT OF FORMATION =         46.95771 KCAL/MOL =     196.47106 KJ/MOL


          COSMO AREA              =        141.78 SQUARE ANGSTROMS
          COSMO VOLUME            =        132.25 CUBIC ANGSTROMS

          GRADIENT NORM           =          0.03690          =       0.00953 PER ATOM
          IONIZATION POTENTIAL    =          8.906022 EV
          HOMO LUMO ENERGIES (EV) =         -8.906 -0.018
          NO. OF FILLED LEVELS    =         18
          MOLECULAR WEIGHT        =         92.1402         POINT GROUP:  C1  

          MOLECULAR DIMENSIONS (Angstroms)

            Atom       Atom       Distance
            H    14    H     9     6.47816
            H    11    H    10     4.24194
            H     9    H     8     1.75978


          SCF CALCULATIONS        =         44

          WALL-CLOCK TIME         =      0.203 SECONDS
          COMPUTATION TIME        =      0.109 SECONDS




   ATOM   CHEMICAL          X               Y               Z
  NUMBER   SYMBOL      (ANGSTROMS)     (ANGSTROMS)     (ANGSTROMS)

     1       C         -2.05567943  *  -0.35222410  *  -0.26967474  *
     2       C          0.27086920  *  -0.13548503  *  -0.22388692  *
     3       C         -0.75028550  *  -0.70559702  *  -0.91792954  *
     4       C         -1.63471199  *   0.50102601  *   0.89222930  *
     5       C         -0.28832872  *   0.61768251  *   0.90665650  *
     6       C          1.67872206  *  -0.25150971  *  -0.54617193  *
     7       C          2.65523891  *   0.31674367  *   0.15745155  *
     8       H         -2.60408026  *  -1.25290754  *   0.06164133  *
     9       H         -2.72007535  *   0.19692135  *  -0.96156412  *
    10       H         -0.68082189  *  -1.32736629  *  -1.80804424  *
    11       H         -2.34811910  *   0.93584040  *   1.58845455  *
    12       H          0.32196127  *   1.16941372  *   1.62045563  *
    13       H          1.90626606  *  -0.85542138  *  -1.43406113  *
    14       H          3.70190341  *   0.21079799  *  -0.11037584  *
    15       H          2.48077503  *   0.92253322  *   1.04282119  *

                             CARTESIAN COORDINATES

   1    C       -2.055679431    -0.352224103    -0.269674744
   2    C        0.270869201    -0.135485032    -0.223886923
   3    C       -0.750285502    -0.705597022    -0.917929543
   4    C       -1.634711987     0.501026008     0.892229304
   5    C       -0.288328723     0.617682515     0.906656497
   6    C        1.678722058    -0.251509705    -0.546171934
   7    C        2.655238911     0.316743667     0.157451552
   8    H       -2.604080256    -1.252907544     0.061641332
   9    H       -2.720075355     0.196921355    -0.961564121
  10    H       -0.680821895    -1.327366291    -1.808044242
  11    H       -2.348119099     0.935840399     1.588454546
  12    H        0.321961268     1.169413723     1.620455634
  13    H        1.906266060    -0.855421380    -1.434061126
  14    H        3.701903413     0.210797995    -0.110375843
  15    H        2.480775030     0.922533223     1.042821186


           Empirical Formula: C7 H8  =    15 atoms



      MOLECULAR POINT GROUP   :   C1  


                  EIGENVALUES  
 -39.94529 -33.10365 -27.48589 -26.31021 -20.93865 -19.52382 -18.27265 -17.31968
 -15.51698 -15.02132 -14.35857 -13.50298 -13.37821 -12.98189 -12.03818 -11.91238
 -10.09674  -8.90602  -0.01833   1.07348   2.53445   3.18916   3.32354   3.59897
   3.69635   3.86635   4.04410   4.20921   4.28849   4.35528   4.66252   5.22553
   5.43643   5.79710   6.13207   6.29388


              NET ATOMIC CHARGES AND DIPOLE CONTRIBUTIONS

  ATOM NO.   TYPE          CHARGE      No. of ELECS.   s-Pop       p-Pop       
    1          C          -0.050469        4.0505     1.14490     2.90557
    2          C          -0.073447        4.0734     1.17997     2.89348
    3          C          -0.149487        4.1495     1.20743     2.94206
    4          C          -0.163943        4.1639     1.20681     2.95713
    5          C          -0.105586        4.1056     1.18929     2.91630
    6          C          -0.074354        4.0744     1.17017     2.90419
    7          C          -0.154606        4.1546     1.18216     2.97245
    8          H           0.082277        0.9177     0.91772
    9          H           0.082266        0.9177     0.91773
   10          H           0.117056        0.8829     0.88294
   11          H           0.115767        0.8842     0.88423
   12          H           0.117038        0.8830     0.88296
   13          H           0.095032        0.9050     0.90497
   14          H           0.079200        0.9208     0.92080
   15          H           0.083256        0.9167     0.91674
 DIPOLE           X         Y         Z       TOTAL
 POINT-CHG.    -0.537    -0.141    -0.138     0.572
 HYBRID        -0.028    -0.012    -0.013     0.033
 SUM           -0.566    -0.153    -0.151     0.605


          ATOMIC ORBITAL ELECTRON POPULATIONS

     Atom    s        px        py        pz   
    1  C   1.14490   0.96282   0.98459   0.95816
    2  C   1.17997   0.93619   0.99153   0.96576
    3  C   1.20743   0.95088   1.00116   0.99001
    4  C   1.20681   0.96732   1.00284   0.98697
    5  C   1.18929   0.94999   0.99342   0.97289
    6  C   1.17017   0.92261   0.99342   0.98816
    7  C   1.18216   0.97781   0.99813   0.99651
    8  H   0.91772
    9  H   0.91773
   10  H   0.88294
   11  H   0.88423
   12  H   0.88296
   13  H   0.90497
   14  H   0.92080
   15  H   0.91674
 *******************************************************************************
 **                                                                           **
 **                              MOPAC v23.1.2                                **
 **                                                                           **
 *******************************************************************************
 **          Digital Object Identifier (DOI): 10.5281/zenodo.6511958          **
 **    Visit the DOI location for information on how to cite this program.    **
 *******************************************************************************

                              PM3 CALCULATION RESULTS

 *******************************************************************************
 *  CALCULATION DONE: (MAX THREADS = 1)              Tue Jun  3 16:28:30 2025  *
 *  PM3        - The PM3 Hamiltonian to be used
 *  OLDGEO     - PREVIOUS GEOMETRY TO BE USED
 *  PRECISE    - TIGHTER CRITERIA TO BE USED
 *  NOSYM      - POINT-GROUP SYMMETRY SET TO C1
 *  THREADS=1  - MULTI-THREADING NOT USED
 *  T=         - A TIME OF 172800.0 SECONDS REQUESTED
 *  DUMP=N     - RESTART FILE WRITTEN EVERY 7200.0 SECONDS REQUESTED
 *  THERMO     - THERMODYNAMIC QUANTITIES TO BE CALCULATED
 *******************************************************************************
oldgeo thermo nosym precise THREADS=1  pm3
 InChI=1S/C7H8/c1-2-7-5-3-4-6-7/h2-3,5-6H,1,4H2

   ATOM   CHEMICAL          X               Y               Z
  NUMBER   SYMBOL      (ANGSTROMS)     (ANGSTROMS)     (ANGSTROMS)

     1       C         -2.05567943  *  -0.35222410  *  -0.26967474  *
     2       C          0.27086920  *  -0.13548503  *  -0.22388692  *
     3       C         -0.75028550  *  -0.70559702  *  -0.91792954  *
     4       C         -1.63471199  *   0.50102601  *   0.89222930  *
     5       C         -0.28832872  *   0.61768251  *   0.90665650  *
     6       C          1.67872206  *  -0.25150971  *  -0.54617193  *
     7       C          2.65523891  *   0.31674367  *   0.15745155  *
     8       H         -2.60408026  *  -1.25290754  *   0.06164133  *
     9       H         -2.72007535  *   0.19692135  *  -0.96156412  *
    10       H         -0.68082189  *  -1.32736629  *  -1.80804424  *
    11       H         -2.34811910  *   0.93584040  *   1.58845455  *
    12       H          0.32196127  *   1.16941372  *   1.62045563  *
    13       H          1.90626606  *  -0.85542138  *  -1.43406113  *
    14       H          3.70190341  *   0.21079799  *  -0.11037584  *
    15       H          2.48077503  *   0.92253322  *   1.04282119  *



          CARTESIAN COORDINATES 

    NO.       ATOM           X           Y           Z

     1         C         -2.0557     -0.3522     -0.2697
     2         C          0.2709     -0.1355     -0.2239
     3         C         -0.7503     -0.7056     -0.9179
     4         C         -1.6347      0.5010      0.8922
     5         C         -0.2883      0.6177      0.9067
     6         C          1.6787     -0.2515     -0.5462
     7         C          2.6552      0.3167      0.1575
     8         H         -2.6041     -1.2529      0.0616
     9         H         -2.7201      0.1969     -0.9616
    10         H         -0.6808     -1.3274     -1.8080
    11         H         -2.3481      0.9358      1.5885
    12         H          0.3220      1.1694      1.6205
    13         H          1.9063     -0.8554     -1.4341
    14         H          3.7019      0.2108     -0.1104
    15         H          2.4808      0.9225      1.0428

  H: (PM3): J. J. P. STEWART, J. COMP. CHEM. 10, 209 (1989).
  C: (PM3): J. J. P. STEWART, J. COMP. CHEM. 10, 209 (1989).

           Empirical Formula: C7 H8  =    15 atoms



      MOLECULAR POINT GROUP   :   C1  


      RHF CALCULATION, NO. OF DOUBLY OCCUPIED LEVELS = 18



          HEAT OF FORMATION =      46.957711 KCALS/MOLE


          CARTESIAN COORDINATE DERIVATIVES

   NUMBER  ATOM         X            Y            Z

     1       C      0.004618     0.001077    -0.000676
     2       C      0.006916     0.001142    -0.007537
     3       C      0.005345    -0.002141     0.003634
     4       C     -0.004051     0.003670     0.006246
     5       C     -0.001131    -0.002358     0.008547
     6       C      0.004842    -0.004477     0.004742
     7       C      0.001812     0.000718    -0.000244
     8       H      0.001775    -0.002272    -0.000284
     9       H     -0.011516     0.009127    -0.011923
    10       H     -0.003746    -0.007977     0.011842
    11       H      0.000484    -0.002775     0.002877
    12       H      0.001223    -0.001614    -0.004936
    13       H      0.002075     0.000871    -0.008565
    14       H     -0.006692     0.003438     0.005885
    15       H     -0.001955     0.003571    -0.009609



          GRADIENT NORM =   0.03608

          MOLECULAR WEIGHT =   92.14



          ROTATIONAL CONSTANTS IN CM(-1)

          A =    0.23761092   B =    0.06564201   C =    0.05193831



           PRINCIPAL MOMENTS OF INERTIA IN UNITS OF 10**(-40)*GRAM-CM**2

          A =      117.8092   B =      426.4457   C =      538.9616


          ORIENTATION OF MOLECULE IN FORCE CALCULATION

    NO.       ATOM         X         Y         Z

     1          C      -2.0688    0.2795    0.0006
     2          C       0.2683    0.2795    0.0006
     3          C      -0.8147    1.1020    0.0006
     4          C      -1.5478   -1.1290    0.0014
     5          C      -0.1964   -1.1141    0.0012
     6          C       1.6527    0.7069    0.0001
     7          C       2.6913   -0.1254   -0.0040
     8          H      -2.6917    0.4848   -0.8891
     9          H      -2.6928    0.4859    0.8892
    10          H      -0.8207    2.1900    0.0006
    11          H      -2.2040   -1.9962    0.0019
    12          H       0.4763   -1.9708    0.0014
    13          H       1.8059    1.7939    0.0033
    14          H       3.7182    0.2267   -0.0041
    15          H       2.5912   -1.2077   -0.0076


    FIRST DERIVATIVES WILL BE USED IN THE CALCULATION OF SECOND DERIVATIVES

          ESTIMATED TIME TO COMPLETE CALCULATION =        0.70 SECONDS

    FOR POINT-GROUP C1   THERE ARE   1 UNIQUE SYMMETRY FUNCTIONS.

 STEP:   1 TIME =     0.01 SECS, INTEGRAL =      0.01 TIME LEFT: 172799.98
 STEP:   2 TIME =     0.01 SECS, INTEGRAL =      0.02 TIME LEFT: 172799.98
 STEP:   3 TIME =     0.01 SECS, INTEGRAL =      0.03 TIME LEFT: 172799.96
 STEP:   4 TIME =     0.01 SECS, INTEGRAL =      0.04 TIME LEFT: 172799.95
 STEP:   5 TIME =     0.01 SECS, INTEGRAL =      0.05 TIME LEFT: 172799.94
 STEP:   6 TIME =     0.01 SECS, INTEGRAL =      0.07 TIME LEFT: 172799.93
 STEP:   7 TIME =     0.01 SECS, INTEGRAL =      0.08 TIME LEFT: 172799.92
 STEP:   8 TIME =     0.01 SECS, INTEGRAL =      0.09 TIME LEFT: 172799.91
 STEP:   9 TIME =     0.01 SECS, INTEGRAL =      0.10 TIME LEFT: 172799.89
 STEP:  10 TIME =     0.01 SECS, INTEGRAL =      0.11 TIME LEFT: 172799.88
 STEP:  11 TIME =     0.01 SECS, INTEGRAL =      0.12 TIME LEFT: 172799.87
 STEP:  12 TIME =     0.01 SECS, INTEGRAL =      0.14 TIME LEFT: 172799.86
 STEP:  13 TIME =     0.01 SECS, INTEGRAL =      0.14 TIME LEFT: 172799.85
 STEP:  14 TIME =     0.01 SECS, INTEGRAL =      0.16 TIME LEFT: 172799.84
 STEP:  15 TIME =     0.01 SECS, INTEGRAL =      0.17 TIME LEFT: 172799.83
 STEP:  16 TIME =     0.01 SECS, INTEGRAL =      0.18 TIME LEFT: 172799.82
 STEP:  17 TIME =     0.01 SECS, INTEGRAL =      0.18 TIME LEFT: 172799.81
 STEP:  18 TIME =     0.01 SECS, INTEGRAL =      0.20 TIME LEFT: 172799.80
 STEP:  19 TIME =     0.01 SECS, INTEGRAL =      0.21 TIME LEFT: 172799.79
 STEP:  20 TIME =     0.01 SECS, INTEGRAL =      0.22 TIME LEFT: 172799.78
 STEP:  21 TIME =     0.02 SECS, INTEGRAL =      0.23 TIME LEFT: 172799.76
 STEP:  22 TIME =     0.01 SECS, INTEGRAL =      0.25 TIME LEFT: 172799.75
 STEP:  23 TIME =     0.01 SECS, INTEGRAL =      0.26 TIME LEFT: 172799.74
 STEP:  24 TIME =     0.01 SECS, INTEGRAL =      0.27 TIME LEFT: 172799.73
 STEP:  25 TIME =     0.01 SECS, INTEGRAL =      0.28 TIME LEFT: 172799.71
 STEP:  26 TIME =     0.01 SECS, INTEGRAL =      0.29 TIME LEFT: 172799.70
 STEP:  27 TIME =     0.01 SECS, INTEGRAL =      0.30 TIME LEFT: 172799.69
 STEP:  28 TIME =     0.02 SECS, INTEGRAL =      0.32 TIME LEFT: 172799.68
 STEP:  29 TIME =     0.01 SECS, INTEGRAL =      0.33 TIME LEFT: 172799.66
 STEP:  30 TIME =     0.01 SECS, INTEGRAL =      0.34 TIME LEFT: 172799.65
 STEP:  31 TIME =     0.01 SECS, INTEGRAL =      0.36 TIME LEFT: 172799.64
 STEP:  32 TIME =     0.01 SECS, INTEGRAL =      0.37 TIME LEFT: 172799.63
 STEP:  33 TIME =     0.01 SECS, INTEGRAL =      0.38 TIME LEFT: 172799.62
 STEP:  34 TIME =     0.01 SECS, INTEGRAL =      0.39 TIME LEFT: 172799.61
 STEP:  35 TIME =     0.01 SECS, INTEGRAL =      0.40 TIME LEFT: 172799.59
 STEP:  36 TIME =     0.01 SECS, INTEGRAL =      0.41 TIME LEFT: 172799.58
 STEP:  37 TIME =     0.01 SECS, INTEGRAL =      0.43 TIME LEFT: 172799.57
 STEP:  38 TIME =     0.01 SECS, INTEGRAL =      0.43 TIME LEFT: 172799.56
 STEP:  39 TIME =     0.01 SECS, INTEGRAL =      0.45 TIME LEFT: 172799.55
 STEP:  40 TIME =     0.01 SECS, INTEGRAL =      0.46 TIME LEFT: 172799.54
 STEP:  41 TIME =     0.01 SECS, INTEGRAL =      0.47 TIME LEFT: 172799.53
 STEP:  42 TIME =     0.01 SECS, INTEGRAL =      0.48 TIME LEFT: 172799.52
 STEP:  43 TIME =     0.01 SECS, INTEGRAL =      0.49 TIME LEFT: 172799.50
 STEP:  44 TIME =     0.01 SECS, INTEGRAL =      0.50 TIME LEFT: 172799.49
 STEP:  45 TIME =     0.01 SECS, INTEGRAL =      0.52 TIME LEFT: 172799.48

(To convert to Hartree/Bohr^2, multiply by (10^(-21) x N x a0^2)/(4.184 x 627.51) =  0.0642)


           FORCE MATRIX IN MILLIDYNES/ANGSTROM


                  C  1       C  2       C  3       C  4       C  5       C  6
 ------------------------------------------------------------------------------
     C    1  14.900290
     C    2   1.234200  19.134738
     C    3   4.462225   9.133157  17.733979
     C    4   4.420037   1.583108   1.130002  17.914876
     C    5   1.255537   4.942387   1.526019   9.711935  18.253756
     C    6   0.128840   5.767196   0.889109   0.060340   0.556423  18.617265
     C    7   0.016513   1.035766   0.094347   0.009030   0.054623  10.796750
     H    8   4.507448   0.044320   0.414524   0.416334   0.045191   0.019317
     H    9   4.508191   0.044346   0.414637   0.416476   0.045191   0.019303
     H   10   0.399973   0.451471   5.070735   0.042630   0.090461   0.051503
     H   11   0.403343   0.101971   0.044038   5.084040   0.443553   0.006753
     H   12   0.117216   0.425865   0.047667   0.444726   5.028359   0.008172
     H   13   0.003047   0.443082   0.029292   0.007534   0.038236   4.761159
     H   14   0.010866   0.143440   0.007926   0.001132   0.005699   0.458403
     H   15   0.006046   0.101923   0.005278   0.002125   0.023036   0.491340


                  C  7       H  8       H  9       H 10       H 11       H 12
 ------------------------------------------------------------------------------
     C    7  17.876678
     H    8   0.002021   5.114148
     H    9   0.002016   0.547671   5.115022
     H   10   0.005032   0.011143   0.011158   5.473641
     H   11   0.000955   0.011173   0.011169   0.011001   5.482777
     H   12   0.019635   0.016039   0.016030   0.005086   0.042931   5.418267
     H   13   0.453415   0.000799   0.000796   0.010979   0.001404   0.001602
     H   14   5.108971   0.001691   0.001691   0.003095   0.000253   0.002531
     H   15   5.060100   0.000721   0.000722   0.002359   0.000525   0.028066


                  H 13       H 14       H 15
 ------------------------------------------
     H   13   5.116296
     H   14   0.081297   5.494883
     H   15   0.120029   0.420936   5.445710


          HEAT OF FORMATION =      46.957711 KCALS/MOLE

          ZERO POINT ENERGY      78.636 KCAL/MOL


           NORMAL COORDINATE ANALYSIS (Total motion = 1 Angstrom)


   Root No.       1         2         3         4         5         6         7         8

                 1 A       2 A       3 A       4 A       5 A       6 A       7 A       8 A   

                  50.4     212.1     217.6     349.1     481.7     512.9     650.9     671.3
  
           1   -0.0000    0.0005    0.0001   -0.0000   -0.0412    0.0004   -0.0382    0.0001
           2   -0.0000    0.0247    0.0007   -0.0000   -0.0182    0.0002   -0.0200    0.0000
           3    0.0412    0.0014   -0.0329   -0.0304    0.0000    0.0015   -0.0000    0.0130
           4   -0.0000    0.0041    0.0002   -0.0000   -0.0144    0.0001    0.0440   -0.0000
           5    0.0001   -0.0496   -0.0015    0.0000    0.0412   -0.0004    0.0082   -0.0000
           6   -0.0330   -0.0020    0.0470   -0.0271   -0.0006   -0.0559   -0.0000    0.0483
           7   -0.0001    0.0257    0.0008   -0.0000   -0.0461    0.0004   -0.0024    0.0000
           8    0.0000   -0.0188   -0.0006    0.0000    0.0132   -0.0001   -0.0481    0.0000
           9    0.0147   -0.0020    0.0484    0.0384    0.0005    0.0269    0.0000    0.0004
          10    0.0000   -0.0419   -0.0012    0.0000   -0.0049    0.0001   -0.0451   -0.0000
          11   -0.0000    0.0091    0.0003    0.0000   -0.0005   -0.0000   -0.0068   -0.0000
          12   -0.0033    0.0012   -0.0277    0.0554   -0.0004   -0.0226    0.0000    0.0064
          13    0.0000   -0.0394   -0.0011   -0.0000   -0.0065    0.0001   -0.0388   -0.0000
          14    0.0000   -0.0352   -0.0010    0.0000    0.0434   -0.0004    0.0145   -0.0001
          15   -0.0455   -0.0014    0.0350   -0.0352    0.0007    0.0426    0.0000    0.0018
          16   -0.0001   -0.0063   -0.0002    0.0000    0.0285   -0.0004    0.0691   -0.0001
          17    0.0002   -0.0141   -0.0003   -0.0000   -0.0611    0.0006    0.0639    0.0001
          18   -0.0607    0.0014   -0.0373   -0.0030   -0.0006   -0.0334    0.0000   -0.0385
          19    0.0001    0.0539    0.0015    0.0000    0.0734   -0.0007    0.0266   -0.0000
          20   -0.0002    0.0633    0.0018   -0.0000   -0.0150    0.0001    0.0024   -0.0000
          21    0.0737    0.0006   -0.0129    0.0037   -0.0000    0.0081   -0.0000    0.0020
          22   -0.0302    0.0047    0.0628    0.1189   -0.0490    0.0034   -0.0369    0.0543
          23    0.0170    0.0448    0.0190   -0.0505   -0.0353    0.0455   -0.0030   -0.0308
          24    0.0663    0.0031   -0.0733   -0.1285    0.0013    0.0104    0.0022   -0.0346
          25    0.0301    0.0098   -0.0622   -0.1188   -0.0491   -0.0023   -0.0369   -0.0541
          26   -0.0171    0.0464   -0.0163    0.0503   -0.0367   -0.0447   -0.0030    0.0308
          27    0.0663    0.0030   -0.0734   -0.1287   -0.0009    0.0105   -0.0022   -0.0347
          28   -0.0001    0.0620    0.0019   -0.0001   -0.0933    0.0010   -0.0355    0.0001
          29    0.0000   -0.0183   -0.0005    0.0000    0.0128   -0.0001   -0.0484    0.0000
          30    0.0342   -0.0028    0.0700    0.1185    0.0014    0.1060    0.0001   -0.1603
          31    0.0001   -0.0705   -0.0021    0.0001    0.0286   -0.0003   -0.0314   -0.0001
          32   -0.0001    0.0306    0.0009    0.0001   -0.0258    0.0002   -0.0185   -0.0000
          33   -0.0003    0.0029   -0.0677    0.1469   -0.0009   -0.0425    0.0001   -0.0968
          34    0.0001   -0.0727   -0.0021    0.0000    0.0141   -0.0001   -0.0779   -0.0000
          35    0.0001   -0.0601   -0.0018    0.0000    0.0600   -0.0005   -0.0161   -0.0001
          36   -0.0852   -0.0026    0.0648   -0.0746    0.0026    0.1732    0.0000   -0.1443
          37   -0.0003   -0.0628   -0.0019    0.0000    0.0571   -0.0006    0.0872    0.0000
          38    0.0006   -0.0045    0.0003   -0.0001   -0.0636    0.0004    0.0602   -0.0000
          39   -0.1921    0.0057   -0.1501    0.0290    0.0009    0.0633    0.0001   -0.0077
          40    0.0001    0.0251    0.0006    0.0001    0.0452   -0.0002    0.0780    0.0002
          41   -0.0002    0.1493    0.0045   -0.0001    0.0757   -0.0013   -0.1515   -0.0005
          42    0.0567    0.0044   -0.1070    0.0442    0.0029    0.2003   -0.0001    0.2085
          43    0.0003    0.1453    0.0042    0.0001    0.1808   -0.0018   -0.1287   -0.0000
          44   -0.0007    0.0564    0.0012    0.0001   -0.0232    0.0007    0.0141    0.0004
          45    0.2098   -0.0040    0.1027   -0.0292   -0.0022   -0.1307   -0.0001   -0.1292


   Root No.       9        10        11        12        13        14        15        16

                 9 A      10 A      11 A      12 A      13 A      14 A      15 A      16 A   

                 765.7     804.8     810.0     918.8     944.6     962.6     979.5    1000.8
  
           1   -0.0001   -0.0967    0.0004    0.0000    0.0000   -0.0053   -0.0000   -0.0191
           2    0.0000    0.0449   -0.0002    0.0000    0.0000   -0.0085    0.0000    0.0113
           3   -0.0335   -0.0004   -0.0342   -0.0292    0.0139   -0.0001    0.0428    0.0000
           4    0.0000    0.0117   -0.0000   -0.0000    0.0000    0.0340    0.0000   -0.0011
           5   -0.0000   -0.0377    0.0002   -0.0000    0.0000    0.0048   -0.0000   -0.0115
           6    0.0436    0.0002    0.0196   -0.0141    0.0298   -0.0001    0.0107    0.0001
           7   -0.0000   -0.0322    0.0001   -0.0000    0.0000    0.0203   -0.0000    0.0127
           8   -0.0000   -0.0723    0.0003    0.0000   -0.0000   -0.0389   -0.0000   -0.0111
           9    0.0111   -0.0003   -0.0246    0.0239   -0.0153    0.0001   -0.0495   -0.0000
          10    0.0001    0.0620   -0.0002    0.0000   -0.0000   -0.0118   -0.0000   -0.0063
          11    0.0001    0.0971   -0.0004   -0.0000    0.0000   -0.0021   -0.0000   -0.0266
          12   -0.0162    0.0003    0.0239    0.0048   -0.0015    0.0000   -0.0477    0.0000
          13    0.0001    0.0712   -0.0003    0.0000   -0.0000   -0.0088    0.0000   -0.0037
          14   -0.0001   -0.0245    0.0001   -0.0000   -0.0000    0.0381    0.0000    0.0321
          15   -0.0267    0.0002    0.0141    0.0320   -0.0292    0.0001    0.0332   -0.0000
          16   -0.0000   -0.0033   -0.0000   -0.0000   -0.0000    0.0003    0.0000   -0.0105
          17    0.0000   -0.0034    0.0000    0.0001    0.0001    0.0200    0.0000   -0.0160
          18   -0.0148   -0.0001   -0.0063   -0.0252   -0.0329    0.0001   -0.0017   -0.0000
          19   -0.0000   -0.0016   -0.0000    0.0001   -0.0001   -0.0486   -0.0000    0.0085
          20   -0.0000   -0.0031    0.0000    0.0001    0.0000   -0.0296    0.0000    0.0106
          21   -0.0006   -0.0000   -0.0016   -0.0049   -0.0142   -0.0000   -0.0073   -0.0001
          22   -0.0952   -0.1244   -0.1191   -0.0443   -0.0009    0.0116    0.1133    0.0010
          23    0.0624    0.0332   -0.0458    0.0891   -0.1033    0.0402    0.0414    0.0902
          24    0.0521    0.0127    0.0430    0.0251   -0.0105   -0.0003   -0.0308    0.0046
          25    0.0949   -0.1220    0.1200    0.0443    0.0009    0.0116   -0.1132    0.0010
          26   -0.0623    0.0345    0.0455   -0.0888    0.1031    0.0395   -0.0413    0.0905
          27    0.0523   -0.0120    0.0432    0.0253   -0.0106    0.0004   -0.0309   -0.0047
          28    0.0000    0.0429   -0.0002    0.0000    0.0000    0.0402   -0.0001    0.1294
          29   -0.0000   -0.0728    0.0003    0.0000   -0.0000   -0.0405   -0.0000   -0.0108
          30   -0.0312    0.0031    0.2577   -0.0789    0.0645   -0.0003    0.1577    0.0001
          31    0.0001    0.0931   -0.0004   -0.0001   -0.0000    0.0529   -0.0000    0.1140
          32    0.0002    0.0759   -0.0003    0.0001    0.0000   -0.0505    0.0001   -0.1165
          33    0.2937   -0.0017   -0.0845    0.0279   -0.0239   -0.0000    0.1848    0.0001
          34    0.0000    0.0118   -0.0000    0.0001   -0.0001   -0.0262    0.0000    0.1132
          35   -0.0001   -0.0723    0.0002   -0.0000   -0.0001    0.0267   -0.0000    0.1223
          36    0.0827   -0.0018   -0.1280   -0.1801    0.1474   -0.0004   -0.1320    0.0001
          37    0.0000   -0.0278    0.0001    0.0001    0.0005    0.0791    0.0001   -0.0852
          38    0.0001   -0.0008    0.0001   -0.0007   -0.0006    0.0100   -0.0001   -0.0059
          39   -0.0383   -0.0004   -0.0411    0.2151    0.2100    0.0001    0.0163   -0.0000
          40    0.0001   -0.0005    0.0000    0.0002   -0.0001   -0.1295    0.0000    0.0283
          41   -0.0002   -0.0074   -0.0000   -0.0002    0.0001    0.2148   -0.0000   -0.0526
          42    0.0951    0.0006    0.0561   -0.0207    0.0528    0.0007    0.0321    0.0002
          43    0.0001   -0.0054    0.0001   -0.0002    0.0005    0.1972    0.0001   -0.0697
          44    0.0002   -0.0031    0.0001   -0.0004   -0.0006   -0.0465   -0.0001    0.0156
          45   -0.0621   -0.0005   -0.0384    0.1384    0.1571   -0.0004    0.0352    0.0004


   Root No.      17        18        19        20        21        22        23        24

                17 A      18 A      19 A      20 A      21 A      22 A      23 A      24 A   

                1022.4    1033.9    1037.6    1075.2    1083.6    1192.7    1211.1    1274.4
  
           1    0.0000    0.0002   -0.0152   -0.0280   -0.0101    0.0126    0.0118    0.0192
           2   -0.0000    0.0002   -0.0145    0.0207    0.0117   -0.0233    0.0100    0.0125
           3   -0.0049   -0.0007   -0.0000   -0.0000   -0.0000    0.0000   -0.0000   -0.0000
           4   -0.0000   -0.0001    0.0050   -0.0187   -0.0112   -0.0125   -0.0023   -0.0214
           5    0.0000    0.0001   -0.0073    0.0067    0.0076    0.0131   -0.0206   -0.0062
           6   -0.0019    0.0232    0.0004   -0.0001   -0.0000   -0.0000   -0.0000    0.0000
           7   -0.0000   -0.0004    0.0285   -0.0056   -0.0059   -0.0286    0.0138   -0.0350
           8    0.0000   -0.0003    0.0281    0.0260    0.0293   -0.0236   -0.0105   -0.0136
           9   -0.0097   -0.0293   -0.0005    0.0000    0.0000    0.0000    0.0000    0.0000
          10    0.0000    0.0000   -0.0005    0.0001    0.0104    0.0089   -0.0108   -0.0092
          11    0.0000   -0.0002    0.0143   -0.0363   -0.0187    0.0032    0.0262    0.0247
          12    0.0257    0.0325    0.0005    0.0000   -0.0000   -0.0000   -0.0000   -0.0000
          13    0.0000    0.0001   -0.0114    0.0061    0.0011    0.0091   -0.0135   -0.0117
          14   -0.0001   -0.0003    0.0182   -0.0483   -0.0255    0.0263   -0.0019   -0.0123
          15   -0.0131   -0.0234   -0.0004    0.0000    0.0000   -0.0000    0.0000    0.0000
          16    0.0001    0.0000   -0.0035    0.0179    0.0047   -0.0167   -0.0193    0.0074
          17   -0.0001    0.0001   -0.0033    0.0258    0.0069   -0.0165   -0.0162    0.0261
          18    0.0337   -0.0248   -0.0004    0.0001    0.0000   -0.0000   -0.0001    0.0001
          19   -0.0001    0.0001   -0.0028   -0.0016    0.0024    0.0036   -0.0043    0.0024
          20    0.0002   -0.0001    0.0021   -0.0064    0.0005    0.0173    0.0258   -0.0107
          21   -0.0530    0.0282    0.0004   -0.0000   -0.0000    0.0000    0.0001   -0.0000
          22    0.0314    0.0575   -0.0762   -0.0555    0.0096    0.0750    0.0068    0.1057
          23    0.1284    0.1798   -0.1938    0.0126    0.0967    0.0512   -0.0661   -0.0567
          24    0.0032    0.0007    0.0021    0.0157    0.0059   -0.0233   -0.0125   -0.0676
          25   -0.0312   -0.0555   -0.0781   -0.0555    0.0097    0.0751    0.0068    0.1056
          26   -0.1282   -0.1742   -0.1998    0.0127    0.0971    0.0513   -0.0661   -0.0567
          27    0.0034    0.0009   -0.0020   -0.0157   -0.0060    0.0233    0.0125    0.0678
          28   -0.0005   -0.0026    0.2192    0.1687   -0.0330    0.1958   -0.1097    0.0648
          29    0.0000   -0.0003    0.0286    0.0287    0.0315   -0.0245   -0.0130   -0.0136
          30    0.0048    0.0615    0.0010   -0.0001   -0.0001   -0.0000   -0.0000   -0.0000
          31   -0.0002   -0.0008    0.0755   -0.0789    0.2199   -0.0732    0.1080    0.0939
          32    0.0002    0.0003   -0.0437    0.0208   -0.1770    0.0663   -0.0617   -0.0511
          33   -0.0654   -0.0736   -0.0011    0.0000    0.0002   -0.0000    0.0000    0.0000
          34   -0.0001    0.0012   -0.0965    0.1347   -0.1952   -0.1045    0.0824    0.0491
          35   -0.0001    0.0006   -0.0465    0.0483   -0.1795   -0.0598    0.0731    0.0363
          36    0.0367    0.0640    0.0009   -0.0001   -0.0000    0.0000   -0.0000   -0.0000
          37    0.0001    0.0006   -0.0302    0.1870    0.0740    0.1451    0.2751   -0.0403
          38    0.0003   -0.0002    0.0008    0.0031   -0.0027   -0.0408   -0.0606    0.0350
          39   -0.0963    0.0729    0.0011   -0.0003   -0.0002   -0.0003   -0.0005    0.0001
          40    0.0002   -0.0000   -0.0028   -0.0100    0.0060    0.0177    0.0012    0.0419
          41   -0.0006    0.0002    0.0004    0.0265   -0.0067   -0.0249    0.0057   -0.1079
          42    0.2107   -0.1032   -0.0014    0.0001    0.0000   -0.0001    0.0000   -0.0004
          43    0.0003   -0.0000   -0.0137    0.0655    0.0121   -0.0494   -0.0783    0.1544
          44   -0.0006    0.0003    0.0035   -0.0119    0.0006    0.0229    0.0342   -0.0293
          45    0.1799   -0.0909   -0.0012   -0.0001    0.0001    0.0002    0.0002   -0.0003


   Root No.      25        26        27        28        29        30        31        32

                25 A      26 A      27 A      28 A      29 A      30 A      31 A      32 A   

                1324.3    1352.4    1383.0    1509.3    1741.6    1795.2    1879.4    2982.4
  
           1   -0.0034    0.0627    0.0685   -0.0055   -0.0102    0.0013    0.0027   -0.0000
           2    0.0136    0.1324   -0.0344    0.0076    0.0028    0.0010    0.0003   -0.0000
           3   -0.0000   -0.0000    0.0000    0.0000    0.0000   -0.0000   -0.0000   -0.0610
           4   -0.0026    0.0022   -0.0152    0.0740   -0.0780    0.1109   -0.1307    0.0000
           5    0.0117    0.0106    0.0048    0.1663    0.0286   -0.0545    0.0226   -0.0000
           6    0.0000    0.0000    0.0000   -0.0000    0.0000   -0.0000    0.0000   -0.0002
           7   -0.0233   -0.0475   -0.0330    0.0251    0.0621   -0.0956    0.0589   -0.0000
           8   -0.0033   -0.0603   -0.0086   -0.0469   -0.0454    0.0522   -0.0388   -0.0000
           9   -0.0000    0.0000    0.0000   -0.0000    0.0000   -0.0000   -0.0000   -0.0003
          10   -0.0046    0.0104   -0.0131   -0.0183    0.1629    0.0693   -0.0162   -0.0000
          11    0.0051   -0.0784    0.0409    0.0140   -0.0065   -0.0098    0.0066    0.0000
          12   -0.0000    0.0000   -0.0000   -0.0000   -0.0000   -0.0000    0.0000   -0.0003
          13   -0.0054    0.0086   -0.0153   -0.0252   -0.1520   -0.0794    0.0296    0.0000
          14   -0.0199    0.0361   -0.0162   -0.0926   -0.0048   -0.0071    0.0086    0.0000
          15    0.0000   -0.0000    0.0000    0.0000    0.0000    0.0000   -0.0000   -0.0002
          16    0.0306   -0.0044    0.0126   -0.0401   -0.0089    0.0600    0.1745   -0.0000
          17   -0.0033   -0.0058    0.0079   -0.0559    0.0271   -0.0507   -0.0703    0.0000
          18   -0.0000    0.0000    0.0000   -0.0001    0.0001   -0.0003   -0.0004   -0.0001
          19    0.0155    0.0024    0.0090   -0.0243    0.0291   -0.0710   -0.1073    0.0000
          20   -0.0176    0.0011   -0.0099    0.0323   -0.0222    0.0535    0.0826    0.0000
          21   -0.0001   -0.0000   -0.0000    0.0001   -0.0001    0.0003    0.0004    0.0000
          22    0.0842   -0.1202   -0.1475   -0.0023   -0.0056    0.0094   -0.0047    0.2715
          23   -0.0365   -0.1330    0.0657   -0.0259    0.0176    0.0234   -0.0092   -0.0895
          24   -0.0646    0.0592    0.1541   -0.0095    0.0063   -0.0019    0.0056    0.3714
          25    0.0842   -0.1201   -0.1472   -0.0024   -0.0056    0.0095   -0.0047   -0.2710
          26   -0.0364   -0.1333    0.0655   -0.0259    0.0177    0.0235   -0.0092    0.0896
          27    0.0648   -0.0591   -0.1544    0.0095   -0.0064    0.0018   -0.0056    0.3694
          28    0.0442   -0.0141    0.0792    0.0698   -0.0282    0.0334   -0.0217    0.0000
          29   -0.0021   -0.0623   -0.0094   -0.0496   -0.0601    0.0712   -0.0562   -0.0000
          30    0.0000   -0.0000    0.0000    0.0000   -0.0000   -0.0000    0.0000   -0.0009
          31    0.0356   -0.0418    0.0824    0.0529    0.0353    0.0146   -0.0003   -0.0000
          32   -0.0254   -0.0398   -0.0280   -0.0441    0.1254    0.0459   -0.0068   -0.0000
          33    0.0000    0.0000    0.0000    0.0000   -0.0001   -0.0000    0.0000   -0.0009
          34    0.0276   -0.1062    0.0425    0.0718   -0.0635    0.0081   -0.0177    0.0000
          35    0.0037   -0.0515    0.0306   -0.0227    0.1022    0.0740   -0.0290   -0.0000
          36    0.0000    0.0000   -0.0000   -0.0000   -0.0000   -0.0000    0.0000   -0.0007
          37   -0.0544    0.0009   -0.0191   -0.0769    0.0065   -0.0157   -0.0692   -0.0000
          38    0.0093   -0.0072    0.0136   -0.0547    0.0332   -0.0559   -0.0586   -0.0000
          39    0.0001   -0.0000    0.0000   -0.0001    0.0001   -0.0001   -0.0002   -0.0000
          40   -0.0810    0.0030   -0.0133    0.0195    0.0172   -0.0476   -0.0789    0.0000
          41    0.2390   -0.0012    0.0524   -0.0993    0.0280   -0.0524   -0.0589   -0.0000
          42    0.0009   -0.0000    0.0002   -0.0004    0.0001   -0.0001   -0.0001    0.0001
          43   -0.2206   -0.0117   -0.0365    0.0383   -0.0155    0.0417    0.0606   -0.0000
          44    0.0113    0.0027   -0.0047    0.0260   -0.0211    0.0536    0.0900   -0.0000
          45    0.0003    0.0000    0.0000    0.0001   -0.0000    0.0001    0.0002   -0.0000


   Root No.      33        34        35        36        37        38        39

                33 A      34 A      35 A      36 A      37 A      38 A      39 A   

                3030.1    3051.1    3122.9    3132.5    3141.6    3146.7    3150.4
  
           1    0.0001    0.0397   -0.0008    0.0001    0.0008    0.0002   -0.0018
           2    0.0000   -0.0131    0.0004   -0.0001   -0.0002   -0.0001    0.0007
           3   -0.0000   -0.0001    0.0000    0.0000   -0.0000   -0.0000    0.0000
           4    0.0009   -0.0010    0.0003    0.0002   -0.0035    0.0006    0.0020
           5   -0.0002    0.0002    0.0003   -0.0002    0.0022   -0.0003    0.0002
           6   -0.0000   -0.0000   -0.0000   -0.0000    0.0000   -0.0000   -0.0000
           7   -0.0006    0.0008   -0.0001    0.0001    0.0032   -0.0002   -0.0008
           8   -0.0003    0.0012   -0.0026    0.0007   -0.0541   -0.0012    0.0167
           9   -0.0000   -0.0000   -0.0000   -0.0000   -0.0000    0.0000    0.0000
          10   -0.0000   -0.0001    0.0067   -0.0059   -0.0126    0.0023   -0.0277
          11    0.0000   -0.0013    0.0117   -0.0086   -0.0141    0.0028   -0.0313
          12   -0.0000    0.0000   -0.0000    0.0000    0.0000   -0.0000    0.0000
          13    0.0003    0.0000    0.0262   -0.0109    0.0041   -0.0001    0.0149
          14    0.0005   -0.0006   -0.0315    0.0136   -0.0024   -0.0001   -0.0142
          15   -0.0000   -0.0000    0.0000   -0.0000    0.0000   -0.0000    0.0000
          16   -0.0063    0.0001   -0.0013   -0.0027    0.0003    0.0038    0.0001
          17   -0.0726    0.0001    0.0003    0.0013    0.0001   -0.0083   -0.0006
          18   -0.0002    0.0000    0.0000    0.0000    0.0000   -0.0000   -0.0000
          19    0.0013    0.0000   -0.0018   -0.0071    0.0004   -0.0589   -0.0019
          20    0.0053   -0.0001   -0.0194   -0.0454    0.0021   -0.0082    0.0029
          21    0.0000   -0.0000   -0.0001   -0.0001    0.0000    0.0000    0.0000
          22   -0.0003   -0.2356    0.0022   -0.0002   -0.0036   -0.0007    0.0061
          23    0.0001    0.0776   -0.0003   -0.0003   -0.0008    0.0003   -0.0026
          24   -0.0005   -0.3808    0.0034   -0.0002   -0.0046   -0.0011    0.0096
          25   -0.0003   -0.2370    0.0022   -0.0002   -0.0036   -0.0007    0.0061
          26    0.0001    0.0784   -0.0003   -0.0003   -0.0008    0.0003   -0.0026
          27    0.0005    0.3817   -0.0034    0.0002    0.0046    0.0011   -0.0096
          28   -0.0013    0.0015   -0.0004    0.0001   -0.0030   -0.0002    0.0010
          29    0.0037   -0.0138    0.0356   -0.0091    0.6099    0.0143   -0.1759
          30   -0.0000   -0.0000    0.0000   -0.0000    0.0000    0.0000   -0.0000
          31    0.0001    0.0087   -0.1038    0.0757    0.1305   -0.0241    0.2711
          32    0.0001    0.0092   -0.1400    0.1015    0.1737   -0.0321    0.3595
          33   -0.0000   -0.0000    0.0001   -0.0001   -0.0001    0.0000   -0.0002
          34    0.0025   -0.0088   -0.2827    0.1238   -0.0287   -0.0016   -0.1212
          35   -0.0031    0.0108    0.3669   -0.1572    0.0358    0.0021    0.1544
          36    0.0000   -0.0000   -0.0001    0.0000   -0.0000   -0.0000   -0.0000
          37    0.1196   -0.0001   -0.0005   -0.0015    0.0006    0.0048    0.0002
          38    0.8250   -0.0005    0.0040    0.0071   -0.0029    0.0551    0.0032
          39    0.0024   -0.0000    0.0000    0.0000   -0.0000    0.0002    0.0000
          40   -0.0663   -0.0005    0.0135    0.0654   -0.0026    0.6707    0.0221
          41   -0.0282   -0.0002   -0.0005    0.0110   -0.0003    0.2386    0.0087
          42   -0.0000    0.0000   -0.0000   -0.0000    0.0000   -0.0001    0.0000
          43   -0.0019    0.0001    0.0193    0.0480   -0.0024   -0.0252   -0.0051
          44    0.0041    0.0015    0.2212    0.5097   -0.0241   -0.0954   -0.0398
          45    0.0000    0.0000    0.0007    0.0017   -0.0001   -0.0003   -0.0001


           MASS-WEIGHTED COORDINATE ANALYSIS (NORMAL COORDINATES)


   Root No.       1         2         3         4         5         6         7         8

                 1 A       2 A       3 A       4 A       5 A       6 A       7 A       8 A   

                  50.4     212.1     217.6     349.1     481.7     512.9     650.9     671.3
  
           1   -0.0003    0.0035    0.0005   -0.0001   -0.2650    0.0034   -0.2392    0.0005
           2   -0.0002    0.1658    0.0057   -0.0003   -0.1172    0.0015   -0.1254    0.0001
           3    0.2719    0.0093   -0.2624   -0.2345    0.0002    0.0118   -0.0000    0.1075
           4   -0.0002    0.0274    0.0012   -0.0002   -0.0924    0.0007    0.2756   -0.0001
           5    0.0005   -0.3330   -0.0117    0.0003    0.2650   -0.0032    0.0512   -0.0001
           6   -0.2180   -0.0134    0.3754   -0.2093   -0.0041   -0.4356   -0.0001    0.3995
           7   -0.0005    0.1727    0.0063   -0.0003   -0.2963    0.0035   -0.0149    0.0002
           8    0.0002   -0.1265   -0.0044    0.0002    0.0846   -0.0008   -0.3013    0.0001
           9    0.0971   -0.0133    0.3861    0.2963    0.0030    0.2099    0.0001    0.0036
          10    0.0003   -0.2816   -0.0097    0.0001   -0.0316    0.0005   -0.2822   -0.0001
          11   -0.0001    0.0615    0.0020    0.0002   -0.0030   -0.0001   -0.0428   -0.0001
          12   -0.0220    0.0083   -0.2213    0.4274   -0.0026   -0.1760    0.0001    0.0529
          13    0.0003   -0.2648   -0.0091   -0.0000   -0.0419    0.0007   -0.2429   -0.0000
          14    0.0003   -0.2368   -0.0083    0.0002    0.2792   -0.0034    0.0908   -0.0004
          15   -0.3007   -0.0094    0.2791   -0.2714    0.0047    0.3318    0.0000    0.0150
          16   -0.0005   -0.0421   -0.0017    0.0000    0.1834   -0.0028    0.4327   -0.0007
          17    0.0011   -0.0945   -0.0023   -0.0003   -0.3929    0.0049    0.3999    0.0007
          18   -0.4014    0.0091   -0.2976   -0.0229   -0.0038   -0.2606    0.0000   -0.3183
          19    0.0008    0.3619    0.0118    0.0004    0.4714   -0.0054    0.1665   -0.0000
          20   -0.0016    0.4255    0.0142   -0.0002   -0.0963    0.0010    0.0149   -0.0001
          21    0.4867    0.0039   -0.1026    0.0288   -0.0001    0.0635   -0.0002    0.0168
          22   -0.0579    0.0091    0.1452    0.2657   -0.0912    0.0076   -0.0670    0.1300
          23    0.0325    0.0872    0.0439   -0.1129   -0.0656    0.1026   -0.0054   -0.0738
          24    0.1268    0.0060   -0.1696   -0.2872    0.0023    0.0235    0.0041   -0.0829
          25    0.0576    0.0190   -0.1439   -0.2656   -0.0915   -0.0053   -0.0668   -0.1295
          26   -0.0327    0.0903   -0.0378    0.1124   -0.0683   -0.1009   -0.0054    0.0737
          27    0.1269    0.0058   -0.1697   -0.2877   -0.0017    0.0237   -0.0040   -0.0831
          28   -0.0002    0.1206    0.0043   -0.0002   -0.1736    0.0022   -0.0643    0.0001
          29    0.0001   -0.0355   -0.0012    0.0001    0.0238   -0.0002   -0.0878    0.0000
          30    0.0654   -0.0055    0.1620    0.2648    0.0026    0.2393    0.0002   -0.3839
          31    0.0002   -0.1372   -0.0048    0.0001    0.0532   -0.0007   -0.0570   -0.0002
          32   -0.0001    0.0596    0.0020    0.0001   -0.0481    0.0006   -0.0336   -0.0001
          33   -0.0006    0.0057   -0.1565    0.3283   -0.0018   -0.0959    0.0001   -0.2318
          34    0.0002   -0.1414   -0.0049    0.0001    0.0262   -0.0002   -0.1414   -0.0001
          35    0.0002   -0.1170   -0.0041    0.0001    0.1117   -0.0012   -0.0291   -0.0003
          36   -0.1632   -0.0050    0.1498   -0.1667    0.0047    0.3909    0.0001   -0.3455
          37   -0.0005   -0.1222   -0.0044    0.0001    0.1063   -0.0015    0.1580    0.0001
          38    0.0011   -0.0087    0.0007   -0.0003   -0.1183    0.0009    0.1092   -0.0000
          39   -0.3678    0.0111   -0.3470    0.0649    0.0016    0.1428    0.0002   -0.0185
          40    0.0002    0.0488    0.0013    0.0002    0.0841   -0.0004    0.1415    0.0005
          41   -0.0003    0.2906    0.0104   -0.0002    0.1410   -0.0030   -0.2747   -0.0013
          42    0.1085    0.0086   -0.2475    0.0988    0.0054    0.4520   -0.0002    0.4993
          43    0.0006    0.2828    0.0097    0.0001    0.3365   -0.0041   -0.2334   -0.0000
          44   -0.0014    0.1098    0.0028    0.0002   -0.0433    0.0015    0.0256    0.0010
          45    0.4015   -0.0077    0.2375   -0.0654   -0.0041   -0.2950   -0.0001   -0.3095


   Root No.       9        10        11        12        13        14        15        16

                 9 A      10 A      11 A      12 A      13 A      14 A      15 A      16 A   

                 765.7     804.8     810.0     918.8     944.6     962.6     979.5    1000.8
  
           1   -0.0005   -0.4650    0.0033    0.0001    0.0001   -0.0385   -0.0000   -0.1745
           2    0.0002    0.2160   -0.0015    0.0001    0.0000   -0.0619    0.0002    0.1033
           3   -0.2646   -0.0018   -0.2878   -0.2477    0.1198   -0.0004    0.3280    0.0000
           4    0.0001    0.0562   -0.0004   -0.0004    0.0003    0.2472    0.0000   -0.0102
           5   -0.0001   -0.1813    0.0013   -0.0001    0.0002    0.0347   -0.0000   -0.1056
           6    0.3439    0.0009    0.1649   -0.1196    0.2566   -0.0010    0.0819    0.0005
           7   -0.0002   -0.1546    0.0011   -0.0001    0.0001    0.1476   -0.0001    0.1163
           8   -0.0003   -0.3475    0.0024    0.0002   -0.0003   -0.2827   -0.0002   -0.1013
           9    0.0874   -0.0013   -0.2073    0.2028   -0.1314    0.0005   -0.3790   -0.0001
          10    0.0004    0.2980   -0.0020    0.0001   -0.0000   -0.0857   -0.0001   -0.0575
          11    0.0005    0.4668   -0.0031   -0.0002    0.0002   -0.0151   -0.0002   -0.2432
          12   -0.1280    0.0014    0.2014    0.0404   -0.0126    0.0003   -0.3649    0.0001
          13    0.0004    0.3422   -0.0023    0.0001   -0.0000   -0.0643    0.0001   -0.0339
          14   -0.0004   -0.1176    0.0008   -0.0003   -0.0002    0.2770    0.0000    0.2940
          15   -0.2109    0.0011    0.1185    0.2709   -0.2511    0.0005    0.2538   -0.0004
          16   -0.0003   -0.0158   -0.0001   -0.0003   -0.0003    0.0025    0.0000   -0.0960
          17    0.0001   -0.0165    0.0001    0.0004    0.0011    0.1454    0.0001   -0.1461
          18   -0.1171   -0.0003   -0.0531   -0.2132   -0.2830    0.0004   -0.0132   -0.0000
          19   -0.0000   -0.0076   -0.0000    0.0005   -0.0006   -0.3535   -0.0001    0.0777
          20   -0.0002   -0.0148    0.0000    0.0006    0.0000   -0.2157    0.0001    0.0969
          21   -0.0049   -0.0001   -0.0131   -0.0417   -0.1225   -0.0001   -0.0560   -0.0007
          22   -0.2175   -0.1733   -0.2905   -0.1087   -0.0023    0.0245    0.2514    0.0026
          23    0.1426    0.0462   -0.1116    0.2186   -0.2577    0.0848    0.0919    0.2392
          24    0.1190    0.0177    0.1050    0.0617   -0.0261   -0.0007   -0.0684    0.0122
          25    0.2169   -0.1700    0.2926    0.1087    0.0023    0.0245   -0.2511    0.0026
          26   -0.1423    0.0480    0.1109   -0.2181    0.2573    0.0832   -0.0916    0.2400
          27    0.1194   -0.0167    0.1054    0.0621   -0.0264    0.0008   -0.0686   -0.0126
          28    0.0000    0.0598   -0.0004    0.0000    0.0001    0.0848   -0.0001    0.3431
          29   -0.0001   -0.1014    0.0007    0.0001   -0.0001   -0.0852   -0.0001   -0.0288
          30   -0.0713    0.0043    0.6286   -0.1936    0.1609   -0.0006    0.3499    0.0002
          31    0.0002    0.1296   -0.0009   -0.0002   -0.0001    0.1115   -0.0001    0.3022
          32    0.0005    0.1057   -0.0008    0.0001    0.0001   -0.1065    0.0003   -0.3089
          33    0.6711   -0.0023   -0.2060    0.0684   -0.0595   -0.0001    0.4099    0.0002
          34    0.0000    0.0164   -0.0001    0.0003   -0.0003   -0.0551    0.0001    0.3001
          35   -0.0001   -0.1007    0.0006   -0.0001   -0.0001    0.0563   -0.0001    0.3242
          36    0.1889   -0.0025   -0.3121   -0.4421    0.3678   -0.0009   -0.2928    0.0003
          37    0.0001   -0.0388    0.0003    0.0001    0.0012    0.1668    0.0002   -0.2258
          38    0.0002   -0.0011    0.0002   -0.0016   -0.0016    0.0211   -0.0001   -0.0156
          39   -0.0875   -0.0005   -0.1002    0.5280    0.5239    0.0001    0.0363   -0.0001
          40    0.0001   -0.0007    0.0001    0.0004   -0.0003   -0.2729    0.0000    0.0750
          41   -0.0004   -0.0103   -0.0001   -0.0006    0.0003    0.4526   -0.0001   -0.1395
          42    0.2174    0.0008    0.1368   -0.0507    0.1318    0.0015    0.0713    0.0006
          43    0.0003   -0.0075    0.0003   -0.0004    0.0013    0.4156    0.0003   -0.1848
          44    0.0004   -0.0043    0.0003   -0.0010   -0.0015   -0.0980   -0.0003    0.0413
          45   -0.1418   -0.0006   -0.0935    0.3397    0.3920   -0.0008    0.0781    0.0012


   Root No.      17        18        19        20        21        22        23        24

                17 A      18 A      19 A      20 A      21 A      22 A      23 A      24 A   

                1022.4    1033.9    1037.6    1075.2    1083.6    1192.7    1211.1    1274.4
  
           1    0.0003    0.0014   -0.1196   -0.2231   -0.0767    0.1095    0.0976    0.1715
           2   -0.0001    0.0018   -0.1138    0.1647    0.0888   -0.2029    0.0828    0.1114
           3   -0.0394   -0.0061   -0.0001   -0.0001   -0.0001    0.0000   -0.0000   -0.0001
           4   -0.0000   -0.0008    0.0394   -0.1492   -0.0854   -0.1090   -0.0193   -0.1915
           5    0.0001    0.0008   -0.0572    0.0537    0.0580    0.1141   -0.1702   -0.0554
           6   -0.0152    0.2007    0.0029   -0.0005   -0.0004   -0.0001   -0.0002    0.0000
           7   -0.0004   -0.0033    0.2245   -0.0446   -0.0447   -0.2493    0.1136   -0.3126
           8    0.0000   -0.0029    0.2215    0.2071    0.2225   -0.2061   -0.0867   -0.1211
           9   -0.0775   -0.2539   -0.0037    0.0002    0.0002    0.0001    0.0000    0.0001
          10    0.0001    0.0002   -0.0037    0.0004    0.0786    0.0780   -0.0891   -0.0823
          11    0.0003   -0.0020    0.1128   -0.2891   -0.1423    0.0280    0.2167    0.2204
          12    0.2060    0.2810    0.0040    0.0000   -0.0002   -0.0000   -0.0001   -0.0001
          13    0.0001    0.0013   -0.0896    0.0485    0.0086    0.0792   -0.1112   -0.1044
          14   -0.0005   -0.0025    0.1437   -0.3854   -0.1934    0.2296   -0.0153   -0.1103
          15   -0.1052   -0.2022   -0.0028    0.0003    0.0004   -0.0001    0.0000    0.0001
          16    0.0005    0.0001   -0.0275    0.1424    0.0356   -0.1457   -0.1591    0.0665
          17   -0.0007    0.0010   -0.0261    0.2061    0.0522   -0.1441   -0.1337    0.2333
          18    0.2702   -0.2146   -0.0030    0.0007    0.0003   -0.0001   -0.0004    0.0007
          19   -0.0006    0.0009   -0.0217   -0.0126    0.0182    0.0312   -0.0351    0.0214
          20    0.0013   -0.0009    0.0169   -0.0512    0.0035    0.1508    0.2135   -0.0954
          21   -0.4256    0.2443    0.0031   -0.0003   -0.0002    0.0004    0.0008   -0.0004
          22    0.0729    0.1441   -0.1737   -0.1283    0.0211    0.1896    0.0163    0.2735
          23    0.2986    0.4506   -0.4421    0.0290    0.2126    0.1293   -0.1581   -0.1468
          24    0.0075    0.0017    0.0049    0.0362    0.0130   -0.0589   -0.0298   -0.1750
          25   -0.0726   -0.1390   -0.1781   -0.1282    0.0214    0.1897    0.0163    0.2734
          26   -0.2982   -0.4366   -0.4559    0.0294    0.2137    0.1296   -0.1583   -0.1467
          27    0.0078    0.0021   -0.0045   -0.0364   -0.0132    0.0589    0.0300    0.1755
          28   -0.0011   -0.0065    0.5001    0.3897   -0.0726    0.4947   -0.2623    0.1678
          29    0.0000   -0.0008    0.0652    0.0662    0.0693   -0.0618   -0.0311   -0.0352
          30    0.0112    0.1543    0.0022   -0.0002   -0.0001   -0.0000   -0.0000   -0.0000
          31   -0.0005   -0.0019    0.1723   -0.1822    0.4838   -0.1851    0.2583    0.2430
          32    0.0004    0.0007   -0.0997    0.0480   -0.3893    0.1676   -0.1476   -0.1323
          33   -0.1520   -0.1846   -0.0025    0.0000    0.0004   -0.0001    0.0000    0.0000
          34   -0.0002    0.0031   -0.2202    0.3112   -0.4294   -0.2641    0.1971    0.1270
          35   -0.0003    0.0014   -0.1062    0.1117   -0.3949   -0.1511    0.1749    0.0940
          36    0.0853    0.1604    0.0022   -0.0002   -0.0001    0.0001   -0.0001   -0.0001
          37    0.0001    0.0014   -0.0688    0.4321    0.1629    0.3666    0.6582   -0.1042
          38    0.0007   -0.0006    0.0017    0.0071   -0.0060   -0.1030   -0.1449    0.0906
          39   -0.2239    0.1826    0.0026   -0.0008   -0.0004   -0.0009   -0.0011    0.0004
          40    0.0006   -0.0000   -0.0064   -0.0232    0.0131    0.0447    0.0028    0.1085
          41   -0.0015    0.0005    0.0010    0.0611   -0.0148   -0.0629    0.0137   -0.2794
          42    0.4900   -0.2586   -0.0031    0.0003    0.0001   -0.0003    0.0000   -0.0011
          43    0.0008   -0.0000   -0.0313    0.1514    0.0266   -0.1249   -0.1873    0.3995
          44   -0.0015    0.0007    0.0080   -0.0275    0.0013    0.0578    0.0819   -0.0757
          45    0.4183   -0.2279   -0.0027   -0.0002    0.0002    0.0004    0.0005   -0.0007


   Root No.      25        26        27        28        29        30        31        32

                25 A      26 A      27 A      28 A      29 A      30 A      31 A      32 A   

                1324.3    1352.4    1383.0    1509.3    1741.6    1795.2    1879.4    2982.4
  
           1   -0.0276    0.3026    0.4821   -0.0233   -0.0392    0.0054    0.0094   -0.0002
           2    0.1111    0.6386   -0.2421    0.0323    0.0108    0.0044    0.0010   -0.0001
           3   -0.0001   -0.0002    0.0003    0.0000    0.0000   -0.0000   -0.0000   -0.3033
           4   -0.0212    0.0108   -0.1073    0.3141   -0.2988    0.4736   -0.4608    0.0000
           5    0.0952    0.0512    0.0339    0.7055    0.1095   -0.2329    0.0797   -0.0000
           6    0.0001    0.0000    0.0000   -0.0002    0.0000   -0.0000    0.0002   -0.0010
           7   -0.1901   -0.2294   -0.2320    0.1065    0.2380   -0.4081    0.2076   -0.0000
           8   -0.0266   -0.2910   -0.0608   -0.1990   -0.1739    0.2228   -0.1369   -0.0000
           9   -0.0000    0.0000    0.0000   -0.0000    0.0000   -0.0000   -0.0000   -0.0013
          10   -0.0376    0.0503   -0.0921   -0.0775    0.6242    0.2958   -0.0570   -0.0000
          11    0.0417   -0.3782    0.2878    0.0592   -0.0248   -0.0417    0.0234    0.0000
          12   -0.0000    0.0002   -0.0001   -0.0000   -0.0001   -0.0000    0.0000   -0.0013
          13   -0.0440    0.0415   -0.1079   -0.1071   -0.5825   -0.3389    0.1044    0.0000
          14   -0.1624    0.1744   -0.1142   -0.3927   -0.0185   -0.0303    0.0303    0.0000
          15    0.0000   -0.0001    0.0001    0.0002    0.0001    0.0001   -0.0001   -0.0010
          16    0.2492   -0.0213    0.0883   -0.1703   -0.0341    0.2564    0.6150   -0.0000
          17   -0.0273   -0.0279    0.0555   -0.2371    0.1039   -0.2165   -0.2478    0.0000
          18   -0.0003    0.0000    0.0001   -0.0004    0.0004   -0.0011   -0.0016   -0.0003
          19    0.1260    0.0114    0.0630   -0.1031    0.1115   -0.3034   -0.3782    0.0000
          20   -0.1432    0.0051   -0.0698    0.1371   -0.0850    0.2285    0.2912    0.0000
          21   -0.0006   -0.0000   -0.0003    0.0005   -0.0004    0.0012    0.0015    0.0000
          22    0.1988   -0.1679   -0.3006   -0.0029   -0.0062    0.0117   -0.0048    0.3911
          23   -0.0861   -0.1859    0.1339   -0.0319    0.0196    0.0290   -0.0094   -0.1289
          24   -0.1525    0.0827    0.3140   -0.0117    0.0070   -0.0023    0.0057    0.5350
          25    0.1986   -0.1679   -0.3001   -0.0029   -0.0062    0.0117   -0.0048   -0.3904
          26   -0.0860   -0.1863    0.1336   -0.0319    0.0196    0.0290   -0.0094    0.1291
          27    0.1529   -0.0827   -0.3146    0.0117   -0.0071    0.0023   -0.0057    0.5322
          28    0.1042   -0.0196    0.1614    0.0858   -0.0313    0.0413   -0.0222    0.0000
          29   -0.0049   -0.0871   -0.0192   -0.0610   -0.0667    0.0881   -0.0574   -0.0000
          30    0.0000   -0.0000    0.0000    0.0000   -0.0000   -0.0000    0.0000   -0.0013
          31    0.0841   -0.0584    0.1679    0.0650    0.0392    0.0180   -0.0003   -0.0000
          32   -0.0599   -0.0556   -0.0570   -0.0542    0.1392    0.0568   -0.0070   -0.0000
          33    0.0000    0.0001    0.0000    0.0000   -0.0001   -0.0000    0.0000   -0.0013
          34    0.0651   -0.1484    0.0866    0.0882   -0.0704    0.0101   -0.0181    0.0000
          35    0.0088   -0.0719    0.0623   -0.0279    0.1135    0.0916   -0.0296   -0.0000
          36    0.0000    0.0000   -0.0000   -0.0000   -0.0000   -0.0000    0.0000   -0.0010
          37   -0.1283    0.0013   -0.0388   -0.0945    0.0072   -0.0194   -0.0706   -0.0000
          38    0.0220   -0.0101    0.0278   -0.0672    0.0369   -0.0691   -0.0599   -0.0000
          39    0.0002   -0.0000    0.0001   -0.0002    0.0001   -0.0001   -0.0002   -0.0000
          40   -0.1912    0.0042   -0.0272    0.0239    0.0191   -0.0589   -0.0806    0.0000
          41    0.5640   -0.0017    0.1068   -0.1220    0.0310   -0.0648   -0.0602   -0.0000
          42    0.0021   -0.0000    0.0004   -0.0005    0.0001   -0.0001   -0.0001    0.0001
          43   -0.5208   -0.0164   -0.0744    0.0471   -0.0172    0.0516    0.0618   -0.0000
          44    0.0267    0.0038   -0.0097    0.0320   -0.0234    0.0662    0.0919   -0.0000
          45    0.0007    0.0001    0.0001    0.0001   -0.0001    0.0001    0.0002   -0.0000


   Root No.      33        34        35        36        37        38        39

                33 A      34 A      35 A      36 A      37 A      38 A      39 A   

                3030.1    3051.1    3122.9    3132.5    3141.6    3146.7    3150.4
  
           1    0.0003    0.2075   -0.0047    0.0008    0.0042    0.0008   -0.0113
           2    0.0001   -0.0686    0.0024   -0.0007   -0.0009   -0.0002    0.0041
           3   -0.0000   -0.0004    0.0000    0.0000   -0.0000   -0.0000    0.0000
           4    0.0037   -0.0051    0.0018    0.0012   -0.0176    0.0026    0.0128
           5   -0.0009    0.0010    0.0017   -0.0013    0.0109   -0.0013    0.0014
           6   -0.0000   -0.0000   -0.0000   -0.0000    0.0000   -0.0000   -0.0000
           7   -0.0024    0.0043   -0.0003    0.0008    0.0161   -0.0008   -0.0050
           8   -0.0013    0.0063   -0.0160    0.0038   -0.2748   -0.0055    0.1046
           9   -0.0000   -0.0000   -0.0000   -0.0000   -0.0000    0.0000    0.0000
          10   -0.0002   -0.0006    0.0410   -0.0344   -0.0641    0.0106   -0.1733
          11    0.0001   -0.0070    0.0709   -0.0497   -0.0715    0.0127   -0.1957
          12   -0.0000    0.0000   -0.0000    0.0000    0.0000   -0.0000    0.0001
          13    0.0010    0.0000    0.1595   -0.0633    0.0207   -0.0003    0.0930
          14    0.0020   -0.0032   -0.1916    0.0790   -0.0120   -0.0005   -0.0886
          15   -0.0000   -0.0000    0.0001   -0.0000    0.0000   -0.0000    0.0000
          16   -0.0248    0.0007   -0.0077   -0.0155    0.0016    0.0175    0.0009
          17   -0.2867    0.0005    0.0021    0.0075    0.0005   -0.0380   -0.0040
          18   -0.0008    0.0000    0.0000    0.0000    0.0000   -0.0001   -0.0000
          19    0.0051    0.0001   -0.0110   -0.0413    0.0019   -0.2706   -0.0118
          20    0.0209   -0.0006   -0.1177   -0.2640    0.0107   -0.0379    0.0180
          21    0.0001   -0.0000   -0.0004   -0.0008    0.0000    0.0002    0.0001
          22   -0.0004   -0.3568    0.0039   -0.0003   -0.0053   -0.0009    0.0111
          23    0.0001    0.1176   -0.0005   -0.0005   -0.0012    0.0005   -0.0048
          24   -0.0006   -0.5767    0.0060   -0.0003   -0.0068   -0.0014    0.0174
          25   -0.0004   -0.3589    0.0039   -0.0003   -0.0054   -0.0009    0.0111
          26    0.0001    0.1188   -0.0005   -0.0005   -0.0012    0.0005   -0.0048
          27    0.0006    0.5781   -0.0060    0.0003    0.0068    0.0014   -0.0174
          28   -0.0015    0.0022   -0.0007    0.0002   -0.0044   -0.0002    0.0018
          29    0.0042   -0.0209    0.0626   -0.0152    0.8975    0.0191   -0.3191
          30   -0.0000   -0.0000    0.0000   -0.0000    0.0000    0.0000   -0.0000
          31    0.0001    0.0132   -0.1827    0.1274    0.1921   -0.0321    0.4917
          32    0.0001    0.0139   -0.2465    0.1709    0.2556   -0.0427    0.6519
          33   -0.0000   -0.0000    0.0002   -0.0001   -0.0002    0.0000   -0.0004
          34    0.0028   -0.0133   -0.4977    0.2084   -0.0422   -0.0021   -0.2199
          35   -0.0035    0.0164    0.6460   -0.2647    0.0528    0.0028    0.2801
          36    0.0000   -0.0000   -0.0002    0.0001   -0.0000   -0.0000   -0.0001
          37    0.1368   -0.0002   -0.0010   -0.0025    0.0008    0.0064    0.0003
          38    0.9440   -0.0007    0.0071    0.0120   -0.0043    0.0733    0.0057
          39    0.0027   -0.0000    0.0000    0.0000   -0.0000    0.0002    0.0000
          40   -0.0758   -0.0007    0.0239    0.1100   -0.0038    0.8925    0.0401
          41   -0.0322   -0.0003   -0.0010    0.0185   -0.0005    0.3175    0.0158
          42   -0.0000    0.0000   -0.0000   -0.0001    0.0000   -0.0001    0.0000
          43   -0.0022    0.0002    0.0340    0.0808   -0.0036   -0.0336   -0.0092
          44    0.0047    0.0022    0.3895    0.8579   -0.0355   -0.1270   -0.0721
          45    0.0000    0.0000    0.0013    0.0028   -0.0001   -0.0004   -0.0002


          DESCRIPTION OF VIBRATIONS


 VIBRATION          1    1A           ATOM PAIR      ENERGY CONTRIBUTION    RADIAL
 FREQUENCY            50.41         C  6 -- C  7         +23.0% (819.8%)      0.0%
 TRANSITION DIPOLE   0.0501         C  1 -- C  4         +11.2% (572.4%)      0.0%
 TRAVEL (Ang.)       0.0000         C  1 -- C  3         +10.3% (547.4%)      0.0%
 REDUCED MASS        1.2244         C  1 -- H  8          +8.5% (497.1%)     94.8%
 EFFECTIVE MASS    566.0131
 FORCE CONSTANT      0.0018

 VIBRATION          2    2A           ATOM PAIR      ENERGY CONTRIBUTION    RADIAL
 FREQUENCY           212.10         C  6 -- C  7         +14.1% (311.6%)      0.0%
 TRANSITION DIPOLE   0.0721         C  2 -- C  4          +9.7% (258.9%)      0.0%
 TRAVEL (Ang.)       0.4391         C  7 -- H 15          +9.2% (251.8%)     97.6%
 REDUCED MASS        1.6486         C  7 -- H 14          +8.7% (245.1%)     99.4%
 EFFECTIVE MASS     79.6456
 FORCE CONSTANT      0.0437

 VIBRATION          3    3A           ATOM PAIR      ENERGY CONTRIBUTION    RADIAL
 FREQUENCY           217.64         C  1 -- C  3         +15.9% (181.2%)      0.0%
 TRANSITION DIPOLE   0.2093         C  2 -- C  6         +11.3% (153.1%)      0.0%
 TRAVEL (Ang.)       0.6263         C  1 -- H  8          +8.8% (135.3%)     71.7%
 REDUCED MASS        0.7898         C  1 -- H  9          +8.8% (135.1%)     69.8%
 EFFECTIVE MASS     30.8876
 FORCE CONSTANT      0.0220

 VIBRATION          4    4A           ATOM PAIR      ENERGY CONTRIBUTION    RADIAL
 FREQUENCY           349.11         C  1 -- H  9         +17.7% (123.4%)     19.1%
 TRANSITION DIPOLE   0.1359         C  1 -- H  8         +17.7% (123.4%)     19.1%
 TRAVEL (Ang.)       0.5287         C  1 -- C  4         +14.4% (111.6%)      0.0%
 REDUCED MASS        0.6911         C  4 -- C  5         +11.4% ( 99.3%)      0.0%
 EFFECTIVE MASS     16.8794         C  1 -- C  3         +10.5% ( 95.2%)      0.0%
 FORCE CONSTANT      0.0496

 VIBRATION          5    5A           ATOM PAIR      ENERGY CONTRIBUTION    RADIAL
 FREQUENCY           481.71         C  2 -- C  6         +14.8% (153.3%)      0.9%
 TRANSITION DIPOLE   0.0266         C  7 -- H 15         +13.4% (146.0%)      7.8%
 TRAVEL (Ang.)       0.3131         C  7 -- H 14         +10.2% (127.4%)     40.6%
 REDUCED MASS        1.4283         C  6 -- C  7          +9.5% (122.9%)      0.9%
 EFFECTIVE MASS     20.5925
 FORCE CONSTANT      0.1953

 VIBRATION          6    6A           ATOM PAIR      ENERGY CONTRIBUTION    RADIAL
 FREQUENCY           512.90         C  2 -- C  5         +16.9% ( 74.4%)      0.0%
 TRANSITION DIPOLE   0.3254         C  2 -- C  3         +12.6% ( 64.3%)      0.0%
 TRAVEL (Ang.)       0.4198         C  7 -- H 14         +11.4% ( 61.0%)      0.0%
 REDUCED MASS        0.7460         C  2 -- C  4          +9.3% ( 55.1%)      0.0%
 EFFECTIVE MASS      8.1437
 FORCE CONSTANT      0.1156

 VIBRATION          7    7A           ATOM PAIR      ENERGY CONTRIBUTION    RADIAL
 FREQUENCY           650.89         C  6 -- C  7         +12.4% (107.6%)      0.5%
 TRANSITION DIPOLE   0.1304         C  2 -- C  6         +10.9% (100.8%)     43.7%
 TRAVEL (Ang.)       0.2371         C  6 -- H 13          +9.2% ( 92.6%)     66.5%
 REDUCED MASS        1.8428         C  2 -- C  4          +9.1% ( 92.4%)     77.6%
 EFFECTIVE MASS     15.0365
 FORCE CONSTANT      0.4600

 VIBRATION          8    8A           ATOM PAIR      ENERGY CONTRIBUTION    RADIAL
 FREQUENCY           671.29         C  7 -- H 14         +15.8% ( 54.5%)      0.0%
 TRANSITION DIPOLE   0.3860         C  2 -- C  6         +14.9% ( 52.9%)      0.0%
 TRAVEL (Ang.)       0.4298         C  3 -- H 10          +9.7% ( 42.7%)      0.0%
 REDUCED MASS        0.5437         C  5 -- H 12          +8.6% ( 40.3%)      0.0%
 EFFECTIVE MASS      4.2303
 FORCE CONSTANT      0.1444

 VIBRATION          9    9A           ATOM PAIR      ENERGY CONTRIBUTION    RADIAL
 FREQUENCY           765.69         C  4 -- H 11         +27.5% ( 72.5%)      0.0%
 TRANSITION DIPOLE   0.4182         C  1 -- H  9         +13.6% ( 50.9%)     11.8%
 TRAVEL (Ang.)       0.4289         C  1 -- H  8         +13.6% ( 50.9%)     11.9%
 REDUCED MASS        0.4787         C  1 -- C  3          +7.7% ( 38.4%)      0.0%
 EFFECTIVE MASS      3.9314
 FORCE CONSTANT      0.1654

 VIBRATION         10   10A           ATOM PAIR      ENERGY CONTRIBUTION    RADIAL
 FREQUENCY           804.79         C  1 -- C  4         +16.5% (114.0%)      0.1%
 TRANSITION DIPOLE   0.0773         C  2 -- C  4         +12.6% ( 99.5%)     72.3%
 TRAVEL (Ang.)       0.1855         C  4 -- C  5         +11.4% ( 94.6%)      0.4%
 REDUCED MASS        2.4362         C  1 -- C  3         +10.4% ( 90.3%)      0.6%
 EFFECTIVE MASS     15.7808
 FORCE CONSTANT      0.9297

 VIBRATION         11   11A           ATOM PAIR      ENERGY CONTRIBUTION    RADIAL
 FREQUENCY           809.98         C  3 -- H 10         +26.3% ( 68.3%)      0.0%
 TRANSITION DIPOLE   0.0810         C  1 -- H  8         +16.2% ( 53.6%)     11.6%
 TRAVEL (Ang.)       0.5033         C  1 -- H  9         +16.2% ( 53.5%)     12.0%
 REDUCED MASS        0.3287         C  1 -- C  4         +10.5% ( 43.2%)      0.0%
 EFFECTIVE MASS      3.2449
 FORCE CONSTANT      0.1271

 VIBRATION         12   12A           ATOM PAIR      ENERGY CONTRIBUTION    RADIAL
 FREQUENCY           918.81         C  6 -- H 13         +21.9% ( 54.7%)      0.0%
 TRANSITION DIPOLE   0.0418         C  5 -- H 12         +18.3% ( 50.0%)      0.0%
 TRAVEL (Ang.)       0.4968         C  1 -- H  8         +10.3% ( 37.5%)     13.9%
 REDUCED MASS        0.2974         C  1 -- H  9         +10.3% ( 37.5%)     13.9%
 EFFECTIVE MASS      3.2493
 FORCE CONSTANT      0.1479

 VIBRATION         13   13A           ATOM PAIR      ENERGY CONTRIBUTION    RADIAL
 FREQUENCY           944.60         C  6 -- H 13         +26.3% ( 56.5%)      0.0%
 TRANSITION DIPOLE   0.6556         C  5 -- H 12         +14.4% ( 41.8%)      0.0%
 TRAVEL (Ang.)       0.4769         C  7 -- H 15         +11.2% ( 36.8%)      0.0%
 REDUCED MASS        0.3139         C  1 -- H  8          +7.5% ( 30.1%)      5.7%
 EFFECTIVE MASS      3.2484
 FORCE CONSTANT      0.1650

 VIBRATION         14   14A           ATOM PAIR      ENERGY CONTRIBUTION    RADIAL
 FREQUENCY           962.65         C  7 -- H 15         +15.8% ( 73.3%)      5.8%
 TRANSITION DIPOLE   0.1213         C  7 -- H 14         +15.6% ( 72.9%)     18.9%
 TRAVEL (Ang.)       0.3113         C  3 -- C  5         +12.1% ( 64.1%)     99.2%
 REDUCED MASS        0.7227         C  6 -- C  7          +8.1% ( 52.4%)      1.0%
 EFFECTIVE MASS      7.2723
 FORCE CONSTANT      0.3946

 VIBRATION         15   15A           ATOM PAIR      ENERGY CONTRIBUTION    RADIAL
 FREQUENCY           979.53         C  4 -- H 11         +14.3% ( 48.4%)      0.0%
 TRANSITION DIPOLE   0.3956         C  1 -- C  3         +13.0% ( 46.0%)      0.0%
 TRAVEL (Ang.)       0.3107         C  1 -- C  4         +12.7% ( 45.6%)      0.0%
 REDUCED MASS        0.7132         C  3 -- H 10         +12.1% ( 44.5%)      0.0%
 EFFECTIVE MASS      5.4329         C  1 -- H  8         +10.9% ( 42.1%)     16.5%
 FORCE CONSTANT      0.4032         C  1 -- H  9         +10.9% ( 42.1%)     16.5%

 VIBRATION         16   16A           ATOM PAIR      ENERGY CONTRIBUTION    RADIAL
 FREQUENCY          1000.83         C  5 -- H 12         +11.8% ( 52.1%)     29.6%
 TRANSITION DIPOLE   0.1165         C  4 -- C  5         +11.2% ( 50.7%)      0.3%
 TRAVEL (Ang.)       0.4899         C  4 -- H 11         +10.9% ( 50.1%)     20.3%
 REDUCED MASS        0.2807         C  3 -- C  5          +8.8% ( 45.0%)     99.2%
 EFFECTIVE MASS      5.3641
 FORCE CONSTANT      0.1657

 VIBRATION         17   17A           ATOM PAIR      ENERGY CONTRIBUTION    RADIAL
 FREQUENCY          1022.43         C  7 -- H 14         +27.4% ( 53.9%)      0.0%
 TRANSITION DIPOLE   0.3123         C  7 -- H 15         +23.4% ( 49.8%)      0.0%
 TRAVEL (Ang.)       0.3339         C  6 -- C  7          +9.5% ( 31.7%)      0.0%
 REDUCED MASS        0.5916         C  1 -- H  8          +8.8% ( 30.6%)      0.6%
 EFFECTIVE MASS      3.3438
 FORCE CONSTANT      0.3643

 VIBRATION         18   18A           ATOM PAIR      ENERGY CONTRIBUTION    RADIAL
 FREQUENCY          1033.94         C  1 -- H  8         +18.7% ( 46.1%)      0.0%
 TRANSITION DIPOLE   0.0818         C  1 -- H  9         +17.7% ( 44.8%)      0.0%
 TRAVEL (Ang.)       0.4390         C  7 -- H 14          +7.4% ( 29.0%)      0.0%
 REDUCED MASS        0.3384         C  7 -- H 15          +6.6% ( 27.4%)      0.0%
 EFFECTIVE MASS      3.7171
 FORCE CONSTANT      0.2131

 VIBRATION         19   19A           ATOM PAIR      ENERGY CONTRIBUTION    RADIAL
 FREQUENCY          1037.58         C  3 -- H 10         +18.7% ( 55.3%)     24.8%
 TRANSITION DIPOLE   0.1408         C  1 -- H  9         +13.2% ( 46.6%)      1.0%
 TRAVEL (Ang.)       0.4510         C  1 -- C  3         +13.1% ( 46.3%)     96.4%
 REDUCED MASS        0.3195         C  1 -- H  8         +12.5% ( 45.3%)      1.1%
 EFFECTIVE MASS      3.6011         C  3 -- C  5         +10.3% ( 41.2%)      0.1%
 FORCE CONSTANT      0.2027

 VIBRATION         20   20A           ATOM PAIR      ENERGY CONTRIBUTION    RADIAL
 FREQUENCY          1075.21         C  3 -- C  5         +11.3% ( 55.9%)     98.7%
 TRANSITION DIPOLE   0.2149         C  5 -- H 12         +10.1% ( 52.7%)     16.5%
 TRAVEL (Ang.)       0.3283         C  4 -- C  5          +9.8% ( 52.2%)     19.1%
 REDUCED MASS        0.5820         C  2 -- C  5          +9.4% ( 51.0%)     54.0%
 EFFECTIVE MASS      7.2260
 FORCE CONSTANT      0.3964

 VIBRATION         21   21A           ATOM PAIR      ENERGY CONTRIBUTION    RADIAL
 FREQUENCY          1083.65         C  4 -- H 11         +24.5% ( 60.3%)      1.0%
 TRANSITION DIPOLE   0.1074         C  5 -- H 12         +22.3% ( 57.5%)      5.4%
 TRAVEL (Ang.)       0.4325         C  3 -- C  5         +10.2% ( 38.9%)     97.9%
 REDUCED MASS        0.3327         C  1 -- C  3          +6.6% ( 31.4%)     53.0%
 EFFECTIVE MASS      2.9264
 FORCE CONSTANT      0.2302

 VIBRATION         22   22A           ATOM PAIR      ENERGY CONTRIBUTION    RADIAL
 FREQUENCY          1192.73         C  3 -- H 10         +19.3% ( 58.3%)      3.4%
 TRANSITION DIPOLE   0.0706         C  6 -- H 13         +10.2% ( 42.3%)      4.8%
 TRAVEL (Ang.)       0.4042         C  3 -- C  5          +9.1% ( 40.1%)     36.9%
 REDUCED MASS        0.3460         C  5 -- H 12          +8.6% ( 38.8%)      2.9%
 EFFECTIVE MASS      4.2133
 FORCE CONSTANT      0.2900

 VIBRATION         23   23A           ATOM PAIR      ENERGY CONTRIBUTION    RADIAL
 FREQUENCY          1211.13         C  6 -- H 13         +32.0% ( 68.3%)      1.6%
 TRANSITION DIPOLE   0.0540         C  4 -- H 11          +9.5% ( 37.2%)      2.6%
 TRAVEL (Ang.)       0.4081         C  6 -- C  7          +6.5% ( 30.7%)     10.7%
 REDUCED MASS        0.3342         C  3 -- H 10          +6.3% ( 30.4%)      2.3%
 EFFECTIVE MASS      3.0772
 FORCE CONSTANT      0.2888

 VIBRATION         24   24A           ATOM PAIR      ENERGY CONTRIBUTION    RADIAL
 FREQUENCY          1274.43         C  1 -- C  3         +10.8% ( 41.8%)     98.2%
 TRANSITION DIPOLE   0.1635         C  2 -- C  6          +8.1% ( 36.3%)     73.4%
 TRAVEL (Ang.)       0.3869         C  3 -- H 10          +8.0% ( 36.1%)      2.9%
 REDUCED MASS        0.3535         C  7 -- H 15          +7.4% ( 34.7%)      2.1%
 EFFECTIVE MASS      4.8077
 FORCE CONSTANT      0.3382

 VIBRATION         25   25A           ATOM PAIR      ENERGY CONTRIBUTION    RADIAL
 FREQUENCY          1324.28         C  7 -- H 14         +26.6% ( 56.0%)      0.8%
 TRANSITION DIPOLE   0.0803         C  7 -- H 15         +20.1% ( 48.7%)      2.7%
 TRAVEL (Ang.)       0.4090         C  6 -- H 13          +8.1% ( 31.0%)      0.0%
 REDUCED MASS        0.3044         C  2 -- C  6          +6.8% ( 28.4%)     56.0%
 EFFECTIVE MASS      2.7544
 FORCE CONSTANT      0.3145

 VIBRATION         26   26A           ATOM PAIR      ENERGY CONTRIBUTION    RADIAL
 FREQUENCY          1352.44         C  1 -- C  3         +21.3% ( 74.6%)     79.4%
 TRANSITION DIPOLE   0.1800         C  1 -- C  4         +20.5% ( 73.4%)     68.4%
 TRAVEL (Ang.)       0.1193         C  1 -- H  9         +14.9% ( 62.5%)      0.2%
 REDUCED MASS        3.5003         C  1 -- H  8         +14.9% ( 62.5%)      0.2%
 EFFECTIVE MASS     10.0525
 FORCE CONSTANT      3.7722

 VIBRATION         27   27A           ATOM PAIR      ENERGY CONTRIBUTION    RADIAL
 FREQUENCY          1382.97         C  1 -- H  8         +18.4% ( 59.4%)      7.8%
 TRANSITION DIPOLE   0.2795         C  1 -- H  9         +18.4% ( 59.4%)      7.8%
 TRAVEL (Ang.)       0.1969         C  1 -- C  4         +18.2% ( 59.1%)     79.4%
 REDUCED MASS        1.2572         C  1 -- C  3         +15.6% ( 54.7%)     45.6%
 EFFECTIVE MASS      6.4079
 FORCE CONSTANT      1.4167

 VIBRATION         28   28A           ATOM PAIR      ENERGY CONTRIBUTION    RADIAL
 FREQUENCY          1509.34         C  2 -- C  5         +24.7% ( 83.1%)     99.8%
 TRANSITION DIPOLE   0.6293         C  2 -- C  6         +20.1% ( 75.1%)     48.9%
 TRAVEL (Ang.)       0.0972         C  2 -- C  3         +18.0% ( 71.0%)     16.9%
 REDUCED MASS        4.7322         C  2 -- C  4         +15.0% ( 64.9%)     87.2%
 EFFECTIVE MASS     11.5470
 FORCE CONSTANT      6.3517

 VIBRATION         29   29A           ATOM PAIR      ENERGY CONTRIBUTION    RADIAL
 FREQUENCY          1741.64         C  4 -- C  5         +28.0% ( 89.7%)    100.0%
 TRANSITION DIPOLE   0.5953         C  2 -- C  4         +11.7% ( 57.9%)     48.1%
 TRAVEL (Ang.)       0.1062         C  3 -- C  5          +9.8% ( 52.9%)     19.7%
 REDUCED MASS        3.4357         C  2 -- C  5          +9.6% ( 52.6%)     46.0%
 EFFECTIVE MASS     11.9783
 FORCE CONSTANT      6.1402

 VIBRATION         30   30A           ATOM PAIR      ENERGY CONTRIBUTION    RADIAL
 FREQUENCY          1795.16         C  2 -- C  3         +19.1% ( 70.8%)     97.1%
 TRANSITION DIPOLE   0.2795         C  6 -- C  7         +11.1% ( 54.1%)    100.0%
 TRAVEL (Ang.)       0.1321         C  2 -- C  5         +10.5% ( 52.4%)      0.6%
 REDUCED MASS        2.1522         C  2 -- C  4          +9.1% ( 48.9%)      0.8%
 EFFECTIVE MASS     11.8432
 FORCE CONSTANT      4.0864

 VIBRATION         31   31A           ATOM PAIR      ENERGY CONTRIBUTION    RADIAL
 FREQUENCY          1879.38         C  6 -- C  7         +28.0% ( 81.7%)     96.8%
 TRANSITION DIPOLE   0.3632         C  2 -- C  6         +21.2% ( 71.0%)     68.6%
 TRAVEL (Ang.)       0.1003         C  6 -- H 13         +11.6% ( 52.5%)      1.6%
 REDUCED MASS        3.5677         C  2 -- C  3         +10.4% ( 49.6%)     89.1%
 EFFECTIVE MASS     11.8477
 FORCE CONSTANT      7.4245

 VIBRATION         32   32A           ATOM PAIR      ENERGY CONTRIBUTION    RADIAL
 FREQUENCY          2982.37         C  1 -- H  8         +49.1% ( 72.6%)     96.8%
 TRANSITION DIPOLE   0.1657         C  1 -- H  9         +48.8% ( 72.3%)     96.8%
 TRAVEL (Ang.)       0.2091         C  1 -- C  4          +1.1% ( 10.7%)      0.0%
 REDUCED MASS        0.5171         C  1 -- C  3          +1.1% ( 10.7%)      0.0%
 EFFECTIVE MASS      1.5312
 FORCE CONSTANT      2.7100

 VIBRATION         33   33A           ATOM PAIR      ENERGY CONTRIBUTION    RADIAL
 FREQUENCY          3030.12         C  6 -- H 13         +96.4% ( 99.6%)    100.0%
 TRANSITION DIPOLE   0.2186         C  6 -- C  7          +1.5% ( 12.3%)     29.9%
 TRAVEL (Ang.)       0.1558         C  2 -- C  6          +1.4% ( 12.0%)     15.1%
 REDUCED MASS        0.9168         C  7 -- H 14          +0.7% (  8.6%)     93.8%
 EFFECTIVE MASS      1.5113
 FORCE CONSTANT      4.9594

 VIBRATION         34   34A           ATOM PAIR      ENERGY CONTRIBUTION    RADIAL
 FREQUENCY          3051.11         C  1 -- H  9         +49.4% ( 69.5%)     97.3%
 TRANSITION DIPOLE   0.3089         C  1 -- H  8         +49.0% ( 69.2%)     97.3%
 TRAVEL (Ang.)       0.2139         C  1 -- C  4          +0.7% (  8.5%)     35.8%
 REDUCED MASS        0.4830         C  1 -- C  3          +0.7% (  8.5%)     35.4%
 EFFECTIVE MASS      1.2881
 FORCE CONSTANT      2.6493

 VIBRATION         35   35A           ATOM PAIR      ENERGY CONTRIBUTION    RADIAL
 FREQUENCY          3122.91         C  5 -- H 12         +69.5% ( 85.4%)    100.0%
 TRANSITION DIPOLE   0.4136         C  7 -- H 15         +16.0% ( 40.9%)    100.0%
 TRAVEL (Ang.)       0.2023         C  4 -- H 11          +9.7% ( 31.9%)     99.9%
 REDUCED MASS        0.5277         C  2 -- C  5          +1.2% ( 11.3%)     28.6%
 EFFECTIVE MASS      1.5088
 FORCE CONSTANT      3.0320

 VIBRATION         36   36A           ATOM PAIR      ENERGY CONTRIBUTION    RADIAL
 FREQUENCY          3132.46         C  7 -- H 15         +78.6% ( 90.1%)    100.0%
 TRANSITION DIPOLE   0.1965         C  5 -- H 12         +11.9% ( 35.1%)    100.0%
 TRAVEL (Ang.)       0.1843         C  4 -- H 11          +4.8% ( 22.2%)    100.0%
 REDUCED MASS        0.6337         C  7 -- H 14          +2.8% ( 17.0%)     53.7%
 EFFECTIVE MASS      1.5144
 FORCE CONSTANT      3.6636

 VIBRATION         37   37A           ATOM PAIR      ENERGY CONTRIBUTION    RADIAL
 FREQUENCY          3141.63         C  3 -- H 10         +83.8% ( 93.9%)    100.0%
 TRANSITION DIPOLE   0.5144         C  4 -- H 11         +10.6% ( 33.4%)    100.0%
 TRAVEL (Ang.)       0.1709         C  2 -- C  3          +1.5% ( 12.6%)     48.1%
 REDUCED MASS        0.7347         C  1 -- C  3          +1.4% ( 12.2%)     26.2%
 EFFECTIVE MASS      1.5382
 FORCE CONSTANT      4.2721

 VIBRATION         38   38A           ATOM PAIR      ENERGY CONTRIBUTION    RADIAL
 FREQUENCY          3146.67         C  7 -- H 14         +95.1% ( 98.4%)     99.9%
 TRANSITION DIPOLE   0.2681         C  7 -- H 15          +2.4% ( 15.5%)      7.0%
 TRAVEL (Ang.)       0.1561         C  6 -- C  7          +1.5% ( 12.4%)     60.9%
 REDUCED MASS        0.8790         C  6 -- H 13          +0.6% (  7.9%)     94.4%
 EFFECTIVE MASS      1.4804
 FORCE CONSTANT      5.1277

 VIBRATION         39   39A           ATOM PAIR      ENERGY CONTRIBUTION    RADIAL
 FREQUENCY          3150.40         C  4 -- H 11         +69.3% ( 85.6%)    100.0%
 TRANSITION DIPOLE   0.2859         C  5 -- H 12         +13.3% ( 37.5%)     99.9%
 TRAVEL (Ang.)       0.1999         C  3 -- H 10         +10.6% ( 33.5%)    100.0%
 REDUCED MASS        0.5355         C  4 -- C  5          +2.0% ( 14.5%)     86.9%
 EFFECTIVE MASS      1.6362
 FORCE CONSTANT      3.1315

      SYMMETRY NUMBER FOR POINT-GROUP C1  =  1


          SYSTEM IS A GROUND STATE



 InChI=1S/C7H8/c1-2-7-5-3-4-6-7/h2-3,5-6H,1,4H2


          MOLECULE IS NOT LINEAR

          THERE ARE 39 GENUINE VIBRATIONS IN THIS SYSTEM
          THIS THERMODYNAMICS CALCULATION IS LIMITED TO
          MOLECULES WHICH HAVE NO INTERNAL ROTATIONS




                    CALCULATED THERMODYNAMIC PROPERTIES
                                          *
   TEMP. (K)   PARTITION FUNCTION   H.O.F.    ENTHALPY  HEAT CAPACITY ENTROPY
                                   KCAL/MOL   CAL/MOLE    CAL/K/MOL  CAL/K/MOL


 298.00  VIB.     0.2106D+02                  2302.4995    18.3208    13.7827
         ROT.     0.1856D+06                   888.2803     2.9808    27.0886
         INT.     0.3910D+07                  3190.7798    21.3016    40.8713
         TRA.     0.8551D+27                  1480.4672     4.9680    39.4718
         TOT.                       46.958    4671.2469    26.2696    80.3430

 200.00  VIB.     0.6342D+01                   912.6117    10.2705     8.2338
         ROT.     0.1021D+06                   596.1613     2.9808    25.8999
         INT.     0.6473D+06                  1508.7730    13.2513    34.1337
         TRA.     0.4701D+27                   993.6021     4.9680    37.4906
         TOT.                       44.789    2502.3751    18.2193    71.6243

 210.00  VIB.     0.7119D+01                  1019.0071    11.0130     8.7528
         ROT.     0.1098D+06                   625.9693     2.9808    26.0453
         INT.     0.7817D+06                  1644.9764    13.9938    34.7981
         TRA.     0.5058D+27                  1043.2822     4.9680    37.7330
         TOT.                       44.975    2688.2587    18.9618    72.5311

 220.00  VIB.     0.8003D+01                  1132.9566    11.7809     9.2827
         ROT.     0.1177D+06                   655.7774     2.9808    26.1840
         INT.     0.9423D+06                  1788.7340    14.7617    35.4667
         TRA.     0.5424D+27                  1092.9623     4.9680    37.9641
         TOT.                       45.168    2881.6964    19.7297    73.4308

 230.00  VIB.     0.9010D+01                  1254.7008    12.5715     9.8238
         ROT.     0.1259D+06                   685.5855     2.9808    26.3165
         INT.     0.1134D+07                  1940.2863    15.5523    36.1403
         TRA.     0.5798D+27                  1142.6424     4.9680    38.1850
         TOT.                       45.369    3082.9288    20.5203    74.3252

 240.00  VIB.     0.1016D+02                  1384.4532    13.3820    10.3759
         ROT.     0.1342D+06                   715.3935     2.9808    26.4434
         INT.     0.1363D+07                  2099.8467    16.3628    36.8192
         TRA.     0.6180D+27                  1192.3226     4.9680    38.3964
         TOT.                       45.579    3292.1692    21.3308    75.2156

 250.00  VIB.     0.1148D+02                  1522.3975    14.2094    10.9389
         ROT.     0.1426D+06                   745.2016     2.9808    26.5650
         INT.     0.1637D+07                  2267.5991    17.1902    37.5039
         TRA.     0.6570D+27                  1242.0027     4.9680    38.5992
         TOT.                       45.796    3509.6017    22.1582    76.1031

 260.00  VIB.     0.1298D+02                  1668.6872    15.0506    11.5125
         ROT.     0.1513D+06                   775.0097     2.9808    26.6819
         INT.     0.1964D+07                  2443.6969    18.0314    38.1945
         TRA.     0.6968D+27                  1291.6828     4.9680    38.7941
         TOT.                       46.022    3735.3797    22.9994    76.9885

 270.00  VIB.     0.1471D+02                  1823.4453    15.9026    12.0965
         ROT.     0.1601D+06                   804.8177     2.9808    26.7944
         INT.     0.2355D+07                  2628.2630    18.8834    38.8909
         TRA.     0.7374D+27                  1341.3629     4.9680    38.9816
         TOT.                       46.256    3969.6259    23.8514    77.8725

 280.00  VIB.     0.1670D+02                  1986.7643    16.7623    12.6903
         ROT.     0.1691D+06                   834.6258     2.9808    26.9028
         INT.     0.2823D+07                  2821.3901    19.7431    39.5932
         TRA.     0.7788D+27                  1391.0430     4.9680    39.1622
         TOT.                       46.499    4212.4331    24.7111    78.7554

 290.00  VIB.     0.1899D+02                  2158.7085    17.6271    13.2936
         ROT.     0.1782D+06                   864.4339     2.9808    27.0074
         INT.     0.3383D+07                  3023.1423    20.6079    40.3011
         TRA.     0.8209D+27                  1440.7231     4.9680    39.3366
         TOT.                       46.750    4463.8654    25.5759    79.6376

 300.00  VIB.     0.2162D+02                  2339.3145    18.4943    13.9058
         ROT.     0.1875D+06                   894.2419     2.9808    27.1085
         INT.     0.4054D+07                  3233.5565    21.4751    41.0143
         TRA.     0.8637D+27                  1490.4032     4.9680    39.5050
         TOT.                       47.010    4723.9597    26.4431    80.5193

 310.00  VIB.     0.2466D+02                  2528.5942    19.3614    14.5264
         ROT.     0.1970D+06                   924.0500     2.9808    27.2062
         INT.     0.4858D+07                  3452.6442    22.3423    41.7326
         TRA.     0.9072D+27                  1540.0833     4.9680    39.6679
         TOT.                       47.279    4992.7275    27.3103    81.4005

 320.00  VIB.     0.2818D+02                  2726.5360    20.2264    15.1548
         ROT.     0.2066D+06                   953.8580     2.9808    27.3009
         INT.     0.5820D+07                  3680.3940    23.2072    42.4556
         TRA.     0.9515D+27                  1589.7634     4.9680    39.8256
         TOT.                       47.557    5270.1574    28.1752    82.2813

 330.00  VIB.     0.3224D+02                  2933.1074    21.0871    15.7903
         ROT.     0.2163D+06                   983.6661     2.9808    27.3926
         INT.     0.6975D+07                  3916.7735    24.0679    43.1829
         TRA.     0.9964D+27                  1639.4435     4.9680    39.9785
         TOT.                       47.843    5556.2171    29.0359    83.1614

 340.00  VIB.     0.3695D+02                  3148.2575    21.9418    16.4326
         ROT.     0.2262D+06                  1013.4742     2.9808    27.4816
         INT.     0.8359D+07                  4161.7317    24.9226    43.9142
         TRA.     0.1042D+28                  1689.1236     4.9680    40.1268
         TOT.                       48.137    5850.8553    29.8906    84.0410

 350.00  VIB.     0.4241D+02                  3371.9185    22.7890    17.0808
         ROT.     0.2363D+06                  1043.2822     2.9808    27.5680
         INT.     0.1002D+08                  4415.2008    25.7698    44.6488
         TRA.     0.1088D+28                  1738.8037     4.9680    40.2708
         TOT.                       48.440    6154.0045    30.7378    84.9197

 360.00  VIB.     0.4875D+02                  3604.0084    23.6274    17.7346
         ROT.     0.2465D+06                  1073.0903     2.9808    27.6520
         INT.     0.1201D+08                  4677.0987    26.6082    45.3866
         TRA.     0.1135D+28                  1788.4838     4.9680    40.4108
         TOT.                       48.752    6465.5825    31.5762    85.7974

 370.00  VIB.     0.5611D+02                  3844.4326    24.4557    18.3933
         ROT.     0.2568D+06                  1102.8984     2.9808    27.7336
         INT.     0.1441D+08                  4947.3310    27.4365    46.1269
         TRA.     0.1183D+28                  1838.1639     4.9680    40.5469
         TOT.                       49.072    6785.4949    32.4045    86.6738

 380.00  VIB.     0.6466D+02                  4093.0860    25.2731    19.0564
         ROT.     0.2673D+06                  1132.7064     2.9808    27.8131
         INT.     0.1728D+08                  5225.7925    28.2539    46.8695
         TRA.     0.1231D+28                  1887.8440     4.9680    40.6794
         TOT.                       49.400    7113.6365    33.2219    87.5489

 390.00  VIB.     0.7463D+02                  4349.8547    26.0786    19.7233
         ROT.     0.2779D+06                  1162.5145     2.9808    27.8906
         INT.     0.2074D+08                  5512.3692    29.0594    47.6138
         TRA.     0.1280D+28                  1937.5242     4.9680    40.8084
         TOT.                       49.736    7449.8933    34.0275    88.4223

 400.00  VIB.     0.8623D+02                  4614.6173    26.8718    20.3936
         ROT.     0.2887D+06                  1192.3226     2.9808    27.9660
         INT.     0.2489D+08                  5806.9399    29.8526    48.3596
         TRA.     0.1330D+28                  1987.2043     4.9680    40.9342
         TOT.                       50.081    7794.1441    34.8206    89.2938

   *: NOTE: HEATS OF FORMATION ARE RELATIVE TO THE
            ELEMENTS IN THEIR STANDARD STATE AT 298K
              (=  Standard Enthalpy of Formation).

            Hvib:  Zero-point energy is not included.
                   frequencies of less than zero cm-1 are not included.
            Hrot = (3/2)RT
            Htra = (3/2)RT + pV = (5/2)RT

            Heat capacity is Cp, not Cv

          For more information, see: HTTP://OpenMOPAC.net/Manual/thermochemistry.html


           FORCE CONSTANT IN CARTESIAN COORDINATES (Millidynes/A)

    ATOM   CHEMICAL       X               Y               Z
   NUMBER   SYMBOL  FORCE CONSTANT  FORCE CONSTANT  FORCE CONSTANT

      1       C        9.860241        7.965610        7.772489
      2       C       15.585744       10.786383        2.417877
      3       C       10.954805       13.359220        2.302304
      4       C       14.325435       10.125740        2.319664
      5       C       14.406434       10.671675        2.216795
      6       C       13.804830       11.671039        2.221299
      7       C       13.022852       11.322348        1.931720
      8       H        1.953202        0.751411        3.553894
      9       H        1.958210        0.753283        3.548175
     10       H        0.700141        5.418704        0.327241
     11       H        2.406587        3.718759        0.333546
     12       H        2.436950        3.607237        0.348088
     13       H        0.850121        4.959084        0.352203
     14       H        4.922920        1.213508        0.329851
     15       H        0.718917        5.352083        0.336236

 **********************
 *                    *
 * JOB ENDED NORMALLY *
 *                    *
 **********************



 TOTAL JOB TIME:             1.00 SECONDS

 == MOPAC DONE ==
