 *******************************************************************************
 **                                                                           **
 **                              MOPAC v23.1.2                                **
 **                                                                           **
 *******************************************************************************
 **          Digital Object Identifier (DOI): 10.5281/zenodo.6511958          **
 **    Visit the DOI location for information on how to cite this program.    **
 *******************************************************************************

                              PM3 CALCULATION RESULTS

 *******************************************************************************
 *  CALCULATION DONE: (MAX THREADS = 1)              Tue Jun  3 16:36:19 2025  *
 *  PM3        - The PM3 Hamiltonian to be used
 *  PRECISE    - TIGHTER CRITERIA TO BE USED
 *  NOSYM      - POINT-GROUP SYMMETRY SET TO C1
 *  THREADS=1  - MULTI-THREADING NOT USED
 *  T=         - A TIME OF 172800.0 SECONDS REQUESTED
 *  DUMP=N     - RESTART FILE WRITTEN EVERY 7200.0 SECONDS REQUESTED
 *******************************************************************************
pm3  precise nosym THREADS=1
 InChI=1S/C4H6/c1-2-4-3-1/h1-2H,3-4H2

   ATOM   CHEMICAL          X               Y               Z
  NUMBER   SYMBOL      (ANGSTROMS)     (ANGSTROMS)     (ANGSTROMS)

     1       C         -0.49100000  *  -0.76250000  *   0.18760000  *
     2       C          0.85820000  *  -0.34520000  *  -0.04410000  *
     3       C         -0.93920000  *   0.64940000  *   0.00230000  *
     4       C          0.37400000  *   1.05550000  *  -0.22320000  *
     5       H         -0.89080000  *  -1.43180000  *  -0.60590000  *
     6       H         -0.67220000  *  -1.12210000  *   1.22450000  *
     7       H          1.51340000  *  -0.44620000  *   0.84920000  *
     8       H          1.29480000  *  -0.75580000  *  -0.98120000  *
     9       H         -1.89890000  *   1.15400000  *   0.03160000  *
    10       H          0.85180000  *   2.00460000  *  -0.44080000  *



          CARTESIAN COORDINATES 

    NO.       ATOM           X           Y           Z

     1         C         -0.4910     -0.7625      0.1876
     2         C          0.8582     -0.3452     -0.0441
     3         C         -0.9392      0.6494      0.0023
     4         C          0.3740      1.0555     -0.2232
     5         H         -0.8908     -1.4318     -0.6059
     6         H         -0.6722     -1.1221      1.2245
     7         H          1.5134     -0.4462      0.8492
     8         H          1.2948     -0.7558     -0.9812
     9         H         -1.8989      1.1540      0.0316
    10         H          0.8518      2.0046     -0.4408

  H: (PM3): J. J. P. STEWART, J. COMP. CHEM. 10, 209 (1989).
  C: (PM3): J. J. P. STEWART, J. COMP. CHEM. 10, 209 (1989).

           Empirical Formula: C4 H6  =    10 atoms



      MOLECULAR POINT GROUP   :   C1  


      RHF CALCULATION, NO. OF DOUBLY OCCUPIED LEVELS = 11


          Geometry optimization using EF

          DIAGONAL MATRIX USED AS START HESSIAN

 CYCLE:     1 TIME:   0.004 TIME LEFT:  2.00D  GRAD.:   210.726 HEAT:  50.04069
 CYCLE:     2 TIME:   0.004 TIME LEFT:  2.00D  GRAD.:    61.724 HEAT:  41.56111
 CYCLE:     3 TIME:   0.004 TIME LEFT:  2.00D  GRAD.:    41.119 HEAT:  40.27667
 CYCLE:     4 TIME:   0.004 TIME LEFT:  2.00D  GRAD.:    63.946 HEAT:  40.01750
 CYCLE:     5 TIME:   0.004 TIME LEFT:  2.00D  GRAD.:    32.487 HEAT:  38.49528
 CYCLE:     6 TIME:   0.004 TIME LEFT:  2.00D  GRAD.:    36.187 HEAT:  38.32993
 CYCLE:     7 TIME:   0.004 TIME LEFT:  2.00D  GRAD.:    30.301 HEAT:  38.01622
 CYCLE:     8 TIME:   0.004 TIME LEFT:  2.00D  GRAD.:    21.359 HEAT:  37.86442
 CYCLE:     9 TIME:   0.004 TIME LEFT:  2.00D  GRAD.:    16.972 HEAT:  37.78981
 CYCLE:    10 TIME:   0.008 TIME LEFT:  2.00D  GRAD.:     9.719 HEAT:  37.71676
 CYCLE:    11 TIME:   0.004 TIME LEFT:  2.00D  GRAD.:    10.442 HEAT:  37.68656
 CYCLE:    12 TIME:   0.008 TIME LEFT:  2.00D  GRAD.:     6.656 HEAT:  37.64915
 CYCLE:    13 TIME:   0.004 TIME LEFT:  2.00D  GRAD.:     4.126 HEAT:  37.63376
 CYCLE:    14 TIME:   0.004 TIME LEFT:  2.00D  GRAD.:     1.633 HEAT:  37.62826
 CYCLE:    15 TIME:   0.000 TIME LEFT:  2.00D  GRAD.:     1.419 HEAT:  37.62723
 CYCLE:    16 TIME:   0.004 TIME LEFT:  2.00D  GRAD.:     0.642 HEAT:  37.62577
 CYCLE:    17 TIME:   0.004 TIME LEFT:  2.00D  GRAD.:     0.517 HEAT:  37.62505
 CYCLE:    18 TIME:   0.000 TIME LEFT:  2.00D  GRAD.:     0.447 HEAT:  37.62460
 CYCLE:    19 TIME:   0.004 TIME LEFT:  2.00D  GRAD.:     0.258 HEAT:  37.62440
 CYCLE:    20 TIME:   0.004 TIME LEFT:  2.00D  GRAD.:     0.256 HEAT:  37.62425
 CYCLE:    21 TIME:   0.004 TIME LEFT:  2.00D  GRAD.:     0.273 HEAT:  37.62411
 CYCLE:    22 TIME:   0.000 TIME LEFT:  2.00D  GRAD.:     0.230 HEAT:  37.62398
 CYCLE:    23 TIME:   0.004 TIME LEFT:  2.00D  GRAD.:     0.132 HEAT:  37.62390
 CYCLE:    24 TIME:   0.008 TIME LEFT:  2.00D  GRAD.:     0.090 HEAT:  37.62386
 CYCLE:    25 TIME:   0.004 TIME LEFT:  2.00D  GRAD.:     0.068 HEAT:  37.62385
 CYCLE:    26 TIME:   0.004 TIME LEFT:  2.00D  GRAD.:     0.050 HEAT:  37.62384
 CYCLE:    27 TIME:   0.004 TIME LEFT:  2.00D  GRAD.:     0.033 HEAT:  37.62384

     GRADIENT =  0.03300 IS LESS THAN CUTOFF =  0.05000



 -------------------------------------------------------------------------------
 pm3  precise nosym THREADS=1
 InChI=1S/C4H6/c1-2-4-3-1/h1-2H,3-4H2



     GEOMETRY OPTIMISED USING EIGENVECTOR FOLLOWING (EF).     
     SCF FIELD WAS ACHIEVED                                   


                              PM3 CALCULATION
                                                       MOPAC v23.1.2 MacOS
                                                       Tue Jun  3 16:36:19 2025




          FINAL HEAT OF FORMATION =         37.62384 KCAL/MOL =     157.41814 KJ/MOL


          COSMO AREA              =         99.12 SQUARE ANGSTROMS
          COSMO VOLUME            =         83.57 CUBIC ANGSTROMS

          GRADIENT NORM           =          0.03300          =       0.01044 PER ATOM
          IONIZATION POTENTIAL    =          9.815492 EV
          HOMO LUMO ENERGIES (EV) =         -9.815  1.030
          NO. OF FILLED LEVELS    =         11
          MOLECULAR WEIGHT        =         54.0914         POINT GROUP:  C1  

          MOLECULAR DIMENSIONS (Angstroms)

            Atom       Atom       Distance
            H     9    H     7     3.92926
            H    10    H     5     3.92395
            H     6    H     8     2.47673


          SCF CALCULATIONS        =         33

          WALL-CLOCK TIME         =      0.121 SECONDS
          COMPUTATION TIME        =      0.040 SECONDS




   ATOM   CHEMICAL          X               Y               Z
  NUMBER   SYMBOL      (ANGSTROMS)     (ANGSTROMS)     (ANGSTROMS)

     1       C         -0.55450426  *  -0.78450233  *   0.19901853  *
     2       C          0.92326158  *  -0.32732457  *  -0.05491385  *
     3       C         -0.92447399  *   0.67421233  *  -0.00364154  *
     4       C          0.34687227  *   1.06753829  *  -0.22204473  *
     5       H         -0.96785269  *  -1.48223058  *  -0.54260472  *
     6       H         -0.75956764  *  -1.18716207  *   1.20075736  *
     7       H          1.61021211  *  -0.45418701  *   0.79343000  *
     8       H          1.40155337  *  -0.74909699  *  -0.94990208  *
     9       H         -1.89051594  *   1.15855113  *   0.02983638  *
    10       H          0.84170649  *   2.00386060  *  -0.43968172  *

                             CARTESIAN COORDINATES

   1    C       -0.554504259    -0.784502333     0.199018526
   2    C        0.923261583    -0.327324570    -0.054913854
   3    C       -0.924473987     0.674212333    -0.003641538
   4    C        0.346872274     1.067538293    -0.222044733
   5    H       -0.967852687    -1.482230580    -0.542604724
   6    H       -0.759567639    -1.187162066     1.200757359
   7    H        1.610212106    -0.454187013     0.793430001
   8    H        1.401553372    -0.749096986    -0.949902084
   9    H       -1.890515943     1.158551132     0.029836380
  10    H        0.841706490     2.003860602    -0.439681716


           Empirical Formula: C4 H6  =    10 atoms



      MOLECULAR POINT GROUP   :   C1  


                  EIGENVALUES  
 -38.87241 -24.91764 -24.38337 -17.69149 -17.49992 -15.81511 -14.29865 -12.43722
 -12.33811 -11.90588  -9.81549   1.03015   3.36665   3.39053   3.48329   4.01766
   4.07206   4.54596   4.55007   4.97422   5.04736   6.15276


              NET ATOMIC CHARGES AND DIPOLE CONTRIBUTIONS

  ATOM NO.   TYPE          CHARGE      No. of ELECS.   s-Pop       p-Pop       
    1          C          -0.084015        4.0840     1.16875     2.91526
    2          C          -0.084006        4.0840     1.16875     2.91526
    3          C          -0.163486        4.1635     1.21866     2.94483
    4          C          -0.163478        4.1635     1.21865     2.94482
    5          H           0.061698        0.9383     0.93830
    6          H           0.061697        0.9383     0.93830
    7          H           0.061710        0.9383     0.93829
    8          H           0.061683        0.9383     0.93832
    9          H           0.124099        0.8759     0.87590
   10          H           0.124097        0.8759     0.87590
 DIPOLE           X         Y         Z       TOTAL
 POINT-CHG.     0.060    -0.182     0.024     0.193
 HYBRID        -0.012     0.037    -0.005     0.039
 SUM            0.048    -0.145     0.019     0.154


          ATOMIC ORBITAL ELECTRON POPULATIONS

     Atom    s        px        py        pz   
    1  C   1.16875   0.95630   0.94855   1.01041
    2  C   1.16875   0.95593   0.94889   1.01044
    3  C   1.21866   0.97120   0.96483   1.00880
    4  C   1.21865   0.96416   0.97139   1.00927
    5  H   0.93830
    6  H   0.93830
    7  H   0.93829
    8  H   0.93832
    9  H   0.87590
   10  H   0.87590
 *******************************************************************************
 **                                                                           **
 **                              MOPAC v23.1.2                                **
 **                                                                           **
 *******************************************************************************
 **          Digital Object Identifier (DOI): 10.5281/zenodo.6511958          **
 **    Visit the DOI location for information on how to cite this program.    **
 *******************************************************************************

                              PM3 CALCULATION RESULTS

 *******************************************************************************
 *  CALCULATION DONE: (MAX THREADS = 1)              Tue Jun  3 16:36:19 2025  *
 *  PM3        - The PM3 Hamiltonian to be used
 *  OLDGEO     - PREVIOUS GEOMETRY TO BE USED
 *  PRECISE    - TIGHTER CRITERIA TO BE USED
 *  NOSYM      - POINT-GROUP SYMMETRY SET TO C1
 *  THREADS=1  - MULTI-THREADING NOT USED
 *  T=         - A TIME OF 172800.0 SECONDS REQUESTED
 *  DUMP=N     - RESTART FILE WRITTEN EVERY 7200.0 SECONDS REQUESTED
 *  THERMO     - THERMODYNAMIC QUANTITIES TO BE CALCULATED
 *******************************************************************************
oldgeo thermo nosym precise THREADS=1  pm3
 InChI=1S/C4H6/c1-2-4-3-1/h1-2H,3-4H2

   ATOM   CHEMICAL          X               Y               Z
  NUMBER   SYMBOL      (ANGSTROMS)     (ANGSTROMS)     (ANGSTROMS)

     1       C         -0.55450426  *  -0.78450233  *   0.19901853  *
     2       C          0.92326158  *  -0.32732457  *  -0.05491385  *
     3       C         -0.92447399  *   0.67421233  *  -0.00364154  *
     4       C          0.34687227  *   1.06753829  *  -0.22204473  *
     5       H         -0.96785269  *  -1.48223058  *  -0.54260472  *
     6       H         -0.75956764  *  -1.18716207  *   1.20075736  *
     7       H          1.61021211  *  -0.45418701  *   0.79343000  *
     8       H          1.40155337  *  -0.74909699  *  -0.94990208  *
     9       H         -1.89051594  *   1.15855113  *   0.02983638  *
    10       H          0.84170649  *   2.00386060  *  -0.43968172  *



          CARTESIAN COORDINATES 

    NO.       ATOM           X           Y           Z

     1         C         -0.5545     -0.7845      0.1990
     2         C          0.9233     -0.3273     -0.0549
     3         C         -0.9245      0.6742     -0.0036
     4         C          0.3469      1.0675     -0.2220
     5         H         -0.9679     -1.4822     -0.5426
     6         H         -0.7596     -1.1872      1.2008
     7         H          1.6102     -0.4542      0.7934
     8         H          1.4016     -0.7491     -0.9499
     9         H         -1.8905      1.1586      0.0298
    10         H          0.8417      2.0039     -0.4397

  H: (PM3): J. J. P. STEWART, J. COMP. CHEM. 10, 209 (1989).
  C: (PM3): J. J. P. STEWART, J. COMP. CHEM. 10, 209 (1989).

           Empirical Formula: C4 H6  =    10 atoms



      MOLECULAR POINT GROUP   :   C1  


      RHF CALCULATION, NO. OF DOUBLY OCCUPIED LEVELS = 11



          HEAT OF FORMATION =      37.623839 KCALS/MOLE


          CARTESIAN COORDINATE DERIVATIVES

   NUMBER  ATOM         X            Y            Z

     1       C     -0.004083    -0.001289    -0.006917
     2       C      0.005555    -0.002107     0.012813
     3       C      0.005536     0.003021    -0.009536
     4       C      0.003404     0.000607     0.007906
     5       H     -0.000874    -0.003419    -0.005349
     6       H      0.001485     0.000642     0.000247
     7       H      0.011495    -0.007801     0.001805
     8       H     -0.014405     0.003893     0.001320
     9       H      0.002722     0.003286     0.003139
    10       H     -0.010835     0.003168    -0.005426



          GRADIENT NORM =   0.03347

          MOLECULAR WEIGHT =   54.09



          ROTATIONAL CONSTANTS IN CM(-1)

          A =    0.42703790   B =    0.41068282   C =    0.22739412



           PRINCIPAL MOMENTS OF INERTIA IN UNITS OF 10**(-40)*GRAM-CM**2

          A =       65.5510   B =       68.1615   C =      123.1024


          ORIENTATION OF MOLECULE IN FORCE CALCULATION

    NO.       ATOM         X         Y         Z

     1          C      -0.7838   -0.7245   -0.0000
     2          C       0.7838   -0.7245   -0.0000
     3          C      -0.6743    0.7900   -0.0000
     4          C       0.6743    0.7900    0.0001
     5          H      -1.2568   -1.1621   -0.8902
     6          H      -1.2568   -1.1621    0.8902
     7          H       1.2570   -1.1622    0.8900
     8          H       1.2566   -1.1620   -0.8903
     9          H      -1.4492    1.5440    0.0000
    10          H       1.4491    1.5441   -0.0000


    FIRST DERIVATIVES WILL BE USED IN THE CALCULATION OF SECOND DERIVATIVES

          ESTIMATED TIME TO COMPLETE CALCULATION =        0.00 SECONDS

    FOR POINT-GROUP C1   THERE ARE   1 UNIQUE SYMMETRY FUNCTIONS.

 STEP:   1 TIME =     0.00 SECS, INTEGRAL =      0.00 TIME LEFT: 172800.00
 STEP:   2 TIME =     0.00 SECS, INTEGRAL =      0.01 TIME LEFT: 172799.99
 STEP:   3 TIME =     0.00 SECS, INTEGRAL =      0.01 TIME LEFT: 172799.99
 STEP:   4 TIME =     0.00 SECS, INTEGRAL =      0.02 TIME LEFT: 172799.98
 STEP:   5 TIME =     0.00 SECS, INTEGRAL =      0.02 TIME LEFT: 172799.98
 STEP:   6 TIME =     0.00 SECS, INTEGRAL =      0.02 TIME LEFT: 172799.98
 STEP:   7 TIME =     0.00 SECS, INTEGRAL =      0.03 TIME LEFT: 172799.97
 STEP:   8 TIME =     0.00 SECS, INTEGRAL =      0.03 TIME LEFT: 172799.97
 STEP:   9 TIME =     0.00 SECS, INTEGRAL =      0.04 TIME LEFT: 172799.96
 STEP:  10 TIME =     0.01 SECS, INTEGRAL =      0.04 TIME LEFT: 172799.96
 STEP:  11 TIME =     0.00 SECS, INTEGRAL =      0.05 TIME LEFT: 172799.95
 STEP:  12 TIME =     0.00 SECS, INTEGRAL =      0.05 TIME LEFT: 172799.95
 STEP:  13 TIME =     0.00 SECS, INTEGRAL =      0.05 TIME LEFT: 172799.95
 STEP:  14 TIME =     0.01 SECS, INTEGRAL =      0.06 TIME LEFT: 172799.94
 STEP:  15 TIME =     0.00 SECS, INTEGRAL =      0.07 TIME LEFT: 172799.93
 STEP:  16 TIME =     0.00 SECS, INTEGRAL =      0.07 TIME LEFT: 172799.93
 STEP:  17 TIME =     0.00 SECS, INTEGRAL =      0.07 TIME LEFT: 172799.93
 STEP:  18 TIME =     0.00 SECS, INTEGRAL =      0.08 TIME LEFT: 172799.92
 STEP:  19 TIME =     0.00 SECS, INTEGRAL =      0.08 TIME LEFT: 172799.92
 STEP:  20 TIME =     0.01 SECS, INTEGRAL =      0.09 TIME LEFT: 172799.91
 STEP:  21 TIME =     0.00 SECS, INTEGRAL =      0.09 TIME LEFT: 172799.91
 STEP:  22 TIME =     0.00 SECS, INTEGRAL =      0.10 TIME LEFT: 172799.90
 STEP:  23 TIME =     0.00 SECS, INTEGRAL =      0.10 TIME LEFT: 172799.90
 STEP:  24 TIME =     0.01 SECS, INTEGRAL =      0.11 TIME LEFT: 172799.89
 STEP:  25 TIME =     0.00 SECS, INTEGRAL =      0.11 TIME LEFT: 172799.89
 STEP:  26 TIME =     0.00 SECS, INTEGRAL =      0.12 TIME LEFT: 172799.88
 STEP:  27 TIME =     0.00 SECS, INTEGRAL =      0.12 TIME LEFT: 172799.88
 STEP:  28 TIME =     0.01 SECS, INTEGRAL =      0.13 TIME LEFT: 172799.87
 STEP:  29 TIME =     0.00 SECS, INTEGRAL =      0.13 TIME LEFT: 172799.87
 STEP:  30 TIME =     0.01 SECS, INTEGRAL =      0.14 TIME LEFT: 172799.86

(To convert to Hartree/Bohr^2, multiply by (10^(-21) x N x a0^2)/(4.184 x 627.51) =  0.0642)


           FORCE MATRIX IN MILLIDYNES/ANGSTROM


                  C  1       C  2       C  3       C  4       H  5       H  6
 ------------------------------------------------------------------------------
     C    1  14.349632
     C    2   3.107679  14.349908
     C    3   4.122402   2.276689  18.379742
     C    4   2.276708   4.122385  10.299873  18.379810
     H    5   4.716266   0.426752   0.434795   0.041032   5.335472
     H    6   4.716496   0.426762   0.434802   0.041036   0.536976   5.335692
     H    7   0.426734   4.716349   0.041025   0.434799   0.026321   0.022477
     H    8   0.426790   4.716564   0.041042   0.434799   0.022515   0.026328
     H    9   0.339729   0.119154   5.289011   0.422621   0.006007   0.006007
     H   10   0.119154   0.339704   0.422634   5.289208   0.015699   0.015700


                  H  7       H  8       H  9       H 10
 ------------------------------------------------------
     H    7   5.335590
     H    8   0.537006   5.335754
     H    9   0.015698   0.015701   5.673369
     H   10   0.006006   0.006007   0.030617   5.673560


          HEAT OF FORMATION =      37.623839 KCALS/MOLE

          ZERO POINT ENERGY      54.375 KCAL/MOL


           NORMAL COORDINATE ANALYSIS (Total motion = 1 Angstrom)


   Root No.       1         2         3         4         5         6         7         8

                 1 A       2 A       3 A       4 A       5 A       6 A       7 A       8 A   

                 353.3     733.6     863.5     875.1     880.8     946.3     972.1    1003.1
  
           1   -0.0000    0.0000    0.0000   -0.0597    0.0000   -0.0728    0.0119    0.0000
           2    0.0000    0.0000    0.0000   -0.0607    0.0000    0.0157    0.0331   -0.0000
           3   -0.0295   -0.0116   -0.0231   -0.0001   -0.0187   -0.0000   -0.0000   -0.0217
           4    0.0000    0.0000    0.0000   -0.0597    0.0000    0.0728    0.0119   -0.0000
           5   -0.0000   -0.0000   -0.0000    0.0607   -0.0000    0.0157   -0.0331    0.0000
           6    0.0295   -0.0116   -0.0231   -0.0000    0.0187   -0.0000   -0.0000   -0.0217
           7   -0.0000   -0.0000   -0.0000    0.0694   -0.0000    0.0021    0.0066   -0.0000
           8    0.0000    0.0000    0.0000   -0.0688    0.0000   -0.0335   -0.0287    0.0000
           9    0.0515   -0.0187    0.0199   -0.0000   -0.0202    0.0000    0.0000    0.0258
          10    0.0000   -0.0000   -0.0000    0.0694   -0.0000   -0.0021    0.0066   -0.0000
          11    0.0000   -0.0000   -0.0000    0.0688   -0.0000   -0.0335    0.0287   -0.0000
          12   -0.0515   -0.0187    0.0199    0.0001    0.0202    0.0000    0.0000    0.0258
          13    0.0555   -0.0507   -0.1529   -0.0809    0.0220   -0.1154   -0.0495    0.0934
          14    0.0770   -0.0841   -0.0205   -0.0674   -0.1234    0.0731    0.1060   -0.1658
          15   -0.0991    0.0613    0.0755    0.0114    0.0336   -0.0029   -0.0037    0.0109
          16   -0.0555    0.0507    0.1531   -0.0805   -0.0219   -0.1154   -0.0495   -0.0934
          17   -0.0770    0.0841    0.0205   -0.0669    0.1235    0.0732    0.1061    0.1657
          18   -0.0991    0.0613    0.0755   -0.0111    0.0336    0.0029    0.0038    0.0108
          19   -0.0555   -0.0507   -0.1530   -0.0810   -0.0218    0.1154   -0.0495    0.0934
          20    0.0770    0.0841    0.0204    0.0670   -0.1235    0.0732   -0.1060    0.1658
          21    0.0991    0.0613    0.0755    0.0113   -0.0336    0.0029   -0.0038    0.0109
          22    0.0555    0.0507    0.1531   -0.0804    0.0219    0.1154   -0.0495   -0.0935
          23   -0.0770   -0.0841   -0.0205    0.0673    0.1235    0.0731   -0.1061   -0.1658
          24    0.0991    0.0613    0.0755   -0.0112   -0.0336   -0.0029    0.0037    0.0109
          25   -0.0000   -0.0000   -0.0000    0.0458   -0.0000    0.0985   -0.1218    0.0000
          26   -0.0000   -0.0000    0.0001   -0.0957    0.0001    0.0661   -0.1601    0.0001
          27    0.1445    0.2382   -0.1132    0.0002    0.2015   -0.0000   -0.0000   -0.0712
          28   -0.0000    0.0000   -0.0000    0.0458   -0.0000   -0.0985   -0.1218    0.0001
          29   -0.0000    0.0000   -0.0001    0.0957   -0.0001    0.0660    0.1601   -0.0001
          30   -0.1445    0.2382   -0.1133   -0.0005   -0.2014   -0.0000   -0.0001   -0.0713


   Root No.       9        10        11        12        13        14        15        16

                 9 A      10 A      11 A      12 A      13 A      14 A      15 A      16 A   

                1027.4    1034.3    1080.9    1186.0    1215.7    1237.1    1308.8    1395.3
  
           1    0.0000    0.0061   -0.0000   -0.0471    0.0227   -0.0409    0.0203    0.0232
           2    0.0000   -0.0159   -0.0000    0.0403   -0.0181   -0.0488   -0.0586    0.0330
           3   -0.0091   -0.0000    0.0626    0.0000    0.0000   -0.0000    0.0000   -0.0000
           4   -0.0000   -0.0061   -0.0000    0.0471    0.0227    0.0409    0.0203    0.0232
           5   -0.0000   -0.0159   -0.0000    0.0403    0.0181   -0.0489    0.0586   -0.0330
           6    0.0091    0.0000   -0.0626   -0.0000    0.0000    0.0000   -0.0000   -0.0000
           7   -0.0000    0.0048    0.0000   -0.0100   -0.0201    0.0061    0.0087   -0.0050
           8   -0.0000    0.0102   -0.0000   -0.0124   -0.0319    0.0660    0.0618   -0.0086
           9    0.0486    0.0000   -0.0237    0.0000   -0.0000    0.0000    0.0000    0.0000
          10    0.0000   -0.0048   -0.0000    0.0100   -0.0201   -0.0061    0.0087   -0.0049
          11   -0.0000    0.0102    0.0000   -0.0124    0.0319    0.0660   -0.0618    0.0086
          12   -0.0486   -0.0000    0.0237   -0.0000   -0.0000    0.0000   -0.0000    0.0000
          13    0.0815    0.0490    0.1837    0.1075   -0.0797   -0.0983   -0.1216   -0.1162
          14   -0.1302   -0.0730    0.0140   -0.1441    0.1013   -0.0946    0.0379   -0.1206
          15    0.0136    0.0045   -0.0463    0.0080   -0.0041    0.0485    0.0272    0.1352
          16   -0.0816    0.0489   -0.1838    0.1074   -0.0797   -0.0983   -0.1216   -0.1162
          17    0.1303   -0.0729   -0.0140   -0.1440    0.1012   -0.0946    0.0379   -0.1206
          18    0.0136   -0.0044   -0.0463   -0.0080    0.0041   -0.0485   -0.0272   -0.1352
          19   -0.0815   -0.0490   -0.1837   -0.1075   -0.0797    0.0983   -0.1216   -0.1161
          20   -0.1301   -0.0730    0.0140   -0.1441   -0.1013   -0.0946   -0.0379    0.1206
          21   -0.0136   -0.0045    0.0463   -0.0080   -0.0041   -0.0485    0.0272    0.1352
          22    0.0815   -0.0489    0.1838   -0.1074   -0.0797    0.0983   -0.1216   -0.1162
          23    0.1302   -0.0728   -0.0140   -0.1440   -0.1012   -0.0945   -0.0379    0.1206
          24   -0.0136    0.0044    0.0462    0.0080    0.0041    0.0485   -0.0272   -0.1351
          25   -0.0001    0.2038    0.0000   -0.0433    0.1277   -0.0791   -0.1025    0.0147
          26   -0.0001    0.2144    0.0000   -0.0448    0.1202   -0.0147   -0.0524    0.0126
          27   -0.1339   -0.0001    0.0337   -0.0000    0.0000   -0.0000   -0.0000    0.0000
          28    0.0001   -0.2038   -0.0000    0.0433    0.1277    0.0791   -0.1025    0.0147
          29   -0.0001    0.2143    0.0000   -0.0447   -0.1202   -0.0147    0.0523   -0.0126
          30    0.1338    0.0001   -0.0337    0.0000    0.0000    0.0000   -0.0000   -0.0000


   Root No.      17        18        19        20        21        22        23        24

                17 A      18 A      19 A      20 A      21 A      22 A      23 A      24 A   

                1420.2    1771.7    3043.9    3056.7    3107.9    3108.4    3196.7    3216.9
  
           1   -0.0361   -0.0014   -0.0000   -0.0000    0.0157    0.0155    0.0009    0.0018
           2   -0.0343   -0.0203   -0.0000   -0.0000    0.0152    0.0138    0.0008    0.0021
           3    0.0000   -0.0000   -0.0309   -0.0307   -0.0000   -0.0000    0.0000   -0.0000
           4    0.0361    0.0014    0.0000   -0.0000   -0.0145    0.0166    0.0009   -0.0018
           5   -0.0344   -0.0203   -0.0000    0.0000    0.0142   -0.0149   -0.0008    0.0020
           6   -0.0000   -0.0000    0.0308   -0.0307    0.0000   -0.0000   -0.0000    0.0000
           7    0.0075   -0.2025   -0.0000   -0.0000    0.0003    0.0003   -0.0271    0.0345
           8    0.0195    0.0015   -0.0000   -0.0000    0.0005    0.0002    0.0263   -0.0271
           9    0.0000   -0.0000    0.0000   -0.0004    0.0000   -0.0000    0.0000   -0.0000
          10   -0.0075    0.2025    0.0000   -0.0000   -0.0003    0.0004   -0.0270   -0.0345
          11    0.0195    0.0015    0.0000    0.0000    0.0004   -0.0002   -0.0262   -0.0271
          12    0.0000    0.0000   -0.0000   -0.0004   -0.0000   -0.0000    0.0000    0.0000
          13    0.1268   -0.0147    0.1027    0.1062   -0.0980   -0.0909   -0.0035   -0.0029
          14    0.0906    0.0296    0.0969    0.0957   -0.0899   -0.0841   -0.0028   -0.0032
          15   -0.1334   -0.0226    0.1876    0.1853   -0.2028   -0.1889   -0.0064   -0.0068
          16    0.1268   -0.0147   -0.1025   -0.1061   -0.0982   -0.0910   -0.0035   -0.0029
          17    0.0907    0.0296   -0.0968   -0.0956   -0.0900   -0.0842   -0.0028   -0.0032
          18    0.1334    0.0225    0.1873    0.1851    0.2030    0.1892    0.0064    0.0068
          19   -0.1268    0.0147   -0.1025    0.1064    0.0912   -0.0979   -0.0035    0.0029
          20    0.0907    0.0296    0.0968   -0.0959   -0.0836    0.0905    0.0028   -0.0031
          21    0.1335    0.0226   -0.1872    0.1856    0.1885   -0.2033   -0.0064    0.0068
          22   -0.1269    0.0147    0.1024   -0.1062    0.0912   -0.0979   -0.0035    0.0029
          23    0.0907    0.0296   -0.0966    0.0957   -0.0836    0.0905    0.0028   -0.0031
          24   -0.1334   -0.0225   -0.1871    0.1854   -0.1887    0.2035    0.0065   -0.0068
          25   -0.0183   -0.1071   -0.0000    0.0000    0.0070   -0.0066    0.3196   -0.3131
          26   -0.0045    0.1655    0.0000   -0.0000   -0.0068    0.0064   -0.3111    0.3045
          27    0.0000   -0.0000   -0.0002   -0.0007    0.0000   -0.0000   -0.0000    0.0000
          28    0.0183    0.1071    0.0000    0.0000   -0.0075   -0.0060    0.3187    0.3140
          29   -0.0045    0.1655    0.0000    0.0000   -0.0073   -0.0059    0.3103    0.3053
          30   -0.0000    0.0000    0.0002   -0.0007    0.0000   -0.0000   -0.0000   -0.0000


           MASS-WEIGHTED COORDINATE ANALYSIS (NORMAL COORDINATES)


   Root No.       1         2         3         4         5         6         7         8

                 1 A       2 A       3 A       4 A       5 A       6 A       7 A       8 A   

                 353.3     733.6     863.5     875.1     880.8     946.3     972.1    1003.1
  
           1   -0.0000    0.0000    0.0003   -0.3015    0.0003   -0.4910    0.0952    0.0000
           2    0.0000    0.0000    0.0003   -0.3066    0.0003    0.1059    0.2653   -0.0001
           3   -0.2271   -0.0947   -0.1957   -0.0004   -0.1582   -0.0001   -0.0001   -0.1751
           4    0.0000    0.0000    0.0002   -0.3014    0.0003    0.4910    0.0952   -0.0001
           5   -0.0000   -0.0000   -0.0003    0.3066   -0.0003    0.1058   -0.2653    0.0001
           6    0.2271   -0.0947   -0.1956   -0.0000    0.1583   -0.0000   -0.0001   -0.1752
           7   -0.0000   -0.0000   -0.0003    0.3504   -0.0004    0.0140    0.0531   -0.0000
           8    0.0000    0.0000    0.0003   -0.3472    0.0004   -0.2260   -0.2299    0.0001
           9    0.3967   -0.1525    0.1687   -0.0000   -0.1712    0.0001    0.0000    0.2086
          10    0.0000   -0.0000   -0.0003    0.3504   -0.0004   -0.0141    0.0531   -0.0000
          11    0.0000   -0.0000   -0.0003    0.3472   -0.0004   -0.2261    0.2299   -0.0000
          12   -0.3967   -0.1526    0.1688    0.0003    0.1710    0.0000    0.0002    0.2088
          13    0.1238   -0.1200   -0.3754   -0.1184    0.0538   -0.2256   -0.1147    0.2186
          14    0.1718   -0.1989   -0.0502   -0.0986   -0.3024    0.1429    0.2457   -0.3880
          15   -0.2210    0.1450    0.1854    0.0167    0.0823   -0.0057   -0.0087    0.0254
          16   -0.1238    0.1200    0.3758   -0.1177   -0.0535   -0.2255   -0.1149   -0.2186
          17   -0.1718    0.1989    0.0504   -0.0978    0.3026    0.1430    0.2459    0.3878
          18   -0.2210    0.1450    0.1854   -0.0162    0.0823    0.0057    0.0087    0.0254
          19   -0.1237   -0.1200   -0.3755   -0.1185   -0.0533    0.2256   -0.1147    0.2187
          20    0.1717    0.1989    0.0500    0.0980   -0.3025    0.1430   -0.2457    0.3881
          21    0.2210    0.1451    0.1854    0.0166   -0.0824    0.0057   -0.0087    0.0254
          22    0.1238    0.1200    0.3758   -0.1176    0.0536    0.2256   -0.1149   -0.2187
          23   -0.1718   -0.1990   -0.0503    0.0985    0.3024    0.1429   -0.2460   -0.3880
          24    0.2209    0.1450    0.1853   -0.0163   -0.0823   -0.0057    0.0087    0.0254
          25   -0.0000   -0.0000   -0.0001    0.0670   -0.0001    0.1925   -0.2824    0.0001
          26   -0.0000   -0.0000    0.0001   -0.1399    0.0001    0.1291   -0.3712    0.0001
          27    0.3222    0.5636   -0.2779    0.0003    0.4935   -0.0000   -0.0000   -0.1667
          28   -0.0000    0.0000   -0.0001    0.0669   -0.0001   -0.1926   -0.2825    0.0002
          29   -0.0000    0.0000   -0.0001    0.1400   -0.0002    0.1291    0.3712   -0.0002
          30   -0.3222    0.5637   -0.2782   -0.0007   -0.4932   -0.0000   -0.0001   -0.1668


   Root No.       9        10        11        12        13        14        15        16

                 9 A      10 A      11 A      12 A      13 A      14 A      15 A      16 A   

                1027.4    1034.3    1080.9    1186.0    1215.7    1237.1    1308.8    1395.3
  
           1    0.0000    0.0454   -0.0000   -0.3357    0.1840   -0.2589    0.1326    0.1682
           2    0.0001   -0.1185   -0.0000    0.2873   -0.1465   -0.3088   -0.3831    0.2392
           3   -0.0725   -0.0000    0.4294    0.0000    0.0000   -0.0000    0.0000   -0.0000
           4   -0.0000   -0.0454   -0.0000    0.3357    0.1840    0.2588    0.1326    0.1681
           5   -0.0000   -0.1185   -0.0000    0.2873    0.1465   -0.3088    0.3831   -0.2391
           6    0.0725    0.0000   -0.4294   -0.0000    0.0000    0.0000   -0.0000   -0.0000
           7   -0.0000    0.0358    0.0000   -0.0709   -0.1625    0.0388    0.0570   -0.0359
           8   -0.0001    0.0758   -0.0000   -0.0884   -0.2583    0.4169    0.4040   -0.0623
           9    0.3856    0.0002   -0.1626    0.0000   -0.0000    0.0000    0.0000    0.0000
          10    0.0000   -0.0358   -0.0000    0.0709   -0.1625   -0.0388    0.0570   -0.0359
          11   -0.0000    0.0758    0.0000   -0.0884    0.2583    0.4169   -0.4040    0.0623
          12   -0.3855   -0.0002    0.1625   -0.0000   -0.0000    0.0000   -0.0000    0.0000
          13    0.1874    0.1055    0.3648    0.2217   -0.1868   -0.1800   -0.2303   -0.2438
          14   -0.2993   -0.1572    0.0278   -0.2972    0.2373   -0.1732    0.0718   -0.2531
          15    0.0312    0.0096   -0.0918    0.0165   -0.0096    0.0888    0.0515    0.2836
          16   -0.1875    0.1053   -0.3649    0.2216   -0.1868   -0.1800   -0.2303   -0.2438
          17    0.2996   -0.1569   -0.0278   -0.2971    0.2373   -0.1732    0.0718   -0.2531
          18    0.0312   -0.0096   -0.0919   -0.0165    0.0096   -0.0888   -0.0515   -0.2836
          19   -0.1873   -0.1054   -0.3648   -0.2217   -0.1868    0.1800   -0.2303   -0.2436
          20   -0.2992   -0.1571    0.0278   -0.2972   -0.2374   -0.1732   -0.0718    0.2530
          21   -0.0312   -0.0096    0.0919   -0.0165   -0.0096   -0.0888    0.0515    0.2836
          22    0.1874   -0.1052    0.3649   -0.2216   -0.1867    0.1801   -0.2302   -0.2437
          23    0.2994   -0.1568   -0.0278   -0.2971   -0.2373   -0.1731   -0.0718    0.2530
          24   -0.0312    0.0096    0.0918    0.0165    0.0096    0.0888   -0.0515   -0.2834
          25   -0.0002    0.4386    0.0000   -0.0894    0.2994   -0.1449   -0.1940    0.0308
          26   -0.0002    0.4614    0.0000   -0.0923    0.2817   -0.0269   -0.0991    0.0264
          27   -0.3078   -0.0001    0.0669   -0.0000    0.0000   -0.0000   -0.0000    0.0000
          28    0.0002   -0.4386   -0.0000    0.0894    0.2994    0.1449   -0.1940    0.0308
          29   -0.0001    0.4613    0.0000   -0.0923   -0.2816   -0.0269    0.0991   -0.0264
          30    0.3077    0.0001   -0.0669    0.0000    0.0000    0.0000   -0.0000   -0.0000


   Root No.      17        18        19        20        21        22        23        24

                17 A      18 A      19 A      20 A      21 A      22 A      23 A      24 A   

                1420.2    1771.7    3043.9    3056.7    3107.9    3108.4    3196.7    3216.9
  
           1   -0.2553   -0.0045   -0.0001   -0.0001    0.1130    0.1110    0.0046    0.0095
           2   -0.2426   -0.0677   -0.0001   -0.0001    0.1095    0.0992    0.0044    0.0108
           3    0.0000   -0.0000   -0.2165   -0.2153   -0.0001   -0.0001    0.0000   -0.0000
           4    0.2554    0.0045    0.0001   -0.0001   -0.1046    0.1189    0.0046   -0.0095
           5   -0.2427   -0.0677   -0.0001    0.0001    0.1020   -0.1070   -0.0044    0.0108
           6   -0.0000   -0.0000    0.2161   -0.2156    0.0001   -0.0001   -0.0000    0.0000
           7    0.0530   -0.6754   -0.0000   -0.0000    0.0023    0.0024   -0.1426    0.1816
           8    0.1378    0.0049   -0.0000   -0.0000    0.0033    0.0012    0.1383   -0.1427
           9    0.0000   -0.0000    0.0002   -0.0026    0.0000   -0.0000    0.0000   -0.0000
          10   -0.0530    0.6754    0.0000   -0.0000   -0.0021    0.0026   -0.1421   -0.1820
          11    0.1378    0.0049    0.0000    0.0000    0.0032   -0.0015   -0.1379   -0.1431
          12    0.0000    0.0000   -0.0002   -0.0026   -0.0000   -0.0000    0.0000    0.0000
          13    0.2594   -0.0142    0.2085    0.2161   -0.2043   -0.1889   -0.0053   -0.0045
          14    0.1855    0.0286    0.1968    0.1947   -0.1873   -0.1746   -0.0043   -0.0048
          15   -0.2730   -0.0218    0.3809    0.3770   -0.4225   -0.3925   -0.0098   -0.0103
          16    0.2594   -0.0142   -0.2082   -0.2158   -0.2045   -0.1891   -0.0053   -0.0045
          17    0.1855    0.0286   -0.1966   -0.1944   -0.1875   -0.1749   -0.0043   -0.0048
          18    0.2730    0.0218    0.3804    0.3765    0.4230    0.3930    0.0098    0.0103
          19   -0.2595    0.0142   -0.2081    0.2164    0.1900   -0.2034   -0.0053    0.0045
          20    0.1856    0.0286    0.1965   -0.1950   -0.1741    0.1879    0.0043   -0.0048
          21    0.2732    0.0218   -0.3801    0.3775    0.3927   -0.4223   -0.0098    0.0103
          22   -0.2596    0.0142    0.2079   -0.2161    0.1900   -0.2035   -0.0053    0.0045
          23    0.1856    0.0286   -0.1963    0.1947   -0.1742    0.1880    0.0043   -0.0048
          24   -0.2731   -0.0218   -0.3799    0.3772   -0.3931    0.4228    0.0098   -0.0103
          25   -0.0374   -0.1035   -0.0000    0.0000    0.0146   -0.0136    0.4868   -0.4782
          26   -0.0093    0.1598    0.0000   -0.0000   -0.0142    0.0134   -0.4740    0.4649
          27    0.0000   -0.0000   -0.0005   -0.0014    0.0000   -0.0000   -0.0000    0.0000
          28    0.0374    0.1035    0.0000    0.0000   -0.0156   -0.0125    0.4854    0.4795
          29   -0.0093    0.1598    0.0000    0.0000   -0.0151   -0.0123    0.4727    0.4662
          30   -0.0000    0.0000    0.0005   -0.0014    0.0000   -0.0000   -0.0000   -0.0000


          DESCRIPTION OF VIBRATIONS


 VIBRATION          1    1A           ATOM PAIR      ENERGY CONTRIBUTION    RADIAL
 FREQUENCY           353.29         C  3 -- C  4         +10.7% (107.7%)      0.0%
 TRANSITION DIPOLE   0.0000         C  1 -- C  2         +10.4% (106.1%)      0.0%
 TRAVEL (Ang.)       0.5164         C  1 -- C  3         +10.1% (104.5%)      0.0%
 REDUCED MASS        0.7156         C  2 -- C  4         +10.1% (104.5%)      0.0%
 EFFECTIVE MASS     20.4804
 FORCE CONSTANT      0.0526

 VIBRATION          2    2A           ATOM PAIR      ENERGY CONTRIBUTION    RADIAL
 FREQUENCY           733.58         C  4 -- H 10         +24.2% ( 66.6%)      0.0%
 TRANSITION DIPOLE   0.5953         C  3 -- H  9         +24.2% ( 66.6%)      0.0%
 TRAVEL (Ang.)       0.6174         C  2 -- H  8         +10.6% ( 44.1%)      3.6%
 REDUCED MASS        0.2411         C  2 -- H  7         +10.6% ( 44.1%)      3.6%
 EFFECTIVE MASS      1.5471         C  1 -- H  6         +10.6% ( 44.1%)      3.6%
 FORCE CONSTANT      0.0765         C  1 -- H  5         +10.6% ( 44.1%)      3.6%

 VIBRATION          3    3A           ATOM PAIR      ENERGY CONTRIBUTION    RADIAL
 FREQUENCY           863.46         C  1 -- H  6         +17.3% ( 59.9%)      5.6%
 TRANSITION DIPOLE   0.2711         C  1 -- H  5         +17.3% ( 59.9%)      5.6%
 TRAVEL (Ang.)       0.6338         C  2 -- H  7         +17.3% ( 59.9%)      5.6%
 REDUCED MASS        0.1944         C  2 -- H  8         +17.3% ( 59.9%)      5.6%
 EFFECTIVE MASS      2.4664
 FORCE CONSTANT      0.0854

 VIBRATION          4    4A           ATOM PAIR      ENERGY CONTRIBUTION    RADIAL
 FREQUENCY           875.15         C  1 -- C  4         +15.2% (110.0%)    100.0%
 TRANSITION DIPOLE   0.0895         C  2 -- C  3         +15.2% (110.0%)    100.0%
 TRAVEL (Ang.)       0.1852         C  3 -- C  4         +11.8% ( 96.6%)      0.0%
 REDUCED MASS        2.2472         C  1 -- C  3         +11.4% ( 95.0%)      0.0%
 EFFECTIVE MASS     15.2261         C  2 -- C  4         +11.4% ( 95.0%)      0.0%
 FORCE CONSTANT      1.0140

 VIBRATION          5    5A           ATOM PAIR      ENERGY CONTRIBUTION    RADIAL
 FREQUENCY           880.85         C  3 -- H  9         +17.0% ( 50.5%)      0.0%
 TRANSITION DIPOLE   0.0001         C  4 -- H 10         +16.9% ( 50.4%)      0.0%
 TRAVEL (Ang.)       0.6244         C  2 -- H  8         +11.7% ( 41.8%)      6.2%
 REDUCED MASS        0.1963         C  1 -- H  5         +11.7% ( 41.8%)      6.2%
 EFFECTIVE MASS      2.1178         C  1 -- H  6         +11.6% ( 41.8%)      6.3%
 FORCE CONSTANT      0.0898         C  2 -- H  7         +11.6% ( 41.8%)      6.3%

 VIBRATION          6    6A           ATOM PAIR      ENERGY CONTRIBUTION    RADIAL
 FREQUENCY           946.29         C  1 -- C  2         +21.0% ( 85.3%)    100.0%
 TRANSITION DIPOLE   0.0280         C  2 -- C  4         +10.5% ( 60.3%)     23.8%
 TRAVEL (Ang.)       0.2098         C  1 -- C  3         +10.5% ( 60.3%)     23.8%
 REDUCED MASS        1.6184         C  1 -- C  4          +8.8% ( 55.2%)      2.5%
 EFFECTIVE MASS      9.1081
 FORCE CONSTANT      0.8539

 VIBRATION          7    7A           ATOM PAIR      ENERGY CONTRIBUTION    RADIAL
 FREQUENCY           972.12         C  2 -- C  4         +11.4% ( 52.6%)    100.0%
 TRANSITION DIPOLE   0.1521         C  1 -- C  3         +11.4% ( 52.6%)    100.0%
 TRAVEL (Ang.)       0.4495         C  4 -- H 10         +10.6% ( 50.8%)     15.2%
 REDUCED MASS        0.3433         C  3 -- H  9         +10.6% ( 50.7%)     15.2%
 EFFECTIVE MASS      5.3816
 FORCE CONSTANT      0.1911

 VIBRATION          8    8A           ATOM PAIR      ENERGY CONTRIBUTION    RADIAL
 FREQUENCY          1003.13         C  2 -- H  7         +17.6% ( 48.0%)      4.4%
 TRANSITION DIPOLE   0.2502         C  2 -- H  8         +17.6% ( 48.0%)      4.4%
 TRAVEL (Ang.)       0.5413         C  1 -- H  5         +17.6% ( 48.0%)      4.4%
 REDUCED MASS        0.2294         C  1 -- H  6         +17.6% ( 48.0%)      4.4%
 EFFECTIVE MASS      2.2777
 FORCE CONSTANT      0.1360

 VIBRATION          9    9A           ATOM PAIR      ENERGY CONTRIBUTION    RADIAL
 FREQUENCY          1027.37         C  3 -- H  9         +13.6% ( 40.3%)      0.0%
 TRANSITION DIPOLE   0.0001         C  4 -- H 10         +13.6% ( 40.3%)      0.0%
 TRAVEL (Ang.)       0.3272         C  3 -- C  4         +10.8% ( 36.0%)      0.0%
 REDUCED MASS        0.6131         C  1 -- H  6         +10.7% ( 35.7%)      1.5%
 EFFECTIVE MASS      3.5276         C  2 -- H  8         +10.7% ( 35.7%)      1.5%
 FORCE CONSTANT      0.3812         C  1 -- H  5         +10.7% ( 35.7%)      1.5%
                            C  2 -- H  7         +10.6% ( 35.7%)      1.5%

 VIBRATION         10   10A           ATOM PAIR      ENERGY CONTRIBUTION    RADIAL
 FREQUENCY          1034.30         C  3 -- H  9         +36.4% ( 61.4%)      0.1%
 TRANSITION DIPOLE   0.0190         C  4 -- H 10         +36.3% ( 61.4%)      0.1%
 TRAVEL (Ang.)       0.4356         C  1 -- H  5          +3.3% ( 18.5%)      6.4%
 REDUCED MASS        0.3436         C  2 -- H  7          +3.3% ( 18.5%)      6.4%
 EFFECTIVE MASS      1.6042
 FORCE CONSTANT      0.2165

 VIBRATION         11   11A           ATOM PAIR      ENERGY CONTRIBUTION    RADIAL
 FREQUENCY          1080.93         C  1 -- C  2         +17.2% ( 65.6%)      0.0%
 TRANSITION DIPOLE   0.0001         C  1 -- H  6         +12.0% ( 54.7%)     15.9%
 TRAVEL (Ang.)       0.2610         C  2 -- H  8         +12.0% ( 54.7%)     15.9%
 REDUCED MASS        0.9155         C  1 -- H  5         +12.0% ( 54.7%)     15.9%
 EFFECTIVE MASS      6.1177         C  2 -- H  7         +12.0% ( 54.7%)     15.9%
 FORCE CONSTANT      0.6303

 VIBRATION         12   12A           ATOM PAIR      ENERGY CONTRIBUTION    RADIAL
 FREQUENCY          1186.05         C  2 -- H  7         +14.4% ( 53.0%)      0.1%
 TRANSITION DIPOLE   0.0695         C  1 -- H  5         +14.4% ( 53.0%)      0.1%
 TRAVEL (Ang.)       0.2388         C  1 -- H  6         +14.4% ( 53.0%)      0.1%
 REDUCED MASS        0.9969         C  2 -- H  8         +14.4% ( 53.0%)      0.1%
 EFFECTIVE MASS      4.9864         C  1 -- C  2         +13.4% ( 51.2%)    100.0%
 FORCE CONSTANT      0.8262

 VIBRATION         13   13A           ATOM PAIR      ENERGY CONTRIBUTION    RADIAL
 FREQUENCY          1215.69         C  3 -- H  9         +16.6% ( 49.8%)      0.4%
 TRANSITION DIPOLE   0.0286         C  4 -- H 10         +16.6% ( 49.8%)      0.4%
 TRAVEL (Ang.)       0.3856         C  2 -- H  7          +8.2% ( 35.0%)      0.1%
 REDUCED MASS        0.3730         C  1 -- H  5          +8.2% ( 35.0%)      0.1%
 EFFECTIVE MASS      3.1012
 FORCE CONSTANT      0.3248

 VIBRATION         14   14A           ATOM PAIR      ENERGY CONTRIBUTION    RADIAL
 FREQUENCY          1237.08         C  2 -- C  4         +13.4% ( 62.8%)     90.3%
 TRANSITION DIPOLE   0.0641         C  1 -- C  3         +13.4% ( 62.8%)     90.3%
 TRAVEL (Ang.)       0.1978         C  2 -- C  3         +11.4% ( 58.1%)     79.3%
 REDUCED MASS        1.3927         C  1 -- C  4         +11.4% ( 58.1%)     79.3%
 EFFECTIVE MASS      9.5890         C  1 -- C  2         +11.2% ( 57.6%)    100.0%
 FORCE CONSTANT      1.2558

 VIBRATION         15   15A           ATOM PAIR      ENERGY CONTRIBUTION    RADIAL
 FREQUENCY          1308.84         C  1 -- C  3         +12.9% ( 55.2%)     97.2%
 TRANSITION DIPOLE   0.1776         C  2 -- C  4         +12.9% ( 55.2%)     97.2%
 TRAVEL (Ang.)       0.1965         C  3 -- C  4         +10.9% ( 50.7%)      0.0%
 REDUCED MASS        1.3343         C  2 -- C  3          +8.4% ( 44.3%)     74.0%
 EFFECTIVE MASS      8.0493
 FORCE CONSTANT      1.3467

 VIBRATION         16   16A           ATOM PAIR      ENERGY CONTRIBUTION    RADIAL
 FREQUENCY          1395.28         C  1 -- H  5         +16.7% ( 45.9%)      4.2%
 TRANSITION DIPOLE   0.0070         C  1 -- H  6         +16.7% ( 45.9%)      4.2%
 TRAVEL (Ang.)       0.3750         C  2 -- H  8         +16.7% ( 45.8%)      4.2%
 REDUCED MASS        0.3437         C  2 -- H  7         +16.7% ( 45.8%)      4.2%
 EFFECTIVE MASS      2.7649
 FORCE CONSTANT      0.3942

 VIBRATION         17   17A           ATOM PAIR      ENERGY CONTRIBUTION    RADIAL
 FREQUENCY          1420.20         C  2 -- H  8         +13.7% ( 46.3%)      5.6%
 TRANSITION DIPOLE   0.0328         C  2 -- H  7         +13.7% ( 46.3%)      5.6%
 TRAVEL (Ang.)       0.3062         C  1 -- H  5         +13.7% ( 46.2%)      5.6%
 REDUCED MASS        0.5064         C  1 -- H  6         +13.7% ( 46.2%)      5.6%
 EFFECTIVE MASS      4.1328         C  1 -- C  2         +12.7% ( 44.5%)    100.0%
 FORCE CONSTANT      0.6018

 VIBRATION         18   18A           ATOM PAIR      ENERGY CONTRIBUTION    RADIAL
 FREQUENCY          1771.73         C  3 -- C  4         +36.3% (102.1%)    100.0%
 TRANSITION DIPOLE   0.0136         C  1 -- C  4         +11.1% ( 56.5%)     58.7%
 TRAVEL (Ang.)       0.0872         C  2 -- C  3         +11.1% ( 56.5%)     58.7%
 REDUCED MASS        5.0016         C  2 -- C  4         +10.9% ( 56.0%)      0.1%
 EFFECTIVE MASS     11.9675         C  1 -- C  3         +10.9% ( 56.0%)      0.1%
 FORCE CONSTANT      9.2503

 VIBRATION         19   19A           ATOM PAIR      ENERGY CONTRIBUTION    RADIAL
 FREQUENCY          3043.95         C  1 -- H  5         +24.2% ( 51.4%)     96.8%
 TRANSITION DIPOLE   0.0001         C  1 -- H  6         +24.2% ( 51.3%)     96.8%
 TRAVEL (Ang.)       0.2921         C  2 -- H  7         +24.1% ( 51.3%)     96.8%
 REDUCED MASS        0.2596         C  2 -- H  8         +24.1% ( 51.2%)     96.8%
 EFFECTIVE MASS      1.5538
 FORCE CONSTANT      1.4172

 VIBRATION         20   20A           ATOM PAIR      ENERGY CONTRIBUTION    RADIAL
 FREQUENCY          3056.74         C  2 -- H  7         +24.3% ( 51.1%)     97.1%
 TRANSITION DIPOLE   0.0913         C  2 -- H  8         +24.2% ( 51.1%)     97.1%
 TRAVEL (Ang.)       0.2918         C  1 -- H  5         +24.2% ( 51.0%)     97.1%
 REDUCED MASS        0.2591         C  1 -- H  6         +24.2% ( 51.0%)     97.1%
 EFFECTIVE MASS      1.5268
 FORCE CONSTANT      1.4265

 VIBRATION         21   21A           ATOM PAIR      ENERGY CONTRIBUTION    RADIAL
 FREQUENCY          3107.90         C  1 -- H  6         +26.2% ( 50.9%)     97.1%
 TRANSITION DIPOLE   0.1036         C  1 -- H  5         +26.2% ( 50.8%)     97.0%
 TRAVEL (Ang.)       0.2989         C  2 -- H  8         +22.7% ( 47.3%)     97.1%
 REDUCED MASS        0.2429         C  2 -- H  7         +22.6% ( 47.3%)     97.0%
 EFFECTIVE MASS      1.2819
 FORCE CONSTANT      1.3823

 VIBRATION         22   22A           ATOM PAIR      ENERGY CONTRIBUTION    RADIAL
 FREQUENCY          3108.35         C  2 -- H  8         +26.3% ( 50.9%)     97.0%
 TRANSITION DIPOLE   0.1344         C  2 -- H  7         +26.2% ( 50.9%)     96.9%
 TRAVEL (Ang.)       0.2987         C  1 -- H  6         +22.7% ( 47.3%)     96.9%
 REDUCED MASS        0.2431         C  1 -- H  5         +22.6% ( 47.3%)     96.9%
 EFFECTIVE MASS      1.2816
 FORCE CONSTANT      1.3841

 VIBRATION         23   23A           ATOM PAIR      ENERGY CONTRIBUTION    RADIAL
 FREQUENCY          3196.69         C  3 -- H  9         +48.0% ( 71.0%)    100.0%
 TRANSITION DIPOLE   0.4842         C  4 -- H 10         +47.7% ( 70.8%)    100.0%
 TRAVEL (Ang.)       0.2131         C  3 -- C  4          +1.1% ( 10.6%)      0.0%
 REDUCED MASS        0.4643         C  2 -- C  3          +0.8% (  9.2%)     99.9%
 EFFECTIVE MASS      1.4656
 FORCE CONSTANT      2.7957

 VIBRATION         24   24A           ATOM PAIR      ENERGY CONTRIBUTION    RADIAL
 FREQUENCY          3216.94         C  4 -- H 10         +46.4% ( 70.5%)     99.9%
 TRANSITION DIPOLE   0.3620         C  3 -- H  9         +46.1% ( 70.3%)     99.9%
 TRAVEL (Ang.)       0.2113         C  3 -- C  4          +3.0% ( 17.9%)    100.0%
 REDUCED MASS        0.4697         C  1 -- C  4          +1.1% ( 10.9%)     98.4%
 EFFECTIVE MASS      1.7374
 FORCE CONSTANT      2.8639

      SYMMETRY NUMBER FOR POINT-GROUP C1  =  1


          SYSTEM IS A GROUND STATE



 InChI=1S/C4H6/c1-2-4-3-1/h1-2H,3-4H2


          MOLECULE IS NOT LINEAR

          THERE ARE 24 GENUINE VIBRATIONS IN THIS SYSTEM
          THIS THERMODYNAMICS CALCULATION IS LIMITED TO
          MOLECULES WHICH HAVE NO INTERNAL ROTATIONS




                    CALCULATED THERMODYNAMIC PROPERTIES
                                          *
   TEMP. (K)   PARTITION FUNCTION   H.O.F.    ENTHALPY  HEAT CAPACITY ENTROPY
                                   KCAL/MOL   CAL/MOLE    CAL/K/MOL  CAL/K/MOL


 298.00  VIB.     0.1397D+01                   580.3066     7.1182     2.6114
         ROT.     0.2646D+05                   888.2803     2.9808    23.2170
         INT.     0.3695D+05                  1468.5869    10.0990    25.8284
         TRA.     0.3846D+27                  1480.4672     4.9680    37.8841
         TOT.                       37.624    2949.0541    15.0671    63.7125

 200.00  VIB.     0.1103D+01                   126.0081     2.4740     0.8244
         ROT.     0.1455D+05                   596.1613     2.9808    22.0283
         INT.     0.1604D+05                   722.1694     5.4548    22.8527
         TRA.     0.2115D+27                   993.6021     4.9680    35.9029
         TOT.                       36.391    1715.7715    10.4228    58.7557

 210.00  VIB.     0.1121D+01                   152.5759     2.8447     0.9540
         ROT.     0.1565D+05                   625.9693     2.9808    22.1738
         INT.     0.1755D+05                   778.5452     5.8255    23.1277
         TRA.     0.2275D+27                  1043.2822     4.9680    36.1453
         TOT.                       36.497    1821.8275    10.7935    59.2731

 220.00  VIB.     0.1142D+01                   183.0014     3.2452     1.0954
         ROT.     0.1678D+05                   655.7774     2.9808    22.3124
         INT.     0.1916D+05                   838.7788     6.2260    23.4079
         TRA.     0.2440D+27                  1092.9623     4.9680    36.3764
         TOT.                       36.607    1931.7412    11.1940    59.7843

 230.00  VIB.     0.1165D+01                   217.5730     3.6735     1.2490
         ROT.     0.1794D+05                   685.5855     2.9808    22.4450
         INT.     0.2089D+05                   903.1585     6.6543    23.6940
         TRA.     0.2608D+27                  1142.6424     4.9680    36.5973
         TOT.                       36.721    2045.8009    11.6224    60.2913

 240.00  VIB.     0.1190D+01                   256.5569     4.1273     1.4149
         ROT.     0.1912D+05                   715.3935     2.9808    22.5718
         INT.     0.2276D+05                   971.9505     7.1081    23.9867
         TRA.     0.2780D+27                  1192.3226     4.9680    36.8087
         TOT.                       36.839    2164.2730    12.0761    60.7954

 250.00  VIB.     0.1218D+01                   300.1940     4.6037     1.5929
         ROT.     0.2033D+05                   745.2016     2.9808    22.6935
         INT.     0.2476D+05                  1045.3956     7.5845    24.2864
         TRA.     0.2955D+27                  1242.0027     4.9680    37.0115
         TOT.                       36.962    2287.3983    12.5525    61.2980

 260.00  VIB.     0.1249D+01                   348.6977     5.1001     1.7831
         ROT.     0.2156D+05                   775.0097     2.9808    22.8104
         INT.     0.2693D+05                  1123.7074     8.0809    24.5935
         TRA.     0.3134D+27                  1291.6828     4.9680    37.2064
         TOT.                       37.090    2415.3901    13.0489    61.7999

 270.00  VIB.     0.1283D+01                   402.2529     5.6135     1.9852
         ROT.     0.2282D+05                   804.8177     2.9808    22.9229
         INT.     0.2928D+05                  1207.0706     8.5943    24.9081
         TRA.     0.3317D+27                  1341.3629     4.9680    37.3939
         TOT.                       37.223    2548.4335    13.5624    62.3019

 280.00  VIB.     0.1320D+01                   461.0160     6.1412     2.1988
         ROT.     0.2410D+05                   834.6258     2.9808    23.0313
         INT.     0.3182D+05                  1295.6418     9.1220    25.2301
         TRA.     0.3503D+27                  1391.0430     4.9680    37.5745
         TOT.                       37.361    2686.6847    14.0900    62.8047

 290.00  VIB.     0.1361D+01                   525.1155     6.6804     2.4237
         ROT.     0.2540D+05                   864.4339     2.9808    23.1359
         INT.     0.3458D+05                  1389.5494     9.6612    25.5596
         TRA.     0.3692D+27                  1440.7231     4.9680    37.7489
         TOT.                       37.505    2830.2724    14.6292    63.3085

 300.00  VIB.     0.1406D+01                   594.6532     7.2284     2.6594
         ROT.     0.2672D+05                   894.2419     2.9808    23.2370
         INT.     0.3757D+05                  1488.8952    10.2092    25.8964
         TRA.     0.3885D+27                  1490.4032     4.9680    37.9173
         TOT.                       37.654    2979.2984    15.1773    63.8137

 310.00  VIB.     0.1455D+01                   669.7058     7.7830     2.9054
         ROT.     0.2807D+05                   924.0500     2.9808    23.3347
         INT.     0.4084D+05                  1593.7558    10.7638    26.2401
         TRA.     0.4081D+27                  1540.0833     4.9680    38.0802
         TOT.                       37.809    3133.8391    15.7318    64.3203

 320.00  VIB.     0.1508D+01                   750.3263     8.3417     3.1613
         ROT.     0.2944D+05                   953.8580     2.9808    23.4293
         INT.     0.4440D+05                  1704.1844    11.3225    26.5907
         TRA.     0.4280D+27                  1589.7634     4.9680    38.2379
         TOT.                       37.969    3293.9478    16.2905    64.8286

 330.00  VIB.     0.1566D+01                   836.5465     8.9026     3.4266
         ROT.     0.3083D+05                   983.6661     2.9808    23.5211
         INT.     0.4829D+05                  1820.2126    11.8834    26.9477
         TRA.     0.4482D+27                  1639.4435     4.9680    38.3908
         TOT.                       38.134    3459.6561    16.8514    65.3385

 340.00  VIB.     0.1629D+01                   928.3786     9.4638     3.7007
         ROT.     0.3224D+05                  1013.4742     2.9808    23.6100
         INT.     0.5254D+05                  1941.8528    12.4446    27.3108
         TRA.     0.4687D+27                  1689.1236     4.9680    38.5391
         TOT.                       38.306    3630.9764    17.4126    65.8499

 350.00  VIB.     0.1698D+01                  1025.8176    10.0237     3.9831
         ROT.     0.3368D+05                  1043.2822     2.9808    23.6965
         INT.     0.5718D+05                  2069.0998    13.0045    27.6796
         TRA.     0.4895D+27                  1738.8037     4.9680    38.6831
         TOT.                       38.483    3807.9035    17.9725    66.3627

 360.00  VIB.     0.1773D+01                  1128.8426    10.5808     4.2733
         ROT.     0.3513D+05                  1073.0903     2.9808    23.7804
         INT.     0.6227D+05                  2201.9329    13.5616    28.0538
         TRA.     0.5107D+27                  1788.4838     4.9680    38.8231
         TOT.                       38.665    3990.4167    18.5296    66.8768

 370.00  VIB.     0.1854D+01                  1237.4196    11.1339     4.5708
         ROT.     0.3660D+05                  1102.8984     2.9808    23.8621
         INT.     0.6785D+05                  2340.3179    14.1147    28.4329
         TRA.     0.5321D+27                  1838.1639     4.9680    38.9592
         TOT.                       38.853    4178.4819    19.0827    67.3921

 380.00  VIB.     0.1941D+01                  1351.5026    11.6818     4.8750
         ROT.     0.3810D+05                  1132.7064     2.9808    23.9416
         INT.     0.7396D+05                  2484.2090    14.6626    28.8166
         TRA.     0.5538D+27                  1887.8440     4.9680    39.0917
         TOT.                       39.047    4372.0530    19.6306    67.9083

 390.00  VIB.     0.2037D+01                  1471.0356    12.2237     5.1855
         ROT.     0.3961D+05                  1162.5145     2.9808    24.0190
         INT.     0.8067D+05                  2633.5501    15.2045    29.2045
         TRA.     0.5758D+27                  1937.5242     4.9680    39.2207
         TOT.                       39.246    4571.0742    20.1725    68.4252

 400.00  VIB.     0.2140D+01                  1595.9541    12.7588     5.5017
         ROT.     0.4114D+05                  1192.3226     2.9808    24.0945
         INT.     0.8804D+05                  2788.2766    15.7396    29.5962
         TRA.     0.5981D+27                  1987.2043     4.9680    39.3465
         TOT.                       39.450    4775.4809    20.7076    68.9427

   *: NOTE: HEATS OF FORMATION ARE RELATIVE TO THE
            ELEMENTS IN THEIR STANDARD STATE AT 298K
              (=  Standard Enthalpy of Formation).

            Hvib:  Zero-point energy is not included.
                   frequencies of less than zero cm-1 are not included.
            Hrot = (3/2)RT
            Htra = (3/2)RT + pV = (5/2)RT

            Heat capacity is Cp, not Cv

          For more information, see: HTTP://OpenMOPAC.net/Manual/thermochemistry.html


           FORCE CONSTANT IN CARTESIAN COORDINATES (Millidynes/A)

    ATOM   CHEMICAL       X               Y               Z
   NUMBER   SYMBOL  FORCE CONSTANT  FORCE CONSTANT  FORCE CONSTANT

      1       C        7.555094        8.250211        8.344078
      2       C        7.555488        8.250228        8.344133
      3       C       15.153797        9.212787        2.179489
      4       C       15.153631        9.213097        2.179492
      5       H        1.507446        1.341950        3.724890
      6       H        1.507442        1.341867        3.725119
      7       H        1.507917        1.342324        3.724153
      8       H        1.506964        1.341565        3.725966
      9       H        3.199389        3.059953        0.334471
     10       H        3.199238        3.060277        0.334439

 **********************
 *                    *
 * JOB ENDED NORMALLY *
 *                    *
 **********************



 TOTAL JOB TIME:             0.45 SECONDS

 == MOPAC DONE ==
