 *******************************************************************************
 **                                                                           **
 **                              MOPAC v23.1.2                                **
 **                                                                           **
 *******************************************************************************
 **          Digital Object Identifier (DOI): 10.5281/zenodo.6511958          **
 **    Visit the DOI location for information on how to cite this program.    **
 *******************************************************************************

                              PM3 CALCULATION RESULTS

 *******************************************************************************
 *  CALCULATION DONE: (MAX THREADS = 1)              Tue Jun  3 16:28:22 2025  *
 *  PM3        - The PM3 Hamiltonian to be used
 *  PRECISE    - TIGHTER CRITERIA TO BE USED
 *  NOSYM      - POINT-GROUP SYMMETRY SET TO C1
 *  THREADS=1  - MULTI-THREADING NOT USED
 *  T=         - A TIME OF 172800.0 SECONDS REQUESTED
 *  DUMP=N     - RESTART FILE WRITTEN EVERY 7200.0 SECONDS REQUESTED
 *******************************************************************************
pm3  precise nosym THREADS=1
 InChI=1S/C7H8/c1-2-4-6-7-5-3-1/h1-6H,7H2

   ATOM   CHEMICAL          X               Y               Z
  NUMBER   SYMBOL      (ANGSTROMS)     (ANGSTROMS)     (ANGSTROMS)

     1       C         -1.40060000  *  -0.16730000  *  -0.41730000  *
     2       C         -1.04760000  *   1.07510000  *   0.33690000  *
     3       C         -0.70470000  *  -1.35800000  *   0.16140000  *
     4       C          0.19890000  *   1.55170000  *   0.40470000  *
     5       C          0.62590000  *  -1.47810000  *   0.18610000  *
     6       C          1.38510000  *   0.88770000  *  -0.17770000  *
     7       C          1.57200000  *  -0.43840000  *  -0.27340000  *
     8       H         -2.49900000  *  -0.32580000  *  -0.36530000  *
     9       H         -1.12340000  *  -0.05100000  *  -1.48760000  *
    10       H         -1.84830000  *   1.64580000  *   0.79160000  *
    11       H         -1.30850000  *  -2.18500000  *   0.51520000  *
    12       H          2.21410000  *   1.52970000  *  -0.44850000  *
    13       H          0.35030000  *   2.51630000  *   0.87260000  *
    14       H          2.54000000  *  -0.78300000  *  -0.61530000  *
    15       H          1.04590000  *  -2.41980000  *   0.51660000  *



          CARTESIAN COORDINATES 

    NO.       ATOM           X           Y           Z

     1         C         -1.4006     -0.1673     -0.4173
     2         C         -1.0476      1.0751      0.3369
     3         C         -0.7047     -1.3580      0.1614
     4         C          0.1989      1.5517      0.4047
     5         C          0.6259     -1.4781      0.1861
     6         C          1.3851      0.8877     -0.1777
     7         C          1.5720     -0.4384     -0.2734
     8         H         -2.4990     -0.3258     -0.3653
     9         H         -1.1234     -0.0510     -1.4876
    10         H         -1.8483      1.6458      0.7916
    11         H         -1.3085     -2.1850      0.5152
    12         H          2.2141      1.5297     -0.4485
    13         H          0.3503      2.5163      0.8726
    14         H          2.5400     -0.7830     -0.6153
    15         H          1.0459     -2.4198      0.5166

  H: (PM3): J. J. P. STEWART, J. COMP. CHEM. 10, 209 (1989).
  C: (PM3): J. J. P. STEWART, J. COMP. CHEM. 10, 209 (1989).

           Empirical Formula: C7 H8  =    15 atoms



      MOLECULAR POINT GROUP   :   C1  


      RHF CALCULATION, NO. OF DOUBLY OCCUPIED LEVELS = 18


          Geometry optimization using EF

          DIAGONAL MATRIX USED AS START HESSIAN

 CYCLE:     1 TIME:   0.004 TIME LEFT:  2.00D  GRAD.:    77.928 HEAT:  44.92954
 CYCLE:     2 TIME:   0.008 TIME LEFT:  2.00D  GRAD.:    32.934 HEAT:  43.38749
 CYCLE:     3 TIME:   0.008 TIME LEFT:  2.00D  GRAD.:    37.030 HEAT:  43.19627
 CYCLE:     4 TIME:   0.012 TIME LEFT:  2.00D  GRAD.:    24.053 HEAT:  42.97836
 CYCLE:     5 TIME:   0.008 TIME LEFT:  2.00D  GRAD.:    25.234 HEAT:  42.93329
 CYCLE:     6 TIME:   0.008 TIME LEFT:  2.00D  GRAD.:    24.775 HEAT:  42.83040
 CYCLE:     7 TIME:   0.008 TIME LEFT:  2.00D  GRAD.:    21.495 HEAT:  42.74342
 CYCLE:     8 TIME:   0.008 TIME LEFT:  2.00D  GRAD.:    19.785 HEAT:  42.66265
 CYCLE:     9 TIME:   0.004 TIME LEFT:  2.00D  GRAD.:    20.782 HEAT:  42.61866
 CYCLE:    10 TIME:   0.008 TIME LEFT:  2.00D  GRAD.:     8.729 HEAT:  42.54063
 CYCLE:    11 TIME:   0.004 TIME LEFT:  2.00D  GRAD.:    10.670 HEAT:  42.53789
 CYCLE:    12 TIME:   0.008 TIME LEFT:  2.00D  GRAD.:     6.792 HEAT:  42.49838
 CYCLE:    13 TIME:   0.008 TIME LEFT:  2.00D  GRAD.:     4.994 HEAT:  42.48945
 CYCLE:    14 TIME:   0.004 TIME LEFT:  2.00D  GRAD.:     2.281 HEAT:  42.47922
 CYCLE:    15 TIME:   0.008 TIME LEFT:  2.00D  GRAD.:     4.388 HEAT:  42.46930
 CYCLE:    16 TIME:   0.004 TIME LEFT:  2.00D  GRAD.:     3.678 HEAT:  42.45533
 CYCLE:    17 TIME:   0.004 TIME LEFT:  2.00D  GRAD.:     4.889 HEAT:  42.44520
 CYCLE:    18 TIME:   0.008 TIME LEFT:  2.00D  GRAD.:     4.628 HEAT:  42.44170
 CYCLE:    19 TIME:   0.008 TIME LEFT:  2.00D  GRAD.:     2.358 HEAT:  42.43592
 CYCLE:    20 TIME:   0.004 TIME LEFT:  2.00D  GRAD.:     1.489 HEAT:  42.43353
 CYCLE:    21 TIME:   0.004 TIME LEFT:  2.00D  GRAD.:     1.469 HEAT:  42.43237
 CYCLE:    22 TIME:   0.004 TIME LEFT:  2.00D  GRAD.:     0.996 HEAT:  42.43097
 CYCLE:    23 TIME:   0.004 TIME LEFT:  2.00D  GRAD.:     0.501 HEAT:  42.43027
 CYCLE:    24 TIME:   0.004 TIME LEFT:  2.00D  GRAD.:     0.324 HEAT:  42.42993
 CYCLE:    25 TIME:   0.004 TIME LEFT:  2.00D  GRAD.:     0.287 HEAT:  42.42973
 CYCLE:    26 TIME:   0.004 TIME LEFT:  2.00D  GRAD.:     0.199 HEAT:  42.42963
 CYCLE:    27 TIME:   0.008 TIME LEFT:  2.00D  GRAD.:     0.191 HEAT:  42.42954
 CYCLE:    28 TIME:   0.004 TIME LEFT:  2.00D  GRAD.:     0.227 HEAT:  42.42943
 CYCLE:    29 TIME:   0.004 TIME LEFT:  2.00D  GRAD.:     0.275 HEAT:  42.42928
 CYCLE:    30 TIME:   0.004 TIME LEFT:  2.00D  GRAD.:     0.304 HEAT:  42.42906
 CYCLE:    31 TIME:   0.008 TIME LEFT:  2.00D  GRAD.:     0.275 HEAT:  42.42882
 CYCLE:    32 TIME:   0.004 TIME LEFT:  2.00D  GRAD.:     0.231 HEAT:  42.42862
 CYCLE:    33 TIME:   0.004 TIME LEFT:  2.00D  GRAD.:     0.182 HEAT:  42.42852
 CYCLE:    34 TIME:   0.004 TIME LEFT:  2.00D  GRAD.:     0.131 HEAT:  42.42844
 CYCLE:    35 TIME:   0.004 TIME LEFT:  2.00D  GRAD.:     0.104 HEAT:  42.42840
 CYCLE:    36 TIME:   0.004 TIME LEFT:  2.00D  GRAD.:     0.078 HEAT:  42.42837
 CYCLE:    37 TIME:   0.008 TIME LEFT:  2.00D  GRAD.:     0.068 HEAT:  42.42836
 CYCLE:    38 TIME:   0.004 TIME LEFT:  2.00D  GRAD.:     0.055 HEAT:  42.42835
 CYCLE:    39 TIME:   0.004 TIME LEFT:  2.00D  GRAD.:     0.042 HEAT:  42.42834

     GRADIENT =  0.04223 IS LESS THAN CUTOFF =  0.05000



 -------------------------------------------------------------------------------
 pm3  precise nosym THREADS=1
 InChI=1S/C7H8/c1-2-4-6-7-5-3-1/h1-6H,7H2



     GEOMETRY OPTIMISED USING EIGENVECTOR FOLLOWING (EF).     
     SCF FIELD WAS ACHIEVED                                   


                              PM3 CALCULATION
                                                       MOPAC v23.1.2 MacOS
                                                       Tue Jun  3 16:28:22 2025




          FINAL HEAT OF FORMATION =         42.42834 KCAL/MOL =     177.52016 KJ/MOL


          COSMO AREA              =        134.89 SQUARE ANGSTROMS
          COSMO VOLUME            =        128.56 CUBIC ANGSTROMS

          GRADIENT NORM           =          0.04223          =       0.01090 PER ATOM
          IONIZATION POTENTIAL    =          8.953364 EV
          HOMO LUMO ENERGIES (EV) =         -8.953  0.035
          NO. OF FILLED LEVELS    =         18
          MOLECULAR WEIGHT        =         92.1402         POINT GROUP:  C1  

          MOLECULAR DIMENSIONS (Angstroms)

            Atom       Atom       Distance
            H    12    H    11     5.21480
            H    14    H    10     5.00156
            H    13    H     9     2.71755


          SCF CALCULATIONS        =         47

          WALL-CLOCK TIME         =      0.234 SECONDS
          COMPUTATION TIME        =      0.119 SECONDS




   ATOM   CHEMICAL          X               Y               Z
  NUMBER   SYMBOL      (ANGSTROMS)     (ANGSTROMS)     (ANGSTROMS)

     1       C         -1.41193730  *  -0.16878520  *  -0.41828390  *
     2       C         -1.04083649  *   1.07057429  *   0.31710954  *
     3       C         -0.69987719  *  -1.34913467  *   0.14231763  *
     4       C          0.21233319  *   1.53390409  *   0.40199013  *
     5       C          0.63381442  *  -1.45705306  *   0.18634339  *
     6       C          1.37904332  *   0.88562473  *  -0.16062177  *
     7       C          1.56601014  *  -0.44052018  *  -0.25602783  *
     8       H         -2.50668550  *  -0.32593916  *  -0.37857578  *
     9       H         -1.16167215  *  -0.05578276  *  -1.49389092  *
    10       H         -1.85956800  *   1.61916273  *   0.79633242  *
    11       H         -1.32652560  *  -2.16364777  *   0.52286844  *
    12       H          2.17686659  *   1.56437415  *  -0.48817568  *
    13       H          0.40960839  *   2.47614933  *   0.92849687  *
    14       H          2.51326851  *  -0.82062905  *  -0.65946532  *
    15       H          1.09284008  *  -2.37308093  *   0.57888756  *

                             CARTESIAN COORDINATES

   1    C       -1.411937300    -0.168785202    -0.418283902
   2    C       -1.040836488     1.070574291     0.317109536
   3    C       -0.699877191    -1.349134667     0.142317632
   4    C        0.212333187     1.533904092     0.401990133
   5    C        0.633814419    -1.457053064     0.186343388
   6    C        1.379043322     0.885624728    -0.160621773
   7    C        1.566010143    -0.440520184    -0.256027831
   8    H       -2.506685496    -0.325939162    -0.378575778
   9    H       -1.161672153    -0.055782761    -1.493890920
  10    H       -1.859568004     1.619162732     0.796332423
  11    H       -1.326525600    -2.163647772     0.522868439
  12    H        2.176866595     1.564374147    -0.488175683
  13    H        0.409608390     2.476149329     0.928496872
  14    H        2.513268507    -0.820629049    -0.659465319
  15    H        1.092840079    -2.373080926     0.578887560


           Empirical Formula: C7 H8  =    15 atoms



      MOLECULAR POINT GROUP   :   C1  


                  EIGENVALUES  
 -39.44056 -31.50879 -31.30686 -24.45294 -22.65530 -18.50595 -18.02063 -17.37793
 -15.65547 -15.53954 -15.00766 -13.45431 -13.37050 -12.43251 -12.09796 -11.29118
 -10.25448  -8.95336   0.03537   1.10161   2.19668   3.29605   3.32979   3.64546
   3.67271   3.76094   3.92440   3.98295   4.46874   4.54782   4.91592   5.23875
   5.55241   5.82232   5.89432   6.30676


              NET ATOMIC CHARGES AND DIPOLE CONTRIBUTIONS

  ATOM NO.   TYPE          CHARGE      No. of ELECS.   s-Pop       p-Pop       
    1          C          -0.025958        4.0260     1.13305     2.89291
    2          C          -0.123094        4.1231     1.19719     2.92590
    3          C          -0.123088        4.1231     1.19720     2.92589
    4          C          -0.114403        4.1144     1.17858     2.93583
    5          C          -0.114403        4.1144     1.17857     2.93583
    6          C          -0.096075        4.0961     1.17799     2.91808
    7          C          -0.096060        4.0961     1.17799     2.91807
    8          H           0.051278        0.9487     0.94872
    9          H           0.061632        0.9384     0.93837
   10          H           0.095926        0.9041     0.90407
   11          H           0.095926        0.9041     0.90407
   12          H           0.095485        0.9045     0.90452
   13          H           0.098683        0.9013     0.90132
   14          H           0.095486        0.9045     0.90451
   15          H           0.098666        0.9013     0.90133
 DIPOLE           X         Y         Z       TOTAL
 POINT-CHG.    -0.185    -0.019    -0.090     0.207
 HYBRID         0.058    -0.002     0.137     0.148
 SUM           -0.127    -0.021     0.047     0.137


          ATOMIC ORBITAL ELECTRON POPULATIONS

     Atom    s        px        py        pz   
    1  C   1.13305   0.98488   0.92165   0.98638
    2  C   1.19719   0.96720   0.95476   1.00394
    3  C   1.19720   0.95465   0.96696   1.00428
    4  C   1.17858   0.93956   0.98954   1.00673
    5  C   1.17857   0.94537   0.97934   1.01113
    6  C   1.17799   0.97360   0.95279   0.99168
    7  C   1.17799   0.98347   0.93994   0.99466
    8  H   0.94872
    9  H   0.93837
   10  H   0.90407
   11  H   0.90407
   12  H   0.90452
   13  H   0.90132
   14  H   0.90451
   15  H   0.90133
 *******************************************************************************
 **                                                                           **
 **                              MOPAC v23.1.2                                **
 **                                                                           **
 *******************************************************************************
 **          Digital Object Identifier (DOI): 10.5281/zenodo.6511958          **
 **    Visit the DOI location for information on how to cite this program.    **
 *******************************************************************************

                              PM3 CALCULATION RESULTS

 *******************************************************************************
 *  CALCULATION DONE: (MAX THREADS = 1)              Tue Jun  3 16:28:22 2025  *
 *  PM3        - The PM3 Hamiltonian to be used
 *  OLDGEO     - PREVIOUS GEOMETRY TO BE USED
 *  PRECISE    - TIGHTER CRITERIA TO BE USED
 *  NOSYM      - POINT-GROUP SYMMETRY SET TO C1
 *  THREADS=1  - MULTI-THREADING NOT USED
 *  T=         - A TIME OF 172800.0 SECONDS REQUESTED
 *  DUMP=N     - RESTART FILE WRITTEN EVERY 7200.0 SECONDS REQUESTED
 *  THERMO     - THERMODYNAMIC QUANTITIES TO BE CALCULATED
 *******************************************************************************
oldgeo thermo nosym precise THREADS=1  pm3
 InChI=1S/C7H8/c1-2-4-6-7-5-3-1/h1-6H,7H2

   ATOM   CHEMICAL          X               Y               Z
  NUMBER   SYMBOL      (ANGSTROMS)     (ANGSTROMS)     (ANGSTROMS)

     1       C         -1.41193730  *  -0.16878520  *  -0.41828390  *
     2       C         -1.04083649  *   1.07057429  *   0.31710954  *
     3       C         -0.69987719  *  -1.34913467  *   0.14231763  *
     4       C          0.21233319  *   1.53390409  *   0.40199013  *
     5       C          0.63381442  *  -1.45705306  *   0.18634339  *
     6       C          1.37904332  *   0.88562473  *  -0.16062177  *
     7       C          1.56601014  *  -0.44052018  *  -0.25602783  *
     8       H         -2.50668550  *  -0.32593916  *  -0.37857578  *
     9       H         -1.16167215  *  -0.05578276  *  -1.49389092  *
    10       H         -1.85956800  *   1.61916273  *   0.79633242  *
    11       H         -1.32652560  *  -2.16364777  *   0.52286844  *
    12       H          2.17686659  *   1.56437415  *  -0.48817568  *
    13       H          0.40960839  *   2.47614933  *   0.92849687  *
    14       H          2.51326851  *  -0.82062905  *  -0.65946532  *
    15       H          1.09284008  *  -2.37308093  *   0.57888756  *



          CARTESIAN COORDINATES 

    NO.       ATOM           X           Y           Z

     1         C         -1.4119     -0.1688     -0.4183
     2         C         -1.0408      1.0706      0.3171
     3         C         -0.6999     -1.3491      0.1423
     4         C          0.2123      1.5339      0.4020
     5         C          0.6338     -1.4571      0.1863
     6         C          1.3790      0.8856     -0.1606
     7         C          1.5660     -0.4405     -0.2560
     8         H         -2.5067     -0.3259     -0.3786
     9         H         -1.1617     -0.0558     -1.4939
    10         H         -1.8596      1.6192      0.7963
    11         H         -1.3265     -2.1636      0.5229
    12         H          2.1769      1.5644     -0.4882
    13         H          0.4096      2.4761      0.9285
    14         H          2.5133     -0.8206     -0.6595
    15         H          1.0928     -2.3731      0.5789

  H: (PM3): J. J. P. STEWART, J. COMP. CHEM. 10, 209 (1989).
  C: (PM3): J. J. P. STEWART, J. COMP. CHEM. 10, 209 (1989).

           Empirical Formula: C7 H8  =    15 atoms



      MOLECULAR POINT GROUP   :   C1  


      RHF CALCULATION, NO. OF DOUBLY OCCUPIED LEVELS = 18



          HEAT OF FORMATION =      42.428337 KCALS/MOLE


          CARTESIAN COORDINATE DERIVATIVES

   NUMBER  ATOM         X            Y            Z

     1       C      0.003856    -0.007534    -0.003512
     2       C     -0.005536     0.010123    -0.000516
     3       C     -0.011255    -0.003427    -0.000265
     4       C     -0.000948    -0.010367     0.007805
     5       C     -0.008669    -0.006473    -0.001466
     6       C     -0.009345    -0.007691    -0.005234
     7       C      0.000060    -0.006365    -0.000497
     8       H      0.003762     0.009483    -0.005692
     9       H      0.007623     0.005012     0.008572
    10       H      0.001281     0.005061     0.007935
    11       H     -0.000609     0.007576     0.007559
    12       H     -0.005249    -0.000615    -0.005233
    13       H      0.007704     0.002756    -0.001326
    14       H      0.009694     0.011212    -0.000902
    15       H      0.007631    -0.008750    -0.007229



          GRADIENT NORM =   0.04346

          MOLECULAR WEIGHT =   92.14



          ROTATIONAL CONSTANTS IN CM(-1)

          A =    0.12405844   B =    0.12295083   C =    0.06741421



           PRINCIPAL MOMENTS OF INERTIA IN UNITS OF 10**(-40)*GRAM-CM**2

          A =      225.6417   B =      227.6744   C =      415.2352


          ORIENTATION OF MOLECULE IN FORCE CALCULATION

    NO.       ATOM         X         Y         Z

     1          C      -0.7384   -1.0702   -0.8672
     2          C       0.7498   -1.0702   -0.8672
     3          C      -1.2668    0.3209   -0.8672
     4          C       1.4901   -0.5065    0.0953
     5          C      -1.0023    1.2133    0.0951
     6          C       0.9631    0.2138    1.2361
     7          C      -0.1419    0.9766    1.2360
     8          H      -1.1226   -1.6272   -1.7429
     9          H      -1.1134   -1.6139    0.0251
    10          H       1.2393   -1.5757   -1.7073
    11          H      -1.9134    0.5990   -1.7071
    12          H       1.5655    0.1431    2.1508
    13          H       2.5842   -0.5772    0.0521
    14          H      -0.4216    1.5151    2.1504
    15          H      -1.4568    2.2111    0.0516


    FIRST DERIVATIVES WILL BE USED IN THE CALCULATION OF SECOND DERIVATIVES

          ESTIMATED TIME TO COMPLETE CALCULATION =        0.70 SECONDS

    FOR POINT-GROUP C1   THERE ARE   1 UNIQUE SYMMETRY FUNCTIONS.

 STEP:   1 TIME =     0.01 SECS, INTEGRAL =      0.01 TIME LEFT: 172799.98
 STEP:   2 TIME =     0.01 SECS, INTEGRAL =      0.02 TIME LEFT: 172799.98
 STEP:   3 TIME =     0.01 SECS, INTEGRAL =      0.03 TIME LEFT: 172799.96
 STEP:   4 TIME =     0.01 SECS, INTEGRAL =      0.04 TIME LEFT: 172799.95
 STEP:   5 TIME =     0.01 SECS, INTEGRAL =      0.05 TIME LEFT: 172799.94
 STEP:   6 TIME =     0.01 SECS, INTEGRAL =      0.06 TIME LEFT: 172799.93
 STEP:   7 TIME =     0.01 SECS, INTEGRAL =      0.07 TIME LEFT: 172799.92
 STEP:   8 TIME =     0.02 SECS, INTEGRAL =      0.09 TIME LEFT: 172799.91
 STEP:   9 TIME =     0.01 SECS, INTEGRAL =      0.10 TIME LEFT: 172799.89
 STEP:  10 TIME =     0.01 SECS, INTEGRAL =      0.11 TIME LEFT: 172799.88
 STEP:  11 TIME =     0.01 SECS, INTEGRAL =      0.12 TIME LEFT: 172799.87
 STEP:  12 TIME =     0.01 SECS, INTEGRAL =      0.14 TIME LEFT: 172799.86
 STEP:  13 TIME =     0.01 SECS, INTEGRAL =      0.15 TIME LEFT: 172799.85
 STEP:  14 TIME =     0.01 SECS, INTEGRAL =      0.16 TIME LEFT: 172799.84
 STEP:  15 TIME =     0.01 SECS, INTEGRAL =      0.17 TIME LEFT: 172799.82
 STEP:  16 TIME =     0.01 SECS, INTEGRAL =      0.18 TIME LEFT: 172799.81
 STEP:  17 TIME =     0.01 SECS, INTEGRAL =      0.20 TIME LEFT: 172799.80
 STEP:  18 TIME =     0.01 SECS, INTEGRAL =      0.21 TIME LEFT: 172799.79
 STEP:  19 TIME =     0.01 SECS, INTEGRAL =      0.21 TIME LEFT: 172799.78
 STEP:  20 TIME =     0.01 SECS, INTEGRAL =      0.23 TIME LEFT: 172799.77
 STEP:  21 TIME =     0.01 SECS, INTEGRAL =      0.24 TIME LEFT: 172799.76
 STEP:  22 TIME =     0.01 SECS, INTEGRAL =      0.25 TIME LEFT: 172799.75
 STEP:  23 TIME =     0.01 SECS, INTEGRAL =      0.25 TIME LEFT: 172799.74
 STEP:  24 TIME =     0.01 SECS, INTEGRAL =      0.27 TIME LEFT: 172799.73
 STEP:  25 TIME =     0.01 SECS, INTEGRAL =      0.28 TIME LEFT: 172799.72
 STEP:  26 TIME =     0.01 SECS, INTEGRAL =      0.29 TIME LEFT: 172799.71
 STEP:  27 TIME =     0.01 SECS, INTEGRAL =      0.30 TIME LEFT: 172799.70
 STEP:  28 TIME =     0.01 SECS, INTEGRAL =      0.31 TIME LEFT: 172799.69
 STEP:  29 TIME =     0.01 SECS, INTEGRAL =      0.32 TIME LEFT: 172799.68
 STEP:  30 TIME =     0.01 SECS, INTEGRAL =      0.33 TIME LEFT: 172799.66
 STEP:  31 TIME =     0.01 SECS, INTEGRAL =      0.34 TIME LEFT: 172799.65
 STEP:  32 TIME =     0.01 SECS, INTEGRAL =      0.35 TIME LEFT: 172799.64
 STEP:  33 TIME =     0.01 SECS, INTEGRAL =      0.36 TIME LEFT: 172799.63
 STEP:  34 TIME =     0.01 SECS, INTEGRAL =      0.37 TIME LEFT: 172799.62
 STEP:  35 TIME =     0.01 SECS, INTEGRAL =      0.38 TIME LEFT: 172799.61
 STEP:  36 TIME =     0.01 SECS, INTEGRAL =      0.39 TIME LEFT: 172799.60
 STEP:  37 TIME =     0.01 SECS, INTEGRAL =      0.40 TIME LEFT: 172799.59
 STEP:  38 TIME =     0.01 SECS, INTEGRAL =      0.41 TIME LEFT: 172799.58
 STEP:  39 TIME =     0.02 SECS, INTEGRAL =      0.43 TIME LEFT: 172799.57
 STEP:  40 TIME =     0.01 SECS, INTEGRAL =      0.44 TIME LEFT: 172799.55
 STEP:  41 TIME =     0.01 SECS, INTEGRAL =      0.45 TIME LEFT: 172799.54
 STEP:  42 TIME =     0.01 SECS, INTEGRAL =      0.46 TIME LEFT: 172799.53
 STEP:  43 TIME =     0.01 SECS, INTEGRAL =      0.48 TIME LEFT: 172799.52
 STEP:  44 TIME =     0.01 SECS, INTEGRAL =      0.49 TIME LEFT: 172799.51
 STEP:  45 TIME =     0.01 SECS, INTEGRAL =      0.50 TIME LEFT: 172799.50

(To convert to Hartree/Bohr^2, multiply by (10^(-21) x N x a0^2)/(4.184 x 627.51) =  0.0642)


           FORCE MATRIX IN MILLIDYNES/ANGSTROM


                  C  1       C  2       C  3       C  4       C  5       C  6
 ------------------------------------------------------------------------------
     C    1  14.985841
     C    2   4.934667  17.831725
     C    3   4.935000   0.698437  17.832696
     C    4   0.785612  10.258956   0.125340  18.263796
     C    5   0.785635   0.124979  10.259806   0.228371  18.265068
     C    6   0.114075   1.031665   0.209926   5.690584   1.042377  18.089741
     C    7   0.114529   0.209926   1.031648   1.042964   5.689594   9.917428
     H    8   4.510040   0.442561   0.442534   0.052006   0.052043   0.003759
     H    9   4.364398   0.434637   0.434810   0.027425   0.027325   0.019511
     H   10   0.432007   4.826918   0.029798   0.437550   0.019874   0.132649
     H   11   0.432142   0.029751   4.826709   0.019893   0.437537   0.023219
     H   12   0.014840   0.049564   0.017720   0.427468   0.125486   4.768093
     H   13   0.113231   0.443481   0.011969   4.776153   0.014494   0.428217
     H   14   0.014695   0.017653   0.049535   0.125526   0.427293   0.442424
     H   15   0.112567   0.011907   0.443214   0.014348   4.777203   0.053104


                  C  7       H  8       H  9       H 10       H 11       H 12
 ------------------------------------------------------------------------------
     C    7  18.084870
     H    8   0.003772   5.076519
     H    9   0.019503   0.564334   4.954294
     H   10   0.023233   0.033796   0.024067   5.183091
     H   11   0.133006   0.033830   0.024011   0.002361   5.182814
     H   12   0.442667   0.000420   0.001231   0.011660   0.008564   5.118417
     H   13   0.053300   0.006335   0.011648   0.071074   0.001891   0.037257
     H   14   4.767697   0.000416   0.001234   0.008450   0.011599   0.072675
     H   15   0.428227   0.006307   0.011301   0.001867   0.070579   0.010412


                  H 13       H 14       H 15
 ------------------------------------------
     H   13   5.129664
     H   14   0.010393   5.118133
     H   15   0.000553   0.037244   5.130356


          HEAT OF FORMATION =      42.428337 KCALS/MOLE

          ZERO POINT ENERGY      79.023 KCAL/MOL


           NORMAL COORDINATE ANALYSIS (Total motion = 1 Angstrom)


   Root No.       1         2         3         4         5         6         7         8

                 1 A       2 A       3 A       4 A       5 A       6 A       7 A       8 A   

                 171.4     268.8     353.3     403.8     420.0     542.2     673.8     745.7
  
           1   -0.0051    0.0109   -0.0244    0.0254   -0.0177    0.0141   -0.0168    0.0110
           2   -0.0073   -0.0074   -0.0355   -0.0171   -0.0260   -0.0097   -0.0244    0.0154
           3    0.0562    0.0001   -0.0353    0.0001   -0.0042   -0.0000    0.0172    0.0028
           4   -0.0037    0.0120   -0.0237    0.0211   -0.0223    0.0126   -0.0138    0.0168
           5    0.0183    0.0461   -0.0042   -0.0513    0.0346    0.0031    0.0199   -0.0253
           6   -0.0132   -0.0278    0.0163   -0.0304   -0.0265   -0.0398    0.0269    0.0015
           7    0.0185   -0.0389    0.0048    0.0551    0.0404    0.0016    0.0236   -0.0274
           8    0.0031   -0.0275   -0.0236   -0.0013   -0.0087   -0.0130   -0.0059    0.0075
           9   -0.0133    0.0278    0.0163    0.0305   -0.0260    0.0399    0.0271    0.0017
          10    0.0031   -0.0040   -0.0255   -0.0268   -0.0364   -0.0172    0.0385   -0.0015
          11    0.0253   -0.0195    0.0532    0.0096   -0.0144   -0.0309   -0.0149   -0.0087
          12   -0.0217    0.0221   -0.0160   -0.0326    0.0161    0.0056    0.0048    0.0040
          13    0.0225    0.0167    0.0586   -0.0191   -0.0005    0.0236   -0.0273   -0.0064
          14    0.0118    0.0108   -0.0050    0.0221   -0.0388    0.0272    0.0310   -0.0020
          15   -0.0216   -0.0221   -0.0158    0.0327    0.0162   -0.0060    0.0046    0.0029
          16   -0.0179   -0.0237    0.0032   -0.0560    0.0127   -0.0072   -0.0042   -0.0130
          17   -0.0266   -0.0408    0.0078   -0.0205    0.0164    0.0378   -0.0089   -0.0194
          18    0.0033    0.0266    0.0271   -0.0196    0.0170   -0.0284   -0.0262    0.0063
          19   -0.0184    0.0297    0.0064   -0.0009    0.0107   -0.0379   -0.0071   -0.0140
          20   -0.0261    0.0366    0.0064    0.0595    0.0182   -0.0068   -0.0072   -0.0200
          21    0.0033   -0.0267    0.0270    0.0191    0.0172    0.0286   -0.0262    0.0055
          22   -0.0489    0.0152    0.0223   -0.0152   -0.0380   -0.0150    0.0529    0.0173
          23   -0.0710   -0.0105    0.0324    0.0108   -0.0549    0.0103    0.0770    0.0260
          24    0.1172    0.0001   -0.1004    0.0002    0.0240   -0.0000   -0.0815   -0.0063
          25    0.0413    0.0513   -0.0722    0.0353    0.0036    0.0678   -0.0903    0.0053
          26    0.0601   -0.0352   -0.1045   -0.0239    0.0044   -0.0468   -0.1310    0.0100
          27    0.1168    0.0001   -0.0997    0.0002    0.0227    0.0000   -0.0831   -0.0038
          28   -0.0226    0.0201    0.0005    0.0273   -0.0077    0.0179   -0.0338    0.0192
          29    0.0550    0.1301   -0.0069   -0.0743    0.1299    0.0010    0.1310    0.0406
          30   -0.0452   -0.0732    0.0309   -0.0117   -0.0752   -0.0350   -0.0522   -0.0365
          31    0.0595   -0.1150   -0.0066    0.0782    0.1248    0.0039    0.1337    0.0205
          32   -0.0015   -0.0652   -0.0021    0.0006    0.0388   -0.0177    0.0145    0.0272
          33   -0.0452    0.0735    0.0312    0.0121   -0.0750    0.0361   -0.0515   -0.0285
          34   -0.0393   -0.0669    0.0034   -0.0692    0.0695    0.0346   -0.0304    0.0976
          35   -0.0686   -0.0833   -0.0404   -0.0952    0.0911    0.1000    0.0092    0.1609
          36    0.0137    0.0513    0.0223   -0.0160   -0.0148   -0.0505   -0.0076   -0.0522
          37    0.0048   -0.0031   -0.0228   -0.0215   -0.0374   -0.0207    0.0385    0.0070
          38    0.0748   -0.0156    0.1215    0.0812   -0.0363   -0.1350    0.0103    0.1588
          39   -0.0444    0.0419   -0.0710   -0.0196    0.0090    0.0781   -0.0270   -0.0615
          40   -0.0499    0.0539   -0.0380    0.0644    0.0606   -0.0825    0.0185    0.1099
          41   -0.0608    0.0917   -0.0098    0.0976    0.0977   -0.0689   -0.0259    0.1418
          42    0.0136   -0.0513    0.0219    0.0159   -0.0145    0.0509   -0.0074   -0.0514
          43    0.0675    0.0135    0.1199   -0.0844   -0.0205    0.1188   -0.0046    0.1348
          44    0.0306    0.0086    0.0210   -0.0083   -0.0476    0.0669    0.0394    0.0599
          45   -0.0441   -0.0418   -0.0703    0.0202    0.0085   -0.0782   -0.0269   -0.0550


   Root No.       9        10        11        12        13        14        15        16

                 9 A      10 A      11 A      12 A      13 A      14 A      15 A      16 A   

                 761.1     843.5     848.8     943.2     962.3     985.7     996.6    1022.4
  
           1    0.0056   -0.0111   -0.0028    0.0270   -0.0065    0.0089   -0.0055    0.0192
           2   -0.0048    0.0078   -0.0036    0.0391    0.0046    0.0130    0.0034   -0.0133
           3   -0.0002   -0.0004    0.0107    0.0685    0.0001    0.0044    0.0001    0.0000
           4   -0.0004   -0.0013   -0.0127    0.0021   -0.0006   -0.0185    0.0003   -0.0131
           5   -0.0263   -0.0038    0.0299   -0.0118    0.0222    0.0385    0.0048    0.0166
           6   -0.0005    0.0261    0.0029   -0.0175   -0.0072   -0.0107   -0.0088    0.0118
           7    0.0267    0.0011    0.0329   -0.0116   -0.0202    0.0427   -0.0056   -0.0203
           8    0.0092    0.0026   -0.0010   -0.0022   -0.0073   -0.0036   -0.0018    0.0064
           9    0.0001   -0.0264    0.0016   -0.0176    0.0069   -0.0104    0.0089   -0.0119
          10   -0.0224    0.0470    0.0042   -0.0316    0.0153   -0.0017    0.0064   -0.0258
          11   -0.0176   -0.0198    0.0222    0.0011   -0.0243   -0.0373   -0.0230   -0.0114
          12    0.0118   -0.0035   -0.0098   -0.0128    0.0100    0.0146    0.0118    0.0117
          13    0.0089    0.0338    0.0205    0.0122    0.0277   -0.0341    0.0249    0.0015
          14    0.0272   -0.0376    0.0103   -0.0291   -0.0059   -0.0145    0.0025    0.0282
          15   -0.0120    0.0042   -0.0096   -0.0128   -0.0099    0.0143   -0.0122   -0.0118
          16    0.0104   -0.0341   -0.0197    0.0043   -0.0213    0.0071    0.0182    0.0047
          17    0.0081    0.0080   -0.0262    0.0059   -0.0175    0.0061    0.0392    0.0017
          18    0.0122   -0.0509   -0.0041    0.0080   -0.0042   -0.0007   -0.0082   -0.0227
          19   -0.0025   -0.0183   -0.0182    0.0040    0.0089    0.0018   -0.0301    0.0001
          20   -0.0107    0.0310   -0.0264    0.0061    0.0263    0.0069   -0.0312   -0.0050
          21   -0.0126    0.0510   -0.0020    0.0079    0.0042   -0.0004    0.0081    0.0228
          22   -0.0092    0.0372    0.0160    0.1322   -0.0208    0.0178   -0.0746    0.1747
          23    0.0041   -0.0271    0.0212    0.1917    0.0149    0.0277    0.0511   -0.1205
          24    0.0006    0.0006   -0.0142   -0.0766   -0.0002   -0.0093    0.0000   -0.0000
          25   -0.0250   -0.0978   -0.0231   -0.0710    0.0470    0.0037    0.0755    0.0157
          26    0.0174    0.0691   -0.0284   -0.1024   -0.0328    0.0045   -0.0527   -0.0111
          27    0.0005    0.0005   -0.0126   -0.0641   -0.0001   -0.0029   -0.0001   -0.0001
          28    0.0127   -0.0379   -0.0249   -0.0619   -0.0247   -0.0630   -0.0189    0.0556
          29    0.1319    0.1275   -0.0958   -0.0005   -0.1036   -0.1353   -0.0381    0.0007
          30   -0.0881   -0.0743    0.0721   -0.0625    0.0548    0.0680    0.0058    0.0619
          31   -0.1215   -0.1276   -0.0877    0.0206    0.0853   -0.1038    0.0312    0.0192
          32   -0.0610   -0.0063   -0.0582   -0.0584    0.0576   -0.1068    0.0343   -0.0522
          33    0.0909    0.0699    0.0760   -0.0619   -0.0531    0.0683   -0.0074   -0.0621
          34    0.0398   -0.0466    0.0643    0.0235    0.0434   -0.0179   -0.1177    0.0705
          35    0.0738   -0.0308    0.1176   -0.0441    0.1133   -0.0331   -0.1134   -0.1074
          36   -0.0021   -0.0462   -0.0487   -0.0088   -0.0370    0.0126    0.0689   -0.0739
          37   -0.0171    0.0498   -0.0011   -0.0357    0.0223    0.0012    0.0107   -0.0265
          38    0.1183    0.0109   -0.0873   -0.0498    0.1175    0.1143    0.0811    0.0250
          39   -0.0750    0.0078    0.0489    0.0001   -0.0483   -0.1396   -0.0542   -0.0511
          40   -0.0647    0.0061    0.0877   -0.0495   -0.0912   -0.0197    0.0654    0.1254
          41   -0.0758    0.0470    0.1037    0.0062   -0.0812   -0.0211    0.1507   -0.0277
          42    0.0067    0.0496   -0.0468   -0.0087    0.0371    0.0094   -0.0692    0.0739
          43   -0.1274    0.0125   -0.0810   -0.0338   -0.1011    0.1061   -0.0752   -0.0329
          44   -0.0307   -0.0484   -0.0339   -0.0509   -0.0623    0.0417   -0.0401    0.0159
          45    0.0800   -0.0107    0.0490    0.0001    0.0473   -0.1393    0.0597    0.0516


   Root No.      17        18        19        20        21        22        23        24

                17 A      18 A      19 A      20 A      21 A      22 A      23 A      24 A   

                1041.8    1063.3    1066.9    1094.9    1150.4    1174.3    1175.5    1215.3
  
           1    0.0026    0.0375    0.0019    0.0163    0.0069   -0.0021    0.0025    0.0145
           2    0.0038    0.0541   -0.0032   -0.0113    0.0101    0.0014    0.0036   -0.0100
           3   -0.0190   -0.0273    0.0007    0.0000   -0.0132    0.0002   -0.0153   -0.0000
           4   -0.0043   -0.0388   -0.0162   -0.0118   -0.0085    0.0046   -0.0066    0.0173
           5   -0.0109    0.0002   -0.0098   -0.0021   -0.0058    0.0050    0.0025    0.0056
           6    0.0007    0.0469    0.0316    0.0017   -0.0007   -0.0006    0.0071    0.0023
           7   -0.0087    0.0140    0.0029   -0.0022   -0.0024   -0.0032    0.0047    0.0009
           8   -0.0078   -0.0350    0.0204    0.0118   -0.0100   -0.0060   -0.0055   -0.0182
           9    0.0006    0.0451   -0.0339   -0.0018   -0.0007    0.0004    0.0071   -0.0023
          10    0.0344   -0.0276    0.0034    0.0039   -0.0000    0.0036    0.0044   -0.0001
          11   -0.0044    0.0106    0.0092   -0.0040    0.0061   -0.0022   -0.0015    0.0061
          12   -0.0201    0.0023    0.0005   -0.0122   -0.0023   -0.0001    0.0029    0.0162
          13   -0.0162    0.0195   -0.0084    0.0050    0.0057    0.0034   -0.0029   -0.0058
          14    0.0306   -0.0223   -0.0056   -0.0022    0.0021   -0.0027    0.0035   -0.0021
          15   -0.0202    0.0022   -0.0004    0.0123   -0.0023    0.0001    0.0029   -0.0162
          16    0.0138   -0.0109   -0.0083   -0.0070   -0.0032   -0.0077    0.0007   -0.0117
          17   -0.0077   -0.0061   -0.0092    0.0021    0.0056   -0.0021    0.0006    0.0082
          18    0.0440   -0.0273   -0.0062    0.0092    0.0019   -0.0037   -0.0025    0.0109
          19   -0.0122   -0.0016    0.0058   -0.0044    0.0064   -0.0008    0.0003   -0.0118
          20    0.0101   -0.0118    0.0116    0.0059   -0.0010    0.0079    0.0010    0.0080
          21    0.0440   -0.0268    0.0072   -0.0091    0.0020    0.0038   -0.0025   -0.0109
          22   -0.0168    0.0123   -0.1188    0.1404   -0.0043   -0.1043   -0.0155   -0.0788
          23   -0.0232    0.0240    0.0814   -0.0968   -0.0061    0.0723   -0.0198    0.0543
          24    0.0049    0.0087   -0.0002   -0.0000   -0.0004   -0.0001    0.0052    0.0000
          25    0.0196    0.1046    0.3059    0.0471    0.0154   -0.0666    0.0127   -0.0542
          26    0.0260    0.1323   -0.2160   -0.0328    0.0223    0.0456    0.0199    0.0374
          27    0.0018    0.0494   -0.0011   -0.0001   -0.0025    0.0000   -0.0007    0.0000
          28   -0.0940   -0.0195    0.0012   -0.0659   -0.1515    0.1655   -0.1194   -0.1117
          29   -0.0028    0.0908    0.0691   -0.0151   -0.0281    0.0342   -0.0169   -0.0343
          30   -0.0593    0.0064   -0.0035   -0.0246   -0.0715    0.0765   -0.0461   -0.0499
          31    0.0304    0.0882   -0.0688   -0.0095    0.0276    0.0262    0.0271   -0.0075
          32   -0.0888    0.0128   -0.0257    0.0667   -0.1519   -0.1642   -0.1210    0.1166
          33   -0.0592    0.0065    0.0038    0.0245   -0.0717   -0.0754   -0.0477    0.0498
          34    0.0732   -0.0016    0.0407   -0.0790   -0.1379   -0.0271    0.1104    0.0812
          35   -0.0076   -0.0139   -0.0107    0.0691    0.1196    0.0212   -0.0968   -0.0677
          36    0.0074   -0.0371   -0.0386    0.0597    0.1001    0.0092   -0.0820   -0.0556
          37    0.0239   -0.0385   -0.0007   -0.0067    0.0026   -0.0061    0.0149   -0.0086
          38   -0.1149   -0.0582   -0.0403   -0.0763    0.0325   -0.0745    0.0729   -0.0539
          39   -0.1308   -0.0910   -0.0181   -0.1247    0.0641   -0.1401    0.1278   -0.0958
          40   -0.0328   -0.0112    0.0252   -0.0924    0.1606   -0.0266   -0.1301    0.0924
          41    0.0662   -0.0078   -0.0345    0.0493   -0.0867    0.0163    0.0693   -0.0521
          42    0.0073   -0.0352    0.0403   -0.0595    0.1002   -0.0074   -0.0822    0.0558
          43   -0.1165   -0.0394    0.0408    0.0695    0.0295    0.0663    0.0647    0.0474
          44   -0.0188   -0.0560    0.0181    0.0337    0.0140    0.0314    0.0407    0.0272
          45   -0.1301   -0.0884    0.0224    0.1246    0.0638    0.1371    0.1308    0.0955


   Root No.      25        26        27        28        29        30        31        32

                25 A      26 A      27 A      28 A      29 A      30 A      31 A      32 A   

                1335.8    1362.4    1404.0    1473.0    1845.2    1861.2    1868.4    2938.9
  
           1   -0.0002    0.0749    0.0331    0.0555    0.0086    0.0130    0.0212    0.0043
           2   -0.0001   -0.0516    0.0480   -0.0383    0.0125    0.0188   -0.0146    0.0062
           3   -0.0043   -0.0000    0.0025    0.0000    0.0056    0.0066    0.0000   -0.0580
           4    0.0361   -0.0197   -0.0265   -0.0533   -0.0527   -0.0688   -0.0860   -0.0004
           5    0.0024    0.0180   -0.0005   -0.0010   -0.0259   -0.0426   -0.0484    0.0013
           6    0.0046    0.0190    0.0019   -0.0090   -0.0463   -0.0668   -0.0823    0.0020
           7   -0.0106   -0.0239    0.0089   -0.0180   -0.0056   -0.0155    0.0147    0.0014
           8    0.0346    0.0121   -0.0250    0.0502   -0.0584   -0.0795    0.0976    0.0001
           9    0.0046   -0.0190    0.0019    0.0090   -0.0462   -0.0668    0.0823    0.0020
          10   -0.0149   -0.0214    0.0043    0.0303    0.0436    0.0337    0.0515    0.0001
          11    0.0175    0.0019   -0.0122   -0.0248    0.0186    0.0591    0.0657   -0.0001
          12    0.0306    0.0011   -0.0225   -0.0374    0.0388    0.0961    0.1105   -0.0003
          13    0.0216   -0.0093   -0.0129    0.0340    0.0019    0.0434   -0.0432   -0.0001
          14   -0.0078    0.0193   -0.0004   -0.0196    0.0473    0.0525   -0.0715    0.0001
          15    0.0306   -0.0011   -0.0225    0.0374    0.0387    0.0961   -0.1105   -0.0003
          16   -0.0114    0.0175    0.0067   -0.0237   -0.1140    0.0779    0.0053   -0.0001
          17    0.0008   -0.0210   -0.0013    0.0323    0.0810   -0.0636   -0.0175    0.0001
          18   -0.0187   -0.0331    0.0102    0.0505    0.0169   -0.0307   -0.0260    0.0000
          19    0.0048    0.0259   -0.0036   -0.0386    0.1162   -0.0871    0.0181    0.0001
          20   -0.0103   -0.0089    0.0058    0.0107   -0.0778    0.0502    0.0013   -0.0000
          21   -0.0187    0.0330    0.0102   -0.0505    0.0169   -0.0307    0.0260    0.0000
          22   -0.0791   -0.1416   -0.1082   -0.0416    0.0101    0.0146    0.0399    0.1232
          23   -0.1148    0.0974   -0.1568    0.0287    0.0145    0.0212   -0.0276    0.1786
          24    0.0884    0.0002    0.1702    0.0000    0.0021    0.0016    0.0000    0.2607
          25   -0.0717   -0.0831   -0.1126   -0.0394   -0.0047   -0.0069   -0.0067   -0.1814
          26   -0.1042    0.0571   -0.1633    0.0271   -0.0068   -0.0100    0.0046   -0.2630
          27   -0.0855   -0.0001   -0.1596    0.0000   -0.0086   -0.0129   -0.0000    0.4336
          28   -0.0831   -0.0648    0.0572    0.0491    0.0431    0.0427    0.0477    0.0088
          29   -0.0282   -0.0039    0.0273    0.0175   -0.0048   -0.0263   -0.0271   -0.0120
          30   -0.0474    0.0094    0.0361    0.0387   -0.0174   -0.0321   -0.0441   -0.0228
          31    0.0030   -0.0193    0.0053    0.0009   -0.0197   -0.0397    0.0422   -0.0143
          32   -0.0879    0.0619    0.0631   -0.0521    0.0386    0.0306   -0.0351    0.0040
          33   -0.0474   -0.0095    0.0361   -0.0386   -0.0174   -0.0322    0.0442   -0.0228
          34    0.0014   -0.0814   -0.0023    0.0825   -0.0021    0.0181   -0.0047    0.0006
          35   -0.0147    0.0606    0.0102   -0.0557   -0.0166   -0.0111   -0.0072   -0.0000
          36   -0.0319    0.0366    0.0191   -0.0233   -0.0876    0.0280   -0.0181    0.0009
          37   -0.0256   -0.0221    0.0100    0.0408    0.0481    0.0415    0.0592    0.0000
          38   -0.0473    0.0194    0.0273    0.0250   -0.0221    0.0029   -0.0154    0.0006
          39   -0.0929    0.0372    0.0482    0.0606   -0.0367   -0.0134   -0.0328    0.0000
          40   -0.0141   -0.0855    0.0104    0.0813   -0.0147   -0.0168    0.0051   -0.0003
          41   -0.0039    0.0547    0.0014   -0.0574   -0.0079    0.0130    0.0070    0.0006
          42   -0.0318   -0.0367    0.0191    0.0233   -0.0875    0.0280    0.0182    0.0009
          43   -0.0353   -0.0261    0.0221   -0.0090   -0.0376   -0.0122    0.0355    0.0006
          44   -0.0408    0.0137    0.0190   -0.0471    0.0371    0.0398   -0.0499    0.0003
          45   -0.0928   -0.0374    0.0481   -0.0606   -0.0367   -0.0135    0.0329    0.0000


   Root No.      33        34        35        36        37        38        39

                33 A      34 A      35 A      36 A      37 A      38 A      39 A   

                3020.9    3024.8    3029.1    3032.3    3042.7    3055.2    3058.0
  
           1    0.0001   -0.0189   -0.0019    0.0002   -0.0010    0.0001   -0.0019
           2   -0.0001   -0.0274   -0.0027   -0.0000   -0.0015   -0.0001   -0.0028
           3   -0.0000   -0.0098   -0.0017    0.0000   -0.0012   -0.0000   -0.0030
           4    0.0014   -0.0028    0.0039    0.0051    0.0039   -0.0092    0.0078
           5   -0.0011    0.0028   -0.0031   -0.0045   -0.0040    0.0122   -0.0104
           6   -0.0018    0.0047   -0.0051   -0.0075   -0.0067    0.0204   -0.0171
           7    0.0015    0.0037   -0.0042    0.0062   -0.0051   -0.0147   -0.0124
           8   -0.0009   -0.0016    0.0025   -0.0033    0.0022    0.0042    0.0036
           9    0.0018    0.0047   -0.0049    0.0077   -0.0067   -0.0205   -0.0170
          10   -0.0100    0.0027   -0.0200   -0.0198   -0.0066   -0.0135    0.0119
          11    0.0005   -0.0002    0.0010    0.0011    0.0008   -0.0003    0.0002
          12    0.0000   -0.0001    0.0002    0.0005    0.0007   -0.0015    0.0012
          13   -0.0039   -0.0012    0.0077   -0.0084    0.0031   -0.0046   -0.0041
          14    0.0091    0.0025   -0.0177    0.0187   -0.0059    0.0129    0.0112
          15   -0.0000   -0.0001    0.0002   -0.0005    0.0007    0.0015    0.0012
          16    0.0145   -0.0004    0.0058   -0.0044   -0.0145   -0.0010    0.0035
          17   -0.0015    0.0000   -0.0013    0.0004    0.0030   -0.0001   -0.0005
          18    0.0223   -0.0006    0.0073   -0.0071   -0.0183   -0.0019    0.0046
          19    0.0066    0.0001   -0.0033   -0.0018    0.0079   -0.0003   -0.0017
          20   -0.0131   -0.0003    0.0051    0.0038   -0.0124    0.0010    0.0031
          21   -0.0224   -0.0006    0.0075    0.0068   -0.0182    0.0020    0.0046
          22    0.0004    0.1404    0.0168    0.0009    0.0101   -0.0029    0.0190
          23   -0.0002    0.2035    0.0244   -0.0015    0.0147    0.0020    0.0276
          24    0.0001    0.3610    0.0414   -0.0010    0.0241    0.0001    0.0442
          25    0.0000    0.0863    0.0067   -0.0004    0.0025    0.0009    0.0023
          26    0.0001    0.1251    0.0097   -0.0001    0.0036   -0.0007    0.0034
          27   -0.0001   -0.2471   -0.0205    0.0005   -0.0090    0.0000   -0.0117
          28   -0.0144    0.0306   -0.0417   -0.0576   -0.0474    0.1284   -0.1070
          29    0.0136   -0.0336    0.0407    0.0574    0.0480   -0.1322    0.1101
          30    0.0231   -0.0542    0.0678    0.0954    0.0796   -0.2200    0.1831
          31   -0.0178   -0.0424    0.0509   -0.0767    0.0620    0.1695    0.1400
          32    0.0085    0.0167   -0.0236    0.0346   -0.0274   -0.0732   -0.0606
          33   -0.0229   -0.0543    0.0652   -0.0985    0.0800    0.2204    0.1819
          34   -0.1715    0.0046   -0.0593    0.0531    0.1419    0.0129   -0.0332
          35    0.0193   -0.0006    0.0077   -0.0053   -0.0172   -0.0010    0.0037
          36   -0.2636    0.0065   -0.0868    0.0841    0.2151    0.0212   -0.0515
          37    0.1148   -0.0304    0.2331    0.2300    0.0777    0.1425   -0.1246
          38   -0.0069    0.0020   -0.0153   -0.0157   -0.0061   -0.0085    0.0077
          39   -0.0030    0.0019   -0.0095   -0.0107   -0.0052   -0.0045    0.0043
          40   -0.0792   -0.0021    0.0291    0.0228   -0.0660    0.0057    0.0152
          41    0.1543    0.0040   -0.0545   -0.0459    0.1260   -0.0120   -0.0296
          42    0.2647    0.0063   -0.0899   -0.0810    0.2138   -0.0217   -0.0513
          43    0.0467    0.0127   -0.0935    0.0997   -0.0331    0.0593    0.0515
          44   -0.1039   -0.0278    0.2050   -0.2170    0.0702   -0.1320   -0.1141
          45    0.0030    0.0019   -0.0092    0.0112   -0.0053    0.0047    0.0043


           MASS-WEIGHTED COORDINATE ANALYSIS (NORMAL COORDINATES)


   Root No.       1         2         3         4         5         6         7         8

                 1 A       2 A       3 A       4 A       5 A       6 A       7 A       8 A   

                 171.4     268.8     353.3     403.8     420.0     542.2     673.8     745.7
  
           1   -0.0410    0.0757   -0.1687    0.1595   -0.1331    0.1037   -0.1291    0.0907
           2   -0.0592   -0.0516   -0.2453   -0.1076   -0.1948   -0.0719   -0.1875    0.1271
           3    0.4554    0.0004   -0.2443    0.0007   -0.0318   -0.0001    0.1326    0.0228
           4   -0.0303    0.0836   -0.1640    0.1325   -0.1671    0.0930   -0.1064    0.1388
           5    0.1484    0.3202   -0.0293   -0.3220    0.2593    0.0226    0.1531   -0.2089
           6   -0.1070   -0.1930    0.1130   -0.1906   -0.1986   -0.2934    0.2071    0.0126
           7    0.1501   -0.2702    0.0333    0.3454    0.3033    0.0115    0.1814   -0.2267
           8    0.0248   -0.1911   -0.1632   -0.0080   -0.0656   -0.0956   -0.0454    0.0617
           9   -0.1075    0.1931    0.1129    0.1915   -0.1948    0.2941    0.2086    0.0143
          10    0.0251   -0.0279   -0.1764   -0.1684   -0.2727   -0.1269    0.2962   -0.0120
          11    0.2047   -0.1353    0.3679    0.0600   -0.1077   -0.2284   -0.1148   -0.0716
          12   -0.1756    0.1532   -0.1106   -0.2044    0.1204    0.0416    0.0369    0.0332
          13    0.1822    0.1156    0.4052   -0.1199   -0.0035    0.1742   -0.2101   -0.0528
          14    0.0958    0.0747   -0.0343    0.1387   -0.2910    0.2006    0.2382   -0.0167
          15   -0.1753   -0.1532   -0.1092    0.2048    0.1214   -0.0443    0.0356    0.0236
          16   -0.1454   -0.1647    0.0224   -0.3515    0.0950   -0.0528   -0.0322   -0.1076
          17   -0.2153   -0.2830    0.0538   -0.1284    0.1232    0.2790   -0.0685   -0.1601
          18    0.0271    0.1844    0.1877   -0.1228    0.1272   -0.2095   -0.2019    0.0523
          19   -0.1490    0.2060    0.0445   -0.0054    0.0806   -0.2800   -0.0543   -0.1158
          20   -0.2118    0.2541    0.0440    0.3733    0.1362   -0.0505   -0.0554   -0.1650
          21    0.0268   -0.1851    0.1870    0.1200    0.1287    0.2108   -0.2013    0.0457
          22   -0.1149    0.0306    0.0447   -0.0276   -0.0825   -0.0320    0.1178    0.0414
          23   -0.1665   -0.0211    0.0649    0.0196   -0.1193    0.0220    0.1715    0.0622
          24    0.2750    0.0002   -0.2011    0.0003    0.0521   -0.0000   -0.1817   -0.0151
          25    0.0969    0.1031   -0.1447    0.0642    0.0078    0.1450   -0.2012    0.0127
          26    0.1411   -0.0708   -0.2093   -0.0434    0.0096   -0.1000   -0.2919    0.0239
          27    0.2742    0.0002   -0.1998    0.0003    0.0494    0.0000   -0.1850   -0.0090
          28   -0.0530    0.0405    0.0010    0.0496   -0.0168    0.0384   -0.0753    0.0460
          29    0.1291    0.2615   -0.0138   -0.1349    0.2822    0.0021    0.2919    0.0971
          30   -0.1061   -0.1471    0.0620   -0.0213   -0.1633   -0.0749   -0.1163   -0.0875
          31    0.1395   -0.2313   -0.0133    0.1420    0.2710    0.0084    0.2979    0.0491
          32   -0.0036   -0.1311   -0.0042    0.0010    0.0842   -0.0378    0.0324    0.0652
          33   -0.1062    0.1478    0.0625    0.0220   -0.1628    0.0772   -0.1148   -0.0682
          34   -0.0923   -0.1345    0.0069   -0.1257    0.1509    0.0739   -0.0676    0.2337
          35   -0.1610   -0.1674   -0.0809   -0.1730    0.1980    0.2138    0.0205    0.3852
          36    0.0322    0.1032    0.0446   -0.0290   -0.0321   -0.1079   -0.0169   -0.1249
          37    0.0112   -0.0062   -0.0458   -0.0391   -0.0813   -0.0442    0.0858    0.0167
          38    0.1756   -0.0313    0.2436    0.1475   -0.0789   -0.2887    0.0228    0.3802
          39   -0.1043    0.0842   -0.1423   -0.0357    0.0196    0.1669   -0.0602   -0.1472
          40   -0.1172    0.1084   -0.0761    0.1170    0.1317   -0.1763    0.0412    0.2632
          41   -0.1427    0.1843   -0.0197    0.1774    0.2122   -0.1472   -0.0577    0.3395
          42    0.0320   -0.1031    0.0440    0.0289   -0.0315    0.1088   -0.0164   -0.1231
          43    0.1583    0.0271    0.2402   -0.1533   -0.0444    0.2539   -0.0103    0.3228
          44    0.0718    0.0173    0.0420   -0.0151   -0.1034    0.1430    0.0879    0.1433
          45   -0.1035   -0.0840   -0.1408    0.0367    0.0184   -0.1673   -0.0600   -0.1316


   Root No.       9        10        11        12        13        14        15        16

                 9 A      10 A      11 A      12 A      13 A      14 A      15 A      16 A   

                 761.1     843.5     848.8     943.2     962.3     985.7     996.6    1022.4
  
           1    0.0482   -0.0770   -0.0240    0.1934   -0.0575    0.0670   -0.0455    0.1622
           2   -0.0408    0.0540   -0.0311    0.2801    0.0406    0.0976    0.0283   -0.1126
           3   -0.0020   -0.0028    0.0920    0.4913    0.0013    0.0332    0.0005    0.0003
           4   -0.0037   -0.0088   -0.1089    0.0150   -0.0054   -0.1386    0.0029   -0.1108
           5   -0.2259   -0.0261    0.2560   -0.0847    0.1977    0.2889    0.0403    0.1406
           6   -0.0040    0.1809    0.0245   -0.1256   -0.0637   -0.0802   -0.0732    0.1000
           7    0.2289    0.0079    0.2815   -0.0832   -0.1792    0.3204   -0.0465   -0.1716
           8    0.0792    0.0180   -0.0089   -0.0156   -0.0648   -0.0273   -0.0150    0.0542
           9    0.0006   -0.1824    0.0133   -0.1264    0.0610   -0.0779    0.0742   -0.1006
          10   -0.1919    0.3251    0.0360   -0.2263    0.1359   -0.0127    0.0531   -0.2177
          11   -0.1512   -0.1371    0.1902    0.0082   -0.2157   -0.2801   -0.1920   -0.0961
          12    0.1015   -0.0242   -0.0842   -0.0919    0.0893    0.1093    0.0984    0.0990
          13    0.0762    0.2338    0.1757    0.0872    0.2462   -0.2558    0.2079    0.0129
          14    0.2330   -0.2606    0.0883   -0.2088   -0.0529   -0.1089    0.0209    0.2381
          15   -0.1026    0.0291   -0.0824   -0.0915   -0.0878    0.1077   -0.1018   -0.0995
          16    0.0890   -0.2359   -0.1685    0.0307   -0.1895    0.0534    0.1519    0.0397
          17    0.0692    0.0552   -0.2243    0.0420   -0.1560    0.0459    0.3265    0.0146
          18    0.1050   -0.3523   -0.0347    0.0572   -0.0376   -0.0052   -0.0685   -0.1920
          19   -0.0218   -0.1266   -0.1559    0.0287    0.0792    0.0138   -0.2514    0.0005
          20   -0.0917    0.2143   -0.2262    0.0439    0.2336    0.0519   -0.2600   -0.0422
          21   -0.1083    0.3533   -0.0175    0.0569    0.0372   -0.0033    0.0679    0.1926
          22   -0.0228    0.0747    0.0397    0.2747   -0.0535    0.0387   -0.1802    0.4277
          23    0.0102   -0.0543    0.0526    0.3983    0.0384    0.0603    0.1235   -0.2950
          24    0.0015    0.0012   -0.0353   -0.1592   -0.0004   -0.0202    0.0001   -0.0001
          25   -0.0620   -0.1961   -0.0574   -0.1475    0.1211    0.0081    0.1824    0.0383
          26    0.0432    0.1385   -0.0704   -0.2128   -0.0845    0.0099   -0.1273   -0.0272
          27    0.0012    0.0010   -0.0314   -0.1331   -0.0004   -0.0063   -0.0002   -0.0002
          28    0.0314   -0.0760   -0.0617   -0.1286   -0.0636   -0.1370   -0.0456    0.1360
          29    0.3277    0.2556   -0.2377   -0.0010   -0.2668   -0.2942   -0.0920    0.0016
          30   -0.2189   -0.1490    0.1788   -0.1299    0.1412    0.1478    0.0140    0.1514
          31   -0.3019   -0.2558   -0.2175    0.0428    0.2197   -0.2258    0.0753    0.0469
          32   -0.1516   -0.0126   -0.1445   -0.1214    0.1484   -0.2322    0.0829   -0.1277
          33    0.2259    0.1401    0.1886   -0.1287   -0.1369    0.1486   -0.0178   -0.1520
          34    0.0988   -0.0934    0.1594    0.0487    0.1117   -0.0389   -0.2842    0.1725
          35    0.1834   -0.0618    0.2916   -0.0916    0.2918   -0.0721   -0.2740   -0.2629
          36   -0.0052   -0.0925   -0.1209   -0.0182   -0.0952    0.0275    0.1665   -0.1808
          37   -0.0424    0.0999   -0.0028   -0.0741    0.0576    0.0027    0.0258   -0.0648
          38    0.2940    0.0218   -0.2167   -0.1035    0.3027    0.2486    0.1959    0.0611
          39   -0.1863    0.0156    0.1212    0.0002   -0.1245   -0.3036   -0.1309   -0.1251
          40   -0.1608    0.0123    0.2176   -0.1029   -0.2349   -0.0428    0.1579    0.3069
          41   -0.1882    0.0943    0.2573    0.0128   -0.2092   -0.0460    0.3641   -0.0677
          42    0.0167    0.0994   -0.1161   -0.0182    0.0956    0.0205   -0.1672    0.1808
          43   -0.3167    0.0251   -0.2009   -0.0702   -0.2603    0.2308   -0.1816   -0.0805
          44   -0.0763   -0.0970   -0.0841   -0.1058   -0.1604    0.0907   -0.0968    0.0390
          45    0.1987   -0.0215    0.1216    0.0002    0.1217   -0.3030    0.1443    0.1262


   Root No.      17        18        19        20        21        22        23        24

                17 A      18 A      19 A      20 A      21 A      22 A      23 A      24 A   

                1041.8    1063.3    1066.9    1094.9    1150.4    1174.3    1175.5    1215.3
  
           1    0.0203    0.2515    0.0136    0.1558    0.0591   -0.0194    0.0224    0.1413
           2    0.0297    0.3628   -0.0233   -0.1082    0.0858    0.0127    0.0327   -0.0974
           3   -0.1474   -0.1829    0.0053    0.0004   -0.1127    0.0016   -0.1393   -0.0001
           4   -0.0332   -0.2603   -0.1182   -0.1124   -0.0726    0.0418   -0.0605    0.1689
           5   -0.0845    0.0011   -0.0714   -0.0199   -0.0495    0.0456    0.0232    0.0548
           6    0.0058    0.3146    0.2302    0.0161   -0.0060   -0.0051    0.0643    0.0227
           7   -0.0674    0.0937    0.0214   -0.0213   -0.0207   -0.0287    0.0425    0.0084
           8   -0.0602   -0.2351    0.1484    0.1128   -0.0853   -0.0541   -0.0497   -0.1774
           9    0.0048    0.3024   -0.2466   -0.0174   -0.0060    0.0036    0.0644   -0.0226
          10    0.2674   -0.1850    0.0247    0.0370   -0.0004    0.0327    0.0401   -0.0007
          11   -0.0345    0.0709    0.0671   -0.0379    0.0521   -0.0197   -0.0135    0.0600
          12   -0.1562    0.0157    0.0035   -0.1169   -0.0193   -0.0012    0.0263    0.1577
          13   -0.1256    0.1309   -0.0614    0.0475    0.0487    0.0303   -0.0266   -0.0562
          14    0.2375   -0.1495   -0.0410   -0.0209    0.0181   -0.0243    0.0319   -0.0207
          15   -0.1571    0.0149   -0.0026    0.1172   -0.0193    0.0008    0.0264   -0.1576
          16    0.1071   -0.0734   -0.0604   -0.0671   -0.0275   -0.0699    0.0064   -0.1139
          17   -0.0600   -0.0411   -0.0671    0.0200    0.0479   -0.0186    0.0056    0.0800
          18    0.3414   -0.1829   -0.0450    0.0878    0.0165   -0.0337   -0.0232    0.1063
          19   -0.0949   -0.0109    0.0425   -0.0424    0.0549   -0.0075    0.0025   -0.1152
          20    0.0788   -0.0790    0.0842    0.0560   -0.0086    0.0718    0.0095    0.0781
          21    0.3420   -0.1801    0.0522   -0.0871    0.0167    0.0343   -0.0227   -0.1063
          22   -0.0379    0.0239   -0.2507    0.3887   -0.0106   -0.2734   -0.0410   -0.2227
          23   -0.0521    0.0467    0.1717   -0.2681   -0.0150    0.1895   -0.0524    0.1536
          24    0.0111    0.0169   -0.0005   -0.0001   -0.0009   -0.0002    0.0137    0.0000
          25    0.0442    0.2033    0.6454    0.1303    0.0381   -0.1746    0.0336   -0.1531
          26    0.0585    0.2572   -0.4556   -0.0907    0.0550    0.1195    0.0525    0.1057
          27    0.0040    0.0960   -0.0024   -0.0003   -0.0062    0.0000   -0.0019    0.0000
          28   -0.2114   -0.0379    0.0025   -0.1823   -0.3741    0.4338   -0.3151   -0.3157
          29   -0.0063    0.1765    0.1457   -0.0418   -0.0693    0.0896   -0.0447   -0.0969
          30   -0.1334    0.0125   -0.0074   -0.0680   -0.1766    0.2004   -0.1218   -0.1410
          31    0.0684    0.1715   -0.1452   -0.0262    0.0680    0.0687    0.0717   -0.0211
          32   -0.1998    0.0250   -0.0543    0.1847   -0.3750   -0.4304   -0.3195    0.3296
          33   -0.1332    0.0126    0.0080    0.0677   -0.1769   -0.1977   -0.1261    0.1407
          34    0.1646   -0.0031    0.0859   -0.2188   -0.3404   -0.0710    0.2916    0.2296
          35   -0.0170   -0.0269   -0.0225    0.1914    0.2951    0.0557   -0.2556   -0.1914
          36    0.0167   -0.0721   -0.0814    0.1653    0.2470    0.0240   -0.2165   -0.1571
          37    0.0538   -0.0748   -0.0015   -0.0186    0.0065   -0.0161    0.0394   -0.0244
          38   -0.2585   -0.1131   -0.0850   -0.2114    0.0803   -0.1954    0.1924   -0.1522
          39   -0.2943   -0.1769   -0.0381   -0.3453    0.1583   -0.3673    0.3375   -0.2706
          40   -0.0738   -0.0218    0.0532   -0.2559    0.3963   -0.0698   -0.3436    0.2611
          41    0.1490   -0.0152   -0.0727    0.1364   -0.2139    0.0427    0.1831   -0.1473
          42    0.0164   -0.0684    0.0851   -0.1648    0.2472   -0.0193   -0.2170    0.1577
          43   -0.2622   -0.0765    0.0861    0.1925    0.0727    0.1739    0.1708    0.1339
          44   -0.0423   -0.1089    0.0381    0.0933    0.0346    0.0824    0.1074    0.0770
          45   -0.2928   -0.1718    0.0472    0.3449    0.1575    0.3593    0.3454    0.2700


   Root No.      25        26        27        28        29        30        31        32

                25 A      26 A      27 A      28 A      29 A      30 A      31 A      32 A   

                1335.8    1362.4    1404.0    1473.0    1845.2    1861.2    1868.4    2938.9
  
           1   -0.0014    0.5117    0.2408    0.3293    0.0349    0.0479    0.0769    0.0221
           2   -0.0009   -0.3529    0.3494   -0.2272    0.0506    0.0694   -0.0531    0.0320
           3   -0.0358   -0.0001    0.0183    0.0000    0.0228    0.0244    0.0000   -0.2994
           4    0.2986   -0.1349   -0.1929   -0.3160   -0.2131   -0.2536   -0.3120   -0.0022
           5    0.0195    0.1232   -0.0040   -0.0057   -0.1050   -0.1570   -0.1754    0.0067
           6    0.0382    0.1299    0.0137   -0.0532   -0.1873   -0.2460   -0.2986    0.0102
           7   -0.0872   -0.1631    0.0648   -0.1068   -0.0226   -0.0571    0.0534    0.0071
           8    0.2861    0.0829   -0.1819    0.2976   -0.2363   -0.2930    0.3541    0.0003
           9    0.0382   -0.1297    0.0139    0.0532   -0.1870   -0.2460    0.2984    0.0102
          10   -0.1232   -0.1461    0.0312    0.1799    0.1766    0.1241    0.1868    0.0007
          11    0.1443    0.0127   -0.0889   -0.1471    0.0752    0.2177    0.2383   -0.0005
          12    0.2530    0.0077   -0.1638   -0.2219    0.1569    0.3542    0.4010   -0.0014
          13    0.1788   -0.0634   -0.0942    0.2013    0.0077    0.1597   -0.1566   -0.0007
          14   -0.0641    0.1319   -0.0026   -0.1160    0.1916    0.1935   -0.2594    0.0004
          15    0.2529   -0.0074   -0.1637    0.2219    0.1567    0.3541   -0.4008   -0.0014
          16   -0.0940    0.1195    0.0484   -0.1405   -0.4614    0.2871    0.0193   -0.0004
          17    0.0070   -0.1435   -0.0092    0.1917    0.3280   -0.2343   -0.0634    0.0006
          18   -0.1546   -0.2259    0.0745    0.2992    0.0682   -0.1132   -0.0945    0.0000
          19    0.0397    0.1767   -0.0259   -0.2291    0.4703   -0.3209    0.0657    0.0006
          20   -0.0853   -0.0610    0.0421    0.0634   -0.3150    0.1851    0.0048   -0.0002
          21   -0.1550    0.2257    0.0744   -0.2993    0.0683   -0.1132    0.0944    0.0000
          22   -0.1894   -0.2803   -0.2280   -0.0714    0.0118    0.0156    0.0420    0.1842
          23   -0.2751    0.1928   -0.3304    0.0493    0.0170    0.0226   -0.0290    0.2670
          24    0.2118    0.0003    0.3588    0.0000    0.0024    0.0017    0.0000    0.3897
          25   -0.1718   -0.1644   -0.2373   -0.0676   -0.0055   -0.0074   -0.0070   -0.2711
          26   -0.2496    0.1130   -0.3442    0.0466   -0.0079   -0.0107    0.0048   -0.3931
          27   -0.2049   -0.0002   -0.3364    0.0000   -0.0101   -0.0138   -0.0000    0.6482
          28   -0.1992   -0.1283    0.1205    0.0842    0.0505    0.0456    0.0502    0.0132
          29   -0.0676   -0.0078    0.0575    0.0301   -0.0056   -0.0281   -0.0285   -0.0179
          30   -0.1137    0.0187    0.0762    0.0664   -0.0204   -0.0343   -0.0464   -0.0341
          31    0.0073   -0.0382    0.0112    0.0016   -0.0230   -0.0424    0.0444   -0.0214
          32   -0.2106    0.1224    0.1330   -0.0895    0.0452    0.0327   -0.0368    0.0060
          33   -0.1135   -0.0188    0.0761   -0.0663   -0.0204   -0.0344    0.0464   -0.0341
          34    0.0034   -0.1611   -0.0049    0.1416   -0.0025    0.0193   -0.0049    0.0009
          35   -0.0352    0.1199    0.0215   -0.0956   -0.0194   -0.0119   -0.0076   -0.0001
          36   -0.0763    0.0724    0.0402   -0.0400   -0.1027    0.0299   -0.0190    0.0014
          37   -0.0613   -0.0438    0.0210    0.0700    0.0564    0.0443    0.0622    0.0000
          38   -0.1133    0.0385    0.0576    0.0429   -0.0259    0.0031   -0.0162    0.0010
          39   -0.2227    0.0737    0.1015    0.1041   -0.0430   -0.0143   -0.0345    0.0001
          40   -0.0338   -0.1693    0.0219    0.1396   -0.0173   -0.0179    0.0053   -0.0004
          41   -0.0094    0.1083    0.0029   -0.0986   -0.0093    0.0139    0.0073    0.0009
          42   -0.0762   -0.0727    0.0403    0.0401   -0.1026    0.0299    0.0191    0.0014
          43   -0.0845   -0.0517    0.0466   -0.0155   -0.0441   -0.0130    0.0373    0.0009
          44   -0.0978    0.0271    0.0402   -0.0808    0.0435    0.0425   -0.0524    0.0004
          45   -0.2223   -0.0741    0.1014   -0.1040   -0.0430   -0.0144    0.0346    0.0001


   Root No.      33        34        35        36        37        38        39

                33 A      34 A      35 A      36 A      37 A      38 A      39 A   

                3020.9    3024.8    3029.1    3032.3    3042.7    3055.2    3058.0
  
           1    0.0004   -0.1186   -0.0161    0.0015   -0.0084    0.0006   -0.0161
           2   -0.0004   -0.1720   -0.0233   -0.0002   -0.0122   -0.0004   -0.0233
           3   -0.0000   -0.0615   -0.0146    0.0003   -0.0100   -0.0001   -0.0247
           4    0.0095   -0.0177    0.0339    0.0418    0.0311   -0.0665    0.0655
           5   -0.0078    0.0177   -0.0271   -0.0371   -0.0321    0.0885   -0.0868
           6   -0.0123    0.0293   -0.0441   -0.0617   -0.0538    0.1478   -0.1427
           7    0.0106    0.0230   -0.0360    0.0512   -0.0413   -0.1066   -0.1038
           8   -0.0061   -0.0103    0.0213   -0.0268    0.0177    0.0307    0.0301
           9    0.0123    0.0294   -0.0424    0.0638   -0.0542   -0.1481   -0.1418
          10   -0.0691    0.0172   -0.1729   -0.1627   -0.0535   -0.0979    0.0995
          11    0.0034   -0.0012    0.0084    0.0094    0.0065   -0.0024    0.0015
          12    0.0002   -0.0006    0.0016    0.0040    0.0054   -0.0105    0.0100
          13   -0.0274   -0.0073    0.0667   -0.0688    0.0249   -0.0329   -0.0340
          14    0.0629    0.0157   -0.1531    0.1542   -0.0476    0.0936    0.0938
          15   -0.0002   -0.0006    0.0016   -0.0041    0.0055    0.0106    0.0099
          16    0.1006   -0.0024    0.0498   -0.0359   -0.1165   -0.0076    0.0292
          17   -0.0105    0.0000   -0.0108    0.0031    0.0244   -0.0004   -0.0046
          18    0.1548   -0.0038    0.0629   -0.0581   -0.1473   -0.0140    0.0385
          19    0.0458    0.0009   -0.0284   -0.0148    0.0639   -0.0024   -0.0146
          20   -0.0909   -0.0022    0.0440    0.0311   -0.0998    0.0075    0.0256
          21   -0.1554   -0.0037    0.0652    0.0560   -0.1464    0.0143    0.0384
          22    0.0008    0.2550    0.0421    0.0021    0.0236   -0.0060    0.0461
          23   -0.0003    0.3696    0.0609   -0.0035    0.0342    0.0042    0.0667
          24    0.0003    0.6557    0.1034   -0.0023    0.0561    0.0001    0.1070
          25    0.0000    0.1568    0.0167   -0.0009    0.0058    0.0019    0.0056
          26    0.0001    0.2273    0.0242   -0.0001    0.0084   -0.0014    0.0082
          27   -0.0002   -0.4489   -0.0514    0.0012   -0.0210    0.0000   -0.0283
          28   -0.0289    0.0555   -0.1043   -0.1374   -0.1105    0.2689   -0.2589
          29    0.0274   -0.0610    0.1017    0.1369    0.1119   -0.2771    0.2664
          30    0.0464   -0.0984    0.1696    0.2275    0.1856   -0.4609    0.4429
          31   -0.0357   -0.0770    0.1272   -0.1829    0.1447    0.3552    0.3387
          32    0.0172    0.0303   -0.0591    0.0825   -0.0639   -0.1533   -0.1465
          33   -0.0461   -0.0987    0.1631   -0.2350    0.1866    0.4617    0.4399
          34   -0.3451    0.0084   -0.1482    0.1266    0.3311    0.0270   -0.0803
          35    0.0388   -0.0011    0.0192   -0.0126   -0.0401   -0.0022    0.0091
          36   -0.5305    0.0118   -0.2171    0.2005    0.5019    0.0443   -0.1245
          37    0.2309   -0.0552    0.5831    0.5485    0.1812    0.2985   -0.3014
          38   -0.0139    0.0037   -0.0384   -0.0375   -0.0142   -0.0179    0.0185
          39   -0.0061    0.0035   -0.0238   -0.0256   -0.0122   -0.0095    0.0103
          40   -0.1594   -0.0039    0.0728    0.0543   -0.1540    0.0119    0.0368
          41    0.3104    0.0072   -0.1364   -0.1096    0.2939   -0.0251   -0.0717
          42    0.5327    0.0114   -0.2249   -0.1931    0.4988   -0.0454   -0.1241
          43    0.0940    0.0231   -0.2340    0.2377   -0.0772    0.1243    0.1245
          44   -0.2092   -0.0505    0.5128   -0.5175    0.1637   -0.2765   -0.2760
          45    0.0061    0.0035   -0.0231    0.0267   -0.0123    0.0098    0.0105


          DESCRIPTION OF VIBRATIONS


 VIBRATION          1    1A           ATOM PAIR      ENERGY CONTRIBUTION    RADIAL
 FREQUENCY           171.44         C  1 -- C  3         +20.8% (304.7%)      0.0%
 TRANSITION DIPOLE   0.0519         C  1 -- C  2         +20.8% (304.6%)      0.0%
 TRAVEL (Ang.)       0.6827         C  1 -- H  8         +18.7% (288.7%)     99.9%
 REDUCED MASS        0.8439         C  1 -- H  9         +16.9% (274.5%)     91.7%
 EFFECTIVE MASS     79.1036
 FORCE CONSTANT      0.0146

 VIBRATION          2    2A           ATOM PAIR      ENERGY CONTRIBUTION    RADIAL
 FREQUENCY           268.83         C  6 -- C  7         +19.6% (142.0%)      0.0%
 TRANSITION DIPOLE   0.0093         C  3 -- C  5         +12.8% (114.5%)      0.0%
 TRAVEL (Ang.)       0.4853         C  2 -- C  4         +12.7% (114.4%)      0.0%
 REDUCED MASS        1.0650         C  1 -- C  3          +8.6% ( 94.2%)      0.0%
 EFFECTIVE MASS     25.7424
 FORCE CONSTANT      0.0453

 VIBRATION          3    3A           ATOM PAIR      ENERGY CONTRIBUTION    RADIAL
 FREQUENCY           353.34         C  1 -- H  9         +13.1% (136.7%)      2.6%
 TRANSITION DIPOLE   0.0210         C  1 -- C  3         +11.7% (129.1%)      0.0%
 TRAVEL (Ang.)       0.4114         C  1 -- C  2         +11.6% (129.0%)      0.0%
 REDUCED MASS        1.1275         C  1 -- H  8          +9.2% (114.9%)     48.7%
 EFFECTIVE MASS     24.6621
 FORCE CONSTANT      0.0829

 VIBRATION          4    4A           ATOM PAIR      ENERGY CONTRIBUTION    RADIAL
 FREQUENCY           403.78         C  5 -- C  7         +10.6% (126.4%)      1.8%
 TRANSITION DIPOLE   0.0789         C  4 -- C  6         +10.6% (126.3%)      1.8%
 TRAVEL (Ang.)       0.3556         C  6 -- C  7         +10.6% (126.1%)      0.0%
 REDUCED MASS        1.3207         C  1 -- C  2          +9.0% (116.3%)      0.9%
 EFFECTIVE MASS     24.8090
 FORCE CONSTANT      0.1269

 VIBRATION          5    5A           ATOM PAIR      ENERGY CONTRIBUTION    RADIAL
 FREQUENCY           420.04         C  2 -- C  4         +11.0% ( 96.8%)      0.1%
 TRANSITION DIPOLE   0.2719         C  3 -- C  5         +11.0% ( 96.7%)      0.1%
 TRAVEL (Ang.)       0.4522         C  4 -- C  6          +9.6% ( 90.5%)      0.1%
 REDUCED MASS        0.7850         C  5 -- C  7          +9.6% ( 90.5%)      0.1%
 EFFECTIVE MASS     17.7426
 FORCE CONSTANT      0.0816

 VIBRATION          6    6A           ATOM PAIR      ENERGY CONTRIBUTION    RADIAL
 FREQUENCY           542.25         C  5 -- C  7         +12.8% ( 84.1%)      0.2%
 TRANSITION DIPOLE   0.0837         C  4 -- C  6         +12.7% ( 83.7%)      0.2%
 TRAVEL (Ang.)       0.4060         C  6 -- C  7         +10.4% ( 75.8%)      0.0%
 REDUCED MASS        0.7545         C  3 -- C  5          +8.0% ( 66.7%)      0.1%
 EFFECTIVE MASS     13.8902
 FORCE CONSTANT      0.1307

 VIBRATION          7    7A           ATOM PAIR      ENERGY CONTRIBUTION    RADIAL
 FREQUENCY           673.80         C  3 -- C  5         +10.1% ( 71.0%)      0.1%
 TRANSITION DIPOLE   0.3116         C  2 -- C  4         +10.1% ( 70.8%)      0.1%
 TRAVEL (Ang.)       0.4225         C  1 -- H  8          +9.3% ( 68.2%)      0.1%
 REDUCED MASS        0.5607         C  1 -- H  9          +8.7% ( 65.8%)     27.6%
 EFFECTIVE MASS     11.3036
 FORCE CONSTANT      0.1500

 VIBRATION          8    8A           ATOM PAIR      ENERGY CONTRIBUTION    RADIAL
 FREQUENCY           745.67         C  6 -- H 12         +18.9% ( 59.1%)      0.0%
 TRANSITION DIPOLE   0.7579         C  7 -- H 14         +17.9% ( 57.5%)      0.0%
 TRAVEL (Ang.)       0.5776         C  4 -- H 13         +11.6% ( 46.3%)      0.0%
 REDUCED MASS        0.2710         C  5 -- H 15          +9.6% ( 42.2%)      0.0%
 EFFECTIVE MASS      3.5244
 FORCE CONSTANT      0.0888

 VIBRATION          9    9A           ATOM PAIR      ENERGY CONTRIBUTION    RADIAL
 FREQUENCY           761.10         C  3 -- H 11         +14.6% ( 55.6%)      1.7%
 TRANSITION DIPOLE   0.3704         C  5 -- H 15         +13.8% ( 54.1%)      5.0%
 TRAVEL (Ang.)       0.5453         C  2 -- H 10         +13.6% ( 53.6%)      1.6%
 REDUCED MASS        0.2980         C  4 -- H 13         +12.3% ( 51.2%)      5.7%
 EFFECTIVE MASS      4.6274
 FORCE CONSTANT      0.1017

 VIBRATION         10   10A           ATOM PAIR      ENERGY CONTRIBUTION    RADIAL
 FREQUENCY           843.52         C  6 -- C  7         +17.6% ( 82.1%)      0.0%
 TRANSITION DIPOLE   0.1607         C  5 -- C  7         +16.3% ( 79.0%)      0.3%
 TRAVEL (Ang.)       0.2539         C  4 -- C  6         +16.2% ( 78.6%)      0.4%
 REDUCED MASS        1.2399         C  3 -- C  5          +7.0% ( 51.6%)      0.1%
 EFFECTIVE MASS     12.1644
 FORCE CONSTANT      0.5198

 VIBRATION         11   11A           ATOM PAIR      ENERGY CONTRIBUTION    RADIAL
 FREQUENCY           848.80         C  6 -- H 12         +12.7% ( 47.2%)      1.5%
 TRANSITION DIPOLE   0.1795         C  7 -- H 14         +12.5% ( 46.9%)      0.9%
 TRAVEL (Ang.)       0.4436         C  3 -- H 11         +11.2% ( 44.4%)      5.3%
 REDUCED MASS        0.4038         C  2 -- H 10         +10.5% ( 42.9%)      6.3%
 EFFECTIVE MASS      4.9998
 FORCE CONSTANT      0.1714

 VIBRATION         12   12A           ATOM PAIR      ENERGY CONTRIBUTION    RADIAL
 FREQUENCY           943.24         C  1 -- H  9         +21.1% ( 83.7%)      2.8%
 TRANSITION DIPOLE   0.0546         C  1 -- H  8         +18.0% ( 77.2%)     41.1%
 TRAVEL (Ang.)       0.2045         C  1 -- C  3         +17.6% ( 76.5%)      5.8%
 REDUCED MASS        1.7102         C  1 -- C  2         +17.6% ( 76.5%)      5.8%
 EFFECTIVE MASS      8.7426
 FORCE CONSTANT      0.8965

 VIBRATION         13   13A           ATOM PAIR      ENERGY CONTRIBUTION    RADIAL
 FREQUENCY           962.27         C  4 -- H 13         +11.5% ( 39.8%)      3.3%
 TRANSITION DIPOLE   0.0170         C  5 -- H 15         +11.3% ( 39.5%)      3.4%
 TRAVEL (Ang.)       0.4652         C  7 -- H 14         +10.6% ( 38.4%)      2.6%
 REDUCED MASS        0.3238         C  6 -- H 12         +10.5% ( 38.1%)      2.7%
 EFFECTIVE MASS      4.3469
 FORCE CONSTANT      0.1766

 VIBRATION         14   14A           ATOM PAIR      ENERGY CONTRIBUTION    RADIAL
 FREQUENCY           985.72         C  4 -- H 13         +15.0% ( 45.4%)      0.0%
 TRANSITION DIPOLE   0.1207         C  5 -- H 15         +14.9% ( 45.3%)      0.0%
 TRAVEL (Ang.)       0.3483         C  2 -- H 10         +14.0% ( 43.8%)      2.3%
 REDUCED MASS        0.5637         C  3 -- H 11         +14.0% ( 43.8%)      2.4%
 EFFECTIVE MASS      4.9867
 FORCE CONSTANT      0.3227

 VIBRATION         15   15A           ATOM PAIR      ENERGY CONTRIBUTION    RADIAL
 FREQUENCY           996.59         C  7 -- H 14         +20.6% ( 50.6%)      0.0%
 TRANSITION DIPOLE   0.0431         C  6 -- H 12         +20.4% ( 50.4%)      0.0%
 TRAVEL (Ang.)       0.3405         C  6 -- C  7         +10.6% ( 36.4%)      0.0%
 REDUCED MASS        0.5836         C  5 -- C  7          +7.8% ( 31.2%)      2.7%
 EFFECTIVE MASS      4.5148
 FORCE CONSTANT      0.3415

 VIBRATION         16   16A           ATOM PAIR      ENERGY CONTRIBUTION    RADIAL
 FREQUENCY          1022.45         C  1 -- H  8         +15.8% ( 55.0%)      0.0%
 TRANSITION DIPOLE   0.0192         C  7 -- H 14          +8.9% ( 41.2%)     10.7%
 TRAVEL (Ang.)       0.4563         C  6 -- H 12          +8.9% ( 41.2%)     10.6%
 REDUCED MASS        0.3168         C  5 -- C  7          +7.8% ( 38.6%)     44.0%
 EFFECTIVE MASS      5.9442
 FORCE CONSTANT      0.1951

 VIBRATION         17   17A           ATOM PAIR      ENERGY CONTRIBUTION    RADIAL
 FREQUENCY          1041.80         C  5 -- C  7         +15.6% ( 59.7%)     69.5%
 TRANSITION DIPOLE   0.0584         C  4 -- C  6         +15.6% ( 59.6%)     69.9%
 TRAVEL (Ang.)       0.3018         C  6 -- C  7         +14.8% ( 58.2%)    100.0%
 REDUCED MASS        0.7106         C  4 -- H 13          +9.8% ( 47.4%)     32.5%
 EFFECTIVE MASS      8.3510
 FORCE CONSTANT      0.4544

 VIBRATION         18   18A           ATOM PAIR      ENERGY CONTRIBUTION    RADIAL
 FREQUENCY          1063.29         C  1 -- C  2         +19.0% ( 71.4%)     40.9%
 TRANSITION DIPOLE   0.2337         C  1 -- C  3         +18.4% ( 70.4%)     40.9%
 TRAVEL (Ang.)       0.2170         C  1 -- H  8          +8.3% ( 47.3%)      3.3%
 REDUCED MASS        1.3467         C  2 -- C  4          +8.2% ( 46.9%)     20.7%
 EFFECTIVE MASS     10.7831
 FORCE CONSTANT      0.8970

 VIBRATION         19   19A           ATOM PAIR      ENERGY CONTRIBUTION    RADIAL
 FREQUENCY          1066.91         C  1 -- H  9         +48.0% ( 76.0%)      0.0%
 TRANSITION DIPOLE   0.0715         C  1 -- H  8          +8.6% ( 32.1%)      0.0%
 TRAVEL (Ang.)       0.3383         C  1 -- C  3          +6.2% ( 27.3%)     26.8%
 REDUCED MASS        0.5522         C  3 -- H 11          +5.8% ( 26.5%)     16.4%
 EFFECTIVE MASS      2.9443
 FORCE CONSTANT      0.3703

 VIBRATION         20   20A           ATOM PAIR      ENERGY CONTRIBUTION    RADIAL
 FREQUENCY          1094.92         C  1 -- H  8         +17.0% ( 46.8%)      0.0%
 TRANSITION DIPOLE   0.0040         C  5 -- H 15         +13.5% ( 41.7%)      1.4%
 TRAVEL (Ang.)       0.6135         C  4 -- H 13         +13.4% ( 41.6%)      1.5%
 REDUCED MASS        0.1636         C  6 -- H 12          +9.2% ( 34.5%)      1.5%
 EFFECTIVE MASS      2.8227
 FORCE CONSTANT      0.1156

 VIBRATION         21   21A           ATOM PAIR      ENERGY CONTRIBUTION    RADIAL
 FREQUENCY          1150.38         C  7 -- H 14         +23.8% ( 49.9%)      0.0%
 TRANSITION DIPOLE   0.0049         C  6 -- H 12         +23.8% ( 49.9%)      0.0%
 TRAVEL (Ang.)       0.5238         C  3 -- H 11         +16.2% ( 41.2%)      0.0%
 REDUCED MASS        0.2137         C  2 -- H 10         +16.1% ( 41.1%)      0.0%
 EFFECTIVE MASS      1.6716
 FORCE CONSTANT      0.1666

 VIBRATION         22   22A           ATOM PAIR      ENERGY CONTRIBUTION    RADIAL
 FREQUENCY          1174.33         C  2 -- H 10         +23.4% ( 46.7%)      0.0%
 TRANSITION DIPOLE   0.0102         C  3 -- H 11         +22.7% ( 46.0%)      0.0%
 TRAVEL (Ang.)       0.5599         C  4 -- H 13         +17.1% ( 39.9%)      0.3%
 REDUCED MASS        0.1832         C  5 -- H 15         +16.4% ( 39.1%)      0.3%
 EFFECTIVE MASS      1.2430         C  1 -- H  8         +10.2% ( 30.8%)      0.0%
 FORCE CONSTANT      0.1488

 VIBRATION         23   23A           ATOM PAIR      ENERGY CONTRIBUTION    RADIAL
 FREQUENCY          1175.53         C  7 -- H 14         +18.3% ( 42.7%)      0.1%
 TRANSITION DIPOLE   0.0230         C  6 -- H 12         +18.2% ( 42.6%)      0.1%
 TRAVEL (Ang.)       0.5909         C  5 -- H 15         +14.7% ( 38.3%)      0.5%
 REDUCED MASS        0.1643         C  4 -- H 13         +14.0% ( 37.4%)      0.5%
 EFFECTIVE MASS      1.5007         C  3 -- H 11         +11.7% ( 34.2%)      3.3%
 FORCE CONSTANT      0.1337         C  2 -- H 10         +11.1% ( 33.2%)      3.5%

 VIBRATION         24   24A           ATOM PAIR      ENERGY CONTRIBUTION    RADIAL
 FREQUENCY          1215.35         C  2 -- H 10         +12.2% ( 41.8%)      0.2%
 TRANSITION DIPOLE   0.0289         C  3 -- H 11         +12.2% ( 41.8%)      0.2%
 TRAVEL (Ang.)       0.5843         C  7 -- H 14         +11.3% ( 40.2%)      0.1%
 REDUCED MASS        0.1625         C  6 -- H 12         +11.2% ( 40.1%)      0.1%
 EFFECTIVE MASS      2.3629
 FORCE CONSTANT      0.1415

 VIBRATION         25   25A           ATOM PAIR      ENERGY CONTRIBUTION    RADIAL
 FREQUENCY          1335.82         C  4 -- H 13          +9.6% ( 39.5%)      3.2%
 TRANSITION DIPOLE   0.1495         C  5 -- H 15          +9.6% ( 39.5%)      3.2%
 TRAVEL (Ang.)       0.3106         C  5 -- C  7          +9.0% ( 38.2%)     86.1%
 REDUCED MASS        0.5232         C  4 -- C  6          +9.0% ( 38.2%)     86.1%
 EFFECTIVE MASS      5.6711
 FORCE CONSTANT      0.5501

 VIBRATION         26   26A           ATOM PAIR      ENERGY CONTRIBUTION    RADIAL
 FREQUENCY          1362.37         C  1 -- H  8         +18.0% ( 63.5%)      0.0%
 TRANSITION DIPOLE   0.0904         C  1 -- C  3         +15.8% ( 59.6%)     63.2%
 TRAVEL (Ang.)       0.1549         C  1 -- C  2         +15.8% ( 59.6%)     63.2%
 REDUCED MASS        2.0625         C  1 -- H  9         +14.3% ( 56.6%)      0.0%
 EFFECTIVE MASS      8.4949
 FORCE CONSTANT      2.2554

 VIBRATION         27   27A           ATOM PAIR      ENERGY CONTRIBUTION    RADIAL
 FREQUENCY          1403.96         C  1 -- H  9         +23.3% ( 56.9%)      5.6%
 TRANSITION DIPOLE   0.0594         C  1 -- H  8         +22.6% ( 56.0%)      6.9%
 TRAVEL (Ang.)       0.2769         C  1 -- C  3         +12.6% ( 41.9%)     60.2%
 REDUCED MASS        0.6265         C  1 -- C  2         +12.6% ( 41.9%)     60.1%
 EFFECTIVE MASS      4.5516
 FORCE CONSTANT      0.7275

 VIBRATION         28   28A           ATOM PAIR      ENERGY CONTRIBUTION    RADIAL
 FREQUENCY          1473.00         C  5 -- C  7         +11.9% ( 52.3%)     98.9%
 TRANSITION DIPOLE   0.0768         C  4 -- C  6         +11.9% ( 52.2%)     98.9%
 TRAVEL (Ang.)       0.1853         C  1 -- C  3         +10.1% ( 48.2%)     88.9%
 REDUCED MASS        1.3327         C  1 -- C  2         +10.1% ( 48.2%)     88.9%
 EFFECTIVE MASS     10.4648
 FORCE CONSTANT      1.7037

 VIBRATION         29   29A           ATOM PAIR      ENERGY CONTRIBUTION    RADIAL
 FREQUENCY          1845.20         C  6 -- C  7         +30.7% ( 81.2%)    100.0%
 TRANSITION DIPOLE   0.1627         C  4 -- C  6         +10.9% ( 48.3%)     17.3%
 TRAVEL (Ang.)       0.1136         C  5 -- C  7         +10.9% ( 48.3%)     17.3%
 REDUCED MASS        2.8308         C  6 -- H 12          +9.4% ( 44.8%)      4.8%
 EFFECTIVE MASS     11.7473
 FORCE CONSTANT      5.6787

 VIBRATION         30   30A           ATOM PAIR      ENERGY CONTRIBUTION    RADIAL
 FREQUENCY          1861.18         C  3 -- C  5         +15.0% ( 57.8%)     99.0%
 TRANSITION DIPOLE   0.3582         C  2 -- C  4         +15.0% ( 57.7%)     99.0%
 TRAVEL (Ang.)       0.1370         C  6 -- C  7         +12.8% ( 53.3%)    100.0%
 REDUCED MASS        1.9311         C  5 -- C  7         +10.9% ( 49.1%)     94.6%
 EFFECTIVE MASS     11.9468         C  4 -- C  6         +10.9% ( 49.1%)     94.7%
 FORCE CONSTANT      3.9413

 VIBRATION         31   31A           ATOM PAIR      ENERGY CONTRIBUTION    RADIAL
 FREQUENCY          1868.39         C  3 -- C  5         +21.6% ( 68.3%)     99.9%
 TRANSITION DIPOLE   0.1090         C  2 -- C  4         +21.6% ( 68.3%)     99.9%
 TRAVEL (Ang.)       0.1162         C  4 -- C  6          +8.2% ( 42.1%)     63.0%
 REDUCED MASS        2.6707         C  5 -- C  7          +8.2% ( 42.1%)     62.9%
 EFFECTIVE MASS     11.8783
 FORCE CONSTANT      5.4930

 VIBRATION         32   32A           ATOM PAIR      ENERGY CONTRIBUTION    RADIAL
 FREQUENCY          2938.89         C  1 -- H  9         +68.0% ( 85.5%)     98.1%
 TRANSITION DIPOLE   0.0473         C  1 -- H  8         +29.3% ( 56.1%)     93.1%
 TRAVEL (Ang.)       0.1972         C  1 -- C  3          +1.1% ( 11.1%)      0.6%
 REDUCED MASS        0.5898         C  1 -- C  2          +1.1% ( 11.1%)      0.6%
 EFFECTIVE MASS      1.5355
 FORCE CONSTANT      3.0014

 VIBRATION         33   33A           ATOM PAIR      ENERGY CONTRIBUTION    RADIAL
 FREQUENCY          3020.88         C  7 -- H 14         +42.9% ( 66.6%)    100.0%
 TRANSITION DIPOLE   0.1519         C  6 -- H 12         +42.6% ( 66.3%)    100.0%
 TRAVEL (Ang.)       0.2479         C  4 -- H 13          +5.7% ( 24.3%)    100.0%
 REDUCED MASS        0.3633         C  5 -- H 15          +5.6% ( 24.1%)    100.0%
 EFFECTIVE MASS      1.4716
 FORCE CONSTANT      1.9532

 VIBRATION         34   34A           ATOM PAIR      ENERGY CONTRIBUTION    RADIAL
 FREQUENCY          3024.80         C  1 -- H  8         +66.4% ( 80.6%)     99.3%
 TRANSITION DIPOLE   0.0403         C  1 -- H  9         +27.7% ( 52.1%)     93.4%
 TRAVEL (Ang.)       0.2096         C  3 -- H 11          +1.9% ( 13.6%)    100.0%
 REDUCED MASS        0.5074         C  2 -- H 10          +1.9% ( 13.5%)    100.0%
 EFFECTIVE MASS      1.3029
 FORCE CONSTANT      2.7353

 VIBRATION         35   35A           ATOM PAIR      ENERGY CONTRIBUTION    RADIAL
 FREQUENCY          3029.08         C  4 -- H 13         +36.2% ( 61.1%)    100.0%
 TRANSITION DIPOLE   0.1963         C  5 -- H 15         +33.7% ( 58.9%)    100.0%
 TRAVEL (Ang.)       0.2943         C  7 -- H 14          +7.9% ( 28.6%)     99.9%
 REDUCED MASS        0.2570         C  6 -- H 12          +7.4% ( 27.6%)     99.8%
 EFFECTIVE MASS      1.4815
 FORCE CONSTANT      1.3893

 VIBRATION         36   36A           ATOM PAIR      ENERGY CONTRIBUTION    RADIAL
 FREQUENCY          3032.30         C  5 -- H 15         +34.4% ( 59.5%)    100.0%
 TRANSITION DIPOLE   0.2747         C  4 -- H 13         +32.1% ( 57.5%)    100.0%
 TRAVEL (Ang.)       0.3030         C  3 -- H 11         +10.1% ( 32.2%)     99.9%
 REDUCED MASS        0.2422         C  2 -- H 10          +9.5% ( 31.2%)     99.9%
 EFFECTIVE MASS      1.4651
 FORCE CONSTANT      1.3120

 VIBRATION         37   37A           ATOM PAIR      ENERGY CONTRIBUTION    RADIAL
 FREQUENCY          3042.69         C  6 -- H 12         +38.6% ( 62.9%)     99.9%
 TRANSITION DIPOLE   0.4615         C  7 -- H 14         +38.1% ( 62.5%)     99.9%
 TRAVEL (Ang.)       0.2702         C  3 -- H 11          +6.3% ( 25.5%)    100.0%
 REDUCED MASS        0.3035         C  2 -- H 10          +6.3% ( 25.4%)    100.0%
 EFFECTIVE MASS      1.5459
 FORCE CONSTANT      1.6555

 VIBRATION         38   38A           ATOM PAIR      ENERGY CONTRIBUTION    RADIAL
 FREQUENCY          3055.24         C  3 -- H 11         +38.5% ( 62.9%)    100.0%
 TRANSITION DIPOLE   0.3806         C  2 -- H 10         +38.3% ( 62.8%)    100.0%
 TRAVEL (Ang.)       0.2662         C  5 -- H 15          +9.8% ( 31.7%)     99.8%
 REDUCED MASS        0.3114         C  4 -- H 13          +9.5% ( 31.3%)     99.8%
 EFFECTIVE MASS      1.5573
 FORCE CONSTANT      1.7127

 VIBRATION         39   39A           ATOM PAIR      ENERGY CONTRIBUTION    RADIAL
 FREQUENCY          3058.05         C  2 -- H 10         +35.5% ( 60.4%)    100.0%
 TRANSITION DIPOLE   0.1970         C  3 -- H 11         +35.1% ( 60.0%)    100.0%
 TRAVEL (Ang.)       0.2871         C  5 -- H 15          +9.8% ( 31.7%)     99.8%
 REDUCED MASS        0.2675         C  4 -- H 13          +9.7% ( 31.6%)     99.8%
 EFFECTIVE MASS      1.5724
 FORCE CONSTANT      1.4737

      SYMMETRY NUMBER FOR POINT-GROUP C1  =  1


          SYSTEM IS A GROUND STATE



 InChI=1S/C7H8/c1-2-4-6-7-5-3-1/h1-6H,7H2


          MOLECULE IS NOT LINEAR

          THERE ARE 39 GENUINE VIBRATIONS IN THIS SYSTEM
          THIS THERMODYNAMICS CALCULATION IS LIMITED TO
          MOLECULES WHICH HAVE NO INTERNAL ROTATIONS




                    CALCULATED THERMODYNAMIC PROPERTIES
                                          *
   TEMP. (K)   PARTITION FUNCTION   H.O.F.    ENTHALPY  HEAT CAPACITY ENTROPY
                                   KCAL/MOL   CAL/MOLE    CAL/K/MOL  CAL/K/MOL


 298.00  VIB.     0.5352D+01                  1928.7026    17.3167     9.8057
         ROT.     0.1648D+06                   888.2803     2.9808    26.8516
         INT.     0.8818D+06                  2816.9829    20.2975    36.6573
         TRA.     0.8551D+27                  1480.4672     4.9680    39.4718
         TOT.                       42.428    4297.4500    25.2655    76.1291

 200.00  VIB.     0.2091D+01                   645.0458     9.0899     4.6914
         ROT.     0.9059D+05                   596.1613     2.9808    25.6629
         INT.     0.1895D+06                  1241.2071    12.0707    30.3543
         TRA.     0.4701D+27                   993.6021     4.9680    37.4906
         TOT.                       40.366    2234.8092    17.0387    67.8449

 210.00  VIB.     0.2272D+01                   739.7629     9.8574     5.1534
         ROT.     0.9747D+05                   625.9693     2.9808    25.8084
         INT.     0.2214D+06                  1365.7322    12.8382    30.9617
         TRA.     0.5058D+27                  1043.2822     4.9680    37.7330
         TOT.                       40.540    2409.0145    17.8062    68.6947

 220.00  VIB.     0.2476D+01                   842.2686    10.6473     5.6301
         ROT.     0.1045D+06                   655.7774     2.9808    25.9470
         INT.     0.2588D+06                  1498.0460    13.6281    31.5771
         TRA.     0.5424D+27                  1092.9623     4.9680    37.9641
         TOT.                       40.722    2591.0083    18.5961    69.5412

 230.00  VIB.     0.2707D+01                   952.7778    11.4578     6.1212
         ROT.     0.1117D+06                   685.5855     2.9808    26.0795
         INT.     0.3024D+06                  1638.3633    14.4386    32.2007
         TRA.     0.5798D+27                  1142.6424     4.9680    38.1850
         TOT.                       40.912    2781.0057    19.4066    70.3857

 240.00  VIB.     0.2968D+01                  1071.4847    12.2865     6.6263
         ROT.     0.1191D+06                   715.3935     2.9808    26.2064
         INT.     0.3534D+06                  1786.8782    15.2673    32.8327
         TRA.     0.6180D+27                  1192.3226     4.9680    38.3964
         TOT.                       41.110    2979.2008    20.2353    71.2291

 250.00  VIB.     0.3264D+01                  1198.5592    13.1308     7.1449
         ROT.     0.1266D+06                   745.2016     2.9808    26.3281
         INT.     0.4132D+06                  1943.7608    16.1116    33.4730
         TRA.     0.6570D+27                  1242.0027     4.9680    38.5992
         TOT.                       41.317    3185.7635    21.0797    72.0722

 260.00  VIB.     0.3600D+01                  1334.1448    13.9882     7.6766
         ROT.     0.1343D+06                   775.0097     2.9808    26.4450
         INT.     0.4833D+06                  2109.1545    16.9690    34.1215
         TRA.     0.6968D+27                  1291.6828     4.9680    38.7941
         TOT.                       41.532    3400.8373    21.9370    72.9156

 270.00  VIB.     0.3981D+01                  1478.3578    14.8558     8.2207
         ROT.     0.1421D+06                   804.8177     2.9808    26.5575
         INT.     0.5657D+06                  2283.1755    17.8366    34.7782
         TRA.     0.7374D+27                  1341.3629     4.9680    38.9816
         TOT.                       41.755    3624.5384    22.8047    73.7598

 280.00  VIB.     0.4414D+01                  1631.2866    15.7310     8.7768
         ROT.     0.1501D+06                   834.6258     2.9808    26.6659
         INT.     0.6624D+06                  2465.9124    18.7118    35.4427
         TRA.     0.7788D+27                  1391.0430     4.9680    39.1622
         TOT.                       41.988    3856.9554    23.6798    74.6049

 290.00  VIB.     0.4908D+01                  1792.9929    16.6109     9.3441
         ROT.     0.1582D+06                   864.4339     2.9808    26.7705
         INT.     0.7763D+06                  2657.4268    19.5917    36.1146
         TRA.     0.8209D+27                  1440.7231     4.9680    39.3366
         TOT.                       42.229    4098.1499    24.5597    75.4512

 300.00  VIB.     0.5471D+01                  1963.5124    17.4932     9.9222
         ROT.     0.1664D+06                   894.2419     2.9808    26.8715
         INT.     0.9105D+06                  2857.7543    20.4740    36.7937
         TRA.     0.8637D+27                  1490.4032     4.9680    39.5050
         TOT.                       42.479    4348.1575    25.4420    76.2987

 310.00  VIB.     0.6113D+01                  2142.8563    18.3754    10.5101
         ROT.     0.1748D+06                   924.0500     2.9808    26.9693
         INT.     0.1069D+07                  3066.9063    21.3562    37.4794
         TRA.     0.9072D+27                  1540.0833     4.9680    39.6679
         TOT.                       42.738    4606.9896    26.3242    77.1473

 320.00  VIB.     0.6847D+01                  2331.0134    19.2555    11.1074
         ROT.     0.1833D+06                   953.8580     2.9808    27.0639
         INT.     0.1255D+07                  3284.8715    22.2363    38.1714
         TRA.     0.9515D+27                  1589.7634     4.9680    39.8256
         TOT.                       43.006    4874.6349    27.2043    77.9970

 330.00  VIB.     0.7687D+01                  2527.9518    20.1314    11.7134
         ROT.     0.1920D+06                   983.6661     2.9808    27.1556
         INT.     0.1476D+07                  3511.6179    23.1122    38.8690
         TRA.     0.9964D+27                  1639.4435     4.9680    39.9785
         TOT.                       43.282    5151.0614    28.0802    78.8475

 340.00  VIB.     0.8649D+01                  2733.6211    21.0014    12.3273
         ROT.     0.2008D+06                  1013.4742     2.9808    27.2446
         INT.     0.1737D+07                  3747.0953    23.9822    39.5719
         TRA.     0.1042D+28                  1689.1236     4.9680    40.1268
         TOT.                       43.567    5436.2189    28.9502    79.6987

 350.00  VIB.     0.9752D+01                  2947.9544    21.8639    12.9485
         ROT.     0.2097D+06                  1043.2822     2.9808    27.3310
         INT.     0.2045D+07                  3991.2366    24.8447    40.2796
         TRA.     0.1088D+28                  1738.8037     4.9680    40.2708
         TOT.                       43.861    5730.0404    29.8127    80.5504

 360.00  VIB.     0.1102D+02                  3170.8703    22.7177    13.5765
         ROT.     0.2188D+06                  1073.0903     2.9808    27.4150
         INT.     0.2411D+07                  4243.9606    25.6985    40.9915
         TRA.     0.1135D+28                  1788.4838     4.9680    40.4108
         TOT.                       44.163    6032.4444    30.6665    81.4022

 370.00  VIB.     0.1247D+02                  3402.2748    23.5615    14.2104
         ROT.     0.2279D+06                  1102.8984     2.9808    27.4967
         INT.     0.2844D+07                  4505.1732    26.5423    41.7071
         TRA.     0.1183D+28                  1838.1639     4.9680    40.5469
         TOT.                       44.474    6343.3372    31.5103    82.2540

 380.00  VIB.     0.1415D+02                  3642.0636    24.3944    14.8499
         ROT.     0.2372D+06                  1132.7064     2.9808    27.5762
         INT.     0.3357D+07                  4774.7701    27.3752    42.4260
         TRA.     0.1231D+28                  1887.8440     4.9680    40.6794
         TOT.                       44.794    6662.6141    32.3432    83.1054

 390.00  VIB.     0.1608D+02                  3890.1231    25.2155    15.4942
         ROT.     0.2467D+06                  1162.5145     2.9808    27.6536
         INT.     0.3966D+07                  5052.6376    28.1963    43.1478
         TRA.     0.1280D+28                  1937.5242     4.9680    40.8084
         TOT.                       45.121    6990.1617    33.1643    83.9562

 400.00  VIB.     0.1830D+02                  4146.3325    26.0242    16.1428
         ROT.     0.2562D+06                  1192.3226     2.9808    27.7291
         INT.     0.4690D+07                  5338.6550    29.0051    43.8718
         TRA.     0.1330D+28                  1987.2043     4.9680    40.9342
         TOT.                       45.457    7325.8593    33.9731    84.8061

   *: NOTE: HEATS OF FORMATION ARE RELATIVE TO THE
            ELEMENTS IN THEIR STANDARD STATE AT 298K
              (=  Standard Enthalpy of Formation).

            Hvib:  Zero-point energy is not included.
                   frequencies of less than zero cm-1 are not included.
            Hrot = (3/2)RT
            Htra = (3/2)RT + pV = (5/2)RT

            Heat capacity is Cp, not Cv

          For more information, see: HTTP://OpenMOPAC.net/Manual/thermochemistry.html


           FORCE CONSTANT IN CARTESIAN COORDINATES (Millidynes/A)

    ATOM   CHEMICAL       X               Y               Z
   NUMBER   SYMBOL  FORCE CONSTANT  FORCE CONSTANT  FORCE CONSTANT

      1       C        8.819703        8.782905        8.303381
      2       C       11.015546        5.351288       10.405225
      3       C        5.275968       11.099751       10.403403
      4       C       11.283537        5.461938       10.684313
      5       C        5.697556       11.054922       10.681526
      6       C       11.153679        6.699346        9.342908
      7       C       10.916432        6.929031        9.341484
      8       H        1.190003        1.705443        3.480284
      9       H        1.092338        1.595945        3.478064
     10       H        1.654061        1.365207        3.199720
     11       H        2.001834        1.017687        3.198653
     12       H        1.936671        0.492057        3.720858
     13       H        5.035811        0.457238        0.665575
     14       H        0.890107        1.540723        3.719153
     15       H        1.229855        4.266694        0.665537

 **********************
 *                    *
 * JOB ENDED NORMALLY *
 *                    *
 **********************



 TOTAL JOB TIME:             1.09 SECONDS

 == MOPAC DONE ==
