 *******************************************************************************
 **                                                                           **
 **                              MOPAC v23.1.2                                **
 **                                                                           **
 *******************************************************************************
 **          Digital Object Identifier (DOI): 10.5281/zenodo.6511958          **
 **    Visit the DOI location for information on how to cite this program.    **
 *******************************************************************************

                              PM3 CALCULATION RESULTS

 *******************************************************************************
 *  CALCULATION DONE: (MAX THREADS = 1)              Tue Jun  3 16:27:33 2025  *
 *  PM3        - The PM3 Hamiltonian to be used
 *  PRECISE    - TIGHTER CRITERIA TO BE USED
 *  NOSYM      - POINT-GROUP SYMMETRY SET TO C1
 *  THREADS=1  - MULTI-THREADING NOT USED
 *  T=         - A TIME OF 172800.0 SECONDS REQUESTED
 *  DUMP=N     - RESTART FILE WRITTEN EVERY 7200.0 SECONDS REQUESTED
 *******************************************************************************
pm3  precise nosym THREADS=1
 InChI=1S/C10H12/c1-8-6-7-9-4-2-3-5-10(8)9/h2-4,6,10H,5,7H2,1H3

   ATOM   CHEMICAL          X               Y               Z
  NUMBER   SYMBOL      (ANGSTROMS)     (ANGSTROMS)     (ANGSTROMS)

     1       C          0.04120000  *  -0.30330000  *  -0.51460000  *
     2       C          0.88760000  *  -1.27720000  *   0.32630000  *
     3       C         -0.75820000  *   1.96330000  *   0.06690000  *
     4       C         -2.31890000  *  -1.48090000  *  -0.25630000  *
     5       C          0.42880000  *   1.10750000  *  -0.20640000  *
     6       C         -1.41640000  *  -0.28650000  *  -0.17880000  *
     7       C         -1.85260000  *   0.94550000  *   0.10020000  *
     8       C          2.35050000  *  -0.90180000  *   0.22420000  *
     9       C          1.69730000  *   1.45030000  *   0.04330000  *
    10       C          2.72050000  *   0.38600000  *   0.12550000  *
    11       H          0.18470000  *  -0.50440000  *  -1.59900000  *
    12       H          0.58190000  *  -1.22530000  *   1.39430000  *
    13       H          0.74260000  *  -2.31780000  *  -0.03380000  *
    14       H         -0.67340000  *   2.46440000  *   1.05470000  *
    15       H         -0.91710000  *   2.69730000  *  -0.75070000  *
    16       H         -3.13360000  *  -1.29010000  *  -0.98610000  *
    17       H         -2.76000000  *  -1.68040000  *   0.74260000  *
    18       H         -1.75060000  *  -2.37620000  *  -0.58380000  *
    19       H         -2.88850000  *   1.18120000  *   0.32370000  *
    20       H          3.10570000  *  -1.67490000  *   0.28750000  *
    21       H          3.76980000  *   0.65060000  *   0.13550000  *
    22       H          1.95870000  *   2.47260000  *   0.28480000  *



          CARTESIAN COORDINATES 

    NO.       ATOM           X           Y           Z

     1         C          0.0412     -0.3033     -0.5146
     2         C          0.8876     -1.2772      0.3263
     3         C         -0.7582      1.9633      0.0669
     4         C         -2.3189     -1.4809     -0.2563
     5         C          0.4288      1.1075     -0.2064
     6         C         -1.4164     -0.2865     -0.1788
     7         C         -1.8526      0.9455      0.1002
     8         C          2.3505     -0.9018      0.2242
     9         C          1.6973      1.4503      0.0433
    10         C          2.7205      0.3860      0.1255
    11         H          0.1847     -0.5044     -1.5990
    12         H          0.5819     -1.2253      1.3943
    13         H          0.7426     -2.3178     -0.0338
    14         H         -0.6734      2.4644      1.0547
    15         H         -0.9171      2.6973     -0.7507
    16         H         -3.1336     -1.2901     -0.9861
    17         H         -2.7600     -1.6804      0.7426
    18         H         -1.7506     -2.3762     -0.5838
    19         H         -2.8885      1.1812      0.3237
    20         H          3.1057     -1.6749      0.2875
    21         H          3.7698      0.6506      0.1355
    22         H          1.9587      2.4726      0.2848

  H: (PM3): J. J. P. STEWART, J. COMP. CHEM. 10, 209 (1989).
  C: (PM3): J. J. P. STEWART, J. COMP. CHEM. 10, 209 (1989).

           Empirical Formula: C10 H12  =    22 atoms



      MOLECULAR POINT GROUP   :   C1  


      RHF CALCULATION, NO. OF DOUBLY OCCUPIED LEVELS = 26


          Geometry optimization using EF

          DIAGONAL MATRIX USED AS START HESSIAN

 CYCLE:     1 TIME:   0.008 TIME LEFT:  2.00D  GRAD.:    81.877 HEAT:  34.87934
 CYCLE:     2 TIME:   0.020 TIME LEFT:  2.00D  GRAD.:    52.701 HEAT:  33.21904
 CYCLE:     3 TIME:   0.012 TIME LEFT:  2.00D  GRAD.:    39.752 HEAT:  32.58839
 CYCLE:     4 TIME:   0.008 TIME LEFT:  2.00D  GRAD.:    40.391 HEAT:  32.28332
 CYCLE:     5 TIME:   0.004 TIME LEFT:  2.00D  GRAD.:    43.757 HEAT:  32.07844
 CYCLE:     6 TIME:   0.008 TIME LEFT:  2.00D  GRAD.:    41.997 HEAT:  31.97288
 CYCLE:     7 TIME:   0.012 TIME LEFT:  2.00D  GRAD.:    22.332 HEAT:  31.55359
 CYCLE:     8 TIME:   0.012 TIME LEFT:  2.00D  GRAD.:    21.136 HEAT:  31.47564
 CYCLE:     9 TIME:   0.008 TIME LEFT:  2.00D  GRAD.:    12.115 HEAT:  31.35131
 CYCLE:    10 TIME:   0.012 TIME LEFT:  2.00D  GRAD.:    15.752 HEAT:  31.31234
 CYCLE:    11 TIME:   0.008 TIME LEFT:  2.00D  GRAD.:     8.156 HEAT:  31.23526
 CYCLE:    12 TIME:   0.008 TIME LEFT:  2.00D  GRAD.:    10.654 HEAT:  31.15043
 CYCLE:    13 TIME:   0.008 TIME LEFT:  2.00D  GRAD.:    14.386 HEAT:  31.06948
 CYCLE:    14 TIME:   0.008 TIME LEFT:  2.00D  GRAD.:    16.103 HEAT:  30.99586
 CYCLE:    15 TIME:   0.008 TIME LEFT:  2.00D  GRAD.:    13.071 HEAT:  30.92969
 CYCLE:    16 TIME:   0.008 TIME LEFT:  2.00D  GRAD.:     9.841 HEAT:  30.88314
 CYCLE:    17 TIME:   0.012 TIME LEFT:  2.00D  GRAD.:    10.028 HEAT:  30.85829
 CYCLE:    18 TIME:   0.008 TIME LEFT:  2.00D  GRAD.:     7.772 HEAT:  30.82596
 CYCLE:    19 TIME:   0.008 TIME LEFT:  2.00D  GRAD.:     7.288 HEAT:  30.79144
 CYCLE:    20 TIME:   0.008 TIME LEFT:  2.00D  GRAD.:    10.625 HEAT:  30.77396
 CYCLE:    21 TIME:   0.008 TIME LEFT:  2.00D  GRAD.:     8.970 HEAT:  30.73873
 CYCLE:    22 TIME:   0.008 TIME LEFT:  2.00D  GRAD.:    10.513 HEAT:  30.72155
 CYCLE:    23 TIME:   0.008 TIME LEFT:  2.00D  GRAD.:     4.826 HEAT:  30.68910
 CYCLE:    24 TIME:   0.012 TIME LEFT:  2.00D  GRAD.:     5.545 HEAT:  30.68553
 CYCLE:    25 TIME:   0.008 TIME LEFT:  2.00D  GRAD.:     2.756 HEAT:  30.67378
 CYCLE:    26 TIME:   0.008 TIME LEFT:  2.00D  GRAD.:     3.980 HEAT:  30.66719
 CYCLE:    27 TIME:   0.008 TIME LEFT:  2.00D  GRAD.:     3.641 HEAT:  30.65488
 CYCLE:    28 TIME:   0.008 TIME LEFT:  2.00D  GRAD.:     3.122 HEAT:  30.63956
 CYCLE:    29 TIME:   0.008 TIME LEFT:  2.00D  GRAD.:     2.386 HEAT:  30.63044
 CYCLE:    30 TIME:   0.008 TIME LEFT:  2.00D  GRAD.:     3.586 HEAT:  30.61756
 CYCLE:    31 TIME:   0.008 TIME LEFT:  2.00D  GRAD.:     3.048 HEAT:  30.60581
 CYCLE:    32 TIME:   0.008 TIME LEFT:  2.00D  GRAD.:     2.281 HEAT:  30.59657
 CYCLE:    33 TIME:   0.008 TIME LEFT:  2.00D  GRAD.:     2.343 HEAT:  30.58959
 CYCLE:    34 TIME:   0.008 TIME LEFT:  2.00D  GRAD.:     2.989 HEAT:  30.58367
 CYCLE:    35 TIME:   0.008 TIME LEFT:  2.00D  GRAD.:     1.436 HEAT:  30.57872
 CYCLE:    36 TIME:   0.008 TIME LEFT:  2.00D  GRAD.:     1.221 HEAT:  30.57631
 CYCLE:    37 TIME:   0.008 TIME LEFT:  2.00D  GRAD.:     1.446 HEAT:  30.57422
 CYCLE:    38 TIME:   0.004 TIME LEFT:  2.00D  GRAD.:     1.257 HEAT:  30.57192
 CYCLE:    39 TIME:   0.012 TIME LEFT:  2.00D  GRAD.:     0.855 HEAT:  30.57010
 CYCLE:    40 TIME:   0.004 TIME LEFT:  2.00D  GRAD.:     0.932 HEAT:  30.56866
 CYCLE:    41 TIME:   0.008 TIME LEFT:  2.00D  GRAD.:     1.357 HEAT:  30.56581
 CYCLE:    42 TIME:   0.008 TIME LEFT:  2.00D  GRAD.:     1.479 HEAT:  30.56293
 CYCLE:    43 TIME:   0.008 TIME LEFT:  2.00D  GRAD.:     1.026 HEAT:  30.56038
 CYCLE:    44 TIME:   0.008 TIME LEFT:  2.00D  GRAD.:     0.766 HEAT:  30.55857
 CYCLE:    45 TIME:   0.008 TIME LEFT:  2.00D  GRAD.:     0.643 HEAT:  30.55774
 CYCLE:    46 TIME:   0.008 TIME LEFT:  2.00D  GRAD.:     0.574 HEAT:  30.55705
 CYCLE:    47 TIME:   0.008 TIME LEFT:  2.00D  GRAD.:     0.567 HEAT:  30.55629
 CYCLE:    48 TIME:   0.008 TIME LEFT:  2.00D  GRAD.:     0.587 HEAT:  30.55549
 CYCLE:    49 TIME:   0.008 TIME LEFT:  2.00D  GRAD.:     0.488 HEAT:  30.55489
 CYCLE:    50 TIME:   0.008 TIME LEFT:  2.00D  GRAD.:     0.359 HEAT:  30.55447
 CYCLE:    51 TIME:   0.008 TIME LEFT:  2.00D  GRAD.:     0.326 HEAT:  30.55416
 CYCLE:    52 TIME:   0.008 TIME LEFT:  2.00D  GRAD.:     0.336 HEAT:  30.55391
 CYCLE:    53 TIME:   0.008 TIME LEFT:  2.00D  GRAD.:     0.302 HEAT:  30.55368
 CYCLE:    54 TIME:   0.008 TIME LEFT:  2.00D  GRAD.:     0.259 HEAT:  30.55349
 CYCLE:    55 TIME:   0.008 TIME LEFT:  2.00D  GRAD.:     0.270 HEAT:  30.55331
 CYCLE:    56 TIME:   0.008 TIME LEFT:  2.00D  GRAD.:     0.314 HEAT:  30.55311
 CYCLE:    57 TIME:   0.004 TIME LEFT:  2.00D  GRAD.:     0.350 HEAT:  30.55286
 CYCLE:    58 TIME:   0.008 TIME LEFT:  2.00D  GRAD.:     0.432 HEAT:  30.55245
 CYCLE:    59 TIME:   0.008 TIME LEFT:  2.00D  GRAD.:     0.474 HEAT:  30.55208
 CYCLE:    60 TIME:   0.008 TIME LEFT:  2.00D  GRAD.:     0.855 HEAT:  30.55073
 CYCLE:    61 TIME:   0.012 TIME LEFT:  2.00D  GRAD.:     0.904 HEAT:  30.54976
 CYCLE:    62 TIME:   0.008 TIME LEFT:  2.00D  GRAD.:     2.842 HEAT:  30.54732
 CYCLE:    63 TIME:   0.008 TIME LEFT:  2.00D  GRAD.:     1.437 HEAT:  30.54381
 CYCLE:    64 TIME:   0.008 TIME LEFT:  2.00D  GRAD.:     1.096 HEAT:  30.54016
 CYCLE:    65 TIME:   0.008 TIME LEFT:  2.00D  GRAD.:     4.766 HEAT:  30.53671
 CYCLE:    66 TIME:   0.008 TIME LEFT:  2.00D  GRAD.:     1.186 HEAT:  30.52978
 CYCLE:    67 TIME:   0.008 TIME LEFT:  2.00D  GRAD.:     1.395 HEAT:  30.52334
 CYCLE:    68 TIME:   0.008 TIME LEFT:  2.00D  GRAD.:     6.648 HEAT:  30.51580
 CYCLE:    69 TIME:   0.008 TIME LEFT:  2.00D  GRAD.:     1.247 HEAT:  30.50323
 CYCLE:    70 TIME:   0.008 TIME LEFT:  2.00D  GRAD.:     1.567 HEAT:  30.49239
 CYCLE:    71 TIME:   0.012 TIME LEFT:  2.00D  GRAD.:     5.694 HEAT:  30.47687
 CYCLE:    72 TIME:   0.008 TIME LEFT:  2.00D  GRAD.:     2.875 HEAT:  30.46015
 CYCLE:    73 TIME:   0.008 TIME LEFT:  2.00D  GRAD.:     6.226 HEAT:  30.42487
 CYCLE:    74 TIME:   0.004 TIME LEFT:  2.00D  GRAD.:     3.143 HEAT:  30.40709
 CYCLE:    75 TIME:   0.008 TIME LEFT:  2.00D  GRAD.:     2.809 HEAT:  30.38385
 CYCLE:    76 TIME:   0.012 TIME LEFT:  2.00D  GRAD.:     7.309 HEAT:  30.36336
 CYCLE:    77 TIME:   0.004 TIME LEFT:  2.00D  GRAD.:     3.587 HEAT:  30.33995
 CYCLE:    78 TIME:   0.008 TIME LEFT:  2.00D  GRAD.:     4.656 HEAT:  30.32145
 CYCLE:    79 TIME:   0.008 TIME LEFT:  2.00D  GRAD.:     3.727 HEAT:  30.30868
 CYCLE:    80 TIME:   0.008 TIME LEFT:  2.00D  GRAD.:     2.046 HEAT:  30.29858
 CYCLE:    81 TIME:   0.004 TIME LEFT:  2.00D  GRAD.:     2.486 HEAT:  30.28860
 CYCLE:    82 TIME:   0.012 TIME LEFT:  2.00D  GRAD.:     2.448 HEAT:  30.27862
 CYCLE:    83 TIME:   0.008 TIME LEFT:  2.00D  GRAD.:     2.996 HEAT:  30.26609
 CYCLE:    84 TIME:   0.012 TIME LEFT:  2.00D  GRAD.:     2.335 HEAT:  30.25550
 CYCLE:    85 TIME:   0.008 TIME LEFT:  2.00D  GRAD.:     5.753 HEAT:  30.24675
 CYCLE:    86 TIME:   0.008 TIME LEFT:  2.00D  GRAD.:     1.959 HEAT:  30.22456
 CYCLE:    87 TIME:   0.008 TIME LEFT:  2.00D  GRAD.:     2.346 HEAT:  30.21091
 CYCLE:    88 TIME:   0.008 TIME LEFT:  2.00D  GRAD.:     4.826 HEAT:  30.19375
 CYCLE:    89 TIME:   0.004 TIME LEFT:  2.00D  GRAD.:     2.706 HEAT:  30.18214
 CYCLE:    90 TIME:   0.008 TIME LEFT:  2.00D  GRAD.:     1.721 HEAT:  30.16829
 CYCLE:    91 TIME:   0.008 TIME LEFT:  2.00D  GRAD.:     2.579 HEAT:  30.15622
 CYCLE:    92 TIME:   0.008 TIME LEFT:  2.00D  GRAD.:     2.128 HEAT:  30.15025
 CYCLE:    93 TIME:   0.008 TIME LEFT:  2.00D  GRAD.:     2.941 HEAT:  30.13729
 CYCLE:    94 TIME:   0.008 TIME LEFT:  2.00D  GRAD.:     1.964 HEAT:  30.12927
 CYCLE:    95 TIME:   0.008 TIME LEFT:  2.00D  GRAD.:     3.041 HEAT:  30.11931
 CYCLE:    96 TIME:   0.008 TIME LEFT:  2.00D  GRAD.:     1.737 HEAT:  30.11437
 CYCLE:    97 TIME:   0.008 TIME LEFT:  2.00D  GRAD.:     1.809 HEAT:  30.10842
 CYCLE:    98 TIME:   0.012 TIME LEFT:  2.00D  GRAD.:     2.828 HEAT:  30.09421
 CYCLE:    99 TIME:   0.008 TIME LEFT:  2.00D  GRAD.:     2.285 HEAT:  30.08732
 CYCLE:   100 TIME:   0.008 TIME LEFT:  2.00D  GRAD.:     3.121 HEAT:  30.08088
 CYCLE:   101 TIME:   0.008 TIME LEFT:  2.00D  GRAD.:     4.432 HEAT:  30.07964
 CYCLE:   102 TIME:   0.008 TIME LEFT:  2.00D  GRAD.:     0.936 HEAT:  30.07104
 CYCLE:   103 TIME:   0.008 TIME LEFT:  2.00D  GRAD.:     0.908 HEAT:  30.06834
 CYCLE:   104 TIME:   0.008 TIME LEFT:  2.00D  GRAD.:     1.111 HEAT:  30.06581
 CYCLE:   105 TIME:   0.004 TIME LEFT:  2.00D  GRAD.:     1.322 HEAT:  30.06329
 CYCLE:   106 TIME:   0.008 TIME LEFT:  2.00D  GRAD.:     0.828 HEAT:  30.06205
 CYCLE:   107 TIME:   0.008 TIME LEFT:  2.00D  GRAD.:     0.599 HEAT:  30.06138
 CYCLE:   108 TIME:   0.008 TIME LEFT:  2.00D  GRAD.:     0.474 HEAT:  30.06082
 CYCLE:   109 TIME:   0.008 TIME LEFT:  2.00D  GRAD.:     0.563 HEAT:  30.06028
 CYCLE:   110 TIME:   0.008 TIME LEFT:  2.00D  GRAD.:     0.620 HEAT:  30.05983
 CYCLE:   111 TIME:   0.008 TIME LEFT:  2.00D  GRAD.:     0.555 HEAT:  30.05945
 CYCLE:   112 TIME:   0.008 TIME LEFT:  2.00D  GRAD.:     0.341 HEAT:  30.05920
 CYCLE:   113 TIME:   0.008 TIME LEFT:  2.00D  GRAD.:     0.349 HEAT:  30.05865
 CYCLE:   114 TIME:   0.008 TIME LEFT:  2.00D  GRAD.:     0.279 HEAT:  30.05844
 CYCLE:   115 TIME:   0.008 TIME LEFT:  2.00D  GRAD.:     0.182 HEAT:  30.05806
 CYCLE:   116 TIME:   0.008 TIME LEFT:  2.00D  GRAD.:     0.174 HEAT:  30.05796
 CYCLE:   117 TIME:   0.008 TIME LEFT:  2.00D  GRAD.:     0.124 HEAT:  30.05794
 CYCLE:   118 TIME:   0.004 TIME LEFT:  2.00D  GRAD.:     0.167 HEAT:  30.05793
 CYCLE:   119 TIME:   0.008 TIME LEFT:  2.00D  GRAD.:     0.078 HEAT:  30.05791
 CYCLE:   120 TIME:   0.008 TIME LEFT:  2.00D  GRAD.:     0.142 HEAT:  30.05789
 CYCLE:   121 TIME:   0.008 TIME LEFT:  2.00D  GRAD.:     0.064 HEAT:  30.05788
 CYCLE:   122 TIME:   0.008 TIME LEFT:  2.00D  GRAD.:     0.122 HEAT:  30.05788
 CYCLE:   123 TIME:   0.004 TIME LEFT:  2.00D  GRAD.:     0.028 HEAT:  30.05787

     GRADIENT =  0.02832 IS LESS THAN CUTOFF =  0.05000



 -------------------------------------------------------------------------------
 pm3  precise nosym THREADS=1
 InChI=1S/C10H12/c1-8-6-7-9-4-2-3-5-10(8)9/h2-4,6,10H,5,7H2,1H3



     GEOMETRY OPTIMISED USING EIGENVECTOR FOLLOWING (EF).     
     SCF FIELD WAS ACHIEVED                                   


                              PM3 CALCULATION
                                                       MOPAC v23.1.2 MacOS
                                                       Tue Jun  3 16:27:34 2025




          FINAL HEAT OF FORMATION =         30.05787 KCAL/MOL =     125.76211 KJ/MOL


          COSMO AREA              =        174.82 SQUARE ANGSTROMS
          COSMO VOLUME            =        179.26 CUBIC ANGSTROMS

          GRADIENT NORM           =          0.02832          =       0.00604 PER ATOM
          IONIZATION POTENTIAL    =          8.767715 EV
          HOMO LUMO ENERGIES (EV) =         -8.768  0.268
          NO. OF FILLED LEVELS    =         26
          MOLECULAR WEIGHT        =        132.2048         POINT GROUP:  C1  

          MOLECULAR DIMENSIONS (Angstroms)

            Atom       Atom       Distance
            H    21    H    16     7.33262
            H    20    H    15     5.41277
            H    14    H    11     3.10646


          SCF CALCULATIONS        =        133

          WALL-CLOCK TIME         =      0.996 SECONDS
          COMPUTATION TIME        =      0.624 SECONDS




   ATOM   CHEMICAL          X               Y               Z
  NUMBER   SYMBOL      (ANGSTROMS)     (ANGSTROMS)     (ANGSTROMS)

     1       C          0.03446278  *  -0.28396748  *  -0.48238279  *
     2       C          0.87330853  *  -1.29983797  *   0.28059549  *
     3       C         -0.77435742  *   1.98572308  *  -0.04803821  *
     4       C         -2.25104671  *  -1.50805257  *  -0.19888289  *
     5       C          0.44978740  *   1.12988726  *  -0.14679610  *
     6       C         -1.44781142  *  -0.27363301  *  -0.19385076  *
     7       C         -1.88866003  *   0.97996380  *   0.01267655  *
     8       C          2.31432331  *  -0.90928109  *   0.27262439  *
     9       C          1.72222824  *   1.44204477  *   0.12548422  *
    10       C          2.70538645  *   0.37050982  *   0.18028807  *
    11       H          0.17541301  *  -0.44705961  *  -1.58001309  *
    12       H          0.53396735  *  -1.38907001  *   1.33271837  *
    13       H          0.74217397  *  -2.30544550  *  -0.16399509  *
    14       H         -0.75715275  *   2.63482906  *   0.84665283  *
    15       H         -0.88290237  *   2.65378223  *  -0.92336635  *
    16       H         -3.29971935  *  -1.31601964  *   0.06079806  *
    17       H         -1.84883918  *  -2.23185203  *   0.52378618  *
    18       H         -2.22920984  *  -1.98136748  *  -1.18983437  *
    19       H         -2.91761404  *   1.28153855  *   0.20621112  *
    20       H          3.04408459  *  -1.71919072  *   0.37175799  *
    21       H          3.76338167  *   0.65010772  *   0.18040104  *
    22       H          2.04222178  *   2.46160881  *   0.35804275  *

                             CARTESIAN COORDINATES

   1    C        0.034462775    -0.283967483    -0.482382785
   2    C        0.873308528    -1.299837973     0.280595487
   3    C       -0.774357415     1.985723083    -0.048038210
   4    C       -2.251046710    -1.508052573    -0.198882890
   5    C        0.449787401     1.129887255    -0.146796103
   6    C       -1.447811425    -0.273633007    -0.193850761
   7    C       -1.888660027     0.979963803     0.012676552
   8    C        2.314323311    -0.909281094     0.272624391
   9    C        1.722228238     1.442044771     0.125484218
  10    C        2.705386451     0.370509819     0.180288068
  11    H        0.175413011    -0.447059605    -1.580013089
  12    H        0.533967348    -1.389070012     1.332718374
  13    H        0.742173974    -2.305445502    -0.163995090
  14    H       -0.757152747     2.634829055     0.846652831
  15    H       -0.882902369     2.653782233    -0.923366353
  16    H       -3.299719347    -1.316019639     0.060798064
  17    H       -1.848839177    -2.231852030     0.523786181
  18    H       -2.229209845    -1.981367481    -1.189834366
  19    H       -2.917614037     1.281538548     0.206211119
  20    H        3.044084589    -1.719190723     0.371757991
  21    H        3.763381667     0.650107722     0.180401040
  22    H        2.042221781     2.461608810     0.358042754


           Empirical Formula: C10 H12  =    22 atoms



      MOLECULAR POINT GROUP   :   C1  


                  EIGENVALUES  
 -41.85640 -35.35937 -32.35603 -28.78969 -27.11167 -24.26143 -21.78867 -20.04180
 -18.66667 -17.32086 -16.75156 -15.92091 -15.48605 -14.73899 -14.56740 -14.23427
 -14.05794 -13.74510 -13.22543 -12.93549 -12.53663 -12.09575 -11.73049 -11.17522
  -9.62105  -8.76772   0.26842   0.96136   2.02623   3.18684   3.24733   3.34150
   3.58855   3.67305   3.77748   3.82809   4.00893   4.10187   4.20284   4.31935
   4.36978   4.44018   4.51180   4.57901   4.71221   4.80801   5.06313   5.51590
   5.62297   5.90490   6.11567   6.24901


              NET ATOMIC CHARGES AND DIPOLE CONTRIBUTIONS

  ATOM NO.   TYPE          CHARGE      No. of ELECS.   s-Pop       p-Pop       
    1          C          -0.002582        4.0026     1.15644     2.84614
    2          C          -0.050984        4.0510     1.14525     2.90574
    3          C          -0.012364        4.0124     1.13659     2.87577
    4          C          -0.052078        4.0521     1.11752     2.93456
    5          C          -0.118042        4.1180     1.20956     2.90848
    6          C          -0.126784        4.1268     1.20427     2.92251
    7          C          -0.159498        4.1595     1.20268     2.95682
    8          C          -0.141053        4.1411     1.19778     2.94327
    9          C          -0.112210        4.1122     1.17341     2.93880
   10          C          -0.107092        4.1071     1.17930     2.92779
   11          H           0.077661        0.9223     0.92234
   12          H           0.062922        0.9371     0.93708
   13          H           0.055354        0.9446     0.94465
   14          H           0.063074        0.9369     0.93693
   15          H           0.065079        0.9349     0.93492
   16          H           0.043437        0.9566     0.95656
   17          H           0.047014        0.9530     0.95299
   18          H           0.045810        0.9542     0.95419
   19          H           0.114743        0.8853     0.88526
   20          H           0.098830        0.9012     0.90117
   21          H           0.101151        0.8988     0.89885
   22          H           0.107611        0.8924     0.89239
 DIPOLE           X         Y         Z       TOTAL
 POINT-CHG.    -0.376    -0.303     0.006     0.483
 HYBRID         0.024     0.017    -0.006     0.030
 SUM           -0.352    -0.287     0.000     0.454


          ATOMIC ORBITAL ELECTRON POPULATIONS

     Atom    s        px        py        pz   
    1  C   1.15644   0.91718   0.93255   0.99642
    2  C   1.14525   0.93091   0.97160   1.00323
    3  C   1.13659   0.91278   0.95512   1.00787
    4  C   1.11752   0.98009   0.94869   1.00577
    5  C   1.20956   0.95265   0.96190   0.99393
    6  C   1.20427   0.95605   0.95846   1.00800
    7  C   1.20268   0.98273   0.94693   1.02716
    8  C   1.19778   0.96761   0.96829   1.00737
    9  C   1.17341   0.93694   0.97616   1.02570
   10  C   1.17930   0.97567   0.93871   1.01341
   11  H   0.92234
   12  H   0.93708
   13  H   0.94465
   14  H   0.93693
   15  H   0.93492
   16  H   0.95656
   17  H   0.95299
   18  H   0.95419
   19  H   0.88526
   20  H   0.90117
   21  H   0.89885
   22  H   0.89239
 *******************************************************************************
 **                                                                           **
 **                              MOPAC v23.1.2                                **
 **                                                                           **
 *******************************************************************************
 **          Digital Object Identifier (DOI): 10.5281/zenodo.6511958          **
 **    Visit the DOI location for information on how to cite this program.    **
 *******************************************************************************

                              PM3 CALCULATION RESULTS

 *******************************************************************************
 *  CALCULATION DONE: (MAX THREADS = 1)              Tue Jun  3 16:27:34 2025  *
 *  PM3        - The PM3 Hamiltonian to be used
 *  OLDGEO     - PREVIOUS GEOMETRY TO BE USED
 *  PRECISE    - TIGHTER CRITERIA TO BE USED
 *  NOSYM      - POINT-GROUP SYMMETRY SET TO C1
 *  THREADS=1  - MULTI-THREADING NOT USED
 *  T=         - A TIME OF 172800.0 SECONDS REQUESTED
 *  DUMP=N     - RESTART FILE WRITTEN EVERY 7200.0 SECONDS REQUESTED
 *  THERMO     - THERMODYNAMIC QUANTITIES TO BE CALCULATED
 *******************************************************************************
oldgeo thermo nosym precise THREADS=1  pm3
 InChI=1S/C10H12/c1-8-6-7-9-4-2-3-5-10(8)9/h2-4,6,10H,5,7H2,1H3

   ATOM   CHEMICAL          X               Y               Z
  NUMBER   SYMBOL      (ANGSTROMS)     (ANGSTROMS)     (ANGSTROMS)

     1       C          0.03446278  *  -0.28396748  *  -0.48238279  *
     2       C          0.87330853  *  -1.29983797  *   0.28059549  *
     3       C         -0.77435742  *   1.98572308  *  -0.04803821  *
     4       C         -2.25104671  *  -1.50805257  *  -0.19888289  *
     5       C          0.44978740  *   1.12988726  *  -0.14679610  *
     6       C         -1.44781142  *  -0.27363301  *  -0.19385076  *
     7       C         -1.88866003  *   0.97996380  *   0.01267655  *
     8       C          2.31432331  *  -0.90928109  *   0.27262439  *
     9       C          1.72222824  *   1.44204477  *   0.12548422  *
    10       C          2.70538645  *   0.37050982  *   0.18028807  *
    11       H          0.17541301  *  -0.44705961  *  -1.58001309  *
    12       H          0.53396735  *  -1.38907001  *   1.33271837  *
    13       H          0.74217397  *  -2.30544550  *  -0.16399509  *
    14       H         -0.75715275  *   2.63482906  *   0.84665283  *
    15       H         -0.88290237  *   2.65378223  *  -0.92336635  *
    16       H         -3.29971935  *  -1.31601964  *   0.06079806  *
    17       H         -1.84883918  *  -2.23185203  *   0.52378618  *
    18       H         -2.22920984  *  -1.98136748  *  -1.18983437  *
    19       H         -2.91761404  *   1.28153855  *   0.20621112  *
    20       H          3.04408459  *  -1.71919072  *   0.37175799  *
    21       H          3.76338167  *   0.65010772  *   0.18040104  *
    22       H          2.04222178  *   2.46160881  *   0.35804275  *



          CARTESIAN COORDINATES 

    NO.       ATOM           X           Y           Z

     1         C          0.0345     -0.2840     -0.4824
     2         C          0.8733     -1.2998      0.2806
     3         C         -0.7744      1.9857     -0.0480
     4         C         -2.2510     -1.5081     -0.1989
     5         C          0.4498      1.1299     -0.1468
     6         C         -1.4478     -0.2736     -0.1939
     7         C         -1.8887      0.9800      0.0127
     8         C          2.3143     -0.9093      0.2726
     9         C          1.7222      1.4420      0.1255
    10         C          2.7054      0.3705      0.1803
    11         H          0.1754     -0.4471     -1.5800
    12         H          0.5340     -1.3891      1.3327
    13         H          0.7422     -2.3054     -0.1640
    14         H         -0.7572      2.6348      0.8467
    15         H         -0.8829      2.6538     -0.9234
    16         H         -3.2997     -1.3160      0.0608
    17         H         -1.8488     -2.2319      0.5238
    18         H         -2.2292     -1.9814     -1.1898
    19         H         -2.9176      1.2815      0.2062
    20         H          3.0441     -1.7192      0.3718
    21         H          3.7634      0.6501      0.1804
    22         H          2.0422      2.4616      0.3580

  H: (PM3): J. J. P. STEWART, J. COMP. CHEM. 10, 209 (1989).
  C: (PM3): J. J. P. STEWART, J. COMP. CHEM. 10, 209 (1989).

           Empirical Formula: C10 H12  =    22 atoms



      MOLECULAR POINT GROUP   :   C1  


      RHF CALCULATION, NO. OF DOUBLY OCCUPIED LEVELS = 26



          HEAT OF FORMATION =      30.057866 KCALS/MOLE


          CARTESIAN COORDINATE DERIVATIVES

   NUMBER  ATOM         X            Y            Z

     1       C     -0.000512    -0.001482     0.002277
     2       C     -0.002804    -0.001632     0.002616
     3       C     -0.001179    -0.000111     0.002304
     4       C      0.005382     0.002207     0.001463
     5       C     -0.003153    -0.001815     0.001417
     6       C     -0.001736    -0.000402     0.003447
     7       C     -0.001525     0.000908     0.002012
     8       C     -0.001701    -0.002044    -0.000066
     9       C      0.000976     0.001065     0.000748
    10       C      0.001966    -0.000052     0.002474
    11       H      0.000502     0.001462    -0.002223
    12       H      0.002539    -0.000095    -0.001479
    13       H     -0.001191     0.000649     0.001122
    14       H      0.002242    -0.000092    -0.001035
    15       H     -0.000444    -0.001725     0.000682
    16       H     -0.004834    -0.004323    -0.002442
    17       H     -0.006239    -0.002387    -0.012863
    18       H      0.007609     0.004295     0.007778
    19       H     -0.002162     0.003385    -0.002646
    20       H      0.002543     0.003348    -0.006546
    21       H      0.002713    -0.002116     0.000877
    22       H      0.001007     0.000955     0.000082



          GRADIENT NORM =   0.02543

          MOLECULAR WEIGHT =  132.20



          ROTATIONAL CONSTANTS IN CM(-1)

          A =    0.07957303   B =    0.04147758   C =    0.02834488



           PRINCIPAL MOMENTS OF INERTIA IN UNITS OF 10**(-40)*GRAM-CM**2

          A =      351.7869   B =      674.8887   C =      987.5771


          ORIENTATION OF MOLECULE IN FORCE CALCULATION

    NO.       ATOM         X         Y         Z

     1          C      -0.0141   -0.6328    0.0572
     2          C       1.5083   -0.6328    0.0572
     3          C      -1.7566    1.0871    0.0572
     4          C      -0.3146   -1.4062    2.5299
     5          C      -0.5605    0.5688   -0.6787
     6          C      -0.6931   -0.5372    1.4027
     7          C      -1.6690    0.3879    1.3840
     8          C       2.0377   -0.2608   -1.2883
     9          C       0.0687    1.0887   -1.7391
    10          C       1.3529    0.5271   -2.1307
    11          H      -0.3777   -1.5599   -0.4523
    12          H       1.9081    0.0798    0.8072
    13          H       1.8842   -1.6296    0.3592
    14          H      -1.7319    2.1866    0.1695
    15          H      -2.7009    0.8420   -0.4649
    16          H      -0.8904   -1.1774    3.4355
    17          H       0.7522   -1.2872    2.7661
    18          H      -0.4833   -2.4623    2.2796
    19          H      -2.3402    0.6387    2.2049
    20          H       3.0299   -0.6425   -1.5493
    21          H       1.7494    0.8002   -3.1134
    22          H      -0.3187    1.9498   -2.2907


    FIRST DERIVATIVES WILL BE USED IN THE CALCULATION OF SECOND DERIVATIVES

          ESTIMATED TIME TO COMPLETE CALCULATION =        2.06 SECONDS

    FOR POINT-GROUP C1   THERE ARE   1 UNIQUE SYMMETRY FUNCTIONS.

 STEP:   1 TIME =     0.02 SECS, INTEGRAL =      0.02 TIME LEFT: 172799.97
 STEP:   2 TIME =     0.02 SECS, INTEGRAL =      0.05 TIME LEFT: 172799.95
 STEP:   3 TIME =     0.02 SECS, INTEGRAL =      0.07 TIME LEFT: 172799.92
 STEP:   4 TIME =     0.02 SECS, INTEGRAL =      0.09 TIME LEFT: 172799.90
 STEP:   5 TIME =     0.02 SECS, INTEGRAL =      0.12 TIME LEFT: 172799.88
 STEP:   6 TIME =     0.02 SECS, INTEGRAL =      0.14 TIME LEFT: 172799.85
 STEP:   7 TIME =     0.02 SECS, INTEGRAL =      0.16 TIME LEFT: 172799.83
 STEP:   8 TIME =     0.02 SECS, INTEGRAL =      0.18 TIME LEFT: 172799.81
 STEP:   9 TIME =     0.02 SECS, INTEGRAL =      0.21 TIME LEFT: 172799.79
 STEP:  10 TIME =     0.02 SECS, INTEGRAL =      0.23 TIME LEFT: 172799.77
 STEP:  11 TIME =     0.02 SECS, INTEGRAL =      0.25 TIME LEFT: 172799.75
 STEP:  12 TIME =     0.02 SECS, INTEGRAL =      0.27 TIME LEFT: 172799.73
 STEP:  13 TIME =     0.02 SECS, INTEGRAL =      0.29 TIME LEFT: 172799.71
 STEP:  14 TIME =     0.02 SECS, INTEGRAL =      0.31 TIME LEFT: 172799.68
 STEP:  15 TIME =     0.02 SECS, INTEGRAL =      0.33 TIME LEFT: 172799.66
 STEP:  16 TIME =     0.02 SECS, INTEGRAL =      0.36 TIME LEFT: 172799.64
 STEP:  17 TIME =     0.02 SECS, INTEGRAL =      0.38 TIME LEFT: 172799.61
 STEP:  18 TIME =     0.02 SECS, INTEGRAL =      0.40 TIME LEFT: 172799.59
 STEP:  19 TIME =     0.02 SECS, INTEGRAL =      0.42 TIME LEFT: 172799.57
 STEP:  20 TIME =     0.02 SECS, INTEGRAL =      0.44 TIME LEFT: 172799.55
 STEP:  21 TIME =     0.02 SECS, INTEGRAL =      0.46 TIME LEFT: 172799.53
 STEP:  22 TIME =     0.02 SECS, INTEGRAL =      0.48 TIME LEFT: 172799.51
 STEP:  23 TIME =     0.02 SECS, INTEGRAL =      0.50 TIME LEFT: 172799.49
 STEP:  24 TIME =     0.02 SECS, INTEGRAL =      0.52 TIME LEFT: 172799.47
 STEP:  25 TIME =     0.02 SECS, INTEGRAL =      0.55 TIME LEFT: 172799.45
 STEP:  26 TIME =     0.02 SECS, INTEGRAL =      0.57 TIME LEFT: 172799.43
 STEP:  27 TIME =     0.02 SECS, INTEGRAL =      0.59 TIME LEFT: 172799.40
 STEP:  28 TIME =     0.02 SECS, INTEGRAL =      0.61 TIME LEFT: 172799.38
 STEP:  29 TIME =     0.02 SECS, INTEGRAL =      0.64 TIME LEFT: 172799.36
 STEP:  30 TIME =     0.02 SECS, INTEGRAL =      0.66 TIME LEFT: 172799.33
 STEP:  31 TIME =     0.02 SECS, INTEGRAL =      0.68 TIME LEFT: 172799.31
 STEP:  32 TIME =     0.02 SECS, INTEGRAL =      0.71 TIME LEFT: 172799.29
 STEP:  33 TIME =     0.02 SECS, INTEGRAL =      0.73 TIME LEFT: 172799.26
 STEP:  34 TIME =     0.02 SECS, INTEGRAL =      0.75 TIME LEFT: 172799.24
 STEP:  35 TIME =     0.02 SECS, INTEGRAL =      0.77 TIME LEFT: 172799.22
 STEP:  36 TIME =     0.02 SECS, INTEGRAL =      0.79 TIME LEFT: 172799.20
 STEP:  37 TIME =     0.02 SECS, INTEGRAL =      0.82 TIME LEFT: 172799.18
 STEP:  38 TIME =     0.02 SECS, INTEGRAL =      0.84 TIME LEFT: 172799.16
 STEP:  39 TIME =     0.02 SECS, INTEGRAL =      0.86 TIME LEFT: 172799.14
 STEP:  40 TIME =     0.02 SECS, INTEGRAL =      0.88 TIME LEFT: 172799.11
 STEP:  41 TIME =     0.02 SECS, INTEGRAL =      0.90 TIME LEFT: 172799.09
 STEP:  42 TIME =     0.02 SECS, INTEGRAL =      0.92 TIME LEFT: 172799.07
 STEP:  43 TIME =     0.02 SECS, INTEGRAL =      0.94 TIME LEFT: 172799.05
 STEP:  44 TIME =     0.02 SECS, INTEGRAL =      0.96 TIME LEFT: 172799.03
 STEP:  45 TIME =     0.02 SECS, INTEGRAL =      0.98 TIME LEFT: 172799.01
 STEP:  46 TIME =     0.02 SECS, INTEGRAL =      1.00 TIME LEFT: 172798.99
 STEP:  47 TIME =     0.02 SECS, INTEGRAL =      1.02 TIME LEFT: 172798.97
 STEP:  48 TIME =     0.02 SECS, INTEGRAL =      1.04 TIME LEFT: 172798.95
 STEP:  49 TIME =     0.02 SECS, INTEGRAL =      1.06 TIME LEFT: 172798.93
 STEP:  50 TIME =     0.02 SECS, INTEGRAL =      1.09 TIME LEFT: 172798.91
 STEP:  51 TIME =     0.02 SECS, INTEGRAL =      1.11 TIME LEFT: 172798.88
 STEP:  52 TIME =     0.02 SECS, INTEGRAL =      1.13 TIME LEFT: 172798.86
 STEP:  53 TIME =     0.02 SECS, INTEGRAL =      1.15 TIME LEFT: 172798.84
 STEP:  54 TIME =     0.02 SECS, INTEGRAL =      1.17 TIME LEFT: 172798.82
 STEP:  55 TIME =     0.02 SECS, INTEGRAL =      1.20 TIME LEFT: 172798.80
 STEP:  56 TIME =     0.02 SECS, INTEGRAL =      1.22 TIME LEFT: 172798.77
 STEP:  57 TIME =     0.02 SECS, INTEGRAL =      1.24 TIME LEFT: 172798.75
 STEP:  58 TIME =     0.02 SECS, INTEGRAL =      1.27 TIME LEFT: 172798.73
 STEP:  59 TIME =     0.02 SECS, INTEGRAL =      1.29 TIME LEFT: 172798.70
 STEP:  60 TIME =     0.02 SECS, INTEGRAL =      1.31 TIME LEFT: 172798.68
 STEP:  61 TIME =     0.02 SECS, INTEGRAL =      1.33 TIME LEFT: 172798.66
 STEP:  62 TIME =     0.02 SECS, INTEGRAL =      1.36 TIME LEFT: 172798.64
 STEP:  63 TIME =     0.02 SECS, INTEGRAL =      1.38 TIME LEFT: 172798.62
 STEP:  64 TIME =     0.02 SECS, INTEGRAL =      1.39 TIME LEFT: 172798.60
 STEP:  65 TIME =     0.02 SECS, INTEGRAL =      1.41 TIME LEFT: 172798.58
 STEP:  66 TIME =     0.02 SECS, INTEGRAL =      1.43 TIME LEFT: 172798.56

(To convert to Hartree/Bohr^2, multiply by (10^(-21) x N x a0^2)/(4.184 x 627.51) =  0.0642)


           FORCE MATRIX IN MILLIDYNES/ANGSTROM


                  C  1       C  2       C  3       C  4       C  5       C  6
 ------------------------------------------------------------------------------
     C    1  14.995304
     C    2   4.077574  14.628661
     C    3   0.742329   0.044968  14.937973
     C    4   0.489215   0.037435   0.130550  14.849110
     C    5   4.151484   0.647798   4.601537   0.049189  19.056434
     C    6   4.178960   0.543314   1.144991   5.453588   1.013713  18.710363
     C    7   1.141280   0.042565   4.505134   0.721175   1.069380  10.119100
     C    8   0.702544   4.775501   0.015514   0.002671   0.156412   0.052612
     C    9   0.769585   0.115438   0.643241   0.009107  10.216400   0.053666
     C   10   0.121548   0.834146   0.135854   0.001242   1.189919   0.009468
     H   11   4.160971   0.433214   0.020554   0.009503   0.403320   0.406252
     H   12   0.451989   4.409948   0.004378   0.007026   0.016831   0.018014
     H   13   0.440464   4.476254   0.007375   0.005073   0.049324   0.010810
     H   14   0.037635   0.003477   4.510758   0.017970   0.441382   0.037988
     H   15   0.023821   0.003853   4.467937   0.019340   0.428370   0.032702
     H   16   0.042357   0.002830   0.003103   4.754316   0.007957   0.473381
     H   17   0.013225   0.009902   0.017903   4.681890   0.002780   0.450989
     H   18   0.011856   0.002907   0.018326   4.700749   0.002140   0.449432
     H   19   0.108696   0.013887   0.407146   0.056401   0.044633   0.457962
     H   20   0.044089   0.426237   0.008864   0.000664   0.016323   0.007939
     H   21   0.005357   0.121052   0.009079   0.000379   0.047982   0.001136
     H   22   0.114429   0.009991   0.066471   0.001969   0.461272   0.010700


                  C  7       C  8       C  9       C 10       H 11       H 12
 ------------------------------------------------------------------------------
     C    7  18.184481
     C    8   0.008631  17.821833
     C    9   0.049032   1.112682  18.373665
     C   10   0.011508  10.173530   5.485496  18.211897
     H   11   0.033693   0.013721   0.027874   0.017390   4.618633
     H   12   0.002716   0.410471   0.019500   0.033143   0.045384   5.014049
     H   13   0.001368   0.441114   0.010276   0.048208   0.035179   0.570828
     H   14   0.431536   0.001846   0.018013   0.012310   0.001529   0.000720
     H   15   0.428016   0.002078   0.023306   0.016792   0.001757   0.000471
     H   16   0.027117   0.000356   0.002042   0.000420   0.001117   0.000518
     H   17   0.034344   0.000953   0.000883   0.000867   0.001144   0.008594
     H   18   0.030199   0.000651   0.000888   0.000406   0.003588   0.000363
     H   19   5.020808   0.002417   0.006392   0.001636   0.014274   0.000762
     H   20   0.002261   4.858264   0.122962   0.443910   0.004098   0.014563
     H   21   0.001329   0.445040   0.431498   4.868894   0.000762   0.016789
     H   22   0.003392   0.046466   4.888802   0.434631   0.014668   0.000791


                  H 13       H 14       H 15       H 16       H 17       H 18
 ------------------------------------------------------------------------------
     H   13   5.073569
     H   14   0.001127   5.109948
     H   15   0.000320   0.556117   5.071600
     H   16   0.000442   0.000509   0.000563   5.454584
     H   17   0.007056   0.003289   0.002348   0.552444   5.387396
     H   18   0.002020   0.002110   0.003248   0.557916   0.572050   5.409517
     H   19   0.000384   0.014631   0.010127   0.013155   0.006880   0.007256
     H   20   0.034680   0.000896   0.001149   0.000150   0.000304   0.000180
     H   21   0.012247   0.000891   0.001047   0.000080   0.000208   0.000131
     H   22   0.001349   0.008417   0.009428   0.000396   0.000170   0.000158


                  H 19       H 20       H 21       H 22
 ------------------------------------------------------
     H   19   5.419315
     H   20   0.000619   5.231959
     H   21   0.000391   0.065666   5.237518
     H   22   0.000818   0.008190   0.027511   5.262127


          HEAT OF FORMATION =      30.057866 KCALS/MOLE

          ZERO POINT ENERGY     118.884 KCAL/MOL


           NORMAL COORDINATE ANALYSIS (Total motion = 1 Angstrom)


   Root No.       1         2         3         4         5         6         7         8

                 1 A       2 A       3 A       4 A       5 A       6 A       7 A       8 A   

                  93.9     101.3     178.5     229.6     243.2     293.4     406.9     445.7
  
           1   -0.0108   -0.0093   -0.0108   -0.0249   -0.0065    0.0134    0.0036    0.0042
           2   -0.0068   -0.0103   -0.0167   -0.0016   -0.0023    0.0398   -0.0068   -0.0209
           3   -0.0062   -0.0066   -0.0057   -0.0173   -0.0031    0.0210    0.0240    0.0122
           4   -0.0111   -0.0093   -0.0099   -0.0260   -0.0066    0.0120    0.0036    0.0129
           5   -0.0341   -0.0350   -0.0205    0.0084    0.0172   -0.0251    0.0035   -0.0053
           6   -0.0127   -0.0142   -0.0039    0.0255    0.0107    0.0007   -0.0020   -0.0013
           7   -0.0094   -0.0145    0.0097    0.0009   -0.0240   -0.0206    0.0112    0.0062
           8   -0.0076   -0.0175    0.0064    0.0211   -0.0266   -0.0054    0.0081    0.0046
           9   -0.0066   -0.0122    0.0016    0.0076   -0.0170   -0.0048   -0.0102   -0.0147
          10    0.0224    0.0163   -0.0119    0.0608    0.0029    0.0115    0.0105    0.0049
          11    0.0258    0.0258   -0.0122    0.0013   -0.0190   -0.0166   -0.0083    0.0019
          12    0.0081    0.0117   -0.0050   -0.0347   -0.0207   -0.0242   -0.0114   -0.0165
          13   -0.0015   -0.0033   -0.0146   -0.0144   -0.0088    0.0075   -0.0067    0.0009
          14    0.0007   -0.0055   -0.0252    0.0066   -0.0054    0.0287   -0.0349   -0.0299
          15   -0.0005   -0.0032   -0.0155   -0.0096   -0.0074    0.0137   -0.0071    0.0076
          16   -0.0012    0.0021    0.0067   -0.0151    0.0099    0.0065   -0.0027   -0.0119
          17    0.0027    0.0037    0.0057   -0.0089    0.0145    0.0307    0.0251    0.0159
          18   -0.0015   -0.0006    0.0023   -0.0162    0.0031    0.0152    0.0199    0.0040
          19   -0.0054   -0.0023    0.0346   -0.0082    0.0299   -0.0211   -0.0200   -0.0144
          20   -0.0017   -0.0008    0.0351   -0.0024    0.0355    0.0017    0.0071    0.0148
          21   -0.0036   -0.0044    0.0148   -0.0010    0.0140    0.0021   -0.0075   -0.0103
          22   -0.0035    0.0008    0.0142   -0.0003   -0.0082    0.0066   -0.0129    0.0083
          23   -0.0097    0.0003    0.0423   -0.0042   -0.0199   -0.0020   -0.0201    0.0303
          24   -0.0023    0.0003    0.0242    0.0353    0.0006    0.0063   -0.0170    0.0038
          25    0.0090    0.0073   -0.0244    0.0020    0.0125   -0.0076   -0.0076    0.0090
          26    0.0146    0.0143   -0.0318   -0.0078    0.0162   -0.0117   -0.0135    0.0126
          27    0.0128    0.0130   -0.0245   -0.0074    0.0160   -0.0147    0.0029    0.0380
          28    0.0086    0.0120    0.0050    0.0054    0.0037   -0.0024    0.0139   -0.0277
          29    0.0153    0.0252    0.0163   -0.0202   -0.0013   -0.0136    0.0351   -0.0238
          30    0.0115    0.0148    0.0076    0.0155    0.0085    0.0026    0.0130   -0.0163
          31   -0.0295   -0.0273   -0.0171   -0.0148    0.0022   -0.0144    0.0058    0.0132
          32   -0.0008   -0.0058   -0.0212    0.0020   -0.0097    0.0481   -0.0299   -0.0392
          33   -0.0042   -0.0018    0.0078   -0.0297    0.0057    0.0217    0.0639    0.0403
          34    0.0043    0.0053   -0.0109   -0.0529   -0.0252    0.0632    0.0091    0.0150
          35   -0.0613   -0.0674   -0.0635    0.0227    0.0549   -0.0820    0.0382   -0.0403
          36    0.0051    0.0091    0.0377    0.0269   -0.0147    0.0266   -0.0372    0.0296
          37   -0.0295   -0.0252   -0.0170   -0.0267    0.0066   -0.0333    0.0207    0.0216
          38   -0.0490   -0.0516   -0.0389    0.0155    0.0359   -0.0593    0.0204   -0.0183
          39   -0.0387   -0.0486   -0.0545    0.0499    0.0547   -0.0526    0.0311   -0.0532
          40   -0.0218   -0.0367    0.0284    0.0347   -0.0942   -0.0682    0.0814    0.0365
          41   -0.0070   -0.0157    0.0090    0.0181   -0.0193   -0.0041    0.0068    0.0057
          42   -0.0109   -0.0261   -0.0273    0.0317   -0.0825   -0.0131   -0.0011   -0.0276
          43   -0.0047   -0.0085   -0.0088   -0.0094   -0.0167   -0.0014   -0.0031    0.0069
          44   -0.0201   -0.0432    0.0064    0.0609   -0.1198   -0.0491    0.0739    0.0267
          45   -0.0092   -0.0112    0.0352    0.0086    0.0118   -0.0200   -0.0129   -0.0258
          46   -0.0873    0.1163   -0.0329    0.1134   -0.0011    0.0246    0.0280    0.0221
          47   -0.0790    0.1296   -0.0327   -0.0063   -0.0490   -0.0569   -0.0471   -0.0243
          48   -0.0352    0.0492   -0.0132   -0.0002   -0.0161   -0.0065    0.0084    0.0001
          49   -0.0147    0.0481   -0.0177    0.0739    0.0023    0.0160    0.0159    0.0098
          50    0.1748   -0.0673   -0.0120    0.0241   -0.0335   -0.0408   -0.0213    0.0026
          51    0.1018   -0.0854    0.0208   -0.1016   -0.0110   -0.0325   -0.0283   -0.0373
          52    0.1976   -0.1101   -0.0016    0.0685   -0.0008   -0.0021    0.0053    0.0076
          53    0.0077    0.0294   -0.0081   -0.0032   -0.0092   -0.0024    0.0024    0.0070
          54   -0.0324    0.0818   -0.0297   -0.0209   -0.0608   -0.0772   -0.0559   -0.0416
          55   -0.0033    0.0048    0.0635    0.0021    0.0647   -0.0488   -0.0537   -0.0258
          56    0.0010    0.0084    0.0668    0.0003    0.0740   -0.0236   -0.0049    0.0210
          57   -0.0028   -0.0014    0.0288    0.0062    0.0304   -0.0132   -0.0315   -0.0218
          58   -0.0056    0.0025    0.0465    0.0064   -0.0250    0.0148   -0.0304    0.0216
          59   -0.0128    0.0053    0.1039   -0.0015   -0.0555    0.0172   -0.0522    0.0637
          60   -0.0060   -0.0009    0.0556    0.0575   -0.0099    0.0080   -0.0365    0.0051
          61    0.0178    0.0242    0.0282    0.0174   -0.0007    0.0022    0.0388   -0.0828
          62    0.0343    0.0518    0.0453   -0.0355   -0.0105   -0.0171    0.0935   -0.0799
          63    0.0205    0.0271    0.0249    0.0161    0.0043    0.0031    0.0393   -0.0536
          64    0.0151    0.0094   -0.0439    0.0215    0.0299   -0.0240   -0.0349    0.0431
          65    0.0238    0.0223   -0.0493   -0.0055    0.0339   -0.0466   -0.0224    0.0733
          66    0.0227    0.0239   -0.0385   -0.0173    0.0315   -0.0575    0.0078    0.1089


   Root No.       9        10        11        12        13        14        15        16

                 9 A      10 A      11 A      12 A      13 A      14 A      15 A      16 A   

                 494.4     500.3     527.4     642.8     682.8     757.7     789.7     809.5
  
           1    0.0362    0.0069   -0.0150   -0.0082    0.0069    0.0085   -0.0088    0.0016
           2    0.0026   -0.0107    0.0062   -0.0346    0.0031    0.0109   -0.0069    0.0022
           3   -0.0158    0.0199   -0.0007   -0.0153   -0.0001    0.0039   -0.0147    0.0012
           4    0.0363   -0.0002   -0.0325   -0.0182    0.0041    0.0104    0.0079   -0.0001
           5   -0.0203   -0.0089   -0.0002   -0.0077   -0.0001   -0.0138   -0.0129   -0.0055
           6    0.0351    0.0275    0.0127   -0.0055    0.0195   -0.0001   -0.0226    0.0005
           7   -0.0048    0.0345    0.0187    0.0131    0.0238    0.0096    0.0265   -0.0179
           8    0.0084   -0.0047   -0.0103   -0.0022   -0.0414   -0.0021   -0.0209   -0.0295
           9   -0.0037   -0.0283   -0.0150    0.0085    0.0389    0.0040    0.0020   -0.0105
          10   -0.0085    0.0102    0.0089   -0.0049   -0.0162   -0.0021   -0.0032    0.0035
          11    0.0181   -0.0112   -0.0180    0.0228    0.0296   -0.0025   -0.0019    0.0079
          12   -0.0198    0.0060    0.0258   -0.0245   -0.0330    0.0020    0.0094    0.0004
          13   -0.0205    0.0524    0.0022    0.0331    0.0122   -0.0033    0.0075    0.0113
          14   -0.0096    0.0117   -0.0002    0.0099   -0.0188    0.0014    0.0036    0.0077
          15   -0.0097    0.0185   -0.0347    0.0396   -0.0256   -0.0159   -0.0195    0.0069
          16    0.0318   -0.0349    0.0482    0.0296   -0.0155   -0.0093   -0.0152    0.0025
          17    0.0060   -0.0316    0.0211    0.0295    0.0148   -0.0030    0.0078    0.0060
          18   -0.0347    0.0018    0.0302   -0.0114   -0.0142    0.0019    0.0150    0.0031
          19    0.0212    0.0085    0.0096   -0.0032   -0.0228   -0.0029   -0.0159   -0.0167
          20   -0.0061    0.0156   -0.0229   -0.0073   -0.0041    0.0028    0.0067   -0.0161
          21   -0.0218   -0.0147   -0.0155   -0.0023    0.0518    0.0068    0.0179   -0.0031
          22   -0.0212   -0.0474   -0.0307   -0.0069   -0.0232   -0.0102    0.0466   -0.0055
          23   -0.0174    0.0087    0.0117    0.0014    0.0074   -0.0215   -0.0041   -0.0033
          24    0.0203    0.0089    0.0216    0.0042    0.0063   -0.0057   -0.0014   -0.0017
          25   -0.0349   -0.0161    0.0081   -0.0071    0.0117   -0.0083   -0.0217    0.0065
          26    0.0202    0.0144    0.0306   -0.0138    0.0095    0.0125    0.0403    0.0099
          27    0.0033   -0.0194   -0.0204    0.0105   -0.0229   -0.0153   -0.0200    0.0033
          28   -0.0347   -0.0202   -0.0058   -0.0090    0.0156   -0.0193   -0.0168   -0.0026
          29    0.0002    0.0190   -0.0030   -0.0019    0.0103   -0.0219   -0.0040   -0.0044
          30    0.0450   -0.0071   -0.0130    0.0018   -0.0248   -0.0019    0.0480   -0.0064
          31    0.0630    0.0109   -0.0444   -0.0430    0.0246    0.0193   -0.0422   -0.0053
          32   -0.0021    0.0076   -0.0012   -0.0231   -0.0152    0.0029   -0.0004    0.0158
          33   -0.0277   -0.0166    0.0340   -0.0092    0.0196    0.0108   -0.0002   -0.0185
          34    0.0544    0.0086   -0.0388   -0.0854    0.0261    0.0270   -0.0506   -0.0030
          35   -0.0399   -0.0163   -0.0191    0.0625   -0.0409    0.0446    0.0511    0.0153
          36    0.0432    0.0296    0.0345   -0.0333    0.0453   -0.0622   -0.0508   -0.0169
          37    0.0191    0.0157   -0.0407    0.0339   -0.0065    0.0205    0.0363    0.0083
          38   -0.0311   -0.0097   -0.0091    0.0333   -0.0191    0.0113    0.0212    0.0045
          39    0.0239    0.0056   -0.0040    0.0578   -0.0250    0.0671    0.0459    0.0217
          40    0.0374   -0.0178    0.0432   -0.0395    0.0354   -0.0124    0.0407    0.0950
          41    0.0070   -0.0007   -0.0133   -0.0019   -0.0428   -0.0007   -0.0206   -0.0398
          42    0.0119   -0.0648    0.0150    0.0049    0.0363   -0.0115   -0.0075    0.0972
          43   -0.0243    0.0671    0.0115    0.0483    0.0160    0.0121    0.0307   -0.0248
          44    0.0519   -0.0642    0.0235   -0.0497   -0.0489   -0.0310   -0.0222    0.1205
          45    0.0127   -0.0620   -0.0163   -0.0345    0.0586    0.0115   -0.0041   -0.0603
          46   -0.0381    0.0403   -0.0173   -0.0308   -0.0142    0.0096    0.0202   -0.0140
          47    0.0465   -0.0112   -0.0314    0.0206    0.0334   -0.0025   -0.0328   -0.0185
          48   -0.0452    0.0244    0.0130   -0.0406   -0.0329    0.0094    0.0316   -0.0042
          49   -0.0153    0.0166    0.0036   -0.0095   -0.0152    0.0002    0.0024    0.0009
          50    0.0001    0.0318   -0.0728   -0.0171    0.0414    0.0152    0.0049   -0.0399
          51    0.0174   -0.0395    0.0735    0.0112   -0.0453   -0.0155   -0.0174    0.0301
          52   -0.0245    0.0402   -0.0246   -0.0354   -0.0161    0.0101    0.0054   -0.0273
          53    0.0184   -0.0228   -0.0031    0.0365    0.0313   -0.0073    0.0012    0.0252
          54   -0.0094    0.0363   -0.0182   -0.0629   -0.0370    0.0149   -0.0108   -0.0569
          55    0.0294    0.0260   -0.0481   -0.0362   -0.0205   -0.0223   -0.0453    0.1628
          56   -0.0320    0.0774   -0.0640   -0.0647   -0.0202   -0.0066    0.0275    0.1779
          57   -0.0073   -0.0198   -0.0503   -0.0122    0.0589   -0.0060   -0.0120    0.0845
          58   -0.0465   -0.0583   -0.0303    0.0190   -0.0464    0.0914    0.0290    0.0238
          59   -0.0423   -0.0072    0.0007    0.0506   -0.0471    0.1840   -0.0131    0.0531
          60   -0.0401   -0.0101    0.0387    0.0327   -0.0044    0.0794   -0.0557    0.0272
          61   -0.0333    0.0003    0.0072    0.0049    0.0322    0.0859   -0.0766    0.0113
          62   -0.0169    0.0094   -0.0491    0.0368   -0.0275    0.1324   -0.1017    0.0120
          63    0.0405   -0.0013   -0.0203    0.0186   -0.0288    0.0829   -0.0033    0.0036
          64   -0.0340   -0.0731    0.0385   -0.0457    0.0233    0.0790   -0.0342   -0.0208
          65    0.0166   -0.0228    0.0612   -0.0386    0.0319    0.1002   -0.0058   -0.0249
          66   -0.0017   -0.0365    0.0062   -0.0001    0.0039    0.0596   -0.0840   -0.0317


   Root No.      17        18        19        20        21        22        23        24

                17 A      18 A      19 A      20 A      21 A      22 A      23 A      24 A   

                 855.3     888.5     939.3     951.5     963.2     977.7    1008.5    1019.2
  
           1    0.0034   -0.0046    0.0031   -0.0035    0.0016   -0.0066    0.0026    0.0000
           2   -0.0416   -0.0058    0.0168   -0.0180    0.0083   -0.0023    0.0207    0.0043
           3   -0.0029   -0.0107    0.0289    0.0159   -0.0062   -0.0023    0.0110   -0.0211
           4    0.0319    0.0046   -0.0101   -0.0057    0.0008    0.0094   -0.0015    0.0064
           5   -0.0391    0.0108   -0.0184    0.0255   -0.0068   -0.0039   -0.0213   -0.0053
           6    0.0162    0.0010   -0.0113   -0.0096    0.0044    0.0066    0.0021    0.0135
           7   -0.0355    0.0113    0.0010    0.0102    0.0151   -0.0015    0.0154    0.0113
           8    0.0278    0.0100    0.0037    0.0213    0.0184    0.0044    0.0077    0.0124
           9    0.0108    0.0049   -0.0004    0.0111    0.0073   -0.0038    0.0048    0.0056
          10    0.0018    0.0063   -0.0029   -0.0001    0.0174    0.0315   -0.0030   -0.0180
          11   -0.0039    0.0042   -0.0066    0.0060    0.0085   -0.0209    0.0114   -0.0208
          12    0.0145    0.0088   -0.0211   -0.0053    0.0088   -0.0138    0.0006    0.0013
          13   -0.0046    0.0026    0.0008   -0.0054   -0.0101   -0.0003   -0.0087   -0.0141
          14    0.0173    0.0051    0.0001   -0.0012   -0.0132   -0.0010   -0.0072   -0.0128
          15   -0.0096    0.0037    0.0002   -0.0120   -0.0071   -0.0031   -0.0082   -0.0111
          16   -0.0042   -0.0004    0.0073    0.0015   -0.0083   -0.0060   -0.0008    0.0213
          17    0.0062    0.0039   -0.0036   -0.0036   -0.0060    0.0052   -0.0092    0.0268
          18    0.0073    0.0039   -0.0051   -0.0024   -0.0036   -0.0035   -0.0016    0.0086
          19   -0.0097   -0.0166    0.0039   -0.0055   -0.0160   -0.0220   -0.0022   -0.0178
          20    0.0041   -0.0108   -0.0115   -0.0179   -0.0081    0.0091   -0.0195   -0.0101
          21   -0.0009   -0.0038   -0.0085   -0.0135    0.0004    0.0192   -0.0152    0.0032
          22   -0.0101    0.0155   -0.0005    0.0000   -0.0108    0.0068    0.0121   -0.0009
          23    0.0135    0.0063    0.0052   -0.0116   -0.0109    0.0067    0.0249   -0.0016
          24    0.0044    0.0018    0.0059   -0.0016   -0.0056   -0.0008    0.0075   -0.0049
          25    0.0068   -0.0238   -0.0100    0.0066    0.0032    0.0054    0.0106    0.0083
          26    0.0104   -0.0235   -0.0124    0.0247   -0.0045    0.0084    0.0041   -0.0002
          27   -0.0233   -0.0228   -0.0114    0.0016    0.0068    0.0027    0.0138    0.0131
          28    0.0156   -0.0034    0.0099   -0.0060    0.0121   -0.0074   -0.0125    0.0005
          29    0.0110   -0.0025    0.0176   -0.0117    0.0205   -0.0113   -0.0166    0.0021
          30   -0.0231    0.0096    0.0090    0.0110    0.0013   -0.0074   -0.0155   -0.0095
          31    0.0093    0.0078   -0.0582    0.0338    0.0422   -0.0177   -0.0742    0.0054
          32   -0.0590   -0.0024   -0.0096   -0.1071    0.0223   -0.0097    0.0445    0.0187
          33    0.0300   -0.0245    0.1194    0.1518   -0.0625    0.0202    0.0220   -0.0504
          34   -0.0439   -0.0037   -0.0032    0.0378    0.0422   -0.0245   -0.0455   -0.0181
          35    0.0345   -0.0237    0.0471   -0.0305    0.0082   -0.0052    0.0278   -0.0116
          36   -0.0106    0.0367   -0.0748    0.0181   -0.0319    0.0259   -0.0188    0.0334
          37    0.1474   -0.0072    0.0015   -0.0066   -0.0350    0.0349    0.0028   -0.0193
          38    0.0196   -0.0042    0.0082   -0.0026   -0.0079    0.0045    0.0033   -0.0067
          39    0.0632   -0.0324    0.0571   -0.0965    0.0465    0.0013    0.0738    0.0428
          40   -0.0845   -0.0585   -0.0222   -0.0895   -0.0382    0.0151    0.0064   -0.0566
          41    0.0265    0.0089    0.0018    0.0208    0.0249    0.0087    0.0145    0.0110
          42    0.0406    0.0206    0.0207    0.0226   -0.0605   -0.0482   -0.0734    0.0235
          43   -0.0462    0.0599    0.0131    0.0339    0.0294    0.0074   -0.0205    0.0757
          44    0.0177   -0.0384   -0.0056   -0.0567   -0.0595    0.0066   -0.0513   -0.0316
          45    0.0324   -0.0630   -0.0184    0.0008    0.0143   -0.0214    0.0955   -0.0921
          46    0.0219   -0.0035   -0.0239   -0.0065   -0.0239   -0.0818    0.0056    0.0357
          47   -0.0470   -0.0278    0.0737    0.0033   -0.0145    0.1232   -0.0223    0.0014
          48    0.0375    0.0106   -0.0539   -0.0092   -0.0110   -0.1171    0.0133    0.0303
          49    0.0069    0.0052   -0.0095   -0.0005    0.0094    0.0004    0.0014   -0.0097
          50   -0.0168   -0.0423    0.0420   -0.0023   -0.0817   -0.0705   -0.0019    0.0795
          51   -0.0003    0.0336   -0.0152   -0.0023    0.0828    0.1458   -0.0152   -0.0744
          52    0.0016   -0.0206    0.0177   -0.0092   -0.0392   -0.0077   -0.0147    0.0546
          53    0.0040    0.0203   -0.0304    0.0114    0.0325   -0.0449    0.0260   -0.0546
          54   -0.0231   -0.0461    0.0726   -0.0229   -0.0616    0.1150   -0.0544    0.1012
          55    0.0028    0.0496    0.0614    0.0685    0.0115   -0.0368    0.0506    0.0400
          56   -0.0119    0.0707    0.0200    0.0287    0.0302    0.0360    0.0242    0.0475
          57    0.0159    0.0256    0.0281    0.0325    0.0115    0.0007    0.0133    0.0333
          58   -0.0241   -0.0387    0.0005    0.0182    0.0333   -0.0141   -0.0403    0.0053
          59   -0.0002   -0.0928    0.0021    0.0139    0.0718   -0.0199   -0.0640    0.0199
          60   -0.0318   -0.0601    0.0145    0.0277    0.0425   -0.0418   -0.0590   -0.0108
          61    0.0278    0.0188   -0.0455    0.0339   -0.0596    0.0259    0.0128   -0.0285
          62   -0.0480    0.0436   -0.0943    0.0091   -0.0821    0.0581    0.0922    0.0278
          63   -0.0359    0.0313   -0.0441    0.0334   -0.0561    0.0248    0.0244   -0.0146
          64    0.0360    0.0915    0.0377   -0.0196   -0.0318   -0.0112   -0.0287   -0.0479
          65    0.0146    0.1146    0.0547   -0.0506   -0.0190   -0.0206   -0.0323   -0.0393
          66   -0.0395    0.1111    0.0594   -0.0986    0.0093   -0.0313   -0.0148   -0.0076


   Root No.      25        26        27        28        29        30        31        32

                25 A      26 A      27 A      28 A      29 A      30 A      31 A      32 A   

                1044.8    1047.5    1056.6    1062.3    1088.8    1105.6    1152.7    1158.6
  
           1   -0.0079   -0.0046    0.0011   -0.0069   -0.0145    0.0367   -0.0032    0.0026
           2    0.0037   -0.0040   -0.0005    0.0133   -0.0164    0.0214   -0.0163    0.0171
           3    0.0090    0.0034   -0.0031    0.0081   -0.0074    0.0075    0.0131   -0.0437
           4    0.0001    0.0031    0.0010    0.0109   -0.0001   -0.0339    0.0044    0.0167
           5   -0.0090    0.0098   -0.0018    0.0033    0.0035   -0.0227   -0.0011   -0.0020
           6    0.0206    0.0295   -0.0090    0.0028    0.0136   -0.0187    0.0057    0.0002
           7   -0.0016    0.0007    0.0149    0.0091    0.0006    0.0016    0.0017    0.0024
           8   -0.0062   -0.0029   -0.0146   -0.0024   -0.0044   -0.0026    0.0017   -0.0102
           9   -0.0005    0.0052    0.0198   -0.0045   -0.0035    0.0010   -0.0017    0.0055
          10    0.0062   -0.0010    0.0025    0.0002   -0.0027    0.0012    0.0002   -0.0024
          11    0.0101   -0.0015   -0.0033    0.0081   -0.0024   -0.0002    0.0003    0.0006
          12   -0.0012   -0.0052   -0.0071   -0.0017   -0.0008    0.0024   -0.0048    0.0137
          13   -0.0067    0.0110   -0.0099   -0.0155    0.0062   -0.0059   -0.0033   -0.0146
          14   -0.0033    0.0085    0.0009   -0.0013    0.0142    0.0057    0.0012    0.0237
          15   -0.0098    0.0040   -0.0012   -0.0091    0.0066    0.0015   -0.0062    0.0076
          16   -0.0126    0.0035    0.0001   -0.0042    0.0061   -0.0030    0.0013    0.0021
          17   -0.0156    0.0033    0.0044   -0.0107    0.0060   -0.0009    0.0018   -0.0081
          18   -0.0040    0.0041    0.0090   -0.0014    0.0020   -0.0033    0.0063   -0.0201
          19    0.0235   -0.0026    0.0044    0.0097   -0.0039   -0.0017   -0.0008    0.0005
          20    0.0152   -0.0080    0.0068   -0.0011   -0.0052    0.0038   -0.0017   -0.0022
          21    0.0016   -0.0185   -0.0290    0.0063    0.0007    0.0051   -0.0001    0.0127
          22    0.0207    0.0165   -0.0126   -0.0198   -0.0030   -0.0009    0.0077   -0.0120
          23    0.0024   -0.0295    0.0075   -0.0066    0.0095    0.0034   -0.0026   -0.0013
          24   -0.0124   -0.0307    0.0095   -0.0036   -0.0038   -0.0023    0.0014    0.0076
          25    0.0002   -0.0113    0.0078    0.0172    0.0129    0.0027   -0.0082    0.0002
          26    0.0069    0.0014   -0.0106   -0.0183   -0.0151   -0.0061    0.0091   -0.0132
          27    0.0016   -0.0117    0.0099    0.0088   -0.0028    0.0034   -0.0056    0.0097
          28   -0.0009    0.0087   -0.0018   -0.0045   -0.0101   -0.0052    0.0013    0.0053
          29    0.0004    0.0126   -0.0006    0.0063    0.0080    0.0029    0.0007    0.0029
          30   -0.0139   -0.0035    0.0045    0.0163    0.0084    0.0024   -0.0066   -0.0051
          31   -0.0084   -0.0600    0.0190   -0.1089    0.0282    0.2622   -0.0531   -0.0585
          32   -0.0215   -0.0009    0.0192    0.0635   -0.0508   -0.0700    0.0475   -0.0840
          33    0.0547    0.0392   -0.0510   -0.0081    0.0239    0.0126   -0.0668    0.1856
          34    0.0060   -0.1197    0.0320   -0.0682    0.1094   -0.2115    0.0767    0.0205
          35   -0.0134   -0.0579    0.0177    0.0006   -0.0048   -0.0008    0.0059   -0.0044
          36    0.0223    0.1602   -0.0445    0.0482   -0.0380    0.0571   -0.0395    0.0021
          37   -0.0820   -0.0057    0.0312    0.1343   -0.1080    0.0185    0.0789    0.0307
          38   -0.0178   -0.0043    0.0063    0.0257   -0.0208    0.0044    0.0105    0.0038
          39    0.0972   -0.0025   -0.0217   -0.0846    0.0698    0.0099   -0.0433    0.0051
          40   -0.0632    0.0162   -0.0613   -0.0037    0.0397    0.0139   -0.0035    0.0657
          41   -0.0202   -0.0007   -0.0282   -0.0052   -0.0007   -0.0014    0.0020   -0.0041
          42    0.1526   -0.0183    0.1671    0.0182   -0.0482   -0.0119   -0.0037   -0.0689
          43    0.0523   -0.0702   -0.0198    0.0489   -0.0248    0.0144    0.0023    0.0311
          44    0.0141   -0.0156   -0.0482   -0.0073    0.0026    0.0011   -0.0010   -0.0009
          45   -0.1064    0.1392    0.0982   -0.0737    0.0400   -0.0235   -0.0020   -0.0495
          46   -0.0124   -0.0028   -0.0138   -0.0061    0.0040    0.0047   -0.0092    0.0237
          47   -0.0011    0.0151    0.0289   -0.0025    0.0018   -0.0073    0.0159   -0.0480
          48   -0.0107   -0.0107   -0.0259   -0.0036    0.0025    0.0067   -0.0150    0.0429
          49    0.0039   -0.0015   -0.0010    0.0005   -0.0018    0.0014   -0.0011    0.0024
          50   -0.0278    0.0117    0.0046   -0.0045    0.0110   -0.0069    0.0073   -0.0157
          51    0.0236   -0.0085    0.0038   -0.0010   -0.0105    0.0068   -0.0048    0.0044
          52   -0.0230    0.0048    0.0036   -0.0140    0.0065    0.0007   -0.0019    0.0033
          53    0.0253   -0.0060   -0.0093    0.0182   -0.0067    0.0000    0.0001    0.0032
          54   -0.0473    0.0117    0.0196   -0.0343    0.0119    0.0004    0.0000   -0.0077
          55   -0.0373    0.0038   -0.0985    0.0056    0.0055   -0.0112    0.0104   -0.0630
          56   -0.0430    0.0562    0.1842   -0.0334    0.0017    0.0145   -0.0152    0.0863
          57   -0.0308   -0.0331   -0.1664    0.0119    0.0063   -0.0055    0.0133   -0.0663
          58    0.0141    0.0615   -0.0211   -0.0049   -0.0148   -0.0062    0.0200   -0.0052
          59   -0.0013    0.0679   -0.0039    0.0809    0.0503   -0.0348   -0.1376   -0.0311
          60   -0.0311   -0.0039   -0.0041   -0.0704   -0.0990    0.0386    0.2379    0.0764
          61   -0.0573   -0.0853    0.0079   -0.0447   -0.0983   -0.0852   -0.1843   -0.0316
          62    0.0617    0.0261   -0.0091    0.0022    0.0531    0.0526    0.1349    0.0197
          63   -0.0212   -0.0393    0.0066   -0.0009   -0.0159   -0.0163   -0.0446   -0.0151
          64   -0.0420   -0.0267    0.0331    0.1051    0.1582    0.0966    0.0498   -0.0304
          65   -0.0097    0.0318   -0.0203   -0.0258   -0.0116   -0.0062    0.0096   -0.0117
          66    0.0044    0.0448   -0.0212   -0.0633   -0.1004   -0.0636   -0.0494    0.0348


   Root No.      33        34        35        36        37        38        39        40

                33 A      34 A      35 A      36 A      37 A      38 A      39 A      40 A   

                1187.4    1200.1    1258.0    1305.3    1343.1    1366.0    1378.0    1387.7
  
           1    0.0012   -0.0356    0.0262    0.0166    0.0144    0.0050   -0.0198    0.0057
           2   -0.0125    0.0020   -0.0088   -0.0088   -0.0150   -0.0293    0.0016    0.0004
           3    0.0154    0.0124    0.0046    0.0181   -0.0039    0.0350    0.0121    0.0014
           4    0.0059   -0.0076   -0.0087   -0.0285    0.0244    0.0185    0.0087   -0.0163
           5   -0.0002   -0.0091    0.0074   -0.0005    0.0074    0.0058    0.0073    0.0023
           6    0.0042    0.0129   -0.0081    0.0159   -0.0208   -0.0161   -0.0323   -0.0053
           7   -0.0033    0.0044   -0.0203   -0.0181   -0.0145    0.0061   -0.0064   -0.0150
           8    0.0015   -0.0023    0.0177   -0.0074   -0.0012    0.0094   -0.0140    0.0147
           9    0.0087   -0.0054    0.0002    0.0437    0.0227   -0.0311    0.0369   -0.0070
          10   -0.0034   -0.0036   -0.0030   -0.0032    0.0096   -0.0125   -0.0078   -0.0104
          11    0.0058    0.0048    0.0032    0.0048   -0.0132    0.0199    0.0098   -0.0213
          12   -0.0080   -0.0088    0.0005   -0.0020    0.0077   -0.0175   -0.0082   -0.0045
          13   -0.0210   -0.0149    0.0214   -0.0040   -0.0090   -0.0253    0.0106    0.0074
          14    0.0014    0.0251   -0.0161   -0.0041    0.0133    0.0323   -0.0004   -0.0068
          15    0.0119   -0.0048   -0.0119    0.0009   -0.0071   -0.0103   -0.0111   -0.0010
          16    0.0098    0.0098    0.0120    0.0030   -0.0122    0.0079   -0.0022    0.0039
          17   -0.0113   -0.0071   -0.0144    0.0073   -0.0004   -0.0009    0.0009   -0.0017
          18    0.0106    0.0183   -0.0011   -0.0255    0.0244   -0.0129    0.0039   -0.0078
          19    0.0095    0.0112    0.0022    0.0002   -0.0007   -0.0009    0.0067   -0.0015
          20   -0.0123   -0.0171   -0.0165    0.0120    0.0115   -0.0116    0.0029   -0.0024
          21    0.0054    0.0068    0.0338   -0.0235   -0.0223    0.0248   -0.0195    0.0082
          22    0.0082    0.0091   -0.0061    0.0093   -0.0156   -0.0077   -0.0084    0.0024
          23    0.0021   -0.0036   -0.0029   -0.0061   -0.0020    0.0023    0.0050    0.0007
          24   -0.0162    0.0043    0.0139    0.0073    0.0175    0.0031   -0.0011   -0.0025
          25   -0.0196    0.0036    0.0149   -0.0092    0.0115    0.0135    0.0235    0.0026
          26    0.0117   -0.0004    0.0041    0.0135   -0.0013   -0.0068   -0.0071    0.0006
          27    0.0062   -0.0049   -0.0163   -0.0065   -0.0086   -0.0040   -0.0111   -0.0026
          28    0.0027    0.0104    0.0001    0.0182    0.0069   -0.0028   -0.0149   -0.0034
          29    0.0070   -0.0058   -0.0072   -0.0076   -0.0057   -0.0009    0.0011   -0.0000
          30   -0.0138   -0.0031    0.0095   -0.0085    0.0038    0.0057    0.0146    0.0028
          31   -0.0209    0.1241   -0.0464   -0.0256   -0.0174   -0.0077    0.0202   -0.0096
          32    0.0224   -0.0365    0.0257    0.0255    0.0005    0.0154    0.0038    0.0065
          33   -0.0323   -0.0288   -0.0093   -0.0164   -0.0077   -0.0366   -0.0195   -0.0004
          34   -0.0181    0.0535   -0.0214    0.0261   -0.0582   -0.0466    0.0364    0.0479
          35   -0.0174    0.0038    0.0224    0.0325    0.0223    0.0064   -0.1163   -0.0596
          36    0.0345   -0.0329   -0.0178   -0.0487    0.0056    0.0161    0.0881    0.0290
          37   -0.0428    0.1023   -0.0526    0.0164   -0.0893   -0.0752    0.0476    0.0522
          38   -0.0073    0.0152   -0.0121   -0.0050   -0.0262   -0.0185    0.0606    0.0389
          39    0.0465   -0.0417   -0.0266   -0.0653    0.0007    0.0178    0.1366    0.0522
          40    0.0320    0.0380   -0.0942    0.0749    0.0986    0.0708   -0.0428    0.0709
          41    0.0107    0.0018    0.0307   -0.0018   -0.0056   -0.0061    0.0042    0.0014
          42   -0.0821   -0.0533   -0.0546   -0.0525   -0.0067    0.0521   -0.0805    0.0433
          43    0.0382    0.0147   -0.0307    0.0513    0.0410    0.0082    0.0053    0.0127
          44    0.0094    0.0007    0.0974   -0.0341   -0.0747   -0.0817    0.0787   -0.0828
          45   -0.0718   -0.0249   -0.0295   -0.0651   -0.0331    0.0203   -0.0399    0.0023
          46   -0.0160   -0.0233   -0.0090    0.0388   -0.0449    0.0423    0.0152    0.1637
          47    0.0298    0.0402    0.0129   -0.0630    0.0731   -0.0613   -0.0034    0.1320
          48   -0.0247   -0.0329   -0.0081    0.0456   -0.0535    0.0417    0.0088    0.0710
          49   -0.0019   -0.0030   -0.0004   -0.0003    0.0049   -0.0036    0.0029   -0.0462
          50    0.0313    0.0402    0.0279   -0.0623    0.0623   -0.0934   -0.0695    0.0883
          51   -0.0351   -0.0404   -0.0323    0.0436   -0.0372    0.0386    0.0108    0.1422
          52   -0.0129   -0.0162   -0.0140    0.0392   -0.0423    0.0718    0.0674    0.0122
          53    0.0162    0.0163    0.0160   -0.0228    0.0179   -0.0229   -0.0143    0.0174
          54   -0.0365   -0.0370   -0.0380    0.0607   -0.0602    0.0692    0.0231   -0.1141
          55   -0.0411   -0.0132   -0.0733   -0.0031    0.0272   -0.0234    0.0108   -0.0143
          56    0.0667    0.0234    0.0974    0.0153   -0.0335    0.0241   -0.0053    0.0177
          57   -0.0605   -0.0266   -0.0603   -0.0280    0.0147   -0.0039   -0.0152   -0.0075
          58    0.0153    0.0022   -0.0111    0.0029   -0.0168   -0.0070   -0.0075    0.0015
          59   -0.0234    0.0266    0.0277    0.0367    0.0134   -0.0008   -0.0123    0.0008
          60    0.0426   -0.0692   -0.0437   -0.0811   -0.0040    0.0135    0.0324   -0.0050
          61    0.1040   -0.0301   -0.0716   -0.0287   -0.0436   -0.0076   -0.0106    0.0011
          62   -0.0634    0.0241    0.0457    0.0279    0.0287    0.0011   -0.0036   -0.0031
          63    0.0061   -0.0117   -0.0040   -0.0194   -0.0064    0.0053    0.0174    0.0042
          64    0.0814   -0.0904   -0.0352   -0.0043   -0.0385   -0.0436   -0.0257    0.0009
          65    0.0057    0.0051    0.0082    0.0145    0.0011   -0.0021   -0.0058    0.0013
          66   -0.0765    0.0686    0.0247   -0.0119    0.0297    0.0430    0.0269   -0.0004


   Root No.      41        42        43        44        45        46        47        48

                41 A      42 A      43 A      44 A      45 A      46 A      47 A      48 A   

                1388.4    1392.8    1409.0    1433.4    1484.6    1835.6    1862.6    1913.9
  
           1   -0.0049    0.0037    0.0456   -0.0365    0.0537    0.0001    0.0070    0.0014
           2   -0.0004    0.0080   -0.0224    0.0242   -0.0017    0.0010   -0.0117    0.0127
           3   -0.0025   -0.0110   -0.0027   -0.0088   -0.0607    0.0016    0.0068   -0.0140
           4    0.0181   -0.0121   -0.0305    0.0363   -0.0306    0.0025    0.0019   -0.0009
           5   -0.0033   -0.0006    0.0099    0.0074   -0.0028    0.0119    0.0034   -0.0038
           6    0.0087    0.0033   -0.0191   -0.0377    0.0205   -0.0261   -0.0086    0.0056
           7    0.0194   -0.0175    0.0328   -0.0072   -0.0153    0.0048   -0.0122    0.0232
           8   -0.0175    0.0175   -0.0156    0.0131    0.0141   -0.0032    0.0085   -0.0042
           9    0.0058   -0.0080   -0.0180   -0.0116   -0.0020   -0.0018    0.0022   -0.0208
          10   -0.0183   -0.0136    0.0032   -0.0071   -0.0141   -0.0019    0.0148    0.0055
          11   -0.0032    0.0058   -0.0054    0.0163    0.0439    0.0035   -0.0264   -0.0102
          12   -0.0039    0.0243    0.0083   -0.0220   -0.0678   -0.0036    0.0279    0.0112
          13   -0.0103    0.0128   -0.0352    0.0159    0.0003   -0.0211    0.0297   -0.1100
          14    0.0084   -0.0145    0.0254   -0.0352    0.0014   -0.0080    0.0199   -0.0760
          15    0.0022    0.0027    0.0070    0.0251   -0.0036    0.0257   -0.0447    0.1805
          16   -0.0052    0.0028   -0.0075    0.0006   -0.0348    0.0184   -0.1357   -0.0470
          17    0.0016   -0.0041    0.0031   -0.0078   -0.0192   -0.0193    0.1428    0.0546
          18    0.0081    0.0021    0.0031    0.0167    0.1120    0.0028   -0.0345   -0.0205
          19    0.0008   -0.0015   -0.0101    0.0108    0.0247   -0.0163    0.1152    0.0422
          20    0.0029   -0.0016    0.0084   -0.0117   -0.0201    0.0175   -0.1185   -0.0394
          21   -0.0087    0.0073    0.0029    0.0028   -0.0053   -0.0039    0.0215    0.0008
          22   -0.0021    0.0032   -0.0028   -0.0163    0.0056    0.0871    0.0114   -0.0087
          23   -0.0014   -0.0004   -0.0076   -0.0156    0.0025   -0.1234   -0.0183    0.0170
          24    0.0035   -0.0019    0.0196    0.0459   -0.0119    0.1548    0.0243   -0.0228
          25   -0.0055   -0.0027   -0.0218   -0.0446    0.0110    0.0461   -0.0283    0.1037
          26    0.0000    0.0027    0.0063    0.0265   -0.0067   -0.0094   -0.0173    0.0547
          27    0.0042   -0.0006    0.0104    0.0064   -0.0016   -0.0241    0.0419   -0.1440
          28    0.0060   -0.0013    0.0297    0.0490   -0.0131   -0.1389   -0.0131    0.0004
          29   -0.0004    0.0004   -0.0106   -0.0181    0.0054    0.1319    0.0174   -0.0138
          30   -0.0048   -0.0003   -0.0123   -0.0203    0.0037   -0.1084   -0.0191    0.0245
          31    0.0082   -0.0046   -0.0527    0.0359   -0.0395   -0.0016    0.0010   -0.0095
          32   -0.0078   -0.0017    0.0141   -0.0099   -0.0135   -0.0004    0.0118    0.0038
          33    0.0029    0.0112    0.0014    0.0022    0.0310    0.0011   -0.0208    0.0028
          34   -0.0568    0.0275    0.0746   -0.0317    0.0435    0.0044   -0.0009   -0.0013
          35    0.0794   -0.0204   -0.0991   -0.0234    0.0011   -0.0026   -0.0031    0.0027
          36   -0.0429    0.0045    0.0452    0.0322   -0.0229   -0.0034   -0.0009   -0.0005
          37   -0.0620    0.0352    0.0516   -0.0106    0.0273    0.0203   -0.0033    0.0086
          38   -0.0496    0.0169    0.0603    0.0111    0.0055    0.0109    0.0025   -0.0008
          39   -0.0740    0.0111    0.0849    0.0382   -0.0222   -0.0413   -0.0038    0.0020
          40   -0.0860    0.0718   -0.0676    0.0115    0.0288   -0.0012    0.0052   -0.0133
          41   -0.0023    0.0028   -0.0087    0.0057    0.0119   -0.0033    0.0078   -0.0075
          42   -0.0476    0.0500   -0.0057    0.0283   -0.0046    0.0071   -0.0336    0.0120
          43   -0.0164    0.0110   -0.0176   -0.0035    0.0060   -0.0008    0.0060    0.0055
          44    0.0981   -0.0885    0.0630   -0.0312   -0.0263   -0.0022    0.0097   -0.0039
          45    0.0001    0.0049    0.0239    0.0087   -0.0173    0.0042   -0.0204    0.0054
          46    0.0918   -0.0825   -0.0275    0.0314    0.0433    0.0037   -0.0259   -0.0086
          47    0.1288    0.0967    0.0301   -0.0413   -0.0443   -0.0045    0.0310    0.0096
          48    0.0266   -0.0647   -0.0245    0.0234    0.0046    0.0020   -0.0130   -0.0029
          49   -0.0124    0.0474    0.0098   -0.0129   -0.0285   -0.0015    0.0108    0.0042
          50   -0.0639   -0.1614   -0.0036   -0.0233   -0.0656    0.0015   -0.0115   -0.0039
          51    0.0592   -0.1429   -0.0294    0.0426    0.0949   -0.0014    0.0129    0.0045
          52    0.1415    0.1972    0.0102    0.0053    0.0232   -0.0007    0.0041    0.0014
          53   -0.0066   -0.0123    0.0020   -0.0063   -0.0132    0.0020   -0.0145   -0.0055
          54   -0.0783   -0.0680   -0.0230    0.0479    0.1071   -0.0013    0.0084    0.0030
          55    0.0171   -0.0100    0.0132   -0.0003    0.0317   -0.0058    0.0499    0.0271
          56   -0.0208    0.0104   -0.0240    0.0052   -0.0303   -0.0011    0.0040   -0.0043
          57    0.0109   -0.0019    0.0329   -0.0132    0.0023    0.0156   -0.1120   -0.0454
          58   -0.0013    0.0027   -0.0090   -0.0220    0.0063    0.1013    0.0135   -0.0117
          59    0.0006    0.0004    0.0385    0.0392   -0.0054   -0.0252   -0.0012   -0.0024
          60    0.0020   -0.0053   -0.0688   -0.0567    0.0042   -0.0742   -0.0143    0.0172
          61   -0.0010    0.0018   -0.0186   -0.0591    0.0139    0.0756    0.0222   -0.0457
          62    0.0045   -0.0011    0.0223    0.0616   -0.0146    0.0009   -0.0049    0.0167
          63   -0.0069    0.0005   -0.0246   -0.0450    0.0096   -0.0941   -0.0157    0.0168
          64    0.0010    0.0129   -0.0065    0.0442   -0.0065    0.0337    0.0270   -0.0740
          65   -0.0009    0.0021    0.0071    0.0229   -0.0066   -0.0035   -0.0284    0.0952
          66   -0.0020   -0.0125   -0.0015   -0.0670    0.0131   -0.0184    0.0030   -0.0238


   Root No.      49        50        51        52        53        54        55        56

                49 A      50 A      51 A      52 A      53 A      54 A      55 A      56 A   

                2860.3    2949.5    2970.2    3030.7    3043.9    3057.8    3063.2    3073.1
  
           1   -0.0217   -0.0012   -0.0002    0.0006   -0.0004    0.0002   -0.0000   -0.0001
           2   -0.0565   -0.0030   -0.0001   -0.0001    0.0003    0.0001    0.0000    0.0001
           3   -0.0309   -0.0016   -0.0001    0.0000    0.0001   -0.0002   -0.0001    0.0000
           4   -0.0006   -0.0033    0.0000    0.0227   -0.0001   -0.0015    0.0006    0.0012
           5    0.0049   -0.0546   -0.0001   -0.0143    0.0001    0.0016   -0.0001   -0.0012
           6    0.0013   -0.0174   -0.0000    0.0292   -0.0001   -0.0014    0.0007    0.0014
           7   -0.0000    0.0001   -0.0352    0.0001    0.0270    0.0001   -0.0001   -0.0000
           8    0.0002    0.0001   -0.0441   -0.0001   -0.0310   -0.0001   -0.0001   -0.0000
           9    0.0000    0.0000   -0.0225    0.0000    0.0114    0.0001   -0.0000    0.0002
          10   -0.0000   -0.0002   -0.0000    0.0012    0.0000   -0.0003   -0.0426   -0.0000
          11   -0.0001   -0.0001   -0.0000    0.0005   -0.0000   -0.0002   -0.0328   -0.0002
          12    0.0000   -0.0000   -0.0000    0.0002    0.0001   -0.0001   -0.0121   -0.0001
          13    0.0002   -0.0003   -0.0003   -0.0003    0.0005   -0.0000   -0.0000    0.0011
          14   -0.0010    0.0001   -0.0001    0.0001   -0.0002    0.0001   -0.0000    0.0009
          15    0.0008   -0.0001    0.0002    0.0000   -0.0003   -0.0001    0.0000   -0.0019
          16    0.0008   -0.0001   -0.0001    0.0002   -0.0005   -0.0000   -0.0001   -0.0000
[...]

 VIBRATION         43   43A           ATOM PAIR      ENERGY CONTRIBUTION    RADIAL
 FREQUENCY          1409.00         C  1 -- C  5         +12.1% ( 50.5%)     43.9%
 TRANSITION DIPOLE   0.0741         C  1 -- C  2         +10.8% ( 47.6%)     81.5%
 TRAVEL (Ang.)       0.2260         C  3 -- C  5         +10.7% ( 47.6%)     94.3%
 REDUCED MASS        0.9368         C  1 -- H 11          +6.7% ( 37.6%)      0.3%
 EFFECTIVE MASS      8.3712
 FORCE CONSTANT      1.0957

 VIBRATION         44   44A           ATOM PAIR      ENERGY CONTRIBUTION    RADIAL
 FREQUENCY          1433.41         C  9 -- C 10         +13.6% ( 56.3%)     99.9%
 TRANSITION DIPOLE   0.1232         C  2 -- C  8         +10.9% ( 50.3%)     96.7%
 TRAVEL (Ang.)       0.1972         C  8 -- C 10          +8.2% ( 43.7%)      0.5%
 REDUCED MASS        1.2095         C  1 -- C  5          +7.8% ( 42.8%)     92.1%
 EFFECTIVE MASS     10.2957
 FORCE CONSTANT      1.4642

 VIBRATION         45   45A           ATOM PAIR      ENERGY CONTRIBUTION    RADIAL
 FREQUENCY          1484.64         C  4 -- C  6         +22.1% ( 72.5%)     78.2%
 TRANSITION DIPOLE   0.1437         C  1 -- C  6         +21.4% ( 71.4%)     97.7%
 TRAVEL (Ang.)       0.1236         C  6 -- C  7         +13.0% ( 55.7%)     10.3%
 REDUCED MASS        2.9729         C  1 -- C  2          +6.9% ( 40.6%)     51.9%
 EFFECTIVE MASS     10.8503
 FORCE CONSTANT      3.8607

 VIBRATION         46   46A           ATOM PAIR      ENERGY CONTRIBUTION    RADIAL
 FREQUENCY          1835.63         C  8 -- C 10         +42.3% ( 96.3%)     99.9%
 TRANSITION DIPOLE   0.2578         C  9 -- C 10         +14.7% ( 56.8%)     62.1%
 TRAVEL (Ang.)       0.0856         C  2 -- C  8         +13.4% ( 54.1%)     47.8%
 REDUCED MASS        5.0149         C 10 -- H 21         +12.7% ( 52.8%)      4.5%
 EFFECTIVE MASS     11.8837         C  8 -- H 20         +12.3% ( 52.0%)      5.4%
 FORCE CONSTANT      9.9560

 VIBRATION         47   47A           ATOM PAIR      ENERGY CONTRIBUTION    RADIAL
 FREQUENCY          1862.62         C  6 -- C  7         +38.7% ( 92.4%)     97.8%
 TRANSITION DIPOLE   0.1538         C  4 -- C  6         +16.2% ( 59.8%)     62.9%
 TRAVEL (Ang.)       0.0897         C  1 -- C  6         +14.6% ( 56.7%)      3.0%
 REDUCED MASS        4.5020         C  3 -- C  7          +9.4% ( 45.7%)     21.4%
 EFFECTIVE MASS     11.8735
 FORCE CONSTANT      9.2025

 VIBRATION         48   48A           ATOM PAIR      ENERGY CONTRIBUTION    RADIAL
 FREQUENCY          1913.86         C  5 -- C  9         +39.0% ( 92.2%)     99.3%
 TRANSITION DIPOLE   0.3733         C  3 -- C  5         +16.0% ( 59.1%)     51.4%
 TRAVEL (Ang.)       0.0873         C  1 -- C  5         +15.5% ( 58.1%)     26.9%
 REDUCED MASS        4.6277         C  9 -- C 10          +9.5% ( 45.6%)     27.6%
 EFFECTIVE MASS     11.9078
 FORCE CONSTANT      9.9871

 VIBRATION         49   49A           ATOM PAIR      ENERGY CONTRIBUTION    RADIAL
 FREQUENCY          2860.32         C  1 -- H 11         +96.6% ( 99.8%)    100.0%
 TRANSITION DIPOLE   0.0863         C  1 -- C  2          +1.0% ( 10.1%)      8.5%
 TRAVEL (Ang.)       0.1599         C  1 -- C  5          +1.0% ( 10.0%)      9.4%
 REDUCED MASS        0.9215         C  1 -- C  6          +1.0% ( 10.0%)      9.0%
 EFFECTIVE MASS      1.4327
 FORCE CONSTANT      4.4417

 VIBRATION         50   50A           ATOM PAIR      ENERGY CONTRIBUTION    RADIAL
 FREQUENCY          2949.47         C  2 -- H 12         +58.5% ( 79.3%)     97.4%
 TRANSITION DIPOLE   0.0533         C  2 -- H 13         +38.8% ( 64.6%)     95.2%
 TRAVEL (Ang.)       0.2072         C  2 -- C  8          +1.1% ( 11.0%)      0.0%
 REDUCED MASS        0.5323         C  1 -- C  2          +1.1% ( 10.9%)      0.2%
 EFFECTIVE MASS      1.5354
 FORCE CONSTANT      2.7284

 VIBRATION         51   51A           ATOM PAIR      ENERGY CONTRIBUTION    RADIAL
 FREQUENCY          2970.23         C  3 -- H 15         +55.9% ( 77.5%)     97.4%
 TRANSITION DIPOLE   0.0573         C  3 -- H 14         +41.9% ( 67.1%)     95.9%
 TRAVEL (Ang.)       0.2075         C  3 -- C  7          +1.1% ( 10.8%)      0.1%
 REDUCED MASS        0.5274         C  3 -- C  5          +1.1% ( 10.8%)      0.1%
 EFFECTIVE MASS      1.5337
 FORCE CONSTANT      2.7413

 VIBRATION         52   52A           ATOM PAIR      ENERGY CONTRIBUTION    RADIAL
 FREQUENCY          3030.74         C  2 -- H 13         +59.4% ( 76.0%)     98.7%
 TRANSITION DIPOLE   0.0850         C  2 -- H 12         +38.2% ( 61.0%)     96.1%
 TRAVEL (Ang.)       0.2123         C  8 -- H 20          +1.0% (  9.8%)    100.0%
 REDUCED MASS        0.4935         C  2 -- C  8          +0.7% (  8.0%)     20.8%
 EFFECTIVE MASS      1.2826
 FORCE CONSTANT      2.6707

 VIBRATION         53   53A           ATOM PAIR      ENERGY CONTRIBUTION    RADIAL
 FREQUENCY          3043.89         C  3 -- H 14         +56.9% ( 74.5%)     98.3%
 TRANSITION DIPOLE   0.1257         C  3 -- H 15         +41.6% ( 63.7%)     96.3%
 TRAVEL (Ang.)       0.2119         C  3 -- C  5          +0.7% (  8.4%)     38.0%
 REDUCED MASS        0.4936         C  3 -- C  7          +0.7% (  8.4%)     33.8%
 EFFECTIVE MASS      1.2877
 FORCE CONSTANT      2.6945

 VIBRATION         54   54A           ATOM PAIR      ENERGY CONTRIBUTION    RADIAL
 FREQUENCY          3057.79         C  8 -- H 20         +51.1% ( 72.6%)    100.0%
 TRANSITION DIPOLE   0.2643         C 10 -- H 21         +44.3% ( 67.6%)    100.0%
 TRAVEL (Ang.)       0.2220         C  9 -- H 22          +1.7% ( 13.1%)     99.9%
 REDUCED MASS        0.4474         C  8 -- C 10          +1.1% ( 10.6%)      0.1%
 EFFECTIVE MASS      1.4643
 FORCE CONSTANT      2.4647

 VIBRATION         55   55A           ATOM PAIR      ENERGY CONTRIBUTION    RADIAL
 FREQUENCY          3063.24         C  4 -- H 17         +57.8% ( 78.4%)     98.0%
 TRANSITION DIPOLE   0.0385         C  4 -- H 18         +39.7% ( 65.0%)     95.5%
 TRAVEL (Ang.)       0.2056         C  4 -- H 16          +1.4% ( 12.3%)     12.9%
 REDUCED MASS        0.5207         C  4 -- C  6          +1.0% ( 10.2%)      0.0%
 EFFECTIVE MASS      1.5032
 FORCE CONSTANT      2.8788

 VIBRATION         56   56A           ATOM PAIR      ENERGY CONTRIBUTION    RADIAL
 FREQUENCY          3073.09         C  9 -- H 22         +44.3% ( 67.6%)    100.0%
 TRANSITION DIPOLE   0.2917         C  8 -- H 20         +30.1% ( 55.8%)     99.9%
 TRAVEL (Ang.)       0.2567         C 10 -- H 21         +21.9% ( 47.6%)     99.8%
 REDUCED MASS        0.3330         C  8 -- C 10          +1.1% ( 10.5%)     99.0%
 EFFECTIVE MASS      1.5484
 FORCE CONSTANT      1.8529

 VIBRATION         57   57A           ATOM PAIR      ENERGY CONTRIBUTION    RADIAL
 FREQUENCY          3077.77         C  4 -- H 16         +58.8% ( 79.1%)     98.6%
 TRANSITION DIPOLE   0.0469         C  4 -- H 18         +27.0% ( 53.6%)     90.8%
 TRAVEL (Ang.)       0.2164         C  4 -- H 17         +13.1% ( 37.4%)     78.9%
 REDUCED MASS        0.4678         C  4 -- C  6          +1.0% ( 10.6%)      0.0%
 EFFECTIVE MASS      1.5134
 FORCE CONSTANT      2.6108

 VIBRATION         58   58A           ATOM PAIR      ENERGY CONTRIBUTION    RADIAL
 FREQUENCY          3082.30         C  9 -- H 22         +51.0% ( 72.4%)    100.0%
 TRANSITION DIPOLE   0.4076         C 10 -- H 21         +30.7% ( 56.2%)    100.0%
 TRAVEL (Ang.)       0.2417         C  8 -- H 20         +14.7% ( 38.9%)     99.8%
 REDUCED MASS        0.3744         C  9 -- C 10          +1.3% ( 11.7%)     88.1%
 EFFECTIVE MASS      1.5782
 FORCE CONSTANT      2.0959

 VIBRATION         59   59A           ATOM PAIR      ENERGY CONTRIBUTION    RADIAL
 FREQUENCY          3125.78         C  7 -- H 19         +96.5% ( 99.9%)    100.0%
 TRANSITION DIPOLE   0.3857         C  6 -- C  7          +1.8% ( 13.6%)     48.6%
 TRAVEL (Ang.)       0.1525         C  3 -- C  7          +1.6% ( 13.0%)     23.9%
 REDUCED MASS        0.9279
 EFFECTIVE MASS      1.5544
 FORCE CONSTANT      5.3418

 VIBRATION         60   60A           ATOM PAIR      ENERGY CONTRIBUTION    RADIAL
 FREQUENCY          3163.02         C  4 -- H 16         +39.8% ( 60.8%)     97.9%
 TRANSITION DIPOLE   0.0578         C  4 -- H 18         +32.4% ( 54.9%)     96.9%
 TRAVEL (Ang.)       0.2529         C  4 -- H 17         +27.5% ( 50.5%)     95.9%
 REDUCED MASS        0.3332         C  4 -- C  6          +0.3% (  5.5%)     98.3%
 EFFECTIVE MASS      1.1406
 FORCE CONSTANT      1.9641

      SYMMETRY NUMBER FOR POINT-GROUP C1  =  1


          SYSTEM IS A GROUND STATE



 InChI=1S/C10H12/c1-8-6-7-9-4-2-3-5-10(8)9/h2-4,6,10H,5,7H2,1H3


          MOLECULE IS NOT LINEAR

          THERE ARE 60 GENUINE VIBRATIONS IN THIS SYSTEM
          THIS THERMODYNAMICS CALCULATION IS LIMITED TO
          MOLECULES WHICH HAVE NO INTERNAL ROTATIONS




                    CALCULATED THERMODYNAMIC PROPERTIES
                                          *
   TEMP. (K)   PARTITION FUNCTION   H.O.F.    ENTHALPY  HEAT CAPACITY ENTROPY
                                   KCAL/MOL   CAL/MOLE    CAL/K/MOL  CAL/K/MOL


 298.00  VIB.     0.8167D+02                  3730.1675    28.9611    21.2664
         ROT.     0.5462D+06                   888.2803     2.9808    29.2334
         INT.     0.4461D+08                  4618.4478    31.9419    50.4998
         TRA.     0.1470D+28                  1480.4672     4.9680    40.5480
         TOT.                       30.058    6098.9150    36.9099    91.0478

 200.00  VIB.     0.1152D+02                  1492.3834    17.0236    12.3187
         ROT.     0.3003D+06                   596.1613     2.9808    28.0447
         INT.     0.3460D+07                  2088.5447    20.0044    40.3634
         TRA.     0.8080D+27                   993.6021     4.9680    38.5668
         TOT.                       27.041    3082.1468    24.9724    78.9302

 210.00  VIB.     0.1392D+02                  1668.1651    18.1379    13.1761
         ROT.     0.3231D+06                   625.9693     2.9808    28.1901
         INT.     0.4497D+07                  2294.1345    21.1187    41.3662
         TRA.     0.8694D+27                  1043.2822     4.9680    38.8092
         TOT.                       27.296    3337.4167    26.0867    80.1754

 220.00  VIB.     0.1686D+02                  1855.2431    19.2826    14.0462
         ROT.     0.3465D+06                   655.7774     2.9808    28.3288
         INT.     0.5840D+07                  2511.0205    22.2634    42.3750
         TRA.     0.9322D+27                  1092.9623     4.9680    39.0403
         TOT.                       27.563    3603.9828    27.2314    81.4153

 230.00  VIB.     0.2047D+02                  2053.9128    20.4559    14.9291
         ROT.     0.3704D+06                   685.5855     2.9808    28.4613
         INT.     0.7581D+07                  2739.4983    23.4367    43.3904
         TRA.     0.9965D+27                  1142.6424     4.9680    39.2612
         TOT.                       27.841    3882.1407    28.4047    82.6516

 240.00  VIB.     0.2491D+02                  2264.4480    21.6553    15.8249
         ROT.     0.3948D+06                   715.3935     2.9808    28.5882
         INT.     0.9836D+07                  2979.8415    24.6361    44.4131
         TRA.     0.1062D+28                  1192.3226     4.9680    39.4726
         TOT.                       28.131    4172.1641    29.6041    83.8857

 250.00  VIB.     0.3040D+02                  2487.0951    22.8778    16.7337
         ROT.     0.4197D+06                   745.2016     2.9808    28.7099
         INT.     0.1276D+08                  3232.2967    25.8586    45.4435
         TRA.     0.1129D+28                  1242.0027     4.9680    39.6754
         TOT.                       28.433    4474.2993    30.8266    85.1189

 260.00  VIB.     0.3719D+02                  2722.0695    24.1202    17.6551
         ROT.     0.4452D+06                   775.0097     2.9808    28.8268
         INT.     0.1655D+08                  3497.0792    27.1010    46.4819
         TRA.     0.1198D+28                  1291.6828     4.9680    39.8703
         TOT.                       28.748    4788.7619    32.0690    86.3521

 270.00  VIB.     0.4559D+02                  2969.5530    25.3790    18.5889
         ROT.     0.4711D+06                   804.8177     2.9808    28.9393
         INT.     0.2148D+08                  3774.3707    28.3598    47.5282
         TRA.     0.1267D+28                  1341.3629     4.9680    40.0578
         TOT.                       29.075    5115.7336    33.3278    87.5860

 280.00  VIB.     0.5603D+02                  3229.6921    26.6507    19.5349
         ROT.     0.4975D+06                   834.6258     2.9808    29.0477
         INT.     0.2787D+08                  4064.3179    29.6315    48.5825
         TRA.     0.1338D+28                  1391.0430     4.9680    40.2384
         TOT.                       29.414    5455.3608    34.5995    88.8210

 290.00  VIB.     0.6902D+02                  3502.5981    27.9318    20.4924
         ROT.     0.5244D+06                   864.4339     2.9808    29.1523
         INT.     0.3619D+08                  4367.0319    30.9126    49.6447
         TRA.     0.1411D+28                  1440.7231     4.9680    40.4128
         TOT.                       29.767    5807.7550    35.8806    90.0574

 300.00  VIB.     0.8520D+02                  3788.3474    29.2188    21.4610
         ROT.     0.5517D+06                   894.2419     2.9808    29.2533
         INT.     0.4701D+08                  4682.5893    32.1996    50.7143
         TRA.     0.1484D+28                  1490.4032     4.9680    40.5812
         TOT.                       30.132    6172.9925    37.1676    91.2955

 310.00  VIB.     0.1054D+03                  4086.9827    30.5085    22.4401
         ROT.     0.5796D+06                   924.0500     2.9808    29.3511
         INT.     0.6110D+08                  5011.0327    33.4893    51.7912
         TRA.     0.1559D+28                  1540.0833     4.9680    40.7441
         TOT.                       30.510    6551.1160    38.4573    92.5353

 320.00  VIB.     0.1307D+03                  4398.5151    31.7977    23.4291
         ROT.     0.6078D+06                   953.8580     2.9808    29.4457
         INT.     0.7945D+08                  5352.3731    34.7785    52.8748
         TRA.     0.1635D+28                  1589.7634     4.9680    40.9018
         TOT.                       30.901    6942.1365    39.7465    93.7766

 330.00  VIB.     0.1624D+03                  4722.9255    33.0836    24.4272
         ROT.     0.6365D+06                   983.6661     2.9808    29.5374
         INT.     0.1034D+09                  5706.5916    36.0644    53.9647
         TRA.     0.1713D+28                  1639.4435     4.9680    41.0547
         TOT.                       31.305    7346.0351    41.0324    95.0194

 340.00  VIB.     0.2023D+03                  5060.1676    34.3636    25.4339
         ROT.     0.6657D+06                  1013.4742     2.9808    29.6264
         INT.     0.1346D+09                  6073.6418    37.3444    55.0603
         TRA.     0.1791D+28                  1689.1236     4.9680    41.2030
         TOT.                       31.722    7762.7654    42.3124    96.2633

 350.00  VIB.     0.2523D+03                  5410.1702    35.6353    26.4484
         ROT.     0.6953D+06                  1043.2822     2.9808    29.7128
         INT.     0.1754D+09                  6453.4524    38.6161    56.1612
         TRA.     0.1871D+28                  1738.8037     4.9680    41.3470
         TOT.                       32.151    8192.2561    43.5841    97.5082

 360.00  VIB.     0.3154D+03                  5772.8395    36.8966    27.4700
         ROT.     0.7253D+06                  1073.0903     2.9808    29.7968
         INT.     0.2288D+09                  6845.9298    39.8774    57.2668
         TRA.     0.1951D+28                  1788.4838     4.9680    41.4870
         TOT.                       32.593    8634.4136    44.8455    98.7538

 370.00  VIB.     0.3951D+03                  6148.0619    38.1457    28.4980
         ROT.     0.7557D+06                  1102.8984     2.9808    29.8785
         INT.     0.2986D+09                  7250.9603    41.1265    58.3764
         TRA.     0.2033D+28                  1838.1639     4.9680    41.6231
         TOT.                       33.048    9089.1242    46.0945    99.9995

 380.00  VIB.     0.4957D+03                  6535.7067    39.3808    29.5317
         ROT.     0.7866D+06                  1132.7064     2.9808    29.9580
         INT.     0.3899D+09                  7668.4131    42.3616    59.4896
         TRA.     0.2116D+28                  1887.8440     4.9680    41.7556
         TOT.                       33.515    9556.2571    47.3297   101.2452

 390.00  VIB.     0.6230D+03                  6935.6277    40.6007    30.5704
         ROT.     0.8178D+06                  1162.5145     2.9808    30.0354
         INT.     0.5095D+09                  8098.1422    43.5815    60.6058
         TRA.     0.2200D+28                  1937.5242     4.9680    41.8846
         TOT.                       33.995   10035.6664    48.5495   102.4904

 400.00  VIB.     0.7843D+03                  7347.6664    41.8042    31.6136
         ROT.     0.8495D+06                  1192.3226     2.9808    30.1108
         INT.     0.6663D+09                  8539.9890    44.7850    61.7244
         TRA.     0.2285D+28                  1987.2043     4.9680    42.0104
         TOT.                       34.486   10527.1932    49.7530   103.7348

   *: NOTE: HEATS OF FORMATION ARE RELATIVE TO THE
            ELEMENTS IN THEIR STANDARD STATE AT 298K
              (=  Standard Enthalpy of Formation).

            Hvib:  Zero-point energy is not included.
                   frequencies of less than zero cm-1 are not included.
            Hrot = (3/2)RT
            Htra = (3/2)RT + pV = (5/2)RT

            Heat capacity is Cp, not Cv

          For more information, see: HTTP://OpenMOPAC.net/Manual/thermochemistry.html


           FORCE CONSTANT IN CARTESIAN COORDINATES (Millidynes/A)

    ATOM   CHEMICAL       X               Y               Z
   NUMBER   SYMBOL  FORCE CONSTANT  FORCE CONSTANT  FORCE CONSTANT

      1       C        9.102412        8.389209        8.348804
      2       C        8.275151        8.314757        8.706189
      3       C        8.711959        8.954529        8.062276
      4       C        8.249900        8.449693        8.966549
      5       C        8.947067        7.258122       11.962301
      6       C        9.130940        9.511111        9.619631
      7       C        9.784213        8.233439        9.215068
      8       C       10.022552        6.667047       10.064197
      9       C        9.331655        7.920940       10.352091
     10       C        9.689999        6.740504       11.000220
     11       H        1.092407        3.311288        1.417615
     12       H        1.205102        2.525280        2.516466
     13       H        1.181092        4.243413        0.933881
     14       H        0.664168        4.965213        0.702283
     15       H        3.769972        0.894054        1.594925
     16       H        2.012488        0.918007        3.800834
     17       H        5.048276        0.715899        0.851090
     18       H        0.764623        4.918286        0.943953
     19       H        2.315603        0.780523        3.317935
     20       H        4.300618        1.015412        0.950820
     21       H        1.249788        0.769786        4.252113
     22       H        1.199885        3.347683        1.719396

 **********************
 *                    *
 * JOB ENDED NORMALLY *
 *                    *
 **********************



 TOTAL JOB TIME:             3.59 SECONDS

 == MOPAC DONE ==
