 *******************************************************************************
 **                                                                           **
 **                              MOPAC v23.1.2                                **
 **                                                                           **
 *******************************************************************************
 **          Digital Object Identifier (DOI): 10.5281/zenodo.6511958          **
 **    Visit the DOI location for information on how to cite this program.    **
 *******************************************************************************

                              PM3 CALCULATION RESULTS

 *******************************************************************************
 *  CALCULATION DONE: (MAX THREADS = 1)              Tue Jun  3 16:28:01 2025  *
 *  PM3        - The PM3 Hamiltonian to be used
 *  PRECISE    - TIGHTER CRITERIA TO BE USED
 *  NOSYM      - POINT-GROUP SYMMETRY SET TO C1
 *  THREADS=1  - MULTI-THREADING NOT USED
 *  T=         - A TIME OF 172800.0 SECONDS REQUESTED
 *  DUMP=N     - RESTART FILE WRITTEN EVERY 7200.0 SECONDS REQUESTED
 *******************************************************************************
pm3  precise nosym THREADS=1
 InChI=1S/C7H10/c1-2-7-5-3-4-6-7/h3-7H,2H2,1H3

   ATOM   CHEMICAL          X               Y               Z
  NUMBER   SYMBOL      (ANGSTROMS)     (ANGSTROMS)     (ANGSTROMS)

     1       C          0.10400000  *  -0.37190000  *   0.28520000  *
     2       C         -1.15330000  *  -0.34460000  *  -0.59890000  *
     3       C         -2.28690000  *   0.45240000  *   0.04430000  *
     4       C          0.80580000  *   0.95300000  *   0.31980000  *
     5       C          1.16560000  *  -1.23820000  *  -0.31940000  *
     6       C          2.02850000  *   0.84360000  *  -0.17230000  *
     7       C          2.25420000  *  -0.53160000  *  -0.57390000  *
     8       H         -0.12940000  *  -0.72020000  *   1.31470000  *
     9       H         -0.91690000  *   0.09120000  *  -1.59510000  *
    10       H         -1.50850000  *  -1.38640000  *  -0.75740000  *
    11       H         -2.53720000  *   0.03240000  *   1.04170000  *
    12       H         -3.18980000  *   0.39740000  *  -0.59970000  *
    13       H         -2.00100000  *   1.51920000  *   0.15570000  *
    14       H          0.39000000  *   1.87370000  *   0.70740000  *
    15       H          1.06950000  *  -2.29810000  *  -0.51660000  *
    16       H          2.74150000  *   1.65320000  *  -0.25150000  *
    17       H          3.16380000  *  -0.92530000  *  -1.00740000  *



          CARTESIAN COORDINATES 

    NO.       ATOM           X           Y           Z

     1         C          0.1040     -0.3719      0.2852
     2         C         -1.1533     -0.3446     -0.5989
     3         C         -2.2869      0.4524      0.0443
     4         C          0.8058      0.9530      0.3198
     5         C          1.1656     -1.2382     -0.3194
     6         C          2.0285      0.8436     -0.1723
     7         C          2.2542     -0.5316     -0.5739
     8         H         -0.1294     -0.7202      1.3147
     9         H         -0.9169      0.0912     -1.5951
    10         H         -1.5085     -1.3864     -0.7574
    11         H         -2.5372      0.0324      1.0417
    12         H         -3.1898      0.3974     -0.5997
    13         H         -2.0010      1.5192      0.1557
    14         H          0.3900      1.8737      0.7074
    15         H          1.0695     -2.2981     -0.5166
    16         H          2.7415      1.6532     -0.2515
    17         H          3.1638     -0.9253     -1.0074

  H: (PM3): J. J. P. STEWART, J. COMP. CHEM. 10, 209 (1989).
  C: (PM3): J. J. P. STEWART, J. COMP. CHEM. 10, 209 (1989).

           Empirical Formula: C7 H10  =    17 atoms



      MOLECULAR POINT GROUP   :   C1  


      RHF CALCULATION, NO. OF DOUBLY OCCUPIED LEVELS = 19


          Geometry optimization using EF

          DIAGONAL MATRIX USED AS START HESSIAN

 CYCLE:     1 TIME:   0.004 TIME LEFT:  2.00D  GRAD.:   101.501 HEAT:  25.57749
 CYCLE:     2 TIME:   0.012 TIME LEFT:  2.00D  GRAD.:    75.746 HEAT:  24.27411
 CYCLE:     3 TIME:   0.008 TIME LEFT:  2.00D  GRAD.:    24.372 HEAT:  22.96401
 CYCLE:     4 TIME:   0.008 TIME LEFT:  2.00D  GRAD.:    17.304 HEAT:  22.74566
 CYCLE:     5 TIME:   0.004 TIME LEFT:  2.00D  GRAD.:    18.764 HEAT:  22.54552
 CYCLE:     6 TIME:   0.008 TIME LEFT:  2.00D  GRAD.:    17.501 HEAT:  22.31170
 CYCLE:     7 TIME:   0.004 TIME LEFT:  2.00D  GRAD.:    29.117 HEAT:  22.30039
 CYCLE:     8 TIME:   0.008 TIME LEFT:  2.00D  GRAD.:    15.386 HEAT:  22.10677
 CYCLE:     9 TIME:   0.008 TIME LEFT:  2.00D  GRAD.:     9.704 HEAT:  22.04673
 CYCLE:    10 TIME:   0.008 TIME LEFT:  2.00D  GRAD.:     7.359 HEAT:  22.02778
 CYCLE:    11 TIME:   0.004 TIME LEFT:  2.00D  GRAD.:     6.460 HEAT:  22.01751
 CYCLE:    12 TIME:   0.008 TIME LEFT:  2.00D  GRAD.:     6.041 HEAT:  22.00781
 CYCLE:    13 TIME:   0.008 TIME LEFT:  2.00D  GRAD.:     5.178 HEAT:  22.00113
 CYCLE:    14 TIME:   0.004 TIME LEFT:  2.00D  GRAD.:     4.550 HEAT:  21.99501
 CYCLE:    15 TIME:   0.004 TIME LEFT:  2.00D  GRAD.:     4.731 HEAT:  21.98921
 CYCLE:    16 TIME:   0.008 TIME LEFT:  2.00D  GRAD.:     2.970 HEAT:  21.97931
 CYCLE:    17 TIME:   0.004 TIME LEFT:  2.00D  GRAD.:     5.354 HEAT:  21.97233
 CYCLE:    18 TIME:   0.004 TIME LEFT:  2.00D  GRAD.:     3.893 HEAT:  21.96123
 CYCLE:    19 TIME:   0.012 TIME LEFT:  2.00D  GRAD.:     3.730 HEAT:  21.95818
 CYCLE:    20 TIME:   0.004 TIME LEFT:  2.00D  GRAD.:     2.778 HEAT:  21.95199
 CYCLE:    21 TIME:   0.004 TIME LEFT:  2.00D  GRAD.:     3.045 HEAT:  21.94770
 CYCLE:    22 TIME:   0.008 TIME LEFT:  2.00D  GRAD.:     1.713 HEAT:  21.94256
 CYCLE:    23 TIME:   0.004 TIME LEFT:  2.00D  GRAD.:     2.564 HEAT:  21.93625
 CYCLE:    24 TIME:   0.004 TIME LEFT:  2.00D  GRAD.:     2.838 HEAT:  21.93119
 CYCLE:    25 TIME:   0.008 TIME LEFT:  2.00D  GRAD.:     2.111 HEAT:  21.92523
 CYCLE:    26 TIME:   0.004 TIME LEFT:  2.00D  GRAD.:     1.415 HEAT:  21.91964
 CYCLE:    27 TIME:   0.008 TIME LEFT:  2.00D  GRAD.:     1.408 HEAT:  21.91729
 CYCLE:    28 TIME:   0.004 TIME LEFT:  2.00D  GRAD.:     1.141 HEAT:  21.91436
 CYCLE:    29 TIME:   0.004 TIME LEFT:  2.00D  GRAD.:     0.916 HEAT:  21.91188
 CYCLE:    30 TIME:   0.008 TIME LEFT:  2.00D  GRAD.:     0.954 HEAT:  21.91001
 CYCLE:    31 TIME:   0.004 TIME LEFT:  2.00D  GRAD.:     0.749 HEAT:  21.90868
 CYCLE:    32 TIME:   0.008 TIME LEFT:  2.00D  GRAD.:     0.621 HEAT:  21.90757
 CYCLE:    33 TIME:   0.008 TIME LEFT:  2.00D  GRAD.:     0.646 HEAT:  21.90660
 CYCLE:    34 TIME:   0.004 TIME LEFT:  2.00D  GRAD.:     0.673 HEAT:  21.90564
 CYCLE:    35 TIME:   0.008 TIME LEFT:  2.00D  GRAD.:     0.697 HEAT:  21.90441
 CYCLE:    36 TIME:   0.004 TIME LEFT:  2.00D  GRAD.:     0.804 HEAT:  21.90250
 CYCLE:    37 TIME:   0.008 TIME LEFT:  2.00D  GRAD.:     1.007 HEAT:  21.90008
 CYCLE:    38 TIME:   0.004 TIME LEFT:  2.00D  GRAD.:     1.101 HEAT:  21.89766
 CYCLE:    39 TIME:   0.008 TIME LEFT:  2.00D  GRAD.:     1.160 HEAT:  21.89491
 CYCLE:    40 TIME:   0.004 TIME LEFT:  2.00D  GRAD.:     1.034 HEAT:  21.89310
 CYCLE:    41 TIME:   0.008 TIME LEFT:  2.00D  GRAD.:     1.373 HEAT:  21.88895
 CYCLE:    42 TIME:   0.004 TIME LEFT:  2.00D  GRAD.:     0.945 HEAT:  21.88721
 CYCLE:    43 TIME:   0.004 TIME LEFT:  2.00D  GRAD.:     0.621 HEAT:  21.88540
 CYCLE:    44 TIME:   0.008 TIME LEFT:  2.00D  GRAD.:     0.734 HEAT:  21.88385
 CYCLE:    45 TIME:   0.004 TIME LEFT:  2.00D  GRAD.:     0.727 HEAT:  21.88242
 CYCLE:    46 TIME:   0.008 TIME LEFT:  2.00D  GRAD.:     0.459 HEAT:  21.88120
 CYCLE:    47 TIME:   0.004 TIME LEFT:  2.00D  GRAD.:     0.307 HEAT:  21.88087
 CYCLE:    48 TIME:   0.004 TIME LEFT:  2.00D  GRAD.:     0.221 HEAT:  21.88063
 CYCLE:    49 TIME:   0.008 TIME LEFT:  2.00D  GRAD.:     0.196 HEAT:  21.88055
 CYCLE:    50 TIME:   0.004 TIME LEFT:  2.00D  GRAD.:     0.249 HEAT:  21.88042
 CYCLE:    51 TIME:   0.008 TIME LEFT:  2.00D  GRAD.:     0.149 HEAT:  21.88035
 CYCLE:    52 TIME:   0.004 TIME LEFT:  2.00D  GRAD.:     0.116 HEAT:  21.88031
 CYCLE:    53 TIME:   0.004 TIME LEFT:  2.00D  GRAD.:     0.122 HEAT:  21.88027
 CYCLE:    54 TIME:   0.008 TIME LEFT:  2.00D  GRAD.:     0.189 HEAT:  21.88023
 CYCLE:    55 TIME:   0.004 TIME LEFT:  2.00D  GRAD.:     0.161 HEAT:  21.88018
 CYCLE:    56 TIME:   0.008 TIME LEFT:  2.00D  GRAD.:     0.171 HEAT:  21.88000
 CYCLE:    57 TIME:   0.004 TIME LEFT:  2.00D  GRAD.:     0.191 HEAT:  21.87989
 CYCLE:    58 TIME:   0.004 TIME LEFT:  2.00D  GRAD.:     0.154 HEAT:  21.87975
 CYCLE:    59 TIME:   0.008 TIME LEFT:  2.00D  GRAD.:     0.141 HEAT:  21.87967
 CYCLE:    60 TIME:   0.004 TIME LEFT:  2.00D  GRAD.:     0.142 HEAT:  21.87956
 CYCLE:    61 TIME:   0.008 TIME LEFT:  2.00D  GRAD.:     0.100 HEAT:  21.87953
 CYCLE:    62 TIME:   0.004 TIME LEFT:  2.00D  GRAD.:     0.086 HEAT:  21.87951
 CYCLE:    63 TIME:   0.004 TIME LEFT:  2.00D  GRAD.:     0.049 HEAT:  21.87949

     GRADIENT =  0.04931 IS LESS THAN CUTOFF =  0.05000



 -------------------------------------------------------------------------------
 pm3  precise nosym THREADS=1
 InChI=1S/C7H10/c1-2-7-5-3-4-6-7/h3-7H,2H2,1H3



     GEOMETRY OPTIMISED USING EIGENVECTOR FOLLOWING (EF).     
     SCF FIELD WAS ACHIEVED                                   


                              PM3 CALCULATION
                                                       MOPAC v23.1.2 MacOS
                                                       Tue Jun  3 16:28:02 2025




          FINAL HEAT OF FORMATION =         21.87949 KCAL/MOL =      91.54381 KJ/MOL


          COSMO AREA              =        145.52 SQUARE ANGSTROMS
          COSMO VOLUME            =        139.39 CUBIC ANGSTROMS

          GRADIENT NORM           =          0.04931          =       0.01196 PER ATOM
          IONIZATION POTENTIAL    =          9.231339 EV
          HOMO LUMO ENERGIES (EV) =         -9.231  0.319
          NO. OF FILLED LEVELS    =         19
          MOLECULAR WEIGHT        =         94.1560         POINT GROUP:  C1  

          MOLECULAR DIMENSIONS (Angstroms)

            Atom       Atom       Distance
            H    17    H    12     6.59252
            H    16    H    15     4.22861
            H     9    H     8     2.96050


          SCF CALCULATIONS        =         74

          WALL-CLOCK TIME         =      0.387 SECONDS
          COMPUTATION TIME        =      0.206 SECONDS




   ATOM   CHEMICAL          X               Y               Z
  NUMBER   SYMBOL      (ANGSTROMS)     (ANGSTROMS)     (ANGSTROMS)

     1       C          0.09449273  *  -0.33172424  *   0.24135521  *
     2       C         -1.16861612  *  -0.31746298  *  -0.60781538  *
     3       C         -2.30826187  *   0.39988791  *   0.08074055  *
     4       C          0.81154814  *   0.99795812  *   0.27284883  *
     5       C          1.15180025  *  -1.25346206  *  -0.32105010  *
     6       C          2.07821017  *   0.84206921  *  -0.16898386  *
     7       C          2.29021662  *  -0.56042767  *  -0.53900199  *
     8       H         -0.14526338  *  -0.64356698  *   1.28618523  *
     9       H         -0.95666121  *   0.15413033  *  -1.58714992  *
    10       H         -1.46238931  *  -1.36189396  *  -0.83369706  *
    11       H         -2.57417210  *  -0.07808437  *   1.03312062  *
    12       H         -3.20877287  *   0.40509011  *  -0.54652794  *
    13       H         -2.05523163  *   1.44592434  *   0.30083695  *
    14       H          0.32741899  *   1.91160751  *   0.61187201  *
    15       H          0.96515263  *  -2.30993336  *  -0.50109603  *
    16       H          2.84929757  *   1.60510411  *  -0.25412487  *
    17       H          3.23391557  *  -0.94008424  *  -0.92542514  *

                             CARTESIAN COORDINATES

   1    C        0.094492727    -0.331724241     0.241355208
   2    C       -1.168616118    -0.317462983    -0.607815383
   3    C       -2.308261866     0.399887914     0.080740550
   4    C        0.811548140     0.997958116     0.272848827
   5    C        1.151800254    -1.253462058    -0.321050102
   6    C        2.078210166     0.842069212    -0.168983859
   7    C        2.290216622    -0.560427669    -0.539001994
   8    H       -0.145263376    -0.643566976     1.286185230
   9    H       -0.956661214     0.154130329    -1.587149920
  10    H       -1.462389310    -1.361893961    -0.833697059
  11    H       -2.574172101    -0.078084368     1.033120622
  12    H       -3.208772872     0.405090105    -0.546527941
  13    H       -2.055231628     1.445924338     0.300836949
  14    H        0.327418992     1.911607513     0.611872012
  15    H        0.965152626    -2.309933364    -0.501096031
  16    H        2.849297567     1.605104112    -0.254124872
  17    H        3.233915573    -0.940084238    -0.925425141


           Empirical Formula: C7 H10  =    17 atoms



      MOLECULAR POINT GROUP   :   C1  


                  EIGENVALUES  
 -40.53745 -33.74334 -27.38614 -26.26174 -21.89024 -19.01660 -18.64144 -17.95903
 -15.63319 -14.84032 -14.46973 -13.89896 -13.31342 -13.15167 -12.55197 -12.33097
 -11.62673 -11.00419  -9.23134   0.31880   2.02411   3.29607   3.36001   3.57812
   3.72284   3.80476   3.96076   4.12173   4.19927   4.30716   4.39392   4.65898
   4.82936   4.88142   4.95634   5.78639   5.80761   6.15997


              NET ATOMIC CHARGES AND DIPOLE CONTRIBUTIONS

  ATOM NO.   TYPE          CHARGE      No. of ELECS.   s-Pop       p-Pop       
    1          C          -0.037500        4.0375     1.16637     2.87113
    2          C          -0.070838        4.0708     1.15307     2.91777
    3          C          -0.112964        4.1130     1.13894     2.97402
    4          C          -0.156606        4.1566     1.20951     2.94710
    5          C          -0.159853        4.1599     1.21013     2.94973
    6          C          -0.120371        4.1204     1.19250     2.92787
    7          C          -0.118455        4.1185     1.19242     2.92603
    8          H           0.091627        0.9084     0.90837
    9          H           0.056828        0.9432     0.94317
   10          H           0.049855        0.9501     0.95015
   11          H           0.037671        0.9623     0.96233
   12          H           0.039232        0.9608     0.96077
   13          H           0.040243        0.9598     0.95976
   14          H           0.117653        0.8823     0.88235
   15          H           0.116497        0.8835     0.88350
   16          H           0.113510        0.8865     0.88649
   17          H           0.113473        0.8865     0.88653
 DIPOLE           X         Y         Z       TOTAL
 POINT-CHG.    -0.468    -0.081     0.063     0.479
 HYBRID         0.038    -0.001     0.067     0.077
 SUM           -0.431    -0.081     0.130     0.457


          ATOMIC ORBITAL ELECTRON POPULATIONS

     Atom    s        px        py        pz   
    1  C   1.16637   0.94949   0.93189   0.98975
    2  C   1.15307   0.93144   1.00492   0.98141
    3  C   1.13894   0.97537   1.00030   0.99835
    4  C   1.20951   0.96621   0.97340   1.00749
    5  C   1.21013   0.96279   0.98212   1.00482
    6  C   1.19250   0.96745   0.95897   1.00146
    7  C   1.19242   0.97614   0.94576   1.00412
    8  H   0.90837
    9  H   0.94317
   10  H   0.95015
   11  H   0.96233
   12  H   0.96077
   13  H   0.95976
   14  H   0.88235
   15  H   0.88350
   16  H   0.88649
   17  H   0.88653
 *******************************************************************************
 **                                                                           **
 **                              MOPAC v23.1.2                                **
 **                                                                           **
 *******************************************************************************
 **          Digital Object Identifier (DOI): 10.5281/zenodo.6511958          **
 **    Visit the DOI location for information on how to cite this program.    **
 *******************************************************************************

                              PM3 CALCULATION RESULTS

 *******************************************************************************
 *  CALCULATION DONE: (MAX THREADS = 1)              Tue Jun  3 16:28:02 2025  *
 *  PM3        - The PM3 Hamiltonian to be used
 *  OLDGEO     - PREVIOUS GEOMETRY TO BE USED
 *  PRECISE    - TIGHTER CRITERIA TO BE USED
 *  NOSYM      - POINT-GROUP SYMMETRY SET TO C1
 *  THREADS=1  - MULTI-THREADING NOT USED
 *  T=         - A TIME OF 172800.0 SECONDS REQUESTED
 *  DUMP=N     - RESTART FILE WRITTEN EVERY 7200.0 SECONDS REQUESTED
 *  THERMO     - THERMODYNAMIC QUANTITIES TO BE CALCULATED
 *******************************************************************************
oldgeo thermo nosym precise THREADS=1  pm3
 InChI=1S/C7H10/c1-2-7-5-3-4-6-7/h3-7H,2H2,1H3

   ATOM   CHEMICAL          X               Y               Z
  NUMBER   SYMBOL      (ANGSTROMS)     (ANGSTROMS)     (ANGSTROMS)

     1       C          0.09449273  *  -0.33172424  *   0.24135521  *
     2       C         -1.16861612  *  -0.31746298  *  -0.60781538  *
     3       C         -2.30826187  *   0.39988791  *   0.08074055  *
     4       C          0.81154814  *   0.99795812  *   0.27284883  *
     5       C          1.15180025  *  -1.25346206  *  -0.32105010  *
     6       C          2.07821017  *   0.84206921  *  -0.16898386  *
     7       C          2.29021662  *  -0.56042767  *  -0.53900199  *
     8       H         -0.14526338  *  -0.64356698  *   1.28618523  *
     9       H         -0.95666121  *   0.15413033  *  -1.58714992  *
    10       H         -1.46238931  *  -1.36189396  *  -0.83369706  *
    11       H         -2.57417210  *  -0.07808437  *   1.03312062  *
    12       H         -3.20877287  *   0.40509011  *  -0.54652794  *
    13       H         -2.05523163  *   1.44592434  *   0.30083695  *
    14       H          0.32741899  *   1.91160751  *   0.61187201  *
    15       H          0.96515263  *  -2.30993336  *  -0.50109603  *
    16       H          2.84929757  *   1.60510411  *  -0.25412487  *
    17       H          3.23391557  *  -0.94008424  *  -0.92542514  *



          CARTESIAN COORDINATES 

    NO.       ATOM           X           Y           Z

     1         C          0.0945     -0.3317      0.2414
     2         C         -1.1686     -0.3175     -0.6078
     3         C         -2.3083      0.3999      0.0807
     4         C          0.8115      0.9980      0.2728
     5         C          1.1518     -1.2535     -0.3211
     6         C          2.0782      0.8421     -0.1690
     7         C          2.2902     -0.5604     -0.5390
     8         H         -0.1453     -0.6436      1.2862
     9         H         -0.9567      0.1541     -1.5871
    10         H         -1.4624     -1.3619     -0.8337
    11         H         -2.5742     -0.0781      1.0331
    12         H         -3.2088      0.4051     -0.5465
    13         H         -2.0552      1.4459      0.3008
    14         H          0.3274      1.9116      0.6119
    15         H          0.9652     -2.3099     -0.5011
    16         H          2.8493      1.6051     -0.2541
    17         H          3.2339     -0.9401     -0.9254

  H: (PM3): J. J. P. STEWART, J. COMP. CHEM. 10, 209 (1989).
  C: (PM3): J. J. P. STEWART, J. COMP. CHEM. 10, 209 (1989).

           Empirical Formula: C7 H10  =    17 atoms



      MOLECULAR POINT GROUP   :   C1  


      RHF CALCULATION, NO. OF DOUBLY OCCUPIED LEVELS = 19



          HEAT OF FORMATION =      21.879495 KCALS/MOLE


          CARTESIAN COORDINATE DERIVATIVES

   NUMBER  ATOM         X            Y            Z

     1       C     -0.001399    -0.000155     0.003265
     2       C     -0.002785     0.002601    -0.004164
     3       C     -0.004178     0.004754    -0.002638
     4       C     -0.009406    -0.005229    -0.001169
     5       C      0.007547    -0.002977     0.007549
     6       C      0.006291     0.007728    -0.004662
     7       C      0.010569     0.000412     0.000908
     8       H      0.001282     0.010652     0.019990
     9       H     -0.011716    -0.010084    -0.001282
    10       H     -0.000421     0.002570    -0.011029
    11       H      0.011293     0.003686    -0.002778
    12       H     -0.001898    -0.007237    -0.005719
    13       H      0.015179     0.008143     0.001142
    14       H     -0.010610     0.000615    -0.002158
    15       H     -0.000333    -0.008367     0.008885
    16       H     -0.012211    -0.004762    -0.002420
    17       H      0.002795    -0.002350    -0.003720



          GRADIENT NORM =   0.04956

          MOLECULAR WEIGHT =   94.16



          ROTATIONAL CONSTANTS IN CM(-1)

          A =    0.20972380   B =    0.06331224   C =    0.05246637



           PRINCIPAL MOMENTS OF INERTIA IN UNITS OF 10**(-40)*GRAM-CM**2

          A =      133.4744   B =      442.1381   C =      533.5370


          ORIENTATION OF MOLECULE IN FORCE CALCULATION

    NO.       ATOM         X         Y         Z

     1          C      -0.0132    0.2432   -0.4977
     2          C       1.5089    0.2432   -0.4977
     3          C       2.0772    1.6448   -0.4977
     4          C      -0.6134    0.5995    0.8425
     5          C      -0.5855   -1.1325   -0.7503
     6          C      -1.4195   -0.4004    1.2600
     7          C      -1.4021   -1.4794    0.2679
     8          H      -0.4001    0.9487   -1.2717
     9          H       1.8838   -0.3209    0.3785
    10          H       1.8689   -0.3095   -1.3883
    11          H       1.7621    2.2120   -1.3838
    12          H       3.1745    1.6266   -0.4929
    13          H       1.7542    2.2135    0.3849
    14          H      -0.3922    1.5376    1.3475
    15          H      -0.3400   -1.7094   -1.6393
    16          H      -2.0047   -0.4414    2.1764
    17          H      -1.9732   -2.3993    0.3758


    FIRST DERIVATIVES WILL BE USED IN THE CALCULATION OF SECOND DERIVATIVES

          ESTIMATED TIME TO COMPLETE CALCULATION =        0.80 SECONDS

    FOR POINT-GROUP C1   THERE ARE   1 UNIQUE SYMMETRY FUNCTIONS.

 STEP:   1 TIME =     0.02 SECS, INTEGRAL =      0.02 TIME LEFT: 172799.98
 STEP:   2 TIME =     0.01 SECS, INTEGRAL =      0.03 TIME LEFT: 172799.97
 STEP:   3 TIME =     0.01 SECS, INTEGRAL =      0.04 TIME LEFT: 172799.96
 STEP:   4 TIME =     0.01 SECS, INTEGRAL =      0.05 TIME LEFT: 172799.95
 STEP:   5 TIME =     0.02 SECS, INTEGRAL =      0.07 TIME LEFT: 172799.93
 STEP:   6 TIME =     0.02 SECS, INTEGRAL =      0.08 TIME LEFT: 172799.91
 STEP:   7 TIME =     0.01 SECS, INTEGRAL =      0.09 TIME LEFT: 172799.90
 STEP:   8 TIME =     0.01 SECS, INTEGRAL =      0.11 TIME LEFT: 172799.89
 STEP:   9 TIME =     0.02 SECS, INTEGRAL =      0.12 TIME LEFT: 172799.88
 STEP:  10 TIME =     0.01 SECS, INTEGRAL =      0.13 TIME LEFT: 172799.86
 STEP:  11 TIME =     0.01 SECS, INTEGRAL =      0.14 TIME LEFT: 172799.85
 STEP:  12 TIME =     0.02 SECS, INTEGRAL =      0.16 TIME LEFT: 172799.84
 STEP:  13 TIME =     0.01 SECS, INTEGRAL =      0.17 TIME LEFT: 172799.82
 STEP:  14 TIME =     0.01 SECS, INTEGRAL =      0.18 TIME LEFT: 172799.81
 STEP:  15 TIME =     0.01 SECS, INTEGRAL =      0.20 TIME LEFT: 172799.80
 STEP:  16 TIME =     0.01 SECS, INTEGRAL =      0.21 TIME LEFT: 172799.79
 STEP:  17 TIME =     0.01 SECS, INTEGRAL =      0.22 TIME LEFT: 172799.78
 STEP:  18 TIME =     0.01 SECS, INTEGRAL =      0.23 TIME LEFT: 172799.77
 STEP:  19 TIME =     0.02 SECS, INTEGRAL =      0.25 TIME LEFT: 172799.75
 STEP:  20 TIME =     0.02 SECS, INTEGRAL =      0.26 TIME LEFT: 172799.73
 STEP:  21 TIME =     0.01 SECS, INTEGRAL =      0.27 TIME LEFT: 172799.72
 STEP:  22 TIME =     0.01 SECS, INTEGRAL =      0.29 TIME LEFT: 172799.71
 STEP:  23 TIME =     0.01 SECS, INTEGRAL =      0.30 TIME LEFT: 172799.70
 STEP:  24 TIME =     0.02 SECS, INTEGRAL =      0.31 TIME LEFT: 172799.68
 STEP:  25 TIME =     0.01 SECS, INTEGRAL =      0.32 TIME LEFT: 172799.67
 STEP:  26 TIME =     0.01 SECS, INTEGRAL =      0.34 TIME LEFT: 172799.66
 STEP:  27 TIME =     0.01 SECS, INTEGRAL =      0.35 TIME LEFT: 172799.65
 STEP:  28 TIME =     0.01 SECS, INTEGRAL =      0.36 TIME LEFT: 172799.64
 STEP:  29 TIME =     0.01 SECS, INTEGRAL =      0.37 TIME LEFT: 172799.62
 STEP:  30 TIME =     0.01 SECS, INTEGRAL =      0.38 TIME LEFT: 172799.61
 STEP:  31 TIME =     0.01 SECS, INTEGRAL =      0.39 TIME LEFT: 172799.60
 STEP:  32 TIME =     0.01 SECS, INTEGRAL =      0.41 TIME LEFT: 172799.59
 STEP:  33 TIME =     0.01 SECS, INTEGRAL =      0.42 TIME LEFT: 172799.58
 STEP:  34 TIME =     0.01 SECS, INTEGRAL =      0.43 TIME LEFT: 172799.57
 STEP:  35 TIME =     0.02 SECS, INTEGRAL =      0.45 TIME LEFT: 172799.55
 STEP:  36 TIME =     0.01 SECS, INTEGRAL =      0.46 TIME LEFT: 172799.54
 STEP:  37 TIME =     0.01 SECS, INTEGRAL =      0.47 TIME LEFT: 172799.53
 STEP:  38 TIME =     0.02 SECS, INTEGRAL =      0.48 TIME LEFT: 172799.51
 STEP:  39 TIME =     0.01 SECS, INTEGRAL =      0.50 TIME LEFT: 172799.50
 STEP:  40 TIME =     0.01 SECS, INTEGRAL =      0.51 TIME LEFT: 172799.49
 STEP:  41 TIME =     0.01 SECS, INTEGRAL =      0.52 TIME LEFT: 172799.48
 STEP:  42 TIME =     0.01 SECS, INTEGRAL =      0.53 TIME LEFT: 172799.46
 STEP:  43 TIME =     0.02 SECS, INTEGRAL =      0.55 TIME LEFT: 172799.45
 STEP:  44 TIME =     0.02 SECS, INTEGRAL =      0.56 TIME LEFT: 172799.43
 STEP:  45 TIME =     0.01 SECS, INTEGRAL =      0.57 TIME LEFT: 172799.42
 STEP:  46 TIME =     0.01 SECS, INTEGRAL =      0.59 TIME LEFT: 172799.41
 STEP:  47 TIME =     0.02 SECS, INTEGRAL =      0.60 TIME LEFT: 172799.39
 STEP:  48 TIME =     0.01 SECS, INTEGRAL =      0.61 TIME LEFT: 172799.38
 STEP:  49 TIME =     0.01 SECS, INTEGRAL =      0.62 TIME LEFT: 172799.37
 STEP:  50 TIME =     0.01 SECS, INTEGRAL =      0.64 TIME LEFT: 172799.36
 STEP:  51 TIME =     0.02 SECS, INTEGRAL =      0.65 TIME LEFT: 172799.34

(To convert to Hartree/Bohr^2, multiply by (10^(-21) x N x a0^2)/(4.184 x 627.51) =  0.0642)


           FORCE MATRIX IN MILLIDYNES/ANGSTROM


                  C  1       C  2       C  3       C  4       C  5       C  6
 ------------------------------------------------------------------------------
     C    1  14.838522
     C    2   4.026726  14.355351
     C    3   0.647820   4.457218  14.361665
     C    4   4.125191   0.596649   0.038976  17.881806
     C    5   4.123282   0.610752   0.047757   1.096255  17.900380
     C    6   1.207171   0.053724   0.009452   9.773001   1.583976  18.289312
     C    7   1.205205   0.050843   0.009431   1.583158   9.778449   5.125443
     H    8   4.220789   0.446409   0.033948   0.388050   0.387124   0.052583
     H    9   0.442730   4.486895   0.437016   0.021727   0.012011   0.006199
     H   10   0.439602   4.453171   0.437615   0.045154   0.038945   0.007468
     H   11   0.022232   0.463789   4.720646   0.003253   0.001214   0.001350
     H   12   0.052311   0.446785   4.753929   0.003619   0.008716   0.001458
     H   13   0.018479   0.464026   4.712951   0.010891   0.000920   0.001515
     H   14   0.404177   0.009469   0.011126   5.062497   0.042984   0.443308
     H   15   0.403663   0.013972   0.002064   0.042607   5.074698   0.101795
     H   16   0.117047   0.017130   0.000611   0.446533   0.049736   5.069574
     H   17   0.117043   0.016687   0.002850   0.049708   0.446731   0.420224


                  C  7       H  8       H  9       H 10       H 11       H 12
 ------------------------------------------------------------------------------
     C    7  18.291688
     H    8   0.052462   4.703162
     H    9   0.004988   0.043150   5.090286
     H   10   0.006411   0.018337   0.567601   5.061624
     H   11   0.000985   0.023587   0.048114   0.025024   5.464170
     H   12   0.001865   0.002761   0.030665   0.029779   0.573898   5.488890
     H   13   0.000693   0.002432   0.023559   0.048928   0.576531   0.573449
     H   14   0.102377   0.010995   0.002736   0.001805   0.000753   0.001086
     H   15   0.443598   0.011110   0.001913   0.012801   0.000543   0.000465
     H   16   0.420568   0.015269   0.000979   0.002795   0.000195   0.000158
     H   17   5.069969   0.015267   0.000502   0.000636   0.000129   0.000617


                  H 13       H 14       H 15       H 16       H 17
 ------------------------------------------------------------------
     H   13   5.456041
     H   14   0.020316   5.463168
     H   15   0.000677   0.010461   5.474970
     H   16   0.000336   0.042752   0.005530   5.460566
     H   17   0.000177   0.005490   0.042691   0.009503   5.460754


          HEAT OF FORMATION =      21.879495 KCALS/MOLE

          ZERO POINT ENERGY      93.303 KCAL/MOL


           NORMAL COORDINATE ANALYSIS (Total motion = 1 Angstrom)


   Root No.       1         2         3         4         5         6         7         8

                 1 A       2 A       3 A       4 A       5 A       6 A       7 A       8 A   

                  83.3     155.8     193.6     259.2     398.9     499.4     510.1     731.4
  
           1   -0.0095   -0.0231    0.0122    0.0084   -0.0126   -0.0285   -0.0217   -0.0028
           2   -0.0056    0.0228   -0.0182   -0.0167   -0.0179    0.0200    0.0035   -0.0274
           3   -0.0273   -0.0180   -0.0014   -0.0238   -0.0208   -0.0131   -0.0222    0.0316
           4   -0.0096   -0.0213    0.0111    0.0086   -0.0071   -0.0428   -0.0279   -0.0293
           5   -0.0040   -0.0062    0.0006   -0.0141    0.0504    0.0001    0.0144    0.0115
           6   -0.0400    0.0160   -0.0232    0.0430    0.0076    0.0042    0.0105    0.0122
           7   -0.0062    0.0123   -0.0213   -0.0412    0.0573   -0.0156    0.0028   -0.0057
           8   -0.0056   -0.0209    0.0150    0.0078    0.0315   -0.0208    0.0023   -0.0023
           9    0.0598    0.0066    0.0142    0.0114    0.0029    0.0024    0.0054    0.0013
          10   -0.0006   -0.0209    0.0287    0.0275   -0.0040    0.0167    0.0525    0.0153
          11    0.0174    0.0166   -0.0111    0.0021   -0.0157    0.0074   -0.0234    0.0215
          12   -0.0294   -0.0147    0.0043   -0.0213   -0.0193    0.0089    0.0146    0.0152
          13   -0.0022   -0.0129   -0.0052   -0.0264   -0.0216    0.0575   -0.0118    0.0110
          14   -0.0151    0.0177   -0.0116   -0.0014   -0.0305   -0.0169   -0.0061   -0.0262
          15    0.0060   -0.0167    0.0051   -0.0214    0.0078    0.0174   -0.0117   -0.0181
          16    0.0148    0.0285    0.0022    0.0400    0.0122    0.0233   -0.0278    0.0240
          17    0.0179   -0.0120    0.0092    0.0051   -0.0155    0.0002    0.0261    0.0097
          18    0.0011    0.0113    0.0010    0.0062    0.0130    0.0008   -0.0273   -0.0096
          19    0.0148    0.0341   -0.0228   -0.0110   -0.0384   -0.0159    0.0252    0.0201
          20   -0.0029   -0.0115    0.0108    0.0128   -0.0072    0.0253   -0.0136   -0.0024
          21    0.0238    0.0105   -0.0008   -0.0036    0.0047   -0.0299    0.0158   -0.0077
          22   -0.0166   -0.0018   -0.0003    0.0349   -0.0266   -0.0583   -0.0439   -0.0465
          23   -0.0210    0.0277   -0.0189   -0.0179   -0.0455   -0.0080    0.0214   -0.0430
          24   -0.0375   -0.0220    0.0033   -0.0377   -0.0378   -0.0216    0.0071    0.0374
          25   -0.0026   -0.0571    0.0294   -0.0219   -0.0251   -0.0778   -0.0696    0.0036
          26   -0.0697    0.0009   -0.0176    0.0350    0.0670   -0.0000    0.0381   -0.0122
          27   -0.0853    0.0364   -0.0429    0.0879    0.0271    0.0207    0.0455   -0.0172
          28   -0.0194   -0.0095    0.0125    0.0628    0.0159   -0.0351    0.0068   -0.0624
          29    0.0610   -0.0304    0.0331   -0.0472    0.0356   -0.0205   -0.0154    0.0383
          30   -0.0844    0.0359   -0.0423    0.0869    0.0263    0.0195    0.0441   -0.0192
          31   -0.0335    0.1195    0.1176   -0.1094    0.0936   -0.0018    0.0198    0.0197
          32    0.0698   -0.0579   -0.0326   -0.0065    0.0483   -0.0155    0.0092   -0.0079
          33    0.1180   -0.0550   -0.0654    0.0261    0.0019    0.0011    0.0043   -0.0112
          34   -0.0061    0.0114   -0.0218   -0.0406    0.0575   -0.0162    0.0027   -0.0058
          35   -0.0097   -0.0482    0.0430    0.0526   -0.0394   -0.0537   -0.0371   -0.0639
          36    0.0228    0.1232    0.2058   -0.0448    0.0008    0.0013    0.0018   -0.0070
          37    0.0253   -0.0666   -0.1875   -0.0182    0.0984    0.0018    0.0287    0.0323
          38   -0.0783    0.0311    0.0472   -0.0016    0.0553   -0.0101    0.0182    0.0345
          39    0.1182   -0.0557   -0.0669    0.0262    0.0018    0.0018    0.0045   -0.0098
          40   -0.0079   -0.0469    0.0519    0.0472    0.0130    0.0655    0.1597   -0.0598
          41    0.0311    0.0293   -0.0196    0.0028   -0.0156   -0.0190   -0.0755    0.0766
          42   -0.0516   -0.0269    0.0104   -0.0309   -0.0268    0.0366    0.0649   -0.0538
          43   -0.0081   -0.0309   -0.0107   -0.0664   -0.0370    0.1685   -0.0107   -0.0942
          44   -0.0305    0.0313   -0.0208    0.0014   -0.0454   -0.0641   -0.0150    0.0500
          45    0.0144   -0.0305    0.0097   -0.0340    0.0135    0.0783   -0.0055   -0.0968
          46    0.0251    0.0556    0.0010    0.0773    0.0592    0.0814   -0.0956   -0.0802
          47    0.0317   -0.0308    0.0222    0.0046   -0.0181   -0.0422    0.0746    0.0476
          48    0.0082    0.0277    0.0009    0.0298    0.0429    0.0358   -0.0687   -0.0749
          49    0.0261    0.0666   -0.0485   -0.0356   -0.0794   -0.0638    0.1057   -0.0943
          50   -0.0068   -0.0297    0.0262    0.0288    0.0171    0.0516   -0.0561    0.0645
          51    0.0503    0.0272   -0.0046    0.0024   -0.0016   -0.0615    0.0798   -0.0439


   Root No.       9        10        11        12        13        14        15        16

                 9 A      10 A      11 A      12 A      13 A      14 A      15 A      16 A   

                 787.6     807.8     823.1     848.8     937.2     961.4     975.1    1006.0
  
           1   -0.0010   -0.0015   -0.0015   -0.0002   -0.0244    0.0070   -0.0008   -0.0121
           2   -0.0093   -0.0029   -0.0537   -0.0167    0.0101   -0.0075    0.0036   -0.0030
           3    0.0221    0.0120   -0.0080    0.0248   -0.0117    0.0092    0.0055    0.0165
           4   -0.0024   -0.0023   -0.0041    0.0023    0.0176   -0.0036   -0.0010   -0.0054
           5    0.0007    0.0009    0.0025   -0.0004   -0.0089   -0.0005   -0.0019    0.0017
           6    0.0258    0.0058    0.0023   -0.0258   -0.0007    0.0041    0.0027    0.0112
           7    0.0000    0.0013    0.0006    0.0027    0.0288   -0.0134    0.0010    0.0200
           8    0.0030    0.0041    0.0036    0.0017    0.0043    0.0030    0.0030   -0.0022
           9    0.0033    0.0009    0.0008   -0.0095    0.0045   -0.0082   -0.0001   -0.0067
          10   -0.0088    0.0293   -0.0275   -0.0080   -0.0145   -0.0204    0.0158   -0.0067
          11    0.0255   -0.0004   -0.0287    0.0322    0.0237    0.0098   -0.0201   -0.0103
          12   -0.0056    0.0133    0.0150    0.0191    0.0216   -0.0157   -0.0083   -0.0298
          13   -0.0108   -0.0349    0.0132   -0.0059   -0.0134   -0.0201   -0.0145    0.0111
          14   -0.0104    0.0038   -0.0161   -0.0167   -0.0238    0.0121   -0.0046   -0.0040
          15   -0.0089   -0.0177   -0.0723   -0.0123   -0.0216   -0.0134   -0.0173   -0.0004
          16    0.0007    0.0290   -0.0407    0.0016    0.0126    0.0156   -0.0337    0.0085
          17    0.0116   -0.0063    0.0156    0.0110   -0.0027   -0.0081    0.0215   -0.0009
          18   -0.0247   -0.0066    0.0732   -0.0187    0.0018    0.0112   -0.0209    0.0156
          19   -0.0077   -0.0285    0.0393   -0.0032    0.0139    0.0155    0.0334   -0.0106
          20   -0.0087   -0.0024    0.0890   -0.0029   -0.0022   -0.0083   -0.0199    0.0012
          21   -0.0086   -0.0149   -0.0133   -0.0105    0.0040    0.0088    0.0234   -0.0092
          22    0.0279   -0.0018   -0.0084   -0.0276   -0.0486    0.0844   -0.0107   -0.0657
          23   -0.0173    0.0438   -0.0309   -0.0274    0.0059    0.0107    0.1713    0.0452
          24   -0.0004    0.0546    0.0162    0.0295   -0.0004   -0.0139    0.1629    0.0859
          25    0.0701    0.0117    0.0180   -0.0091   -0.0257    0.0677    0.0025    0.0335
          26   -0.0822   -0.0039   -0.0038    0.1160   -0.0444    0.0364    0.0027    0.0106
          27   -0.0623   -0.0036   -0.0116    0.0582   -0.0070   -0.0021    0.0042   -0.0002
          28   -0.0696   -0.0101    0.0125    0.0312    0.0311   -0.0380   -0.0152   -0.1018
          29    0.0904    0.0122    0.0338   -0.1085    0.0025   -0.0132   -0.0098   -0.0379
          30   -0.0606   -0.0043   -0.0117    0.0571   -0.0014   -0.0026    0.0028   -0.0017
          31   -0.0145    0.0030    0.0170    0.0416   -0.0674    0.0534    0.0008   -0.0280
          32   -0.0557   -0.0021   -0.0000    0.1027   -0.0648    0.0736    0.0058    0.0083
          33   -0.0312   -0.0039   -0.0073    0.0453   -0.0085    0.0157    0.0016    0.0173
          34    0.0003    0.0014    0.0012    0.0026    0.0291   -0.0133    0.0010    0.0197
          35   -0.0074   -0.0048   -0.0327    0.0015    0.1656   -0.0804    0.0094    0.1188
          36   -0.0279   -0.0051   -0.0059    0.0470   -0.0134    0.0194    0.0005    0.0195
          37    0.0290    0.0100    0.0274   -0.0361   -0.0425    0.0142   -0.0012   -0.0610
          38    0.0699    0.0157    0.0289   -0.0993   -0.0048   -0.0212    0.0007   -0.0722
          39   -0.0314   -0.0039   -0.0068    0.0451   -0.0149    0.0182    0.0009    0.0122
          40    0.1029   -0.1631    0.0163    0.0098    0.0187    0.1084   -0.0445    0.0889
          41   -0.0355    0.1064    0.0039    0.0121   -0.0193   -0.0554    0.0309   -0.0110
          42    0.0599   -0.1003   -0.0662    0.0497    0.0878    0.0491   -0.0759   -0.0691
          43    0.0211    0.1909    0.0358   -0.0035    0.0209    0.1047    0.0592    0.0220
          44   -0.0085   -0.1053   -0.1111   -0.0014   -0.0834   -0.0465   -0.0538    0.0611
          45   -0.0014    0.1154   -0.0061   -0.0220    0.0261    0.0588    0.0353   -0.0402
          46    0.1225   -0.0528   -0.0140    0.0773   -0.0771   -0.0765    0.1640   -0.0061
          47   -0.0579    0.0472   -0.0687   -0.0691   -0.0230    0.0508   -0.0293    0.1152
          48    0.0494   -0.0569    0.0881    0.0261   -0.0556   -0.0450    0.1025    0.0107
          49    0.0672    0.1018    0.1406    0.0419   -0.0854   -0.0727   -0.1602    0.0423
          50   -0.0466   -0.0709    0.0340   -0.0235    0.0597    0.0397    0.0906   -0.0302
          51    0.0653    0.0935    0.0394    0.0547    0.0131   -0.0498   -0.0561   -0.0009


   Root No.      17        18        19        20        21        22        23        24

                17 A      18 A      19 A      20 A      21 A      22 A      23 A      24 A   

                1016.8    1034.8    1085.1    1091.0    1104.6    1129.6    1133.4    1146.0
  
           1    0.0058    0.0084    0.0026    0.0081   -0.0149   -0.0267   -0.0307    0.0152
           2    0.0255   -0.0052    0.0033   -0.0017   -0.0023    0.0098    0.0175   -0.0062
           3   -0.0125    0.0076    0.0030    0.0033   -0.0040   -0.0195   -0.0167    0.0078
           4   -0.0032    0.0107    0.0024   -0.0011   -0.0070    0.0273    0.0196   -0.0204
           5   -0.0003   -0.0028    0.0082    0.0083   -0.0317    0.0065   -0.0048    0.0514
           6    0.0138   -0.0240   -0.0006   -0.0008   -0.0050    0.0323   -0.0173   -0.0148
           7   -0.0065   -0.0136   -0.0022   -0.0003    0.0058   -0.0110   -0.0074    0.0059
           8    0.0017    0.0001   -0.0084   -0.0067    0.0330   -0.0174   -0.0065   -0.0443
           9   -0.0100    0.0151   -0.0006    0.0016   -0.0053   -0.0289    0.0291    0.0038
          10   -0.0029   -0.0222   -0.0032   -0.0033   -0.0004    0.0010    0.0021   -0.0021
          11   -0.0074    0.0112   -0.0189    0.0048    0.0086    0.0083    0.0045    0.0055
          12   -0.0031   -0.0156   -0.0062    0.0027    0.0221    0.0146    0.0179    0.0092
          13    0.0180    0.0065    0.0016   -0.0033    0.0054    0.0009    0.0040   -0.0033
          14   -0.0324   -0.0074   -0.0040   -0.0042   -0.0219   -0.0121   -0.0191   -0.0100
          15    0.0007    0.0022   -0.0176   -0.0091   -0.0044   -0.0008   -0.0043   -0.0040
          16    0.0093    0.0149   -0.0027    0.0033   -0.0054   -0.0029   -0.0056   -0.0025
          17   -0.0085   -0.0068   -0.0005    0.0050    0.0106    0.0068    0.0070    0.0041
          18   -0.0041    0.0065    0.0004    0.0003    0.0172    0.0085    0.0117    0.0086
          19   -0.0107   -0.0117    0.0028    0.0044   -0.0069   -0.0058   -0.0047   -0.0036
          20    0.0184    0.0011    0.0029   -0.0007   -0.0168   -0.0109   -0.0118   -0.0110
          21   -0.0029   -0.0046    0.0027   -0.0048   -0.0096   -0.0040   -0.0072   -0.0028
          22    0.1155   -0.0697   -0.0155   -0.0366    0.1713   -0.0774    0.0160    0.2041
          23    0.1482    0.1151   -0.0639   -0.0217    0.0571    0.0232    0.0253    0.0613
          24    0.0453    0.1564   -0.0494    0.0082   -0.0409    0.0198   -0.0329   -0.0269
          25    0.0493   -0.0787   -0.0001   -0.0055   -0.0945    0.0897    0.2352   -0.0536
          26   -0.0027    0.0012    0.0083    0.0109   -0.0920   -0.0351    0.1638    0.0903
          27   -0.0111    0.0184    0.0007    0.0030   -0.0072   -0.0208   -0.0012    0.0219
          28   -0.0765    0.1435    0.0276    0.0017    0.0326    0.1523   -0.0336    0.0633
          29   -0.0083    0.0166    0.0247    0.0098   -0.0237    0.1634   -0.0847    0.1023
          30   -0.0112    0.0181   -0.0013   -0.0003    0.0054   -0.0149    0.0096   -0.0109
          31    0.0271   -0.0013   -0.0062   -0.0114    0.0377    0.0448   -0.0170   -0.0775
          32    0.0545   -0.0517   -0.0145   -0.0213    0.0711    0.0823   -0.0879   -0.1115
          33    0.0128   -0.0237   -0.0028   -0.0038    0.0064    0.0181   -0.0201   -0.0116
          34   -0.0070   -0.0131   -0.0025   -0.0008    0.0066   -0.0100   -0.0056    0.0046
          35   -0.0254   -0.0754   -0.0173   -0.0072    0.0285   -0.0611   -0.0367    0.0430
          36    0.0119   -0.0256   -0.0032   -0.0050   -0.0015    0.0289   -0.0232   -0.0106
          37   -0.0110    0.0578   -0.0068   -0.0071    0.0292   -0.0283    0.0483   -0.0644
          38   -0.0365    0.0905   -0.0142   -0.0074    0.0458   -0.1114    0.0935   -0.0776
          39    0.0140   -0.0203    0.0007   -0.0010   -0.0046    0.0260   -0.0166   -0.0009
          40   -0.0617    0.0621   -0.1160   -0.1123    0.0106    0.0184    0.0099    0.0419
          41   -0.0315   -0.0280   -0.0640   -0.0518    0.0293    0.0287    0.0311    0.0220
          42    0.0663    0.0209    0.1231    0.1551   -0.0180   -0.0282   -0.0321   -0.0381
          43   -0.1298   -0.0044    0.1299   -0.0878    0.0505    0.0108    0.0138    0.0151
          44   -0.0782    0.0166    0.1342   -0.1326    0.0757    0.0301    0.0325    0.0079
          45   -0.0094   -0.0160   -0.0737    0.0509   -0.0578   -0.0263   -0.0369   -0.0112
          46   -0.0264   -0.0258    0.0542    0.0882    0.0214   -0.0028    0.0037   -0.0035
          47   -0.0075    0.0410    0.1388    0.2305    0.0883    0.0130    0.0394    0.0015
          48   -0.0267   -0.0175    0.0431    0.0637    0.0389    0.0096    0.0201    0.0087
          49    0.0043    0.0135   -0.0789    0.0784    0.0139    0.0069   -0.0002    0.0003
          50    0.0231   -0.0094    0.0754   -0.0675   -0.0357   -0.0236   -0.0176   -0.0157
          51    0.1229    0.0421    0.1885   -0.1901   -0.0519   -0.0375   -0.0236   -0.0135


   Root No.      25        26        27        28        29        30        31        32

                25 A      26 A      27 A      28 A      29 A      30 A      31 A      32 A   

                1209.0    1265.1    1337.6    1368.9    1395.2    1408.2    1410.8    1416.7
  
           1   -0.0038   -0.0353   -0.0302    0.0459   -0.0296    0.0051    0.0015   -0.0287
           2   -0.0316   -0.0319    0.0749    0.0233   -0.0078    0.0005   -0.0002   -0.0090
           3   -0.0209    0.0105    0.0925   -0.0092    0.0026   -0.0044   -0.0012    0.0163
           4   -0.0131   -0.0392    0.0001   -0.0252    0.0520   -0.0029    0.0045    0.0147
           5   -0.0021   -0.0311   -0.0106   -0.0250   -0.0118    0.0047    0.0005   -0.0213
           6    0.0048   -0.0034   -0.0145    0.0026   -0.0017   -0.0005    0.0003   -0.0026
           7    0.0070    0.0137   -0.0047   -0.0057   -0.0080   -0.0044   -0.0395    0.0083
           8    0.0005    0.0005   -0.0042   -0.0271   -0.0137   -0.0022    0.0068    0.0252
           9    0.0012   -0.0001    0.0002   -0.0017    0.0002   -0.0359    0.0037   -0.0044
          10    0.0128   -0.0009    0.0233    0.0002   -0.0052   -0.0033   -0.0005    0.0147
          11    0.0052   -0.0070   -0.0324    0.0046   -0.0027    0.0007    0.0004   -0.0032
          12   -0.0202   -0.0014   -0.0607   -0.0015    0.0103    0.0058    0.0011   -0.0247
          13   -0.0085    0.0155   -0.0175   -0.0024   -0.0045   -0.0029   -0.0006    0.0138
          14   -0.0085    0.0356   -0.0519   -0.0078   -0.0073   -0.0046   -0.0005    0.0218
          15    0.0131    0.0160   -0.0176   -0.0082    0.0046    0.0004   -0.0001    0.0003
          16    0.0087    0.0073    0.0042   -0.0061    0.0042    0.0003   -0.0000   -0.0002
          17    0.0173   -0.0172    0.0085    0.0160   -0.0260   -0.0082   -0.0010    0.0352
          18    0.0031   -0.0272   -0.0011    0.0250   -0.0308   -0.0077   -0.0009    0.0314
          19   -0.0051    0.0090    0.0035   -0.0051    0.0033   -0.0002   -0.0001    0.0013
          20    0.0157    0.0175    0.0293   -0.0240    0.0324    0.0082    0.0008   -0.0333
          21    0.0202   -0.0010    0.0214   -0.0123    0.0230    0.0077    0.0010   -0.0325
          22    0.0133    0.0654    0.0452   -0.0677    0.0287    0.0043   -0.0039    0.0218
          23    0.0735    0.0160   -0.0803   -0.0231    0.0088    0.0060   -0.0020   -0.0033
          24    0.0656    0.0037   -0.0853    0.0033   -0.0088    0.0005    0.0005   -0.0036
          25    0.0436    0.1131    0.0066   -0.0009   -0.1414    0.0118   -0.0260   -0.0517
          26    0.0291    0.0729   -0.0035    0.0996    0.1209   -0.0143    0.0161    0.0731
          27   -0.0003   -0.0024   -0.0094    0.0635    0.1440   -0.0175    0.0199    0.0751
          28   -0.0148    0.1508    0.1530   -0.0177   -0.1392    0.0030   -0.0268   -0.0332
          29    0.0141    0.0833    0.0155    0.1009    0.1205   -0.0169    0.0168    0.0758
          30   -0.0058    0.0034    0.0305   -0.0629   -0.1392    0.0121   -0.0189   -0.0703
          31   -0.0032    0.0232    0.0180    0.0460    0.0067   -0.1902    0.2627   -0.0603
          32   -0.0045    0.0351    0.0188    0.1120    0.0487   -0.0498   -0.1451   -0.0661
          33    0.0008    0.0145    0.0048    0.0573    0.0299    0.0253   -0.1901   -0.0272
          34    0.0076    0.0198   -0.0015    0.0044   -0.0064   -0.0027   -0.0095    0.0017
          35    0.0283    0.1071    0.0217    0.1343   -0.0048    0.0260    0.1824   -0.0779
          36   -0.0059   -0.0021    0.0021    0.0123    0.0008    0.3592   -0.0399    0.0466
          37   -0.0055    0.0234    0.0263    0.0581    0.0089    0.2402    0.2133   -0.0023
          38    0.0001    0.0361    0.0267    0.1106    0.0510    0.0283   -0.1538   -0.0530
          39   -0.0029   -0.0159   -0.0064   -0.0534   -0.0303    0.0587    0.1835    0.0371
          40   -0.1148   -0.0077   -0.0217   -0.0028    0.0192    0.0039   -0.0001   -0.0470
          41   -0.0543   -0.0074   -0.0455   -0.0002    0.0108    0.0049    0.0005   -0.0280
          42    0.1426   -0.0026   -0.0199    0.0125   -0.0282   -0.0055    0.0005    0.0482
          43    0.0908   -0.0550    0.0056    0.0012    0.0210    0.0113    0.0023   -0.0483
          44    0.1247   -0.0312   -0.0215   -0.0146    0.0317    0.0126    0.0021   -0.0495
          45   -0.0464    0.0435   -0.0293   -0.0050   -0.0123   -0.0068   -0.0011    0.0297
          46   -0.0483    0.0334   -0.0292   -0.0216    0.0285    0.0084    0.0012   -0.0339
          47   -0.1325    0.0513   -0.0828   -0.0268    0.0395    0.0122    0.0018   -0.0503
          48   -0.0401   -0.0109   -0.0285    0.0167   -0.0156   -0.0022    0.0000    0.0079
          49    0.0552   -0.0099    0.0521   -0.0165    0.0276    0.0080    0.0010   -0.0332
          50   -0.0371    0.0381   -0.0128   -0.0169    0.0136    0.0014   -0.0001   -0.0042
          51   -0.1225    0.0476   -0.0992    0.0169   -0.0372   -0.0115   -0.0014    0.0478


   Root No.      33        34        35        36        37        38        39        40

                33 A      34 A      35 A      36 A      37 A      38 A      39 A      40 A   

                1432.5    1729.7    1789.0    2888.4    2957.5    3035.8    3076.4    3083.8
  
           1    0.0382    0.0112    0.0001   -0.0223   -0.0009   -0.0009    0.0000    0.0002
           2    0.0232    0.0082    0.0004    0.0431    0.0018    0.0004   -0.0002    0.0003
           3   -0.0093   -0.0084    0.0003   -0.0472   -0.0022   -0.0003    0.0001   -0.0000
           4   -0.0357    0.0025   -0.0006   -0.0005    0.0008   -0.0213    0.0001   -0.0018
           5   -0.0423    0.0011   -0.0031   -0.0002   -0.0016    0.0325   -0.0002    0.0026
           6    0.0017   -0.0007   -0.0018    0.0042   -0.0559   -0.0030   -0.0030   -0.0004
           7    0.0213   -0.0004    0.0002   -0.0002   -0.0001    0.0046    0.0051   -0.0432
           8    0.0470   -0.0005    0.0009   -0.0000   -0.0000   -0.0013   -0.0024    0.0189
           9    0.0004   -0.0001    0.0000   -0.0005    0.0031    0.0003   -0.0523   -0.0051
          10   -0.0089   -0.0868   -0.0781    0.0004   -0.0004    0.0001   -0.0003    0.0001
          11    0.0020   -0.1029   -0.0850   -0.0000    0.0001   -0.0000   -0.0010    0.0004
          12    0.0127    0.0473    0.0506   -0.0010    0.0002   -0.0001   -0.0004    0.0002
          13   -0.0094   -0.0871    0.0796    0.0003    0.0002   -0.0003    0.0000   -0.0000
          14   -0.0195   -0.0397    0.0451    0.0010    0.0001    0.0000   -0.0000   -0.0000
          15   -0.0032    0.1042   -0.0885   -0.0001   -0.0002    0.0002   -0.0000    0.0001
          16   -0.0024    0.0757    0.0794   -0.0005   -0.0000   -0.0000   -0.0000    0.0000
          17   -0.0180    0.1041    0.1011   -0.0004    0.0000   -0.0000    0.0001   -0.0000
          18   -0.0115   -0.0300   -0.0386    0.0001    0.0000   -0.0000    0.0001   -0.0001
          19   -0.0021    0.0762   -0.0812   -0.0005   -0.0001   -0.0000   -0.0000    0.0000
          20    0.0146    0.0223   -0.0316   -0.0001    0.0000   -0.0000   -0.0000    0.0000
          21    0.0167   -0.1040    0.1035    0.0004    0.0001   -0.0000    0.0000   -0.0000
          22   -0.0459   -0.0054   -0.0001    0.2866    0.0150    0.0039    0.0002    0.0010
          23   -0.0131   -0.0012   -0.0248   -0.5231   -0.0221   -0.0041    0.0016    0.0004
          24   -0.0018    0.0006   -0.0227    0.5749    0.0229    0.0053   -0.0016    0.0002
          25    0.0325   -0.0016   -0.0002   -0.0095    0.1385    0.1420    0.0058    0.0096
          26    0.0857   -0.0002    0.0015    0.0214   -0.2081   -0.2130   -0.0130   -0.0187
          27    0.0482   -0.0002    0.0003   -0.0324    0.3100    0.3771    0.0143    0.0298
          28    0.0207    0.0013    0.0014    0.0077   -0.1493    0.1190   -0.0069    0.0071
          29    0.0870    0.0008   -0.0022   -0.0137    0.2277   -0.1818    0.0159   -0.0141
          30   -0.0487   -0.0012   -0.0033   -0.0231    0.3609   -0.3415    0.0196   -0.0248
          31   -0.0570    0.0005    0.0001    0.0001   -0.0091   -0.0054    0.1237    0.0614
          32   -0.1000    0.0002    0.0000   -0.0033    0.0089    0.0100   -0.2023   -0.1291
          33   -0.0527   -0.0000   -0.0003    0.0043   -0.0199   -0.0187    0.3029    0.2256
          34    0.0096   -0.0004    0.0002   -0.0017    0.0007   -0.0433   -0.0443    0.4158
          35   -0.1005   -0.0011   -0.0007   -0.0001   -0.0002    0.0048    0.0007   -0.0085
          36   -0.0051   -0.0000   -0.0000   -0.0001    0.0006   -0.0001   -0.0276   -0.0007
          37   -0.0658    0.0007    0.0005   -0.0011    0.0094   -0.0040   -0.1402    0.0387
          38   -0.1034    0.0004    0.0007    0.0012   -0.0095    0.0081    0.2305   -0.0892
          39    0.0516   -0.0003   -0.0000    0.0020   -0.0205    0.0151    0.3506   -0.1642
          40    0.0356    0.0028    0.0018    0.0009   -0.0004    0.0001    0.0023   -0.0010
          41    0.0176   -0.0844   -0.0678    0.0046   -0.0006    0.0006    0.0106   -0.0047
          42   -0.0340   -0.0792   -0.0638    0.0007   -0.0004    0.0003    0.0057   -0.0026
          43    0.0283    0.0009   -0.0001    0.0009    0.0004   -0.0001   -0.0001    0.0001
          44    0.0237    0.0859   -0.0705   -0.0010    0.0010   -0.0013    0.0004   -0.0004
          45   -0.0215    0.0767   -0.0628   -0.0044    0.0008   -0.0017    0.0005   -0.0006
          46    0.0136    0.0527    0.0292   -0.0031   -0.0001    0.0000    0.0010   -0.0006
          47    0.0221    0.0079   -0.0586   -0.0001   -0.0000    0.0000    0.0000   -0.0000
          48    0.0006   -0.0794   -0.1021    0.0032    0.0002   -0.0001   -0.0015    0.0010
          49    0.0165    0.0514   -0.0270   -0.0031   -0.0003    0.0003    0.0002   -0.0001
          50   -0.0020    0.0783   -0.1078   -0.0033   -0.0004    0.0004    0.0003   -0.0002
          51   -0.0262   -0.0142   -0.0501    0.0003    0.0000   -0.0000   -0.0000    0.0000


   Root No.      41        42        43        44        45

                41 A      42 A      43 A      44 A      45 A   

                3130.6    3132.9    3144.3    3154.6    3179.9
  
           1   -0.0001    0.0002   -0.0001    0.0005    0.0001
           2    0.0001    0.0002   -0.0001    0.0007    0.0001
           3    0.0002   -0.0001    0.0001   -0.0007   -0.0001
           4    0.0000    0.0000   -0.0000   -0.0001   -0.0004
           5    0.0000   -0.0001   -0.0000    0.0000   -0.0003
           6    0.0000   -0.0001   -0.0000    0.0001    0.0000
           7    0.0005   -0.0003   -0.0004    0.0003   -0.0111
           8    0.0001   -0.0001   -0.0002    0.0002   -0.0215
           9   -0.0006    0.0003    0.0004   -0.0003    0.0004
          10    0.0051   -0.0030   -0.0064    0.0051    0.0003
          11    0.0220   -0.0127   -0.0211    0.0169    0.0011
          12    0.0119   -0.0068   -0.0090    0.0072    0.0005
          13   -0.0019   -0.0051    0.0064    0.0071    0.0000
          14    0.0047    0.0129   -0.0104   -0.0111   -0.0001
          15    0.0071    0.0192   -0.0193   -0.0209   -0.0001
          16    0.0152   -0.0046    0.0128   -0.0117   -0.0002
          17    0.0010    0.0001    0.0032   -0.0021   -0.0001
          18   -0.0239    0.0077   -0.0180    0.0173    0.0003
          19   -0.0077   -0.0157   -0.0083   -0.0129   -0.0001
          20   -0.0122   -0.0252   -0.0113   -0.0190   -0.0001
          21    0.0016    0.0030    0.0035    0.0040    0.0000
          22    0.0001   -0.0001   -0.0001    0.0013    0.0001
          23    0.0005    0.0005   -0.0005   -0.0025   -0.0012
          24    0.0009   -0.0001   -0.0009    0.0026    0.0011
          25   -0.0000   -0.0001    0.0001    0.0001    0.0005
          26    0.0001    0.0002   -0.0002    0.0000   -0.0022
          27   -0.0002   -0.0004    0.0003    0.0001    0.0024
          28   -0.0001   -0.0001   -0.0001   -0.0001    0.0004
          29    0.0004    0.0009   -0.0007   -0.0006   -0.0023
          30    0.0004    0.0012   -0.0007   -0.0008   -0.0025
          31    0.0022   -0.0013   -0.0021    0.0019   -0.0983
          32   -0.0032    0.0019    0.0030   -0.0028    0.1454
          33    0.0049   -0.0030   -0.0049    0.0047   -0.2546
          34   -0.0073    0.0041    0.0068   -0.0058    0.3325
          35    0.0004   -0.0002   -0.0004    0.0004   -0.0239
          36   -0.0003    0.0002    0.0002   -0.0001    0.0017
          37   -0.0011    0.0005    0.0002    0.0004   -0.0988
          38    0.0018   -0.0007   -0.0004   -0.0007    0.1426
          39    0.0028   -0.0011   -0.0005   -0.0013    0.2487
          40   -0.0596    0.0344    0.0519   -0.0385   -0.0027
          41   -0.2592    0.1482    0.2222   -0.1642   -0.0116
          42   -0.1414    0.0804    0.1200   -0.0886   -0.0064
          43    0.0228    0.0625   -0.0566   -0.0569   -0.0003
          44   -0.0561   -0.1517    0.1348    0.1349    0.0007
          45   -0.0849   -0.2311    0.2069    0.2074    0.0011
          46   -0.1776    0.0573   -0.1278    0.1142    0.0016
          47   -0.0118    0.0025   -0.0096    0.0074    0.0001
          48    0.2789   -0.0913    0.1996   -0.1794   -0.0025
          49    0.0877    0.1814    0.0799    0.1233    0.0006
          50    0.1409    0.2939    0.1276    0.1990    0.0010
          51   -0.0170   -0.0330   -0.0160   -0.0229   -0.0001


           MASS-WEIGHTED COORDINATE ANALYSIS (NORMAL COORDINATES)


   Root No.       1         2         3         4         5         6         7         8

                 1 A       2 A       3 A       4 A       5 A       6 A       7 A       8 A   

                  83.3     155.8     193.6     259.2     398.9     499.4     510.1     731.4
  
           1   -0.0768   -0.2029    0.1033    0.0692   -0.0966   -0.2165   -0.1669   -0.0246
           2   -0.0451    0.1998   -0.1540   -0.1380   -0.1379    0.1517    0.0271   -0.2396
           3   -0.2201   -0.1577   -0.0118   -0.1967   -0.1597   -0.0993   -0.1707    0.2772
           4   -0.0776   -0.1870    0.0939    0.0708   -0.0545   -0.3254   -0.2145   -0.2569
           5   -0.0326   -0.0541    0.0053   -0.1166    0.3876    0.0005    0.1106    0.1012
           6   -0.3223    0.1403   -0.1962    0.3559    0.0586    0.0316    0.0808    0.1072
           7   -0.0498    0.1078   -0.1804   -0.3406    0.4404   -0.1185    0.0213   -0.0500
           8   -0.0454   -0.1833    0.1271    0.0645    0.2421   -0.1576    0.0177   -0.0198
           9    0.4816    0.0577    0.1204    0.0946    0.0226    0.0179    0.0412    0.0111
          10   -0.0048   -0.1832    0.2428    0.2272   -0.0311    0.1266    0.4037    0.1337
          11    0.1400    0.1455   -0.0937    0.0172   -0.1208    0.0564   -0.1797    0.1881
          12   -0.2367   -0.1289    0.0366   -0.1762   -0.1486    0.0677    0.1124    0.1330
          13   -0.0176   -0.1129   -0.0443   -0.2181   -0.1659    0.4367   -0.0903    0.0966
          14   -0.1219    0.1552   -0.0986   -0.0114   -0.2347   -0.1285   -0.0472   -0.2299
          15    0.0482   -0.1467    0.0433   -0.1766    0.0602    0.1322   -0.0901   -0.1585
          16    0.1194    0.2495    0.0183    0.3309    0.0939    0.1770   -0.2132    0.2101
          17    0.1438   -0.1054    0.0780    0.0424   -0.1191    0.0012    0.2006    0.0851
          18    0.0085    0.0989    0.0086    0.0512    0.0997    0.0059   -0.2100   -0.0844
          19    0.1191    0.2990   -0.1935   -0.0908   -0.2955   -0.1208    0.1933    0.1758
          20   -0.0236   -0.1012    0.0916    0.1057   -0.0555    0.1921   -0.1047   -0.0208
          21    0.1914    0.0923   -0.0065   -0.0297    0.0363   -0.2274    0.1217   -0.0677
          22   -0.0386   -0.0047   -0.0007    0.0837   -0.0593   -0.1284   -0.0977   -0.1179
          23   -0.0490    0.0703   -0.0465   -0.0428   -0.1015   -0.0177    0.0476   -0.1092
          24   -0.0875   -0.0558    0.0082   -0.0904   -0.0843   -0.0475    0.0159    0.0950
          25   -0.0060   -0.1449    0.0722   -0.0525   -0.0558   -0.1713   -0.1550    0.0091
          26   -0.1625    0.0023   -0.0433    0.0839    0.1493   -0.0001    0.0848   -0.0310
          27   -0.1988    0.0923   -0.1053    0.2105    0.0604    0.0455    0.1012   -0.0436
          28   -0.0453   -0.0240    0.0307    0.1504    0.0354   -0.0772    0.0152   -0.1582
          29    0.1423   -0.0772    0.0813   -0.1130    0.0793   -0.0452   -0.0342    0.0971
          30   -0.1969    0.0911   -0.1038    0.2082    0.0586    0.0429    0.0983   -0.0488
          31   -0.0781    0.3033    0.2886   -0.2621    0.2084   -0.0040    0.0441    0.0501
          32    0.1628   -0.1471   -0.0799   -0.0155    0.1075   -0.0341    0.0204   -0.0200
          33    0.2750   -0.1396   -0.1604    0.0625    0.0042    0.0023    0.0095   -0.0283
          34   -0.0141    0.0289   -0.0536   -0.0972    0.1282   -0.0356    0.0059   -0.0148
          35   -0.0227   -0.1223    0.1054    0.1259   -0.0877   -0.1183   -0.0826   -0.1621
          36    0.0532    0.3127    0.5051   -0.1074    0.0019    0.0029    0.0041   -0.0178
          37    0.0590   -0.1690   -0.4602   -0.0437    0.2193    0.0040    0.0638    0.0820
          38   -0.1825    0.0789    0.1157   -0.0037    0.1233   -0.0222    0.0405    0.0876
          39    0.2755   -0.1415   -0.1642    0.0627    0.0041    0.0041    0.0100   -0.0249
          40   -0.0184   -0.1191    0.1274    0.1129    0.0289    0.1441    0.3554   -0.1517
          41    0.0725    0.0744   -0.0481    0.0067   -0.0348   -0.0418   -0.1680    0.1943
          42   -0.1203   -0.0684    0.0254   -0.0741   -0.0597    0.0806    0.1445   -0.1364
          43   -0.0189   -0.0785   -0.0262   -0.1590   -0.0824    0.3708   -0.0239   -0.2390
          44   -0.0712    0.0794   -0.0511    0.0035   -0.1012   -0.1410   -0.0334    0.1270
          45    0.0335   -0.0775    0.0237   -0.0814    0.0301    0.1723   -0.0123   -0.2455
          46    0.0586    0.1411    0.0025    0.1850    0.1318    0.1791   -0.2128   -0.2034
          47    0.0740   -0.0782    0.0546    0.0110   -0.0404   -0.0928    0.1661    0.1208
          48    0.0192    0.0704    0.0021    0.0714    0.0955    0.0787   -0.1529   -0.1900
          49    0.0608    0.1691   -0.1189   -0.0853   -0.1770   -0.1404    0.2353   -0.2393
          50   -0.0160   -0.0755    0.0644    0.0689    0.0382    0.1136   -0.1249    0.1638
          51    0.1172    0.0691   -0.0114    0.0057   -0.0036   -0.1354    0.1776   -0.1115


   Root No.       9        10        11        12        13        14        15        16

                 9 A      10 A      11 A      12 A      13 A      14 A      15 A      16 A   

                 787.6     807.8     823.1     848.8     937.2     961.4     975.1    1006.0
  
           1   -0.0096   -0.0112   -0.0086   -0.0018   -0.2238    0.0699   -0.0057   -0.1211
           2   -0.0879   -0.0218   -0.2983   -0.1572    0.0929   -0.0752    0.0273   -0.0302
           3    0.2096    0.0920   -0.0446    0.2326   -0.1073    0.0928    0.0411    0.1647
           4   -0.0230   -0.0175   -0.0230    0.0217    0.1619   -0.0359   -0.0076   -0.0536
           5    0.0069    0.0073    0.0140   -0.0037   -0.0817   -0.0053   -0.0145    0.0172
           6    0.2455    0.0447    0.0129   -0.2420   -0.0068    0.0410    0.0202    0.1119
           7    0.0003    0.0098    0.0034    0.0251    0.2643   -0.1342    0.0078    0.1999
           8    0.0287    0.0313    0.0202    0.0158    0.0393    0.0303    0.0226   -0.0217
           9    0.0317    0.0067    0.0045   -0.0889    0.0415   -0.0826   -0.0006   -0.0666
          10   -0.0841    0.2238   -0.1528   -0.0756   -0.1328   -0.2049    0.1187   -0.0674
          11    0.2425   -0.0030   -0.1596    0.3024    0.2177    0.0980   -0.1503   -0.1028
          12   -0.0531    0.1018    0.0833    0.1799    0.1987   -0.1579   -0.0621   -0.2980
          13   -0.1021   -0.2672    0.0736   -0.0558   -0.1227   -0.2020   -0.1084    0.1111
          14   -0.0984    0.0290   -0.0895   -0.1570   -0.2190    0.1212   -0.0343   -0.0399
          15   -0.0848   -0.1353   -0.4019   -0.1156   -0.1988   -0.1349   -0.1295   -0.0044
          16    0.0071    0.2218   -0.2261    0.0152    0.1160    0.1561   -0.2523    0.0847
          17    0.1106   -0.0484    0.0868    0.1037   -0.0247   -0.0815    0.1611   -0.0091
          18   -0.2351   -0.0508    0.4067   -0.1753    0.0164    0.1128   -0.1563    0.1564
          19   -0.0730   -0.2178    0.2187   -0.0300    0.1274    0.1553    0.2502   -0.1065
          20   -0.0823   -0.0187    0.4948   -0.0275   -0.0198   -0.0830   -0.1490    0.0121
          21   -0.0814   -0.1141   -0.0740   -0.0988    0.0365    0.0884    0.1749   -0.0920
          22    0.0767   -0.0040   -0.0136   -0.0752   -0.1294    0.2454   -0.0231   -0.1903
          23   -0.0475    0.0971   -0.0497   -0.0745    0.0156    0.0312    0.3716    0.1310
          24   -0.0012    0.1210    0.0261    0.0802   -0.0010   -0.0404    0.3533    0.2487
          25    0.1928    0.0260    0.0289   -0.0247   -0.0684    0.1970    0.0055    0.0971
          26   -0.2262   -0.0086   -0.0061    0.3157   -0.1181    0.1058    0.0058    0.0308
          27   -0.1715   -0.0080   -0.0187    0.1585   -0.0186   -0.0061    0.0090   -0.0006
          28   -0.1917   -0.0223    0.0201    0.0850    0.0827   -0.1106   -0.0329   -0.2949
          29    0.2488    0.0270    0.0544   -0.2953    0.0067   -0.0385   -0.0212   -0.1097
          30   -0.1668   -0.0096   -0.0188    0.1555   -0.0037   -0.0074    0.0061   -0.0050
          31   -0.0399    0.0066    0.0274    0.1132   -0.1793    0.1552    0.0017   -0.0812
          32   -0.1533   -0.0047   -0.0000    0.2795   -0.1726    0.2141    0.0127    0.0239
          33   -0.0859   -0.0087   -0.0117    0.1234   -0.0226    0.0458    0.0035    0.0501
          34    0.0008    0.0030    0.0019    0.0072    0.0775   -0.0386    0.0022    0.0571
          35   -0.0203   -0.0107   -0.0526    0.0040    0.4408   -0.2338    0.0203    0.3441
          36   -0.0769   -0.0113   -0.0095    0.1279   -0.0357    0.0564    0.0011    0.0566
          37    0.0799    0.0221    0.0441   -0.0982   -0.1132    0.0412   -0.0027   -0.1766
          38    0.1923    0.0347    0.0465   -0.2702   -0.0127   -0.0617    0.0015   -0.2092
          39   -0.0865   -0.0085   -0.0110    0.1226   -0.0398    0.0528    0.0020    0.0352
          40    0.2831   -0.3614    0.0262    0.0268    0.0498    0.3153   -0.0966    0.2576
          41   -0.0978    0.2357    0.0063    0.0331   -0.0514   -0.1610    0.0670   -0.0319
          42    0.1649   -0.2221   -0.1066    0.1352    0.2336    0.1426   -0.1647   -0.2003
          43    0.0582    0.4229    0.0576   -0.0095    0.0557    0.3043    0.1283    0.0638
          44   -0.0233   -0.2333   -0.1789   -0.0039   -0.2221   -0.1351   -0.1168    0.1771
          45   -0.0038    0.2556   -0.0097   -0.0598    0.0695    0.1709    0.0765   -0.1164
          46    0.3371   -0.1171   -0.0225    0.2104   -0.2053   -0.2224    0.3556   -0.0177
          47   -0.1593    0.1045   -0.1105   -0.1881   -0.0613    0.1478   -0.0636    0.3337
          48    0.1358   -0.1261    0.1418    0.0711   -0.1480   -0.1308    0.2222    0.0310
          49    0.1849    0.2255    0.2263    0.1140   -0.2273   -0.2113   -0.3475    0.1225
          50   -0.1283   -0.1571    0.0547   -0.0641    0.1589    0.1153    0.1965   -0.0876
          51    0.1798    0.2072    0.0635    0.1488    0.0350   -0.1448   -0.1217   -0.0025


   Root No.      17        18        19        20        21        22        23        24

                17 A      18 A      19 A      20 A      21 A      22 A      23 A      24 A   

                1016.8    1034.8    1085.1    1091.0    1104.6    1129.6    1133.4    1146.0
  
           1    0.0535    0.0795    0.0220    0.0650   -0.1363   -0.2306   -0.2544    0.1235
           2    0.2344   -0.0487    0.0280   -0.0133   -0.0209    0.0845    0.1448   -0.0502
           3   -0.1152    0.0719    0.0254    0.0266   -0.0363   -0.1682   -0.1382    0.0632
           4   -0.0295    0.1007    0.0204   -0.0086   -0.0638    0.2353    0.1625   -0.1662
           5   -0.0025   -0.0266    0.0697    0.0661   -0.2892    0.0560   -0.0399    0.4177
           6    0.1271   -0.2261   -0.0052   -0.0064   -0.0457    0.2787   -0.1436   -0.1205
           7   -0.0597   -0.1283   -0.0190   -0.0028    0.0526   -0.0947   -0.0611    0.0478
           8    0.0159    0.0011   -0.0716   -0.0532    0.3008   -0.1502   -0.0540   -0.3599
           9   -0.0919    0.1420   -0.0049    0.0128   -0.0479   -0.2497    0.2409    0.0310
          10   -0.0268   -0.2093   -0.0274   -0.0263   -0.0034    0.0087    0.0173   -0.0171
          11   -0.0677    0.1055   -0.1608    0.0385    0.0786    0.0713    0.0374    0.0448
          12   -0.0283   -0.1471   -0.0528    0.0215    0.2016    0.1256    0.1485    0.0750
          13    0.1654    0.0610    0.0134   -0.0266    0.0489    0.0079    0.0333   -0.0271
          14   -0.2984   -0.0693   -0.0338   -0.0335   -0.1995   -0.1048   -0.1584   -0.0811
          15    0.0068    0.0208   -0.1498   -0.0726   -0.0404   -0.0067   -0.0360   -0.0324
          16    0.0852    0.1404   -0.0226    0.0265   -0.0488   -0.0249   -0.0464   -0.0205
          17   -0.0784   -0.0641   -0.0042    0.0399    0.0967    0.0583    0.0578    0.0335
          18   -0.0379    0.0615    0.0033    0.0022    0.1570    0.0735    0.0968    0.0697
          19   -0.0983   -0.1101    0.0235    0.0351   -0.0629   -0.0496   -0.0392   -0.0291
          20    0.1691    0.0101    0.0245   -0.0056   -0.1536   -0.0944   -0.0981   -0.0891
          21   -0.0266   -0.0437    0.0230   -0.0381   -0.0879   -0.0350   -0.0594   -0.0225
          22    0.3080   -0.1901   -0.0382   -0.0846    0.4525   -0.1934    0.0384    0.4806
          23    0.3952    0.3137   -0.1574   -0.0502    0.1509    0.0581    0.0608    0.1444
          24    0.1208    0.4264   -0.1217    0.0188   -0.1081    0.0496   -0.0790   -0.0633
          25    0.1314   -0.2145   -0.0002   -0.0127   -0.2496    0.2244    0.5644   -0.1263
          26   -0.0071    0.0032    0.0205    0.0252   -0.2430   -0.0877    0.3930    0.2127
          27   -0.0295    0.0502    0.0017    0.0069   -0.0191   -0.0521   -0.0028    0.0516
          28   -0.2041    0.3912    0.0681    0.0040    0.0861    0.3808   -0.0807    0.1492
          29   -0.0220    0.0452    0.0608    0.0226   -0.0626    0.4084   -0.2033    0.2411
          30   -0.0300    0.0494   -0.0031   -0.0007    0.0144   -0.0374    0.0230   -0.0256
          31    0.0724   -0.0037   -0.0154   -0.0265    0.0995    0.1119   -0.0407   -0.1826
          32    0.1454   -0.1409   -0.0357   -0.0492    0.1880    0.2058   -0.2108   -0.2625
          33    0.0342   -0.0647   -0.0069   -0.0088    0.0169    0.0453   -0.0483   -0.0273
          34   -0.0187   -0.0358   -0.0062   -0.0019    0.0174   -0.0250   -0.0135    0.0109
          35   -0.0676   -0.2054   -0.0426   -0.0166    0.0754   -0.1527   -0.0880    0.1012
          36    0.0317   -0.0697   -0.0080   -0.0117   -0.0039    0.0722   -0.0556   -0.0250
          37   -0.0294    0.1576   -0.0168   -0.0164    0.0771   -0.0708    0.1159   -0.1517
          38   -0.0974    0.2468   -0.0349   -0.0171    0.1210   -0.2786    0.2244   -0.1829
          39    0.0374   -0.0552    0.0018   -0.0023   -0.0121    0.0651   -0.0398   -0.0022
          40   -0.1646    0.1693   -0.2857   -0.2597    0.0281    0.0459    0.0237    0.0986
          41   -0.0839   -0.0762   -0.1576   -0.1198    0.0775    0.0717    0.0746    0.0519
          42    0.1769    0.0570    0.3032    0.3586   -0.0475   -0.0705   -0.0771   -0.0897
          43   -0.3462   -0.0119    0.3200   -0.2030    0.1335    0.0269    0.0332    0.0356
          44   -0.2085    0.0453    0.3307   -0.3066    0.2001    0.0753    0.0781    0.0187
          45   -0.0249   -0.0436   -0.1815    0.1176   -0.1526   -0.0657   -0.0886   -0.0265
          46   -0.0704   -0.0703    0.1336    0.2040    0.0565   -0.0070    0.0088   -0.0083
          47   -0.0200    0.1117    0.3420    0.5329    0.2332    0.0325    0.0945    0.0035
          48   -0.0711   -0.0477    0.1062    0.1471    0.1028    0.0241    0.0483    0.0204
          49    0.0116    0.0367   -0.1945    0.1813    0.0366    0.0173   -0.0004    0.0008
          50    0.0615   -0.0257    0.1858   -0.1560   -0.0942   -0.0591   -0.0423   -0.0371
          51    0.3277    0.1148    0.4643   -0.4395   -0.1372   -0.0937   -0.0566   -0.0319


   Root No.      25        26        27        28        29        30        31        32

                25 A      26 A      27 A      28 A      29 A      30 A      31 A      32 A   

                1209.0    1265.1    1337.6    1368.9    1395.2    1408.2    1410.8    1416.7
  
           1   -0.0328   -0.2857   -0.1711    0.3845   -0.2206    0.0350    0.0095   -0.2431
           2   -0.2715   -0.2586    0.4241    0.1957   -0.0583    0.0034   -0.0010   -0.0763
           3   -0.1795    0.0854    0.5235   -0.0768    0.0192   -0.0301   -0.0076    0.1385
           4   -0.1123   -0.3177    0.0008   -0.2117    0.3885   -0.0196    0.0291    0.1247
           5   -0.0181   -0.2516   -0.0600   -0.2097   -0.0880    0.0321    0.0029   -0.1801
           6    0.0409   -0.0273   -0.0821    0.0219   -0.0130   -0.0036    0.0018   -0.0218
           7    0.0605    0.1113   -0.0265   -0.0476   -0.0596   -0.0302   -0.2547    0.0706
           8    0.0045    0.0043   -0.0238   -0.2270   -0.1023   -0.0151    0.0440    0.2133
           9    0.0106   -0.0007    0.0014   -0.0139    0.0016   -0.2460    0.0238   -0.0373
          10    0.1097   -0.0074    0.1320    0.0013   -0.0388   -0.0224   -0.0035    0.1246
          11    0.0447   -0.0569   -0.1833    0.0387   -0.0205    0.0048    0.0026   -0.0272
          12   -0.1740   -0.0117   -0.3436   -0.0123    0.0771    0.0400    0.0072   -0.2090
          13   -0.0733    0.1252   -0.0992   -0.0203   -0.0337   -0.0197   -0.0036    0.1169
          14   -0.0733    0.2883   -0.2937   -0.0650   -0.0545   -0.0316   -0.0035    0.1847
          15    0.1122    0.1293   -0.0995   -0.0690    0.0342    0.0028   -0.0008    0.0026
          16    0.0750    0.0590    0.0236   -0.0513    0.0312    0.0020   -0.0003   -0.0015
          17    0.1486   -0.1396    0.0483    0.1338   -0.1944   -0.0560   -0.0065    0.2981
          18    0.0265   -0.2203   -0.0062    0.2099   -0.2297   -0.0530   -0.0055    0.2660
          19   -0.0440    0.0732    0.0196   -0.0427    0.0248   -0.0014   -0.0007    0.0113
          20    0.1353    0.1413    0.1661   -0.2012    0.2419    0.0564    0.0055   -0.2821
          21    0.1740   -0.0083    0.1209   -0.1029    0.1713    0.0527    0.0066   -0.2750
          22    0.0332    0.1534    0.0742   -0.1644    0.0620    0.0085   -0.0073    0.0536
          23    0.1830    0.0375   -0.1317   -0.0562    0.0190    0.0120   -0.0037   -0.0080
          24    0.1635    0.0087   -0.1399    0.0081   -0.0190    0.0009    0.0009   -0.0090
          25    0.1086    0.2653    0.0108   -0.0022   -0.3057    0.0234   -0.0485   -0.1269
          26    0.0725    0.1710   -0.0058    0.2421    0.2615   -0.0285    0.0301    0.1795
          27   -0.0008   -0.0057   -0.0154    0.1543    0.3115   -0.0348    0.0372    0.1842
          28   -0.0369    0.3536    0.2509   -0.0429   -0.3010    0.0060   -0.0501   -0.0814
          29    0.0352    0.1953    0.0254    0.2450    0.2605   -0.0335    0.0314    0.1860
          30   -0.0144    0.0079    0.0500   -0.1529   -0.3009    0.0241   -0.0354   -0.1725
          31   -0.0079    0.0544    0.0296    0.1118    0.0146   -0.3778    0.4909   -0.1479
          32   -0.0113    0.0824    0.0308    0.2720    0.1052   -0.0988   -0.2711   -0.1622
          33    0.0021    0.0340    0.0079    0.1392    0.0647    0.0503   -0.3553   -0.0666
          34    0.0190    0.0464   -0.0025    0.0108   -0.0137   -0.0054   -0.0178    0.0042
          35    0.0704    0.2512    0.0356    0.3263   -0.0104    0.0516    0.3409   -0.1911
          36   -0.0147   -0.0048    0.0035    0.0299    0.0017    0.7136   -0.0746    0.1145
          37   -0.0137    0.0549    0.0431    0.1412    0.0193    0.4773    0.3986   -0.0058
          38    0.0002    0.0847    0.0438    0.2687    0.1103    0.0561   -0.2874   -0.1301
          39   -0.0073   -0.0374   -0.0106   -0.1298   -0.0656    0.1167    0.3429    0.0912
          40   -0.2860   -0.0181   -0.0356   -0.0069    0.0415    0.0077   -0.0001   -0.1153
          41   -0.1352   -0.0174   -0.0747   -0.0005    0.0234    0.0097    0.0009   -0.0688
          42    0.3551   -0.0061   -0.0326    0.0304   -0.0609   -0.0109    0.0010    0.1183
          43    0.2260   -0.1290    0.0092    0.0029    0.0455    0.0225    0.0044   -0.1184
          44    0.3105   -0.0732   -0.0352   -0.0354    0.0686    0.0250    0.0040   -0.1215
          45   -0.1156    0.1021   -0.0481   -0.0121   -0.0266   -0.0136   -0.0021    0.0728
          46   -0.1203    0.0784   -0.0479   -0.0526    0.0616    0.0167    0.0022   -0.0831
          47   -0.3300    0.1204   -0.1358   -0.0650    0.0854    0.0243    0.0033   -0.1235
          48   -0.0998   -0.0255   -0.0467    0.0405   -0.0338   -0.0043    0.0000    0.0195
          49    0.1375   -0.0232    0.0854   -0.0400    0.0597    0.0159    0.0019   -0.0816
          50   -0.0924    0.0893   -0.0209   -0.0410    0.0294    0.0028   -0.0002   -0.0103
          51   -0.3051    0.1118   -0.1627    0.0411   -0.0805   -0.0228   -0.0026    0.1173


   Root No.      33        34        35        36        37        38        39        40

                33 A      34 A      35 A      36 A      37 A      38 A      39 A      40 A   

                1432.5    1729.7    1789.0    2888.4    2957.5    3035.8    3076.4    3083.8
  
           1    0.3049    0.0397    0.0005   -0.0893   -0.0048   -0.0051    0.0002    0.0014
           2    0.1856    0.0293    0.0015    0.1724    0.0095    0.0022   -0.0010    0.0018
           3   -0.0746   -0.0301    0.0010   -0.1889   -0.0119   -0.0019    0.0003   -0.0000
           4   -0.2852    0.0091   -0.0021   -0.0020    0.0046   -0.1171    0.0006   -0.0110
           5   -0.3382    0.0040   -0.0116   -0.0007   -0.0089    0.1790   -0.0013    0.0161
           6    0.0139   -0.0025   -0.0065    0.0170   -0.3040   -0.0164   -0.0169   -0.0027
           7    0.1700   -0.0015    0.0009   -0.0009   -0.0006    0.0253    0.0284   -0.2681
           8    0.3758   -0.0017    0.0033   -0.0001   -0.0000   -0.0072   -0.0135    0.1172
           9    0.0032   -0.0002    0.0001   -0.0021    0.0167    0.0016   -0.2926   -0.0315
          10   -0.0708   -0.3087   -0.2902    0.0015   -0.0021    0.0003   -0.0017    0.0009
          11    0.0159   -0.3660   -0.3157   -0.0000    0.0004   -0.0002   -0.0055    0.0027
          12    0.1011    0.1681    0.1878   -0.0040    0.0009   -0.0005   -0.0025    0.0012
          13   -0.0752   -0.3099    0.2958    0.0014    0.0011   -0.0014    0.0002   -0.0001
          14   -0.1562   -0.1414    0.1674    0.0039    0.0003    0.0002   -0.0001   -0.0001
          15   -0.0253    0.3706   -0.3287   -0.0003   -0.0009    0.0008   -0.0002    0.0003
          16   -0.0190    0.2694    0.2950   -0.0020   -0.0001   -0.0001   -0.0002    0.0002
          17   -0.1440    0.3705    0.3754   -0.0014    0.0001   -0.0000    0.0003   -0.0001
          18   -0.0917   -0.1069   -0.1432    0.0004    0.0001   -0.0000    0.0005   -0.0004
          19   -0.0166    0.2712   -0.3017   -0.0020   -0.0004   -0.0000   -0.0001    0.0000
          20    0.1166    0.0794   -0.1174   -0.0003    0.0001   -0.0002   -0.0000    0.0000
[...]
 TRAVEL (Ang.)       0.1233         C  1 -- H  8         +14.3% ( 60.8%)      0.1%
 REDUCED MASS        3.3138         C  1 -- C  2         +12.4% ( 56.6%)      4.7%
 EFFECTIVE MASS      9.9643
 FORCE CONSTANT      3.4931

 VIBRATION         28   28A           ATOM PAIR      ENERGY CONTRIBUTION    RADIAL
 FREQUENCY          1368.94         C  1 -- C  2         +13.4% ( 49.5%)     67.1%
 TRANSITION DIPOLE   0.2452         C  1 -- H  8          +9.7% ( 42.2%)      0.2%
 TRAVEL (Ang.)       0.2637         C  1 -- C  5          +8.7% ( 39.8%)     65.4%
 REDUCED MASS        0.7086         C  1 -- C  4          +7.6% ( 37.2%)     16.9%
 EFFECTIVE MASS      5.8432
 FORCE CONSTANT      0.7823

 VIBRATION         29   29A           ATOM PAIR      ENERGY CONTRIBUTION    RADIAL
 FREQUENCY          1395.17         C  2 -- H  9         +17.5% ( 53.8%)      3.4%
 TRANSITION DIPOLE   0.2316         C  2 -- H 10         +16.8% ( 52.8%)      4.1%
 TRAVEL (Ang.)       0.2696         C  6 -- C  7         +11.9% ( 44.4%)    100.0%
 REDUCED MASS        0.6649         C  1 -- C  2         +10.5% ( 41.7%)     99.5%
 EFFECTIVE MASS      5.4946
 FORCE CONSTANT      0.7626

 VIBRATION         30   30A           ATOM PAIR      ENERGY CONTRIBUTION    RADIAL
 FREQUENCY          1408.19         C  3 -- H 12         +48.3% ( 61.7%)      0.1%
 TRANSITION DIPOLE   0.0504         C  3 -- H 13         +23.6% ( 43.1%)      8.1%
 TRAVEL (Ang.)       0.3480         C  3 -- H 11         +15.4% ( 34.9%)     15.5%
 REDUCED MASS        0.3954         C  2 -- C  3          +4.7% ( 19.2%)      3.7%
 EFFECTIVE MASS      1.7394
 FORCE CONSTANT      0.4619

 VIBRATION         31   31A           ATOM PAIR      ENERGY CONTRIBUTION    RADIAL
 FREQUENCY          1410.81         C  3 -- H 11         +44.1% ( 57.8%)      0.6%
 TRANSITION DIPOLE   0.0590         C  3 -- H 13         +36.3% ( 52.5%)      1.8%
 TRAVEL (Ang.)       0.3477         C  3 -- H 12         +12.8% ( 31.2%)     34.8%
 REDUCED MASS        0.3953         C  2 -- C  3          +5.6% ( 20.5%)      5.7%
 EFFECTIVE MASS      1.6050
 FORCE CONSTANT      0.4636

 VIBRATION         32   32A           ATOM PAIR      ENERGY CONTRIBUTION    RADIAL
 FREQUENCY          1416.66         C  6 -- C  7         +15.5% ( 57.3%)    100.0%
 TRANSITION DIPOLE   0.1498         C  4 -- C  7          +7.2% ( 39.0%)     99.7%
 TRAVEL (Ang.)       0.2391         C  4 -- C  6          +7.1% ( 38.7%)      0.1%
 REDUCED MASS        0.8328         C  5 -- C  6          +7.0% ( 38.5%)     99.7%
 EFFECTIVE MASS      7.5425
 FORCE CONSTANT      0.9848

 VIBRATION         33   33A           ATOM PAIR      ENERGY CONTRIBUTION    RADIAL
 FREQUENCY          1432.49         C  2 -- C  3         +15.0% ( 55.6%)     96.7%
 TRANSITION DIPOLE   0.0689         C  1 -- C  2         +12.3% ( 50.3%)     55.2%
 TRAVEL (Ang.)       0.2084         C  3 -- H 13          +8.9% ( 42.9%)      3.4%
 REDUCED MASS        1.0838         C  3 -- H 11          +8.6% ( 42.1%)      3.3%
 EFFECTIVE MASS      7.3730
 FORCE CONSTANT      1.3104

 VIBRATION         34   34A           ATOM PAIR      ENERGY CONTRIBUTION    RADIAL
 FREQUENCY          1729.67         C  4 -- C  6         +18.4% ( 73.1%)     99.9%
 TRANSITION DIPOLE   0.4021         C  5 -- C  7         +18.1% ( 72.4%)     99.9%
 TRAVEL (Ang.)       0.1197         C  5 -- C  6         +10.7% ( 55.8%)     26.2%
 REDUCED MASS        2.7207         C  4 -- C  7         +10.7% ( 55.8%)     26.5%
 EFFECTIVE MASS     12.0253
 FORCE CONSTANT      4.7958

 VIBRATION         35   35A           ATOM PAIR      ENERGY CONTRIBUTION    RADIAL
 FREQUENCY          1789.01         C  5 -- C  7         +18.1% ( 70.4%)     99.8%
 TRANSITION DIPOLE   0.3116         C  4 -- C  6         +17.7% ( 69.8%)     99.8%
 TRAVEL (Ang.)       0.1184         C  6 -- C  7         +12.1% ( 57.7%)      0.0%
 REDUCED MASS        2.6864         C  5 -- C  6         +10.9% ( 54.7%)     67.5%
 EFFECTIVE MASS     11.7999         C  4 -- C  7         +10.9% ( 54.7%)     64.6%
 FORCE CONSTANT      5.0658

 VIBRATION         36   36A           ATOM PAIR      ENERGY CONTRIBUTION    RADIAL
 FREQUENCY          2888.43         C  1 -- H  8         +96.6% ( 99.8%)    100.0%
 TRANSITION DIPOLE   0.2013         C  1 -- C  2          +1.0% ( 10.2%)      9.5%
 TRAVEL (Ang.)       0.1590         C  1 -- C  5          +1.0% ( 10.1%)     10.6%
 REDUCED MASS        0.9232         C  1 -- C  4          +1.0% ( 10.1%)     10.6%
 EFFECTIVE MASS      1.4355
 FORCE CONSTANT      4.5380

 VIBRATION         37   37A           ATOM PAIR      ENERGY CONTRIBUTION    RADIAL
 FREQUENCY          2957.46         C  2 -- H 10         +54.1% ( 76.4%)     97.1%
 TRANSITION DIPOLE   0.0385         C  2 -- H  9         +42.9% ( 68.0%)     95.8%
 TRAVEL (Ang.)       0.2097         C  2 -- C  3          +1.2% ( 11.2%)      0.0%
 REDUCED MASS        0.5184         C  1 -- C  2          +1.1% ( 11.1%)      0.1%
 EFFECTIVE MASS      1.5437
 FORCE CONSTANT      2.6715

 VIBRATION         38   38A           ATOM PAIR      ENERGY CONTRIBUTION    RADIAL
 FREQUENCY          3035.81         C  2 -- H  9         +55.1% ( 73.2%)     98.3%
 TRANSITION DIPOLE   0.0442         C  2 -- H 10         +42.8% ( 64.5%)     96.9%
 TRAVEL (Ang.)       0.2144         C  2 -- C  3          +0.6% (  7.8%)     25.6%
 REDUCED MASS        0.4830         C  1 -- C  2          +0.6% (  7.6%)     28.5%
 EFFECTIVE MASS      1.2755
 FORCE CONSTANT      2.6227

 VIBRATION         39   39A           ATOM PAIR      ENERGY CONTRIBUTION    RADIAL
 FREQUENCY          3076.43         C  3 -- H 13         +55.2% ( 76.6%)     97.8%
 TRANSITION DIPOLE   0.0188         C  3 -- H 11         +42.0% ( 66.9%)     95.9%
 TRAVEL (Ang.)       0.2076         C  3 -- H 12          +1.5% ( 12.6%)     13.7%
 REDUCED MASS        0.5087         C  2 -- C  3          +1.0% ( 10.2%)      0.0%
 EFFECTIVE MASS      1.5011
 FORCE CONSTANT      2.8365

 VIBRATION         40   40A           ATOM PAIR      ENERGY CONTRIBUTION    RADIAL
 FREQUENCY          3083.83         C  3 -- H 12         +60.3% ( 80.1%)     98.7%
 TRANSITION DIPOLE   0.0156         C  3 -- H 11         +25.0% ( 51.5%)     90.2%
 TRAVEL (Ang.)       0.2154         C  3 -- H 13         +13.1% ( 37.3%)     79.3%
 REDUCED MASS        0.4715         C  2 -- C  3          +1.0% ( 10.3%)      0.0%
 EFFECTIVE MASS      1.5028
 FORCE CONSTANT      2.6416

 VIBRATION         41   41A           ATOM PAIR      ENERGY CONTRIBUTION    RADIAL
 FREQUENCY          3130.62         C  6 -- H 16         +43.9% ( 67.9%)    100.0%
 TRANSITION DIPOLE   0.2425         C  4 -- H 14         +36.3% ( 61.7%)    100.0%
 TRAVEL (Ang.)       0.2504         C  7 -- H 17         +11.2% ( 34.3%)    100.0%
 REDUCED MASS        0.3436         C  5 -- H 15          +4.3% ( 21.4%)    100.0%
 EFFECTIVE MASS      1.4784
 FORCE CONSTANT      1.9842

 VIBRATION         42   42A           ATOM PAIR      ENERGY CONTRIBUTION    RADIAL
 FREQUENCY          3132.93         C  7 -- H 17         +47.8% ( 70.7%)    100.0%
 TRANSITION DIPOLE   0.4589         C  5 -- H 15         +31.8% ( 57.7%)    100.0%
 TRAVEL (Ang.)       0.2483         C  4 -- H 14         +11.7% ( 35.0%)    100.0%
 REDUCED MASS        0.3491         C  6 -- H 16          +4.6% ( 21.9%)     99.9%
 EFFECTIVE MASS      1.4739
 FORCE CONSTANT      2.0187

 VIBRATION         43   43A           ATOM PAIR      ENERGY CONTRIBUTION    RADIAL
 FREQUENCY          3144.29         C  4 -- H 14         +29.8% ( 56.2%)     99.9%
 TRANSITION DIPOLE   0.5477         C  5 -- H 15         +28.7% ( 55.1%)    100.0%
 TRAVEL (Ang.)       0.2880         C  6 -- H 16         +25.3% ( 51.8%)     99.9%
 REDUCED MASS        0.2586         C  7 -- H 17         +10.3% ( 33.1%)     99.8%
 EFFECTIVE MASS      1.6003
 FORCE CONSTANT      1.5062

 VIBRATION         44   44A           ATOM PAIR      ENERGY CONTRIBUTION    RADIAL
 FREQUENCY          3154.65         C  5 -- H 15         +29.8% ( 56.3%)     99.9%
 TRANSITION DIPOLE   0.2157         C  7 -- H 17         +25.6% ( 52.2%)    100.0%
 TRAVEL (Ang.)       0.2956         C  6 -- H 16         +21.0% ( 47.2%)    100.0%
 REDUCED MASS        0.2446         C  4 -- H 14         +16.8% ( 42.3%)     99.9%
 EFFECTIVE MASS      1.7003
 FORCE CONSTANT      1.4345

 VIBRATION         45   45A           ATOM PAIR      ENERGY CONTRIBUTION    RADIAL
 FREQUENCY          3179.91         C  3 -- H 12         +37.4% ( 58.9%)     97.7%
 TRANSITION DIPOLE   0.0193         C  3 -- H 11         +31.8% ( 54.2%)     96.8%
 TRAVEL (Ang.)       0.2540         C  3 -- H 13         +30.4% ( 53.1%)     96.6%
 REDUCED MASS        0.3288         C  2 -- C  3          +0.3% (  5.1%)     99.3%
 EFFECTIVE MASS      1.1374
 FORCE CONSTANT      1.9587

      SYMMETRY NUMBER FOR POINT-GROUP C1  =  1


          SYSTEM IS A GROUND STATE



 InChI=1S/C7H10/c1-2-7-5-3-4-6-7/h3-7H,2H2,1H3


          MOLECULE IS NOT LINEAR

          THERE ARE 45 GENUINE VIBRATIONS IN THIS SYSTEM
          THIS THERMODYNAMICS CALCULATION IS LIMITED TO
          MOLECULES WHICH HAVE NO INTERNAL ROTATIONS




                    CALCULATED THERMODYNAMIC PROPERTIES
                                          *
   TEMP. (K)   PARTITION FUNCTION   H.O.F.    ENTHALPY  HEAT CAPACITY ENTROPY
                                   KCAL/MOL   CAL/MOLE    CAL/K/MOL  CAL/K/MOL


 298.00  VIB.     0.2266D+02                  2540.5589    19.7949    14.7270
         ROT.     0.2002D+06                   888.2803     2.9808    27.2385
         INT.     0.4537D+07                  3428.8392    22.7757    41.9655
         TRA.     0.8833D+27                  1480.4672     4.9680    39.5363
         TOT.                       21.879    4909.3064    27.7437    81.5017

 200.00  VIB.     0.5939D+01                  1031.8090    11.3506     8.6995
         ROT.     0.1101D+06                   596.1613     2.9808    26.0498
         INT.     0.6537D+06                  1627.9703    14.3314    34.7493
         TRA.     0.4856D+27                   993.6021     4.9680    37.5551
         TOT.                       19.592    2621.5724    19.2994    72.3044

 210.00  VIB.     0.6767D+01                  1149.0312    12.0993     9.2713
         ROT.     0.1184D+06                   625.9693     2.9808    26.1952
         INT.     0.8013D+06                  1775.0005    15.0801    35.4665
         TRA.     0.5225D+27                  1043.2822     4.9680    37.7975
         TOT.                       19.788    2818.2828    20.0481    73.2640

 220.00  VIB.     0.7720D+01                  1273.9003    12.8798     9.8520
         ROT.     0.1270D+06                   655.7774     2.9808    26.3339
         INT.     0.9803D+06                  1929.6777    15.8606    36.1859
         TRA.     0.5603D+27                  1092.9623     4.9680    38.0286
         TOT.                       19.993    3022.6400    20.8286    74.2146

 230.00  VIB.     0.8820D+01                  1406.7270    13.6905    10.4423
         ROT.     0.1357D+06                   685.5855     2.9808    26.4664
         INT.     0.1197D+07                  2092.3125    16.6713    36.9087
         TRA.     0.5989D+27                  1142.6424     4.9680    38.2495
         TOT.                       20.205    3234.9549    21.6393    75.1582

 240.00  VIB.     0.1009D+02                  1547.8028    14.5292    11.0426
         ROT.     0.1447D+06                   715.3935     2.9808    26.5933
         INT.     0.1460D+07                  2263.1964    17.5100    37.6359
         TRA.     0.6384D+27                  1192.3226     4.9680    38.4609
         TOT.                       20.426    3455.5189    22.4780    76.0968

 250.00  VIB.     0.1156D+02                  1697.3947    15.3932    11.6532
         ROT.     0.1538D+06                   745.2016     2.9808    26.7149
         INT.     0.1778D+07                  2442.5963    18.3740    38.3681
         TRA.     0.6787D+27                  1242.0027     4.9680    38.6637
         TOT.                       20.655    3684.5989    23.3420    77.0318

 260.00  VIB.     0.1326D+02                  1855.7409    16.2795    12.2741
         ROT.     0.1631D+06                   775.0097     2.9808    26.8318
         INT.     0.2163D+07                  2630.7506    19.2603    39.1059
         TRA.     0.7198D+27                  1291.6828     4.9680    38.8586
         TOT.                       20.893    3922.4333    24.2283    77.9645

 270.00  VIB.     0.1524D+02                  2023.0491    17.1850    12.9054
         ROT.     0.1726D+06                   804.8177     2.9808    26.9443
         INT.     0.2630D+07                  2827.8669    20.1658    39.8498
         TRA.     0.7618D+27                  1341.3629     4.9680    39.0461
         TOT.                       21.139    4169.2297    25.1339    78.8958

 280.00  VIB.     0.1753D+02                  2199.4947    18.1065    13.5470
         ROT.     0.1823D+06                   834.6258     2.9808    27.0527
         INT.     0.3197D+07                  3034.1205    21.0873    40.5997
         TRA.     0.8045D+27                  1391.0430     4.9680    39.2267
         TOT.                       21.395    4425.1635    26.0553    79.8265

 290.00  VIB.     0.2021D+02                  2385.2207    19.0406    14.1986
         ROT.     0.1922D+06                   864.4339     2.9808    27.1573
         INT.     0.3883D+07                  3249.6545    22.0214    41.3560
         TRA.     0.8479D+27                  1440.7231     4.9680    39.4011
         TOT.                       21.661    4690.3776    26.9894    80.7571

 300.00  VIB.     0.2333D+02                  2580.3380    19.9842    14.8600
         ROT.     0.2022D+06                   894.2419     2.9808    27.2584
         INT.     0.4716D+07                  3474.5799    22.9650    42.1184
         TRA.     0.8922D+27                  1490.4032     4.9680    39.5695
         TOT.                       21.935    4964.9831    27.9330    81.6879

 310.00  VIB.     0.2697D+02                  2784.9268    20.9344    15.5308
         ROT.     0.2124D+06                   924.0500     2.9808    27.3561
         INT.     0.5728D+07                  3708.9768    23.9152    42.8869
         TRA.     0.9372D+27                  1540.0833     4.9680    39.7324
         TOT.                       22.219    5249.0601    28.8832    82.6193

 320.00  VIB.     0.3123D+02                  2999.0381    21.8883    16.2105
         ROT.     0.2227D+06                   953.8580     2.9808    27.4508
         INT.     0.6955D+07                  3952.8961    24.8691    43.6613
         TRA.     0.9829D+27                  1589.7634     4.9680    39.8901
         TOT.                       22.513    5542.6595    29.8371    83.5514

 330.00  VIB.     0.3621D+02                  3222.6954    22.8432    16.8986
         ROT.     0.2333D+06                   983.6661     2.9808    27.5425
         INT.     0.8447D+07                  4206.3615    25.8240    44.4411
         TRA.     0.1029D+28                  1639.4435     4.9680    40.0430
         TOT.                       22.816    5845.8050    30.7920    84.4841

 340.00  VIB.     0.4206D+02                  3455.8972    23.7968    17.5947
         ROT.     0.2439D+06                  1013.4742     2.9808    27.6315
         INT.     0.1026D+08                  4469.3714    26.7776    45.2262
         TRA.     0.1076D+28                  1689.1236     4.9680    40.1913
         TOT.                       23.129    6158.4950    31.7456    85.4176

 350.00  VIB.     0.4892D+02                  3698.6188    24.7468    18.2983
         ROT.     0.2548D+06                  1043.2822     2.9808    27.7179
         INT.     0.1247D+08                  4741.9010    27.7276    46.0162
         TRA.     0.1124D+28                  1738.8037     4.9680    40.3353
         TOT.                       23.451    6480.7048    32.6956    86.3515

 360.00  VIB.     0.5699D+02                  3950.8150    25.6914    19.0087
         ROT.     0.2658D+06                  1073.0903     2.9808    27.8019
         INT.     0.1515D+08                  5023.9053    28.6722    46.8105
         TRA.     0.1173D+28                  1788.4838     4.9680    40.4753
         TOT.                       23.783    6812.3891    33.6402    87.2858

 370.00  VIB.     0.6649D+02                  4212.4220    26.6287    19.7254
         ROT.     0.2769D+06                  1102.8984     2.9808    27.8835
         INT.     0.1841D+08                  5315.3204    29.6095    47.6089
         TRA.     0.1222D+28                  1838.1639     4.9680    40.6114
         TOT.                       24.124    7153.4843    34.5775    88.2203

 380.00  VIB.     0.7768D+02                  4483.3600    27.5573    20.4479
         ROT.     0.2882D+06                  1132.7064     2.9808    27.9630
         INT.     0.2239D+08                  5616.0664    30.5381    48.4109
         TRA.     0.1272D+28                  1887.8440     4.9680    40.7439
         TOT.                       24.474    7503.9105    35.5061    89.1548

 390.00  VIB.     0.9088D+02                  4763.5350    28.4759    21.1756
         ROT.     0.2997D+06                  1162.5145     2.9808    28.0405
         INT.     0.2724D+08                  5926.0495    31.4567    49.2160
         TRA.     0.1322D+28                  1937.5242     4.9680    40.8729
         TOT.                       24.834    7863.5736    36.4247    90.0890

 400.00  VIB.     0.1065D+03                  5052.8410    29.3833    21.9080
         ROT.     0.3113D+06                  1192.3226     2.9808    28.1159
         INT.     0.3314D+08                  6245.1635    32.3642    50.0239
         TRA.     0.1374D+28                  1987.2043     4.9680    40.9987
         TOT.                       25.203    8232.3678    37.3322    91.0226

   *: NOTE: HEATS OF FORMATION ARE RELATIVE TO THE
            ELEMENTS IN THEIR STANDARD STATE AT 298K
              (=  Standard Enthalpy of Formation).

            Hvib:  Zero-point energy is not included.
                   frequencies of less than zero cm-1 are not included.
            Hrot = (3/2)RT
            Htra = (3/2)RT + pV = (5/2)RT

            Heat capacity is Cp, not Cv

          For more information, see: HTTP://OpenMOPAC.net/Manual/thermochemistry.html


           FORCE CONSTANT IN CARTESIAN COORDINATES (Millidynes/A)

    ATOM   CHEMICAL       X               Y               Z
   NUMBER   SYMBOL  FORCE CONSTANT  FORCE CONSTANT  FORCE CONSTANT

      1       C        8.741234        8.420864        8.364050
      2       C        8.128464        8.461316        8.270791
      3       C        8.441090        8.236287        8.195480
      4       C        6.665505       12.469145        7.577820
      5       C        6.765142        7.913538       12.054514
      6       C        7.413152        9.739604       10.205625
      7       C        7.404025       10.372866        9.584361
      8       H        1.154249        2.203340        2.530119
      9       H        1.177335        1.749751        3.478825
     10       H        1.147705        1.699823        3.541609
     11       H        1.103538        1.882235        3.790289
     12       H        5.393096        0.731184        0.666459
     13       H        1.121756        1.883622        3.758142
     14       H        0.674995        4.124037        1.649830
     15       H        0.716133        1.978921        3.760859
     16       H        1.848172        0.642890        3.963349
     17       H        1.783492        4.005408        0.665541

 **********************
 *                    *
 * JOB ENDED NORMALLY *
 *                    *
 **********************



 TOTAL JOB TIME:             1.55 SECONDS

 == MOPAC DONE ==
