 *******************************************************************************
 **                                                                           **
 **                              MOPAC v23.1.2                                **
 **                                                                           **
 *******************************************************************************
 **          Digital Object Identifier (DOI): 10.5281/zenodo.6511958          **
 **    Visit the DOI location for information on how to cite this program.    **
 *******************************************************************************

                              PM3 CALCULATION RESULTS

 *******************************************************************************
 *  CALCULATION DONE: (MAX THREADS = 1)              Tue Jun  3 16:32:01 2025  *
 *  PM3        - The PM3 Hamiltonian to be used
 *  PRECISE    - TIGHTER CRITERIA TO BE USED
 *  NOSYM      - POINT-GROUP SYMMETRY SET TO C1
 *  THREADS=1  - MULTI-THREADING NOT USED
 *  T=         - A TIME OF 172800.0 SECONDS REQUESTED
 *  DUMP=N     - RESTART FILE WRITTEN EVERY 7200.0 SECONDS REQUESTED
 *******************************************************************************
pm3  precise nosym THREADS=1
 InChI=1S/C10H10/c1-8-6-7-9-4-2-3-5-10(8)9/h2-6H,7H2,1H3

   ATOM   CHEMICAL          X               Y               Z
  NUMBER   SYMBOL      (ANGSTROMS)     (ANGSTROMS)     (ANGSTROMS)

     1       C         -0.15730000  *   2.02580000  *   0.15670000  *
     2       C         -2.60550000  *  -0.87650000  *   0.02460000  *
     3       C          0.71910000  *   0.82640000  *   0.03010000  *
     4       C         -1.44170000  *   0.06300000  *   0.00760000  *
     5       C         -0.04210000  *  -0.31470000  *  -0.05170000  *
     6       C         -1.52050000  *   1.38670000  *   0.14310000  *
     7       C          2.11300000  *   0.76830000  *   0.00120000  *
     8       C          0.54240000  *  -1.57760000  *  -0.16300000  *
     9       C          2.72750000  *  -0.49030000  *  -0.11400000  *
    10       C          1.94450000  *  -1.65960000  *  -0.19520000  *
    11       H          0.02250000  *   2.54980000  *   1.11900000  *
    12       H         -0.03110000  *   2.70550000  *  -0.71220000  *
    13       H         -3.54820000  *  -0.33750000  *  -0.20930000  *
    14       H         -2.69100000  *  -1.34020000  *   1.02920000  *
    15       H         -2.45710000  *  -1.67290000  *  -0.73400000  *
    16       H         -2.44990000  *   1.93250000  *   0.24330000  *
    17       H          2.70730000  *   1.67030000  *   0.06760000  *
    18       H          3.80700000  *  -0.56210000  *  -0.13860000  *
    19       H          2.42550000  *  -2.62520000  *  -0.28180000  *
    20       H         -0.06430000  *  -2.47170000  *  -0.22240000  *



          CARTESIAN COORDINATES 

    NO.       ATOM           X           Y           Z

     1         C         -0.1573      2.0258      0.1567
     2         C         -2.6055     -0.8765      0.0246
     3         C          0.7191      0.8264      0.0301
     4         C         -1.4417      0.0630      0.0076
     5         C         -0.0421     -0.3147     -0.0517
     6         C         -1.5205      1.3867      0.1431
     7         C          2.1130      0.7683      0.0012
     8         C          0.5424     -1.5776     -0.1630
     9         C          2.7275     -0.4903     -0.1140
    10         C          1.9445     -1.6596     -0.1952
    11         H          0.0225      2.5498      1.1190
    12         H         -0.0311      2.7055     -0.7122
    13         H         -3.5482     -0.3375     -0.2093
    14         H         -2.6910     -1.3402      1.0292
    15         H         -2.4571     -1.6729     -0.7340
    16         H         -2.4499      1.9325      0.2433
    17         H          2.7073      1.6703      0.0676
    18         H          3.8070     -0.5621     -0.1386
    19         H          2.4255     -2.6252     -0.2818
    20         H         -0.0643     -2.4717     -0.2224

  H: (PM3): J. J. P. STEWART, J. COMP. CHEM. 10, 209 (1989).
  C: (PM3): J. J. P. STEWART, J. COMP. CHEM. 10, 209 (1989).

           Empirical Formula: C10 H10  =    20 atoms



      MOLECULAR POINT GROUP   :   C1  


      RHF CALCULATION, NO. OF DOUBLY OCCUPIED LEVELS = 25


          Geometry optimization using EF

          DIAGONAL MATRIX USED AS START HESSIAN

 CYCLE:     1 TIME:   0.008 TIME LEFT:  2.00D  GRAD.:   124.008 HEAT:  34.71542
 CYCLE:     2 TIME:   0.016 TIME LEFT:  2.00D  GRAD.:    49.050 HEAT:  32.23177
 CYCLE:     3 TIME:   0.008 TIME LEFT:  2.00D  GRAD.:    65.559 HEAT:  32.15031
 CYCLE:     4 TIME:   0.008 TIME LEFT:  2.00D  GRAD.:    46.495 HEAT:  31.75278
 CYCLE:     5 TIME:   0.008 TIME LEFT:  2.00D  GRAD.:    41.345 HEAT:  31.58963
 CYCLE:     6 TIME:   0.008 TIME LEFT:  2.00D  GRAD.:    21.129 HEAT:  31.22002
 CYCLE:     7 TIME:   0.012 TIME LEFT:  2.00D  GRAD.:    16.229 HEAT:  31.14142
 CYCLE:     8 TIME:   0.008 TIME LEFT:  2.00D  GRAD.:    15.258 HEAT:  31.11560
 CYCLE:     9 TIME:   0.008 TIME LEFT:  2.00D  GRAD.:    12.535 HEAT:  31.07161
 CYCLE:    10 TIME:   0.008 TIME LEFT:  2.00D  GRAD.:     7.468 HEAT:  31.03316
 CYCLE:    11 TIME:   0.012 TIME LEFT:  2.00D  GRAD.:     7.279 HEAT:  31.02042
 CYCLE:    12 TIME:   0.004 TIME LEFT:  2.00D  GRAD.:     3.589 HEAT:  31.00025
 CYCLE:    13 TIME:   0.008 TIME LEFT:  2.00D  GRAD.:     5.472 HEAT:  30.98356
 CYCLE:    14 TIME:   0.008 TIME LEFT:  2.00D  GRAD.:     7.226 HEAT:  30.97534
 CYCLE:    15 TIME:   0.008 TIME LEFT:  2.00D  GRAD.:     6.905 HEAT:  30.97168
 CYCLE:    16 TIME:   0.008 TIME LEFT:  2.00D  GRAD.:     5.267 HEAT:  30.96270
 CYCLE:    17 TIME:   0.012 TIME LEFT:  2.00D  GRAD.:     3.578 HEAT:  30.95793
 CYCLE:    18 TIME:   0.004 TIME LEFT:  2.00D  GRAD.:     2.494 HEAT:  30.95456
 CYCLE:    19 TIME:   0.012 TIME LEFT:  2.00D  GRAD.:     2.808 HEAT:  30.95065
 CYCLE:    20 TIME:   0.004 TIME LEFT:  2.00D  GRAD.:     3.893 HEAT:  30.94577
 CYCLE:    21 TIME:   0.008 TIME LEFT:  2.00D  GRAD.:     2.804 HEAT:  30.93734
 CYCLE:    22 TIME:   0.008 TIME LEFT:  2.00D  GRAD.:     3.647 HEAT:  30.93371
 CYCLE:    23 TIME:   0.004 TIME LEFT:  2.00D  GRAD.:     3.106 HEAT:  30.93073
 CYCLE:    24 TIME:   0.008 TIME LEFT:  2.00D  GRAD.:     1.935 HEAT:  30.92708
 CYCLE:    25 TIME:   0.008 TIME LEFT:  2.00D  GRAD.:     2.000 HEAT:  30.92502
 CYCLE:    26 TIME:   0.004 TIME LEFT:  2.00D  GRAD.:     2.008 HEAT:  30.92158
 CYCLE:    27 TIME:   0.008 TIME LEFT:  2.00D  GRAD.:     1.579 HEAT:  30.91948
 CYCLE:    28 TIME:   0.004 TIME LEFT:  2.00D  GRAD.:     0.885 HEAT:  30.91849
 CYCLE:    29 TIME:   0.008 TIME LEFT:  2.00D  GRAD.:     0.948 HEAT:  30.91774
 CYCLE:    30 TIME:   0.008 TIME LEFT:  2.00D  GRAD.:     0.734 HEAT:  30.91678
 CYCLE:    31 TIME:   0.008 TIME LEFT:  2.00D  GRAD.:     0.687 HEAT:  30.91616
 CYCLE:    32 TIME:   0.004 TIME LEFT:  2.00D  GRAD.:     0.557 HEAT:  30.91574
 CYCLE:    33 TIME:   0.008 TIME LEFT:  2.00D  GRAD.:     0.600 HEAT:  30.91513
 CYCLE:    34 TIME:   0.004 TIME LEFT:  2.00D  GRAD.:     0.686 HEAT:  30.91437
 CYCLE:    35 TIME:   0.008 TIME LEFT:  2.00D  GRAD.:     0.611 HEAT:  30.91394
 CYCLE:    36 TIME:   0.008 TIME LEFT:  2.00D  GRAD.:     0.443 HEAT:  30.91350
 CYCLE:    37 TIME:   0.004 TIME LEFT:  2.00D  GRAD.:     0.548 HEAT:  30.91305
 CYCLE:    38 TIME:   0.008 TIME LEFT:  2.00D  GRAD.:     0.496 HEAT:  30.91283
 CYCLE:    39 TIME:   0.008 TIME LEFT:  2.00D  GRAD.:     0.437 HEAT:  30.91256
 CYCLE:    40 TIME:   0.008 TIME LEFT:  2.00D  GRAD.:     0.641 HEAT:  30.91179
 CYCLE:    41 TIME:   0.004 TIME LEFT:  2.00D  GRAD.:     0.746 HEAT:  30.91117
 CYCLE:    42 TIME:   0.008 TIME LEFT:  2.00D  GRAD.:     0.942 HEAT:  30.90971
 CYCLE:    43 TIME:   0.008 TIME LEFT:  2.00D  GRAD.:     0.995 HEAT:  30.90819
 CYCLE:    44 TIME:   0.008 TIME LEFT:  2.00D  GRAD.:     0.979 HEAT:  30.90628
 CYCLE:    45 TIME:   0.004 TIME LEFT:  2.00D  GRAD.:     1.370 HEAT:  30.90376
 CYCLE:    46 TIME:   0.008 TIME LEFT:  2.00D  GRAD.:     1.452 HEAT:  30.90122
 CYCLE:    47 TIME:   0.008 TIME LEFT:  2.00D  GRAD.:     1.480 HEAT:  30.89852
 CYCLE:    48 TIME:   0.008 TIME LEFT:  2.00D  GRAD.:     0.971 HEAT:  30.89624
 CYCLE:    49 TIME:   0.004 TIME LEFT:  2.00D  GRAD.:     0.992 HEAT:  30.89457
 CYCLE:    50 TIME:   0.008 TIME LEFT:  2.00D  GRAD.:     1.377 HEAT:  30.89256
 CYCLE:    51 TIME:   0.008 TIME LEFT:  2.00D  GRAD.:     1.041 HEAT:  30.89042
 CYCLE:    52 TIME:   0.008 TIME LEFT:  2.00D  GRAD.:     1.038 HEAT:  30.88900
 CYCLE:    53 TIME:   0.008 TIME LEFT:  2.00D  GRAD.:     0.722 HEAT:  30.88784
 CYCLE:    54 TIME:   0.004 TIME LEFT:  2.00D  GRAD.:     0.902 HEAT:  30.88724
 CYCLE:    55 TIME:   0.008 TIME LEFT:  2.00D  GRAD.:     0.539 HEAT:  30.88657
 CYCLE:    56 TIME:   0.008 TIME LEFT:  2.00D  GRAD.:     1.008 HEAT:  30.88599
 CYCLE:    57 TIME:   0.004 TIME LEFT:  2.00D  GRAD.:     0.301 HEAT:  30.88538
 CYCLE:    58 TIME:   0.008 TIME LEFT:  2.00D  GRAD.:     0.301 HEAT:  30.88516
 CYCLE:    59 TIME:   0.008 TIME LEFT:  2.00D  GRAD.:     0.283 HEAT:  30.88497
 CYCLE:    60 TIME:   0.004 TIME LEFT:  2.00D  GRAD.:     0.465 HEAT:  30.88465
 CYCLE:    61 TIME:   0.008 TIME LEFT:  2.00D  GRAD.:     0.314 HEAT:  30.88452
 CYCLE:    62 TIME:   0.008 TIME LEFT:  2.00D  GRAD.:     0.288 HEAT:  30.88433
 CYCLE:    63 TIME:   0.008 TIME LEFT:  2.00D  GRAD.:     0.249 HEAT:  30.88408
 CYCLE:    64 TIME:   0.004 TIME LEFT:  2.00D  GRAD.:     0.155 HEAT:  30.88398
 CYCLE:    65 TIME:   0.008 TIME LEFT:  2.00D  GRAD.:     0.692 HEAT:  30.88392
 CYCLE:    66 TIME:   0.008 TIME LEFT:  2.00D  GRAD.:     0.135 HEAT:  30.88376
 CYCLE:    67 TIME:   0.004 TIME LEFT:  2.00D  GRAD.:     0.152 HEAT:  30.88366
 CYCLE:    68 TIME:   0.008 TIME LEFT:  2.00D  GRAD.:     0.062 HEAT:  30.88362
 CYCLE:    69 TIME:   0.008 TIME LEFT:  2.00D  GRAD.:     0.087 HEAT:  30.88359
 CYCLE:    70 TIME:   0.008 TIME LEFT:  2.00D  GRAD.:     0.126 HEAT:  30.88352
 CYCLE:    71 TIME:   0.004 TIME LEFT:  2.00D  GRAD.:     0.076 HEAT:  30.88349
 CYCLE:    72 TIME:   0.008 TIME LEFT:  2.00D  GRAD.:     0.475 HEAT:  30.88355
 CYCLE:    73 TIME:   0.008 TIME LEFT:  2.00D  GRAD.:     0.059 HEAT:  30.88344
 CYCLE:    74 TIME:   0.008 TIME LEFT:  2.00D  GRAD.:     0.102 HEAT:  30.88339
 CYCLE:    75 TIME:   0.008 TIME LEFT:  2.00D  GRAD.:     0.053 HEAT:  30.88338
 CYCLE:    76 TIME:   0.008 TIME LEFT:  2.00D  GRAD.:     0.041 HEAT:  30.88337

     GRADIENT =  0.04138 IS LESS THAN CUTOFF =  0.05000



 -------------------------------------------------------------------------------
 pm3  precise nosym THREADS=1
 InChI=1S/C10H10/c1-8-6-7-9-4-2-3-5-10(8)9/h2-6H,7H2,1H3



     GEOMETRY OPTIMISED USING EIGENVECTOR FOLLOWING (EF).     
     SCF FIELD WAS ACHIEVED                                   


                              PM3 CALCULATION
                                                       MOPAC v23.1.2 MacOS
                                                       Tue Jun  3 16:32:02 2025




          FINAL HEAT OF FORMATION =         30.88337 KCAL/MOL =     129.21602 KJ/MOL


          COSMO AREA              =        172.64 SQUARE ANGSTROMS
          COSMO VOLUME            =        172.62 CUBIC ANGSTROMS

          GRADIENT NORM           =          0.04138          =       0.00925 PER ATOM
          IONIZATION POTENTIAL    =          8.884765 EV
          HOMO LUMO ENERGIES (EV) =         -8.885 -0.050
          NO. OF FILLED LEVELS    =         25
          MOLECULAR WEIGHT        =        130.1890         POINT GROUP:  C1  

          MOLECULAR DIMENSIONS (Angstroms)

            Atom       Atom       Distance
            H    18    H    13     7.35919
            H    19    H    11     5.31781
            H    14    H    12     2.47480


          SCF CALCULATIONS        =         85

          WALL-CLOCK TIME         =      0.559 SECONDS
          COMPUTATION TIME        =      0.358 SECONDS




   ATOM   CHEMICAL          X               Y               Z
  NUMBER   SYMBOL      (ANGSTROMS)     (ANGSTROMS)     (ANGSTROMS)

     1       C         -0.16222051  *   2.03044094  *   0.14208970  *
     2       C         -2.58016161  *  -0.89289109  *   0.00115056  *
     3       C          0.74035617  *   0.83752187  *   0.03320754  *
     4       C         -1.46254118  *   0.06477853  *   0.03804400  *
     5       C         -0.05028061  *  -0.33306126  *  -0.02846816  *
     6       C         -1.53483332  *   1.41327776  *   0.13546962  *
     7       C          2.12042253  *   0.76244658  *  -0.00920081  *
     8       C          0.53979764  *  -1.58227482  *  -0.13317286  *
     9       C          2.71003455  *  -0.49878363  *  -0.11468633  *
    10       C          1.93249778  *  -1.65154743  *  -0.17574982  *
    11       H          0.02108110  *   2.60375731  *   1.06921030  *
    12       H         -0.02678882  *   2.72940075  *  -0.70346742  *
    13       H         -3.55243866  *  -0.38708133  *   0.05504922  *
    14       H         -2.51678792  *  -1.59602409  *   0.84273060  *
    15       H         -2.55586158  *  -1.48304339  *  -0.92500413  *
    16       H         -2.43886953  *   2.01612536  *   0.20264492  *
    17       H          2.73447453  *   1.66666615  *   0.03862931  *
    18       H          3.80135045  *  -0.58060330  *  -0.14980358  *
    19       H          2.42022326  *  -2.62837822  *  -0.25849839  *
    20       H         -0.07479456  *  -2.48682165  *  -0.18082121  *

                             CARTESIAN COORDINATES

   1    C       -0.162220511     2.030440940     0.142089698
   2    C       -2.580161606    -0.892891086     0.001150565
   3    C        0.740356170     0.837521871     0.033207536
   4    C       -1.462541179     0.064778526     0.038043997
   5    C       -0.050280607    -0.333061258    -0.028468155
   6    C       -1.534833324     1.413277760     0.135469616
   7    C        2.120422535     0.762446583    -0.009200807
   8    C        0.539797639    -1.582274818    -0.133172862
   9    C        2.710034553    -0.498783634    -0.114686333
  10    C        1.932497777    -1.651547425    -0.175749818
  11    H        0.021081096     2.603757309     1.069210299
  12    H       -0.026788824     2.729400747    -0.703467425
  13    H       -3.552438656    -0.387081331     0.055049223
  14    H       -2.516787918    -1.596024091     0.842730602
  15    H       -2.555861580    -1.483043393    -0.925004127
  16    H       -2.438869526     2.016125362     0.202644923
  17    H        2.734474525     1.666666149     0.038629314
  18    H        3.801350452    -0.580603305    -0.149803583
  19    H        2.420223262    -2.628378219    -0.258498389
  20    H       -0.074794559    -2.486821652    -0.180821210


           Empirical Formula: C10 H10  =    20 atoms



      MOLECULAR POINT GROUP   :   C1  


                  EIGENVALUES  
 -41.44691 -35.61106 -32.05237 -28.65987 -26.84501 -24.16329 -21.36672 -20.36959
 -19.13612 -17.09746 -16.27836 -15.55482 -15.34628 -14.92788 -14.74392 -14.07803
 -13.89543 -13.05411 -13.03619 -12.74930 -12.50311 -12.14654 -10.49291  -9.50260
  -8.88477  -0.04996   0.43740   1.40817   2.97653   3.11002   3.15597   3.43080
   3.51502   3.58687   3.82346   3.92601   4.01382   4.08477   4.31205   4.41460
   4.41579   4.52590   4.78904   5.05729   5.19272   5.34948   5.62884   5.97526
   6.25499   6.47526


              NET ATOMIC CHARGES AND DIPOLE CONTRIBUTIONS

  ATOM NO.   TYPE          CHARGE      No. of ELECS.   s-Pop       p-Pop       
    1          C          -0.018275        4.0183     1.13805     2.88023
    2          C          -0.050174        4.0502     1.11629     2.93388
    3          C          -0.094133        4.0941     1.19079     2.90334
    4          C          -0.076133        4.0761     1.18546     2.89067
    5          C          -0.051875        4.0519     1.17382     2.87806
    6          C          -0.159186        4.1592     1.20587     2.95332
    7          C          -0.083995        4.0840     1.17038     2.91361
    8          C          -0.076653        4.0767     1.17083     2.90582
    9          C          -0.102701        4.1027     1.17936     2.92334
   10          C          -0.106080        4.1061     1.17911     2.92697
   11          H           0.075053        0.9249     0.92495
   12          H           0.075064        0.9249     0.92494
   13          H           0.043076        0.9569     0.95692
   14          H           0.047616        0.9524     0.95238
   15          H           0.047587        0.9524     0.95241
   16          H           0.116844        0.8832     0.88316
   17          H           0.105249        0.8948     0.89475
   18          H           0.100716        0.8993     0.89928
   19          H           0.100937        0.8991     0.89906
   20          H           0.107062        0.8929     0.89294
 DIPOLE           X         Y         Z       TOTAL
 POINT-CHG.    -0.263     0.278     0.028     0.384
 HYBRID         0.028     0.017     0.001     0.033
 SUM           -0.235     0.295     0.028     0.379


          ATOMIC ORBITAL ELECTRON POPULATIONS

     Atom    s        px        py        pz   
    1  C   1.13805   0.91996   0.95141   1.00886
    2  C   1.11629   0.95282   0.97426   1.00681
    3  C   1.19079   0.94568   0.95616   1.00150
    4  C   1.18546   0.93150   0.95030   1.00888
    5  C   1.17382   0.93070   0.94227   1.00509
    6  C   1.20587   0.97404   0.95318   1.02609
    7  C   1.17038   0.93692   0.96867   1.00803
    8  C   1.17083   0.94807   0.95806   0.99970
    9  C   1.17936   0.98117   0.93742   1.00475
   10  C   1.17911   0.94554   0.97338   1.00805
   11  H   0.92495
   12  H   0.92494
   13  H   0.95692
   14  H   0.95238
   15  H   0.95241
   16  H   0.88316
   17  H   0.89475
   18  H   0.89928
   19  H   0.89906
   20  H   0.89294
 *******************************************************************************
 **                                                                           **
 **                              MOPAC v23.1.2                                **
 **                                                                           **
 *******************************************************************************
 **          Digital Object Identifier (DOI): 10.5281/zenodo.6511958          **
 **    Visit the DOI location for information on how to cite this program.    **
 *******************************************************************************

                              PM3 CALCULATION RESULTS

 *******************************************************************************
 *  CALCULATION DONE: (MAX THREADS = 1)              Tue Jun  3 16:32:02 2025  *
 *  PM3        - The PM3 Hamiltonian to be used
 *  OLDGEO     - PREVIOUS GEOMETRY TO BE USED
 *  PRECISE    - TIGHTER CRITERIA TO BE USED
 *  NOSYM      - POINT-GROUP SYMMETRY SET TO C1
 *  THREADS=1  - MULTI-THREADING NOT USED
 *  T=         - A TIME OF 172800.0 SECONDS REQUESTED
 *  DUMP=N     - RESTART FILE WRITTEN EVERY 7200.0 SECONDS REQUESTED
 *  THERMO     - THERMODYNAMIC QUANTITIES TO BE CALCULATED
 *******************************************************************************
oldgeo thermo nosym precise THREADS=1  pm3
 InChI=1S/C10H10/c1-8-6-7-9-4-2-3-5-10(8)9/h2-6H,7H2,1H3

   ATOM   CHEMICAL          X               Y               Z
  NUMBER   SYMBOL      (ANGSTROMS)     (ANGSTROMS)     (ANGSTROMS)

     1       C         -0.16222051  *   2.03044094  *   0.14208970  *
     2       C         -2.58016161  *  -0.89289109  *   0.00115056  *
     3       C          0.74035617  *   0.83752187  *   0.03320754  *
     4       C         -1.46254118  *   0.06477853  *   0.03804400  *
     5       C         -0.05028061  *  -0.33306126  *  -0.02846816  *
     6       C         -1.53483332  *   1.41327776  *   0.13546962  *
     7       C          2.12042253  *   0.76244658  *  -0.00920081  *
     8       C          0.53979764  *  -1.58227482  *  -0.13317286  *
     9       C          2.71003455  *  -0.49878363  *  -0.11468633  *
    10       C          1.93249778  *  -1.65154743  *  -0.17574982  *
    11       H          0.02108110  *   2.60375731  *   1.06921030  *
    12       H         -0.02678882  *   2.72940075  *  -0.70346742  *
    13       H         -3.55243866  *  -0.38708133  *   0.05504922  *
    14       H         -2.51678792  *  -1.59602409  *   0.84273060  *
    15       H         -2.55586158  *  -1.48304339  *  -0.92500413  *
    16       H         -2.43886953  *   2.01612536  *   0.20264492  *
    17       H          2.73447453  *   1.66666615  *   0.03862931  *
    18       H          3.80135045  *  -0.58060330  *  -0.14980358  *
    19       H          2.42022326  *  -2.62837822  *  -0.25849839  *
    20       H         -0.07479456  *  -2.48682165  *  -0.18082121  *



          CARTESIAN COORDINATES 

    NO.       ATOM           X           Y           Z

     1         C         -0.1622      2.0304      0.1421
     2         C         -2.5802     -0.8929      0.0012
     3         C          0.7404      0.8375      0.0332
     4         C         -1.4625      0.0648      0.0380
     5         C         -0.0503     -0.3331     -0.0285
     6         C         -1.5348      1.4133      0.1355
     7         C          2.1204      0.7624     -0.0092
     8         C          0.5398     -1.5823     -0.1332
     9         C          2.7100     -0.4988     -0.1147
    10         C          1.9325     -1.6515     -0.1757
    11         H          0.0211      2.6038      1.0692
    12         H         -0.0268      2.7294     -0.7035
    13         H         -3.5524     -0.3871      0.0550
    14         H         -2.5168     -1.5960      0.8427
    15         H         -2.5559     -1.4830     -0.9250
    16         H         -2.4389      2.0161      0.2026
    17         H          2.7345      1.6667      0.0386
    18         H          3.8014     -0.5806     -0.1498
    19         H          2.4202     -2.6284     -0.2585
    20         H         -0.0748     -2.4868     -0.1808

  H: (PM3): J. J. P. STEWART, J. COMP. CHEM. 10, 209 (1989).
  C: (PM3): J. J. P. STEWART, J. COMP. CHEM. 10, 209 (1989).

           Empirical Formula: C10 H10  =    20 atoms



      MOLECULAR POINT GROUP   :   C1  


      RHF CALCULATION, NO. OF DOUBLY OCCUPIED LEVELS = 25



          HEAT OF FORMATION =      30.883370 KCALS/MOLE


          CARTESIAN COORDINATE DERIVATIVES

   NUMBER  ATOM         X            Y            Z

     1       C      0.002532    -0.001642    -0.002459
     2       C     -0.013456    -0.006727    -0.000919
     3       C     -0.017804     0.006525    -0.003014
     4       C      0.001103    -0.008853    -0.004043
     5       C      0.017129     0.015183    -0.002077
     6       C      0.000159    -0.005379    -0.000186
     7       C      0.006968    -0.026926     0.000916
     8       C      0.006772    -0.023315    -0.002664
     9       C      0.023655     0.013191    -0.000489
    10       C     -0.018818     0.007675     0.002260
    11       H      0.000769     0.005597    -0.002293
    12       H     -0.004001     0.000410     0.000370
    13       H      0.006394    -0.012751    -0.001567
    14       H     -0.006310     0.013781     0.015644
    15       H      0.001988     0.012512    -0.010013
    16       H     -0.002603    -0.000734     0.002863
    17       H      0.000144     0.004938     0.005704
    18       H     -0.002491    -0.003829     0.002927
    19       H     -0.000206    -0.000445    -0.005915
    20       H     -0.001922     0.010790     0.004954



          GRADIENT NORM =   0.07116

          MOLECULAR WEIGHT =  130.19



          ROTATIONAL CONSTANTS IN CM(-1)

          A =    0.08410834   B =    0.04223315   C =    0.02841647



           PRINCIPAL MOMENTS OF INERTIA IN UNITS OF 10**(-40)*GRAM-CM**2

          A =      332.8178   B =      662.8147   C =      985.0890


          ORIENTATION OF MOLECULE IN FORCE CALCULATION

    NO.       ATOM         X         Y         Z

     1          C      -1.3345   -1.5615    0.0002
     2          C       2.4619   -1.5615    0.0002
     3          C      -0.9867   -0.1026    0.0002
     4          C       1.0112   -1.3101   -0.0003
     5          C       0.4205    0.0346   -0.0002
     6          C       0.0152   -2.2273   -0.0001
     7          C      -1.8063    1.0111    0.0006
     8          C       1.0106    1.2882   -0.0006
     9          C      -1.2067    2.2721    0.0003
    10          C       0.1784    2.4080   -0.0004
    11          H      -1.9271   -1.8448    0.8892
    12          H      -1.9276   -1.8448   -0.8886
    13          H       2.6896   -2.6349   -0.0081
    14          H       2.9317   -1.1222    0.8906
    15          H       2.9352   -1.1077   -0.8811
    16          H       0.1243   -3.3105   -0.0002
    17          H      -2.8955    0.9077    0.0012
    18          H      -1.8375    3.1671    0.0007
    19          H       0.6231    3.4086   -0.0008
    20          H       2.1003    1.3914   -0.0010


    FIRST DERIVATIVES WILL BE USED IN THE CALCULATION OF SECOND DERIVATIVES

          ESTIMATED TIME TO COMPLETE CALCULATION =        2.81 SECONDS

    FOR POINT-GROUP C1   THERE ARE   1 UNIQUE SYMMETRY FUNCTIONS.

 STEP:   1 TIME =     0.02 SECS, INTEGRAL =      0.02 TIME LEFT: 172799.97
 STEP:   2 TIME =     0.02 SECS, INTEGRAL =      0.04 TIME LEFT: 172799.95
 STEP:   3 TIME =     0.02 SECS, INTEGRAL =      0.06 TIME LEFT: 172799.93
 STEP:   4 TIME =     0.02 SECS, INTEGRAL =      0.08 TIME LEFT: 172799.91
 STEP:   5 TIME =     0.02 SECS, INTEGRAL =      0.10 TIME LEFT: 172799.89
 STEP:   6 TIME =     0.02 SECS, INTEGRAL =      0.12 TIME LEFT: 172799.87
 STEP:   7 TIME =     0.02 SECS, INTEGRAL =      0.14 TIME LEFT: 172799.84
 STEP:   8 TIME =     0.02 SECS, INTEGRAL =      0.17 TIME LEFT: 172799.82
 STEP:   9 TIME =     0.02 SECS, INTEGRAL =      0.19 TIME LEFT: 172799.80
 STEP:  10 TIME =     0.02 SECS, INTEGRAL =      0.21 TIME LEFT: 172799.78
 STEP:  11 TIME =     0.02 SECS, INTEGRAL =      0.23 TIME LEFT: 172799.76
 STEP:  12 TIME =     0.02 SECS, INTEGRAL =      0.25 TIME LEFT: 172799.74
 STEP:  13 TIME =     0.02 SECS, INTEGRAL =      0.27 TIME LEFT: 172799.71
 STEP:  14 TIME =     0.02 SECS, INTEGRAL =      0.29 TIME LEFT: 172799.70
 STEP:  15 TIME =     0.02 SECS, INTEGRAL =      0.31 TIME LEFT: 172799.68
 STEP:  16 TIME =     0.02 SECS, INTEGRAL =      0.33 TIME LEFT: 172799.66
 STEP:  17 TIME =     0.02 SECS, INTEGRAL =      0.35 TIME LEFT: 172799.64
 STEP:  18 TIME =     0.02 SECS, INTEGRAL =      0.37 TIME LEFT: 172799.62
 STEP:  19 TIME =     0.02 SECS, INTEGRAL =      0.39 TIME LEFT: 172799.60
 STEP:  20 TIME =     0.02 SECS, INTEGRAL =      0.41 TIME LEFT: 172799.57
 STEP:  21 TIME =     0.02 SECS, INTEGRAL =      0.44 TIME LEFT: 172799.55
 STEP:  22 TIME =     0.02 SECS, INTEGRAL =      0.46 TIME LEFT: 172799.53
 STEP:  23 TIME =     0.02 SECS, INTEGRAL =      0.48 TIME LEFT: 172799.51
 STEP:  24 TIME =     0.02 SECS, INTEGRAL =      0.50 TIME LEFT: 172799.48
 STEP:  25 TIME =     0.02 SECS, INTEGRAL =      0.52 TIME LEFT: 172799.46
 STEP:  26 TIME =     0.02 SECS, INTEGRAL =      0.55 TIME LEFT: 172799.44
 STEP:  27 TIME =     0.02 SECS, INTEGRAL =      0.57 TIME LEFT: 172799.42
 STEP:  28 TIME =     0.02 SECS, INTEGRAL =      0.59 TIME LEFT: 172799.39
 STEP:  29 TIME =     0.02 SECS, INTEGRAL =      0.61 TIME LEFT: 172799.38
 STEP:  30 TIME =     0.02 SECS, INTEGRAL =      0.63 TIME LEFT: 172799.36
 STEP:  31 TIME =     0.02 SECS, INTEGRAL =      0.65 TIME LEFT: 172799.34
 STEP:  32 TIME =     0.02 SECS, INTEGRAL =      0.67 TIME LEFT: 172799.32
 STEP:  33 TIME =     0.02 SECS, INTEGRAL =      0.69 TIME LEFT: 172799.30
 STEP:  34 TIME =     0.02 SECS, INTEGRAL =      0.71 TIME LEFT: 172799.28
 STEP:  35 TIME =     0.02 SECS, INTEGRAL =      0.73 TIME LEFT: 172799.26
 STEP:  36 TIME =     0.02 SECS, INTEGRAL =      0.75 TIME LEFT: 172799.24
 STEP:  37 TIME =     0.02 SECS, INTEGRAL =      0.77 TIME LEFT: 172799.22
 STEP:  38 TIME =     0.02 SECS, INTEGRAL =      0.79 TIME LEFT: 172799.20
 STEP:  39 TIME =     0.02 SECS, INTEGRAL =      0.80 TIME LEFT: 172799.18
 STEP:  40 TIME =     0.02 SECS, INTEGRAL =      0.82 TIME LEFT: 172799.16
 STEP:  41 TIME =     0.02 SECS, INTEGRAL =      0.84 TIME LEFT: 172799.14
 STEP:  42 TIME =     0.02 SECS, INTEGRAL =      0.86 TIME LEFT: 172799.13
 STEP:  43 TIME =     0.02 SECS, INTEGRAL =      0.88 TIME LEFT: 172799.11
 STEP:  44 TIME =     0.02 SECS, INTEGRAL =      0.90 TIME LEFT: 172799.09
 STEP:  45 TIME =     0.02 SECS, INTEGRAL =      0.92 TIME LEFT: 172799.07
 STEP:  46 TIME =     0.02 SECS, INTEGRAL =      0.94 TIME LEFT: 172799.05
 STEP:  47 TIME =     0.02 SECS, INTEGRAL =      0.96 TIME LEFT: 172799.03
 STEP:  48 TIME =     0.02 SECS, INTEGRAL =      0.98 TIME LEFT: 172799.01
 STEP:  49 TIME =     0.02 SECS, INTEGRAL =      1.00 TIME LEFT: 172798.99
 STEP:  50 TIME =     0.02 SECS, INTEGRAL =      1.02 TIME LEFT: 172798.96
 STEP:  51 TIME =     0.02 SECS, INTEGRAL =      1.04 TIME LEFT: 172798.95
 STEP:  52 TIME =     0.02 SECS, INTEGRAL =      1.06 TIME LEFT: 172798.93
 STEP:  53 TIME =     0.02 SECS, INTEGRAL =      1.08 TIME LEFT: 172798.91
 STEP:  54 TIME =     0.02 SECS, INTEGRAL =      1.11 TIME LEFT: 172798.88
 STEP:  55 TIME =     0.02 SECS, INTEGRAL =      1.12 TIME LEFT: 172798.86
 STEP:  56 TIME =     0.02 SECS, INTEGRAL =      1.14 TIME LEFT: 172798.84
 STEP:  57 TIME =     0.02 SECS, INTEGRAL =      1.16 TIME LEFT: 172798.82
 STEP:  58 TIME =     0.02 SECS, INTEGRAL =      1.18 TIME LEFT: 172798.80
 STEP:  59 TIME =     0.02 SECS, INTEGRAL =      1.20 TIME LEFT: 172798.79
 STEP:  60 TIME =     0.02 SECS, INTEGRAL =      1.22 TIME LEFT: 172798.77

(To convert to Hartree/Bohr^2, multiply by (10^(-21) x N x a0^2)/(4.184 x 627.51) =  0.0642)


           FORCE MATRIX IN MILLIDYNES/ANGSTROM


                  C  1       C  2       C  3       C  4       C  5       C  6
 ------------------------------------------------------------------------------
     C    1  14.874716
     C    2   0.129339  14.876867
     C    3   4.481186   0.051746  18.278790
     C    4   1.148379   5.486206   1.196513  18.900147
     C    5   0.959053   0.533503   6.056421   4.923963  18.609145
     C    6   4.356590   0.687536   1.116268   9.551588   1.544984  17.865401
     C    7   0.533929   0.009503   7.259405   0.105444   2.329412   0.054233
     C    8   0.096870   0.026433   2.280098   0.774965   7.080652   0.151423
     C    9   0.120882   0.002884   2.549809   0.109016   1.833638   0.071617
     C   10   0.059408   0.006178   1.810520   0.198033   2.572688   0.097814
     H   11   4.510307   0.018990   0.431050   0.036272   0.034517   0.421172
     H   12   4.510207   0.018984   0.431054   0.036293   0.034509   0.421190
     H   13   0.003163   4.755712   0.008100   0.469373   0.044905   0.024972
     H   14   0.018333   4.702691   0.003171   0.450179   0.012786   0.030591
     H   15   0.018236   4.703513   0.003203   0.450655   0.012955   0.031060
     H   16   0.402796   0.051527   0.042471   0.453273   0.099784   5.049651
     H   17   0.038960   0.001611   0.451147   0.008711   0.090112   0.002545
     H   18   0.006970   0.000361   0.088815   0.007180   0.008523   0.001684
     H   19   0.008132   0.000574   0.008253   0.007091   0.090090   0.002033
     H   20   0.009130   0.005105   0.088692   0.039320   0.450003   0.004986


                  C  7       C  8       C  9       C 10       H 11       H 12
 ------------------------------------------------------------------------------
     C    7  17.301138
     C    8   1.842915  17.290582
     C    9   6.752343   2.529220  17.031631
     C   10   2.534371   6.797026   6.876132  17.037813
     H   11   0.015335   0.011946   0.011098   0.005185   5.111039
     H   12   0.015332   0.011943   0.011098   0.005181   0.547343   5.110963
     H   13   0.001951   0.003121   0.000337   0.000472   0.000522   0.000504
     H   14   0.000811   0.005207   0.000592   0.000774   0.003355   0.002351
     H   15   0.000812   0.005404   0.000583   0.000774   0.002329   0.003344
     H   16   0.010733   0.005978   0.001545   0.005532   0.011521   0.011519
     H   17   4.881413   0.011113   0.440711   0.088194   0.005628   0.005626
     H   18   0.436126   0.088296   4.856657   0.438053   0.001393   0.001393
     H   19   0.088104   0.435943   0.438254   4.856183   0.001118   0.001118
     H   20   0.011590   4.863706   0.088730   0.439630   0.000807   0.000806


                  H 13       H 14       H 15       H 16       H 17       H 18
 ------------------------------------------------------------------------------
     H   13   5.454335
     H   14   0.555671   5.411165
     H   15   0.555331   0.573875   5.411859
     H   16   0.011667   0.006349   0.006271   5.449321
     H   17   0.000331   0.000147   0.000147   0.000592   5.252281
     H   18   0.000080   0.000133   0.000133   0.001024   0.040001   5.221423
     H   19   0.000102   0.000138   0.000139   0.000428   0.006944   0.043442
     H   20   0.000920   0.005472   0.005697   0.002108   0.008879   0.006816


                  H 19       H 20
 ------------------------------
     H   19   5.221145
     H   20   0.040028   5.235484


          HEAT OF FORMATION =      30.883370 KCALS/MOLE

          ZERO POINT ENERGY     105.357 KCAL/MOL


           NORMAL COORDINATE ANALYSIS (Total motion = 1 Angstrom)


   Root No.       1         2         3         4         5         6         7         8

                 1 A       2 A       3 A       4 A       5 A       6 A       7 A       8 A   

                  78.6     131.6     193.5     242.2     258.0     376.8     443.2     470.7
  
           1   -0.0001   -0.0000   -0.0000   -0.0147    0.0000    0.0000    0.0000   -0.0145
           2   -0.0000   -0.0000   -0.0000   -0.0150    0.0000    0.0000    0.0000    0.0413
           3   -0.0056   -0.0289    0.0052    0.0001    0.0558   -0.0028   -0.0038    0.0000
           4   -0.0000   -0.0000    0.0000   -0.0006   -0.0000   -0.0000   -0.0000   -0.0003
           5    0.0003    0.0000   -0.0000    0.0906   -0.0001   -0.0000    0.0000    0.0200
           6   -0.0080    0.0597   -0.0086    0.0001    0.0300    0.0046    0.0030   -0.0000
           7   -0.0001    0.0000   -0.0000   -0.0216    0.0000    0.0000    0.0000    0.0471
           8   -0.0000   -0.0000    0.0000   -0.0104    0.0000   -0.0000    0.0000    0.0125
           9   -0.0051   -0.0042   -0.0610    0.0000   -0.0050   -0.0260    0.0627   -0.0000
          10   -0.0001   -0.0000    0.0000   -0.0164    0.0000   -0.0000   -0.0000   -0.0079
          11   -0.0001   -0.0000    0.0000   -0.0082    0.0000    0.0000   -0.0000   -0.0349
          12    0.0006   -0.0068   -0.0020   -0.0001   -0.0395   -0.0412   -0.0380    0.0000
          13   -0.0001   -0.0000   -0.0000   -0.0235    0.0000    0.0000    0.0000    0.0456
          14   -0.0001   -0.0000    0.0000   -0.0171    0.0000    0.0000   -0.0000   -0.0065
          15    0.0005   -0.0280   -0.0615   -0.0000   -0.0246   -0.0506   -0.0095    0.0000
          16   -0.0000   -0.0000    0.0000   -0.0089    0.0000   -0.0000   -0.0000   -0.0391
          17   -0.0001   -0.0000    0.0000   -0.0149    0.0000   -0.0000   -0.0000   -0.0058
          18    0.0010   -0.0171    0.0742   -0.0001   -0.0439    0.0190    0.0123    0.0000
          19    0.0000    0.0000   -0.0000    0.0033   -0.0000    0.0000    0.0000    0.0082
          20    0.0000   -0.0000   -0.0000    0.0091   -0.0000   -0.0000   -0.0000   -0.0244
          21   -0.0056    0.0459   -0.0360   -0.0000   -0.0222    0.0558    0.0028   -0.0000
          22    0.0000   -0.0000   -0.0000    0.0095   -0.0000    0.0000    0.0000    0.0182
          23   -0.0001   -0.0000    0.0000   -0.0345    0.0001    0.0000    0.0000    0.0100
          24    0.0110   -0.0558   -0.0248   -0.0000   -0.0029    0.0549   -0.0253   -0.0000
          25    0.0001    0.0000    0.0000    0.0317   -0.0000   -0.0000   -0.0000   -0.0209
          26   -0.0000   -0.0000   -0.0000   -0.0028    0.0000   -0.0000   -0.0000   -0.0180
          27    0.0020    0.0429    0.0406   -0.0000   -0.0046   -0.0348   -0.0360    0.0000
          28    0.0001   -0.0000    0.0000    0.0337   -0.0000   -0.0000    0.0000   -0.0204
          29   -0.0001   -0.0000    0.0000   -0.0199    0.0000    0.0000    0.0000   -0.0139
          30    0.0113   -0.0227    0.0503    0.0000    0.0250   -0.0102    0.0427   -0.0000
          31   -0.0044   -0.0144   -0.0261   -0.0128    0.1051   -0.0097   -0.0660   -0.0319
          32    0.0010   -0.0156    0.0522   -0.0180    0.0292    0.0197   -0.0604    0.0763
          33   -0.0082   -0.0437    0.0043    0.0003    0.1370   -0.0032   -0.0694   -0.0000
          34    0.0043    0.0144    0.0261   -0.0132   -0.1050    0.0097    0.0660   -0.0320
          35   -0.0011    0.0156   -0.0522   -0.0181   -0.0292   -0.0197    0.0604    0.0762
          36   -0.0082   -0.0437    0.0043    0.0003    0.1370   -0.0032   -0.0694    0.0001
          37   -0.0001    0.0004   -0.0001    0.0849    0.0003    0.0003    0.0003    0.0674
          38   -0.0019   -0.0002    0.0001    0.1100   -0.0003   -0.0001   -0.0001    0.0360
          39    0.2739    0.1071   -0.0282   -0.0009    0.0649    0.0204    0.0235   -0.0001
          40    0.0531   -0.0391    0.0019   -0.0368   -0.0516   -0.0387   -0.0377   -0.0291
          41    0.2483    0.0307   -0.0164    0.1305    0.0169    0.0040    0.0079    0.0537
          42   -0.1585    0.0654   -0.0015    0.0002    0.0494    0.0237    0.0195   -0.0006
          43   -0.0529    0.0386   -0.0018   -0.0373    0.0511    0.0383    0.0372   -0.0300
          44   -0.2446   -0.0303    0.0161    0.1324   -0.0171   -0.0040   -0.0077    0.0540
          45   -0.1627    0.0650   -0.0012    0.0011    0.0493    0.0238    0.0195    0.0007
          46   -0.0001    0.0000    0.0000   -0.0066    0.0000    0.0000   -0.0000   -0.0861
          47   -0.0001   -0.0000    0.0000   -0.0143    0.0000   -0.0000   -0.0000   -0.0101
          48    0.0059   -0.0072    0.1621   -0.0001   -0.0747    0.0844    0.0668   -0.0000
          49    0.0000    0.0000   -0.0000    0.0007   -0.0000    0.0001   -0.0000    0.0131
          50    0.0001   -0.0000   -0.0000    0.0373   -0.0001   -0.0000   -0.0000   -0.0740
          51   -0.0108    0.0866   -0.0486   -0.0000   -0.0383    0.1716   -0.0341   -0.0001
          52    0.0002    0.0001    0.0000    0.0479   -0.0001   -0.0001   -0.0001   -0.0332
          53    0.0000   -0.0000   -0.0000    0.0088   -0.0000   -0.0000   -0.0000   -0.0271
          54    0.0016    0.0877    0.0988   -0.0000   -0.0074   -0.0931   -0.1204    0.0001
          55    0.0002   -0.0000    0.0000    0.0505   -0.0000   -0.0000    0.0000   -0.0424
          56   -0.0001   -0.0000    0.0000   -0.0275    0.0001    0.0000    0.0000   -0.0038
          57    0.0192   -0.0423    0.1194    0.0001    0.0635   -0.0238    0.1202   -0.0001
          58    0.0001   -0.0000   -0.0000    0.0127   -0.0000    0.0001   -0.0000    0.0140
          59   -0.0003   -0.0000    0.0000   -0.0660    0.0001    0.0000    0.0000    0.0536
          60    0.0214   -0.0962   -0.0288    0.0000   -0.0009    0.1717   -0.0864   -0.0000


   Root No.       9        10        11        12        13        14        15        16

                 9 A      10 A      11 A      12 A      13 A      14 A      15 A      16 A   

                 551.0     552.6     560.1     698.7     720.0     775.8     802.9     830.2
  
           1    0.0001    0.0076    0.0042    0.0747   -0.0001   -0.0000    0.0000   -0.0202
           2    0.0005    0.0198   -0.0468    0.0092   -0.0000    0.0000    0.0000   -0.0141
           3   -0.0056    0.0002   -0.0000   -0.0000   -0.0220    0.0092   -0.0310   -0.0001
           4    0.0012    0.0620   -0.0342   -0.0584    0.0001    0.0000    0.0000   -0.0281
           5   -0.0002   -0.0108    0.0044    0.0043   -0.0000   -0.0000   -0.0000    0.0192
           6    0.0023   -0.0000   -0.0000   -0.0000   -0.0049   -0.0063    0.0073   -0.0000
           7   -0.0002   -0.0089    0.0235    0.0103   -0.0000   -0.0000   -0.0000    0.0244
           8    0.0005    0.0239   -0.0310    0.0375   -0.0000   -0.0000    0.0000   -0.0179
           9   -0.0217    0.0007   -0.0001   -0.0001   -0.0395   -0.0113    0.0239    0.0000
          10    0.0007    0.0346   -0.0283   -0.0286    0.0000    0.0000   -0.0000    0.0005
          11   -0.0008   -0.0526   -0.0297   -0.0065    0.0000    0.0000   -0.0000    0.0388
          12    0.0626   -0.0021    0.0003    0.0000   -0.0253   -0.0172    0.0082    0.0001
          13   -0.0001   -0.0045    0.0117    0.0058    0.0000    0.0000   -0.0000    0.0142
          14   -0.0008   -0.0486    0.0008    0.0044   -0.0000   -0.0000    0.0000   -0.0139
          15   -0.0194    0.0006   -0.0001    0.0001    0.0611    0.0427   -0.0011   -0.0000
          16    0.0001    0.0045   -0.0053    0.0303   -0.0000   -0.0000   -0.0000    0.0038
          17   -0.0002   -0.0218   -0.0566   -0.0537    0.0001    0.0000   -0.0001    0.0398
          18   -0.0146    0.0005   -0.0001    0.0000    0.0060    0.0058   -0.0243   -0.0000
          19   -0.0001    0.0016    0.0671   -0.0305    0.0000    0.0000   -0.0001    0.0699
          20    0.0008    0.0505    0.0031    0.0258   -0.0000   -0.0000    0.0000    0.0031
          21    0.0283   -0.0009    0.0001    0.0000    0.0160   -0.0157    0.0010   -0.0000
          22   -0.0008   -0.0534   -0.0363    0.0271   -0.0000   -0.0000    0.0000   -0.0006
          23   -0.0006   -0.0310    0.0411   -0.0068   -0.0000   -0.0000    0.0000   -0.0347
          24   -0.0268    0.0009   -0.0001   -0.0000    0.0002   -0.0115   -0.0062   -0.0000
          25   -0.0005   -0.0299    0.0066   -0.0224    0.0000   -0.0000    0.0000   -0.0324
          26    0.0010    0.0667    0.0356    0.0193   -0.0000   -0.0000   -0.0000    0.0495
          27   -0.0339    0.0011   -0.0001   -0.0000   -0.0043   -0.0288   -0.0070    0.0000
          28   -0.0004   -0.0254   -0.0007   -0.0100    0.0000   -0.0000    0.0000   -0.0297
          29   -0.0003   -0.0057    0.0743   -0.0363    0.0000    0.0000    0.0000   -0.0560
          30    0.0319   -0.0010    0.0001    0.0000    0.0201   -0.0178   -0.0119   -0.0000
          31    0.0327    0.0067    0.0016    0.0841    0.0533   -0.0361    0.1185   -0.0185
          32    0.0135    0.0215   -0.0426    0.0130    0.0780    0.0057   -0.0188   -0.0243
          33    0.0213   -0.0003   -0.0005    0.0055    0.0413   -0.0143    0.0460   -0.0020
          34   -0.0325    0.0088    0.0014    0.0840   -0.0535    0.0361   -0.1184   -0.0190
          35   -0.0126    0.0223   -0.0427    0.0127   -0.0780   -0.0057    0.0187   -0.0242
          36    0.0213   -0.0011    0.0007   -0.0055    0.0413   -0.0143    0.0460    0.0021
          37    0.0015    0.1196    0.0108   -0.0572    0.0004    0.0004   -0.0003   -0.1276
          38    0.0001    0.0018    0.0148    0.0050   -0.0001   -0.0001    0.0001   -0.0024
          39   -0.0331    0.0011   -0.0002   -0.0000    0.0140    0.0170   -0.0224   -0.0001
          40    0.0699    0.0438   -0.0569   -0.0734   -0.0355   -0.0446    0.0534   -0.0005
          41   -0.0127    0.0126    0.0279    0.0118    0.0070    0.0082   -0.0102   -0.0201
          42   -0.0289   -0.0011    0.0004    0.0032    0.0109    0.0141   -0.0171    0.0035
          43   -0.0673    0.0475   -0.0581   -0.0733    0.0353    0.0441   -0.0529    0.0007
          44    0.0129    0.0119    0.0283    0.0119   -0.0069   -0.0081    0.0101   -0.0203
          45   -0.0289    0.0030   -0.0007   -0.0032    0.0109    0.0141   -0.0172   -0.0035
          46   -0.0009   -0.0494    0.0112    0.0444   -0.0000   -0.0000    0.0000    0.0728
          47   -0.0003   -0.0275   -0.0556   -0.0525    0.0001    0.0000   -0.0001    0.0480
          48   -0.0992    0.0033   -0.0005   -0.0000    0.1044   -0.0266    0.2575    0.0004
          49   -0.0001    0.0015    0.0672   -0.0290    0.0001    0.0001   -0.0001    0.0779
          50    0.0008    0.0459   -0.0012    0.0100   -0.0000   -0.0000    0.0001   -0.0669
          51    0.1182   -0.0038    0.0005    0.0002    0.0444    0.1840   -0.0158   -0.0002
          52   -0.0002   -0.0133   -0.0431    0.0184   -0.0001    0.0001    0.0001   -0.0393
          53    0.0013    0.0785    0.0009    0.0485   -0.0000   -0.0000   -0.0000    0.0442
          54   -0.0999    0.0032   -0.0004   -0.0002   -0.1120    0.2018    0.0642    0.0001
          55    0.0006    0.0310    0.0047   -0.0063   -0.0000    0.0001   -0.0000    0.0342
          56   -0.0007   -0.0305    0.0723   -0.0377    0.0000    0.0000    0.0001   -0.0859
          57    0.1307   -0.0043    0.0005    0.0000   -0.0513    0.1979    0.0805    0.0002
          58   -0.0009   -0.0542   -0.0370    0.0254   -0.0001   -0.0000    0.0001   -0.0029
          59   -0.0005   -0.0202    0.0549    0.0112   -0.0001   -0.0000    0.0001   -0.0135
          60   -0.0381    0.0013   -0.0002   -0.0003   -0.1930    0.0333    0.0671    0.0002


   Root No.      17        18        19        20        21        22        23        24

                17 A      18 A      19 A      20 A      21 A      22 A      23 A      24 A   

                 878.0     886.9     944.2     964.3     978.6    1000.6    1007.8    1042.7
  
           1   -0.0001   -0.0375   -0.0000    0.0000    0.0090   -0.0000    0.0000   -0.0001
           2   -0.0001   -0.0524   -0.0000    0.0000    0.0037   -0.0000    0.0000   -0.0000
           3    0.0141   -0.0000   -0.0324    0.0328    0.0001    0.0030   -0.0196   -0.0004
           4    0.0000    0.0225    0.0000    0.0000   -0.0225    0.0001   -0.0001    0.0000
           5   -0.0000   -0.0124    0.0000    0.0001   -0.0467    0.0001   -0.0000   -0.0000
           6    0.0083   -0.0000   -0.0038    0.0199   -0.0000   -0.0222    0.0251   -0.0162
           7   -0.0000   -0.0113    0.0000    0.0000   -0.0025   -0.0000    0.0000    0.0000
           8   -0.0000    0.0008   -0.0000    0.0000   -0.0010    0.0000   -0.0000   -0.0000
           9    0.0059   -0.0000    0.0209   -0.0252   -0.0001   -0.0073    0.0227    0.0323
          10   -0.0000   -0.0019    0.0000   -0.0001    0.0106    0.0000   -0.0000    0.0000
          11   -0.0000   -0.0113   -0.0000    0.0000    0.0059   -0.0000    0.0000    0.0000
          12    0.0051   -0.0001    0.0016   -0.0110    0.0001    0.0234   -0.0304    0.0295
          13    0.0000    0.0185   -0.0000   -0.0000    0.0013    0.0000   -0.0000   -0.0000
          14    0.0001    0.0226   -0.0000    0.0000   -0.0003   -0.0000    0.0000   -0.0000
          15   -0.0186    0.0001   -0.0249    0.0018   -0.0000   -0.0117   -0.0030   -0.0196
          16   -0.0000   -0.0122    0.0000   -0.0000    0.0042   -0.0000   -0.0000    0.0001
          17   -0.0000   -0.0075   -0.0000   -0.0001    0.0430   -0.0000    0.0000   -0.0001
          18   -0.0154    0.0001    0.0289   -0.0258   -0.0001    0.0011    0.0236   -0.0350
          19   -0.0000   -0.0185    0.0000    0.0000    0.0049   -0.0000    0.0000   -0.0000
          20    0.0001    0.0235    0.0000    0.0000   -0.0049    0.0000   -0.0000    0.0000
          21   -0.0312    0.0001    0.0228    0.0254    0.0001   -0.0101   -0.0290   -0.0166
          22    0.0002    0.0666    0.0000    0.0000   -0.0109    0.0000   -0.0000    0.0000
          23    0.0001    0.0271    0.0000    0.0000   -0.0086    0.0000   -0.0000    0.0000
          24    0.0271   -0.0001    0.0362    0.0229    0.0001    0.0271    0.0116    0.0115
          25   -0.0001   -0.0212   -0.0000   -0.0000    0.0029    0.0000    0.0000   -0.0000
          26    0.0001    0.0284   -0.0000   -0.0000   -0.0003   -0.0000    0.0000   -0.0000
          27   -0.0126    0.0001   -0.0330   -0.0027   -0.0000    0.0266    0.0302    0.0110
          28   -0.0000   -0.0116   -0.0000   -0.0000   -0.0016   -0.0000   -0.0000    0.0000
          29   -0.0001   -0.0226   -0.0000   -0.0000   -0.0008    0.0000   -0.0000    0.0000
          30    0.0211   -0.0001   -0.0071   -0.0242   -0.0001   -0.0334   -0.0239   -0.0094
          31   -0.0104   -0.0304    0.0628   -0.0881    0.0350    0.0434    0.0269   -0.0928
          32   -0.0658   -0.1045    0.0532    0.0015   -0.0401   -0.1084    0.0486    0.2018
          33   -0.0151   -0.0100    0.0294   -0.0284    0.0031   -0.0027    0.0153    0.0021
          34    0.0103   -0.0303   -0.0628    0.0880    0.0354   -0.0435   -0.0267    0.0918
          35    0.0653   -0.1051   -0.0532   -0.0013   -0.0396    0.1085   -0.0487   -0.2005
          36   -0.0150    0.0101    0.0294   -0.0285   -0.0033   -0.0027    0.0153    0.0022
          37   -0.0002    0.0956    0.0001   -0.0013    0.2376    0.0006   -0.0007    0.0008
          38    0.0001    0.0034   -0.0000    0.0002    0.0138   -0.0002    0.0002   -0.0001
          39   -0.0151    0.0001    0.0068   -0.0284   -0.0001    0.0296   -0.0325    0.0199
          40    0.0457    0.0062   -0.0184    0.0940   -0.1559   -0.0994    0.1119   -0.0695
          41   -0.0078    0.0148    0.0033   -0.0157    0.0942    0.0163   -0.0182    0.0111
          42   -0.0130   -0.0035    0.0048   -0.0238    0.0018    0.0241   -0.0271    0.0163
          43   -0.0451    0.0056    0.0183   -0.0924   -0.1596    0.0986   -0.1110    0.0686
          44    0.0077    0.0148   -0.0033    0.0151    0.0950   -0.0163    0.0181   -0.0109
          45   -0.0130    0.0036    0.0048   -0.0240   -0.0017    0.0243   -0.0273    0.0164
          46    0.0001    0.0236   -0.0000   -0.0001    0.0487   -0.0001   -0.0000    0.0011
          47   -0.0000   -0.0055   -0.0000   -0.0001    0.0495   -0.0001    0.0000   -0.0000
          48    0.0607   -0.0003   -0.1095    0.0644    0.0003    0.0172   -0.0851    0.0777
          49    0.0001   -0.0222   -0.0001   -0.0000    0.0055   -0.0000    0.0001   -0.0000
          50    0.0001    0.0527    0.0000   -0.0000   -0.0090    0.0001   -0.0001    0.0000
          51    0.1655   -0.0006   -0.1088   -0.1133   -0.0004    0.0263    0.1044    0.0530
          52    0.0001    0.0246    0.0001    0.0000   -0.0049   -0.0000   -0.0001    0.0000
          53    0.0002    0.0628    0.0000    0.0000   -0.0062    0.0000   -0.0000    0.0000
          54    0.0840   -0.0003    0.1652    0.0089    0.0001   -0.0972   -0.1033   -0.0266
          55   -0.0002   -0.0553    0.0000    0.0000    0.0217    0.0000    0.0001   -0.0000
          56   -0.0001   -0.0021    0.0000    0.0000   -0.0115    0.0001   -0.0000    0.0000
          57   -0.1370    0.0006    0.0269    0.1096    0.0004    0.1227    0.0803    0.0233
          58    0.0001    0.0602   -0.0001   -0.0000   -0.0095   -0.0000   -0.0000   -0.0000
          59    0.0003    0.1141    0.0000    0.0000   -0.0269    0.0001   -0.0000   -0.0001
          60   -0.1468    0.0005   -0.1580   -0.1038   -0.0005   -0.1009   -0.0279   -0.0317


   Root No.      25        26        27        28        29        30        31        32

                25 A      26 A      27 A      28 A      29 A      30 A      31 A      32 A   

                1045.8    1073.7    1100.6    1141.9    1150.2    1185.1    1223.5    1290.7
  
           1   -0.0309   -0.0029    0.0115   -0.0145    0.0014    0.0019    0.0121   -0.0357
           2    0.0012    0.0045    0.0097    0.0015    0.0013   -0.0171    0.0154    0.0323
           3   -0.0000    0.0000   -0.0000    0.0000    0.0000    0.0000   -0.0000    0.0000
           4    0.0043   -0.0123    0.0038   -0.0079    0.0024   -0.0031    0.0139   -0.0017
           5   -0.0124    0.0056   -0.0062    0.0114   -0.0008    0.0002   -0.0022   -0.0068
           6    0.0001    0.0000   -0.0000    0.0000   -0.0000    0.0000   -0.0000   -0.0000
           7    0.0040   -0.0001   -0.0147    0.0152   -0.0117    0.0198    0.0076    0.0325
           8   -0.0003   -0.0044   -0.0147    0.0235    0.0005   -0.0130    0.0027    0.0300
           9   -0.0002   -0.0000    0.0000   -0.0000    0.0000   -0.0000    0.0000   -0.0000
          10   -0.0042    0.0084   -0.0022    0.0062   -0.0033    0.0056   -0.0362   -0.0002
          11    0.0085   -0.0012    0.0052   -0.0170    0.0012    0.0045    0.0017    0.0201
          12   -0.0002   -0.0000    0.0000   -0.0000    0.0000   -0.0000    0.0000    0.0000
          13   -0.0089    0.0204   -0.0211    0.0322    0.0035    0.0212   -0.0131   -0.0166
          14    0.0041   -0.0199    0.0097   -0.0236    0.0065    0.0122    0.0186    0.0126
          15    0.0001    0.0000    0.0000   -0.0000   -0.0000   -0.0000    0.0000    0.0000
          16    0.0294    0.0050    0.0054   -0.0087    0.0007    0.0015   -0.0392    0.0433
          17   -0.0324    0.0090   -0.0053    0.0108   -0.0050    0.0021   -0.0056   -0.0351
          18    0.0002    0.0000   -0.0000    0.0000   -0.0000   -0.0000    0.0000   -0.0000
          19   -0.0029    0.0034    0.0376   -0.0191   -0.0068   -0.0108    0.0195    0.0171
          20    0.0030    0.0022    0.0080    0.0072   -0.0051   -0.0164   -0.0051    0.0284
          21    0.0001    0.0000   -0.0000    0.0000    0.0000    0.0000   -0.0000   -0.0000
          22    0.0029   -0.0303    0.0210   -0.0021    0.0118   -0.0050   -0.0104   -0.0273
          23    0.0030   -0.0027   -0.0027   -0.0108   -0.0024    0.0158    0.0102    0.0242
          24   -0.0001    0.0000   -0.0000    0.0000   -0.0000   -0.0000    0.0000    0.0000
          25   -0.0043    0.0272   -0.0031    0.0002   -0.0072   -0.0183    0.0000    0.0027
          26   -0.0000   -0.0234   -0.0037   -0.0041    0.0047   -0.0018   -0.0130   -0.0368
          27   -0.0000   -0.0000   -0.0000   -0.0000    0.0000    0.0000    0.0000    0.0000
          28    0.0029   -0.0146   -0.0137    0.0036    0.0068   -0.0149   -0.0108    0.0017
          29   -0.0011   -0.0178   -0.0151    0.0187    0.0034    0.0052   -0.0137   -0.0298
          30    0.0000    0.0000    0.0000   -0.0000   -0.0000    0.0000    0.0000    0.0000
          31   -0.1244   -0.0074    0.0038    0.0169   -0.0034   -0.0356    0.0829   -0.0761
          32    0.1696    0.0138    0.0492   -0.0863    0.0118    0.0341   -0.0374   -0.1486
          33   -0.0088   -0.0001    0.0066   -0.0065    0.0002   -0.0072    0.0264   -0.0754
          34   -0.1253   -0.0074    0.0038    0.0169   -0.0034   -0.0356    0.0829   -0.0761
          35    0.1715    0.0139    0.0492   -0.0863    0.0118    0.0341   -0.0374   -0.1487
          36    0.0089    0.0001   -0.0066    0.0064   -0.0002    0.0072   -0.0265    0.0755
          37    0.0657   -0.0438    0.0342   -0.0690    0.0106   -0.0100    0.0941    0.0342
          38    0.0002   -0.0003    0.0002   -0.0013    0.0006   -0.0003    0.0102    0.0004
          39   -0.0001   -0.0000    0.0000   -0.0002    0.0001   -0.0001    0.0004    0.0001
          40   -0.0117   -0.0203   -0.0014   -0.0033    0.0066   -0.0123    0.0879   -0.0079
          41    0.0100    0.0025    0.0039   -0.0056   -0.0016    0.0053   -0.0234    0.0013
          42   -0.0019    0.0043   -0.0017    0.0047   -0.0015    0.0020   -0.0226   -0.0004
          43   -0.0131   -0.0203   -0.0017   -0.0029    0.0066   -0.0124    0.0881   -0.0082
          44    0.0102    0.0025    0.0039   -0.0057   -0.0016    0.0053   -0.0238    0.0014
          45    0.0017   -0.0044    0.0017   -0.0048    0.0015   -0.0020    0.0226    0.0004
          46    0.2975    0.0547   -0.0689    0.1539   -0.0009   -0.0738    0.1392   -0.0766
          47   -0.0050    0.0148   -0.0127    0.0275   -0.0054   -0.0057    0.0123   -0.0491
          48   -0.0005   -0.0000    0.0000   -0.0000    0.0000    0.0000   -0.0000    0.0000
          49   -0.0013   -0.0172    0.0213   -0.0279   -0.0189   -0.0311    0.0173    0.0229
          50   -0.0162    0.2296    0.1946    0.0845    0.0997    0.1893    0.0413   -0.0018
          51   -0.0002    0.0000   -0.0000    0.0000    0.0000    0.0000   -0.0000   -0.0000
          52    0.0017    0.1113   -0.1276   -0.0922   -0.2653    0.0954    0.0461   -0.0004
          53    0.0044    0.0341   -0.0904   -0.0681   -0.1774    0.0795    0.0175   -0.0440
          54    0.0001   -0.0000    0.0001    0.0000    0.0001   -0.0001   -0.0000   -0.0000
          55   -0.0022   -0.0402   -0.1821   -0.0615    0.2963    0.1256    0.0434    0.0231
          56    0.0012   -0.0071    0.0573    0.0481   -0.1253   -0.0574   -0.0397   -0.0434
          57   -0.0001   -0.0000    0.0001    0.0000   -0.0001   -0.0000   -0.0000   -0.0000
          58    0.0062   -0.0584    0.0279    0.0085    0.0009    0.0149   -0.0079   -0.0246
          59   -0.0306    0.2687   -0.0748   -0.1175    0.1342   -0.1856   -0.0291   -0.0358
          60    0.0001    0.0000   -0.0000   -0.0000   -0.0000    0.0000    0.0000    0.0000


   Root No.      33        34        35        36        37        38        39        40

                33 A      34 A      35 A      36 A      37 A      38 A      39 A      40 A   

                1316.3    1340.0    1377.6    1387.0    1390.4    1409.9    1479.1    1581.6
  
           1   -0.0345   -0.0150    0.0592    0.0003    0.0114   -0.0089   -0.0021   -0.0119
           2    0.0762   -0.0020    0.0100    0.0002    0.0108   -0.0293    0.0139   -0.0426
           3    0.0000    0.0000   -0.0000   -0.0001   -0.0000    0.0000    0.0000   -0.0000
           4    0.0058    0.0256    0.0282    0.0000   -0.0089    0.0476    0.0495   -0.0101
           5    0.0030    0.0024    0.0064    0.0008   -0.0310   -0.0152   -0.0161    0.0029
           6    0.0001    0.0001    0.0002   -0.0440   -0.0005   -0.0002   -0.0000    0.0000
           7   -0.0471    0.0150   -0.0124   -0.0000   -0.0022   -0.0100    0.0453    0.0394
           8   -0.0255   -0.0148   -0.0042   -0.0002   -0.0112    0.0404   -0.0093    0.1007
           9    0.0000   -0.0000    0.0000   -0.0001    0.0000    0.0000   -0.0000   -0.0000
          10    0.0123    0.0196   -0.0014    0.0001    0.0078   -0.0153   -0.0408    0.0128
          11   -0.0195   -0.0235   -0.0213   -0.0002   -0.0107    0.0145    0.0631   -0.0408
          12   -0.0000   -0.0000   -0.0000   -0.0008   -0.0000   -0.0000   -0.0000    0.0000
          13    0.0023   -0.0348   -0.0164   -0.0002   -0.0113    0.0235   -0.0099   -0.0849
          14    0.0130   -0.0067    0.0114   -0.0001   -0.0052    0.0369   -0.0154    0.0141
          15   -0.0000    0.0000    0.0000    0.0002    0.0000   -0.0000    0.0000    0.0000
          16    0.0309   -0.0093   -0.0336   -0.0001   -0.0041   -0.0103   -0.0124    0.0193
          17   -0.0256    0.0075    0.0124    0.0002    0.0047   -0.0174   -0.0226    0.0221
          18   -0.0000    0.0000    0.0000   -0.0002   -0.0000    0.0000    0.0000   -0.0000
          19    0.0148    0.0081    0.0103    0.0000    0.0027    0.0047   -0.0174    0.0418
          20   -0.0474    0.0309   -0.0047    0.0000    0.0025   -0.0049   -0.0326   -0.0309
          21   -0.0000   -0.0000   -0.0000   -0.0000   -0.0000   -0.0000    0.0000   -0.0000
          22    0.0321    0.0015    0.0049    0.0001    0.0059   -0.0180   -0.0022    0.0413
          23   -0.0098    0.0424    0.0039    0.0001    0.0088   -0.0162   -0.0398   -0.0679
          24   -0.0000   -0.0000   -0.0000   -0.0000   -0.0000    0.0000    0.0000   -0.0000
          25    0.0006   -0.0277    0.0011   -0.0002   -0.0117    0.0506   -0.0388   -0.0353
          26    0.0201   -0.0241   -0.0002   -0.0000   -0.0027    0.0025    0.0230   -0.0381
          27   -0.0000    0.0000   -0.0000    0.0000    0.0000   -0.0000    0.0000    0.0000
          28   -0.0296    0.0229   -0.0062    0.0001    0.0074   -0.0419    0.0503   -0.0297
          29    0.0243   -0.0166   -0.0020    0.0000    0.0007   -0.0114    0.0159    0.0595
          30    0.0000   -0.0000    0.0000   -0.0000   -0.0000    0.0000   -0.0000    0.0000
          31    0.0597    0.0878   -0.1448   -0.0005   -0.0283    0.0300    0.0097   -0.0069
          32   -0.0740    0.0300   -0.0515   -0.0005   -0.0165    0.0280   -0.0328    0.0078
          33    0.0131    0.0695   -0.1371   -0.0007   -0.0310    0.0391   -0.0067    0.0151
          34    0.0597    0.0878   -0.1448   -0.0010   -0.0283    0.0300    0.0097   -0.0069
          35   -0.0740    0.0300   -0.0515   -0.0001   -0.0165    0.0280   -0.0328    0.0078
          36   -0.0131   -0.0695    0.1371    0.0007    0.0310   -0.0391    0.0067   -0.0151
          37   -0.0710   -0.1325   -0.0684    0.0005   -0.1404   -0.1271   -0.0301   -0.0060
          38   -0.0111   -0.0250   -0.0128   -0.0030   -0.0381   -0.0392   -0.0256    0.0019
          39   -0.0004   -0.0008   -0.0018    0.4312    0.0018    0.0011   -0.0001   -0.0000
          40   -0.0535   -0.1080   -0.0754    0.0949    0.0924   -0.0751   -0.0609    0.0123
          41    0.0038    0.0165   -0.0207   -0.2375    0.2180    0.0825    0.0390   -0.0066
          42    0.0251    0.0516    0.0580    0.0526   -0.1625    0.0082    0.0236   -0.0062
          43   -0.0533   -0.1076   -0.0743   -0.0970    0.0907   -0.0760   -0.0613    0.0125
          44    0.0040    0.0169   -0.0215    0.2316    0.2179    0.0846    0.0397   -0.0069
          45   -0.0253   -0.0519   -0.0590    0.0523    0.1670   -0.0067   -0.0232    0.0062
          46    0.0540    0.0433    0.0704    0.0005    0.0242   -0.0149   -0.0204   -0.0129
          47   -0.0244    0.0130    0.0236    0.0002    0.0080   -0.0213   -0.0247    0.0206
          48   -0.0000   -0.0000   -0.0000    0.0007    0.0000    0.0000    0.0000   -0.0000
          49    0.0089    0.0120    0.0116    0.0000    0.0025    0.0099   -0.0317    0.0421
          50    0.0205   -0.0012   -0.0051    0.0002    0.0045   -0.0395    0.0819    0.0693
          51    0.0000   -0.0000   -0.0000    0.0000   -0.0000    0.0000    0.0000   -0.0000
          52    0.0620    0.0073    0.0101    0.0001    0.0069   -0.0136   -0.0113    0.0813
          53    0.0654   -0.0003    0.0057    0.0003    0.0111   -0.0479    0.0511    0.0417
          54   -0.0000   -0.0000   -0.0000   -0.0000   -0.0000    0.0000    0.0000   -0.0000
          55    0.0480    0.0332    0.0104    0.0001    0.0086   -0.0070   -0.0472    0.0605
          56   -0.0078   -0.0219   -0.0099    0.0001    0.0009   -0.0319    0.0656    0.0275
          57   -0.0000   -0.0000   -0.0000   -0.0000   -0.0000    0.0000    0.0000   -0.0000
          58    0.0351    0.0066    0.0050    0.0002    0.0073   -0.0188   -0.0137    0.0306
          59   -0.0062   -0.0049    0.0043   -0.0000    0.0080   -0.0426    0.0778    0.0869
          60   -0.0000    0.0000   -0.0000    0.0008   -0.0000   -0.0000    0.0000   -0.0000


   Root No.      41        42        43        44        45        46        47        48

                41 A      42 A      43 A      44 A      45 A      46 A      47 A      48 A   

                1605.3    1799.3    1825.6    1837.0    2980.4    3049.1    3054.7    3063.4
  
           1   -0.0146   -0.0005   -0.0023    0.0061   -0.0000    0.0383    0.0003    0.0000
           2   -0.0000   -0.0166    0.0197   -0.0056   -0.0000    0.0184    0.0001   -0.0001
           3    0.0000   -0.0000    0.0000   -0.0000   -0.0612   -0.0000   -0.0000    0.0000
           4   -0.0219    0.0003   -0.0092   -0.0616    0.0000    0.0001    0.0001   -0.0002
           5    0.0082    0.0030    0.0034    0.0035    0.0000    0.0000    0.0002   -0.0006
           6    0.0000   -0.0000    0.0000    0.0000   -0.0000   -0.0000   -0.0000    0.0002
           7    0.0578   -0.1143    0.0438   -0.0233   -0.0000    0.0003   -0.0002   -0.0002
           8   -0.0061    0.0652   -0.1114    0.0464   -0.0000    0.0006   -0.0001    0.0005
           9   -0.0000    0.0000   -0.0000    0.0000   -0.0002   -0.0000    0.0000    0.0000
          10    0.0348   -0.0085    0.0315    0.2263    0.0000   -0.0009    0.0000   -0.0000
          11   -0.0666   -0.0301   -0.0160    0.1149    0.0000   -0.0002   -0.0000   -0.0001
          12    0.0000    0.0000    0.0000   -0.0000   -0.0002    0.0000   -0.0000    0.0000
          13   -0.0449    0.0931    0.0361   -0.0190    0.0000   -0.0006   -0.0003    0.0003
          14    0.0940    0.0718    0.1409    0.0033    0.0000   -0.0005   -0.0001    0.0009
          15    0.0000   -0.0000   -0.0000    0.0000   -0.0001    0.0000    0.0000   -0.0000
          16    0.0083    0.0152   -0.0196   -0.1594   -0.0000    0.0010    0.0000    0.0000
          17    0.0120    0.0016   -0.0144   -0.1206   -0.0000   -0.0012    0.0000    0.0000
          18   -0.0000   -0.0000    0.0000    0.0000   -0.0002   -0.0000   -0.0000    0.0000
          19   -0.0354    0.0609   -0.0245    0.0168   -0.0000   -0.0003    0.0082    0.0152
          20   -0.0681   -0.0280    0.1305   -0.0297    0.0000   -0.0002   -0.0000    0.0004
          21    0.0000   -0.0000    0.0000   -0.0000   -0.0001    0.0000   -0.0000   -0.0000
          22   -0.0434   -0.0552   -0.0084    0.0017   -0.0000    0.0000    0.0117   -0.0223
          23    0.0011   -0.0141   -0.1394   -0.0002   -0.0000    0.0000    0.0020   -0.0030
          24    0.0000    0.0000    0.0000   -0.0000   -0.0000   -0.0000   -0.0000    0.0000
          25    0.0347   -0.1063   -0.0310   -0.0078    0.0000    0.0001   -0.0156   -0.0144
          26    0.0761   -0.0382   -0.0580    0.0019   -0.0000   -0.0000    0.0234    0.0187
          27   -0.0000    0.0001    0.0000    0.0000   -0.0000   -0.0000    0.0000    0.0000
          28    0.0443    0.1186   -0.0195    0.0090   -0.0000    0.0001   -0.0117    0.0085
          29   -0.0544   -0.0277    0.0468   -0.0032   -0.0000    0.0004   -0.0277    0.0152
          30   -0.0000   -0.0001    0.0000   -0.0000   -0.0000   -0.0000    0.0000   -0.0000
          31    0.0052   -0.0084    0.0097    0.0170   -0.2574   -0.2283   -0.0014   -0.0000
          32   -0.0113    0.0181   -0.0105   -0.0176   -0.1226   -0.1089   -0.0007   -0.0001
          33    0.0085    0.0063    0.0020    0.0089    0.3708    0.3881    0.0024    0.0001
          34    0.0051   -0.0084    0.0097    0.0170    0.2577   -0.2284   -0.0014   -0.0000
          35   -0.0113    0.0181   -0.0105   -0.0176    0.1226   -0.1089   -0.0007   -0.0001
          36   -0.0085   -0.0063   -0.0020   -0.0089    0.3708   -0.3879   -0.0024   -0.0001
          37   -0.0139   -0.0129   -0.0055    0.0478    0.0000    0.0001    0.0003   -0.0009
          38    0.0069    0.0004    0.0037    0.0252   -0.0000   -0.0004   -0.0012    0.0039
          39   -0.0000    0.0000    0.0000    0.0001    0.0000   -0.0000   -0.0000    0.0001
          40    0.0196    0.0043    0.0016   -0.0207   -0.0002   -0.0001   -0.0005    0.0008
          41   -0.0133   -0.0017   -0.0029   -0.0055   -0.0001   -0.0001   -0.0003    0.0005
          42   -0.0091    0.0000   -0.0013   -0.0085   -0.0003   -0.0002   -0.0010    0.0020
          43    0.0199    0.0044    0.0016   -0.0213    0.0002   -0.0001   -0.0007    0.0022
          44   -0.0136   -0.0017   -0.0029   -0.0057    0.0001   -0.0001   -0.0005    0.0019
          45    0.0090   -0.0000    0.0013    0.0082   -0.0003    0.0002    0.0014   -0.0045
          46    0.0203   -0.0024    0.0184    0.0725   -0.0000    0.0001    0.0000    0.0001
          47    0.0136   -0.0021   -0.0155   -0.1378    0.0000    0.0145   -0.0001   -0.0007
          48   -0.0000   -0.0000   -0.0000    0.0000   -0.0010   -0.0000    0.0000   -0.0000
          49   -0.0534    0.0683   -0.0123    0.0173    0.0000    0.0042   -0.0958   -0.1781
          50    0.0514    0.0225   -0.0515    0.0140    0.0000    0.0007   -0.0073   -0.0155
          51    0.0000   -0.0000   -0.0000   -0.0000    0.0002   -0.0000    0.0001    0.0001
          52   -0.0861    0.0195    0.0296    0.0040   -0.0000   -0.0007    0.1870    0.1569
          53   -0.0002    0.0568   -0.0207    0.0109    0.0000    0.0010   -0.2680   -0.2188
          54    0.0000   -0.0000   -0.0000   -0.0000    0.0000    0.0000   -0.0001   -0.0001
          55   -0.0954   -0.0365    0.0190   -0.0026    0.0000   -0.0019    0.1409   -0.0831
          56    0.0014    0.0456    0.0356    0.0023    0.0000   -0.0044    0.3200   -0.1794
          57    0.0000    0.0000   -0.0000    0.0000    0.0000    0.0000   -0.0001    0.0001
          58   -0.0559   -0.0682   -0.0336    0.0015    0.0000    0.0004   -0.1375    0.2593
          59    0.0205    0.0004    0.0504    0.0056    0.0000    0.0001   -0.0153    0.0262
          60    0.0000    0.0000    0.0000    0.0000    0.0001   -0.0000    0.0001   -0.0001


   Root No.      49        50        51        52        53        54

                49 A      50 A      51 A      52 A      53 A      54 A   

                3066.8    3073.3    3079.3    3080.4    3135.2    3165.8
  
           1   -0.0000   -0.0001    0.0000   -0.0002   -0.0017    0.0000
           2   -0.0000    0.0001    0.0000    0.0001   -0.0009   -0.0000
           3   -0.0001   -0.0000   -0.0000    0.0000    0.0000    0.0000
           4    0.0000   -0.0005   -0.0080   -0.0006    0.0001    0.0241
           5    0.0001   -0.0020   -0.0455   -0.0038    0.0008   -0.0059
           6   -0.0574   -0.0001   -0.0001    0.0000    0.0000   -0.0000
           7   -0.0000    0.0009   -0.0001    0.0006   -0.0008    0.0000
           8    0.0000   -0.0010    0.0002   -0.0016    0.0012    0.0000
           9   -0.0000   -0.0000    0.0000   -0.0000    0.0000    0.0000
          10   -0.0000   -0.0001   -0.0003   -0.0001    0.0053    0.0002
          11   -0.0000   -0.0001   -0.0002    0.0001    0.0033   -0.0000
          12   -0.0001   -0.0000    0.0000    0.0000   -0.0000   -0.0000
          13    0.0000    0.0007   -0.0003    0.0001    0.0004   -0.0001
          14   -0.0000    0.0016    0.0001   -0.0010    0.0017    0.0001
          15   -0.0000   -0.0000   -0.0000   -0.0000   -0.0000    0.0000
          16    0.0000    0.0000    0.0005    0.0001    0.0033   -0.0002
          17   -0.0000   -0.0000   -0.0005    0.0000   -0.0767    0.0003
          18   -0.0002   -0.0000    0.0000    0.0000   -0.0000   -0.0000
          19    0.0002   -0.0260    0.0040   -0.0270    0.0002   -0.0000
          20    0.0000   -0.0022    0.0004   -0.0030   -0.0001   -0.0000
          21    0.0000    0.0000   -0.0000    0.0000   -0.0000    0.0000
          22   -0.0000   -0.0318    0.0003    0.0139   -0.0002   -0.0003
          23   -0.0000   -0.0026    0.0001    0.0008   -0.0003   -0.0001
          24   -0.0000    0.0000   -0.0000   -0.0000    0.0000    0.0000
          25   -0.0001    0.0011    0.0014   -0.0112   -0.0001    0.0000
          26    0.0001    0.0015   -0.0021    0.0164    0.0000    0.0000
          27   -0.0000   -0.0000   -0.0000    0.0000    0.0000   -0.0000
          28    0.0001   -0.0067   -0.0007    0.0070    0.0000   -0.0000
          29    0.0002   -0.0182   -0.0012    0.0150    0.0000   -0.0000
          30   -0.0000    0.0000    0.0000   -0.0000   -0.0000   -0.0000
          31   -0.0001    0.0001   -0.0002    0.0010    0.0078   -0.0000
          32   -0.0001    0.0002   -0.0001    0.0006    0.0014    0.0000
          33    0.0002   -0.0003    0.0004   -0.0017   -0.0111    0.0000
          34    0.0001    0.0001   -0.0002    0.0010    0.0078   -0.0000
          35    0.0001    0.0002   -0.0001    0.0006    0.0014    0.0000
          36    0.0003    0.0003   -0.0004    0.0017    0.0111   -0.0000
          37   -0.0007   -0.0034   -0.0813   -0.0068   -0.0002   -0.0526
          38    0.0036    0.0160    0.3950    0.0332   -0.0036    0.3354
          39   -0.0285    0.0001    0.0032    0.0003   -0.0000    0.0026
          40    0.1929    0.0049    0.0875    0.0069   -0.0039   -0.1166
          41    0.1949    0.0040    0.0704    0.0055   -0.0034   -0.1304
          42    0.3626    0.0105    0.1875    0.0147   -0.0078   -0.2591
          43   -0.1926    0.0041    0.0905    0.0073   -0.0039   -0.1178
          44   -0.1993    0.0033    0.0757    0.0062   -0.0035   -0.1347
          45    0.3549   -0.0088   -0.1901   -0.0153    0.0076    0.2567
          46   -0.0000   -0.0000   -0.0000   -0.0000   -0.0869    0.0010
          47    0.0001    0.0003    0.0065    0.0006    0.8539   -0.0049
          48    0.0004   -0.0000   -0.0000   -0.0000    0.0000   -0.0000
          49   -0.0020    0.2950   -0.0446    0.2992   -0.0005    0.0000
          50   -0.0002    0.0282   -0.0044    0.0297   -0.0001    0.0000
          51    0.0000   -0.0002    0.0000   -0.0002    0.0000   -0.0000
          52    0.0010    0.0026   -0.0156    0.1225    0.0006    0.0000
          53   -0.0014   -0.0087    0.0224   -0.1750   -0.0008   -0.0000
          54   -0.0000   -0.0000    0.0000   -0.0001   -0.0000   -0.0000
          55   -0.0011    0.0850    0.0062   -0.0720   -0.0002    0.0000
          56   -0.0024    0.1963    0.0136   -0.1613   -0.0004    0.0002
          57    0.0000   -0.0001   -0.0000    0.0001    0.0000   -0.0000
          58    0.0003    0.3544   -0.0037   -0.1503    0.0005    0.0037
          59    0.0000    0.0332   -0.0001   -0.0136   -0.0000    0.0000
          60   -0.0004   -0.0001    0.0000    0.0001   -0.0000   -0.0000


           MASS-WEIGHTED COORDINATE ANALYSIS (NORMAL COORDINATES)


   Root No.       1         2         3         4         5         6         7         8

                 1 A       2 A       3 A       4 A       5 A       6 A       7 A       8 A   

                  78.6     131.6     193.5     242.2     258.0     376.8     443.2     470.7
  
           1   -0.0004   -0.0000   -0.0000   -0.1027    0.0003    0.0000    0.0000   -0.1146
           2   -0.0003   -0.0000   -0.0000   -0.1049    0.0001    0.0000    0.0001    0.3258
           3   -0.0380   -0.2166    0.0332    0.0009    0.4326   -0.0198   -0.0306    0.0001
           4   -0.0001   -0.0001    0.0000   -0.0044   -0.0002   -0.0002   -0.0002   -0.0027
           5    0.0022    0.0003   -0.0001    0.6337   -0.0010   -0.0001    0.0001    0.1581
           6   -0.0540    0.4473   -0.0549    0.0004    0.2331    0.0332    0.0240   -0.0000
           7   -0.0004    0.0000   -0.0001   -0.1510    0.0003    0.0001    0.0004    0.3717
           8   -0.0002   -0.0000    0.0000   -0.0728    0.0001   -0.0000    0.0000    0.0987
           9   -0.0343   -0.0314   -0.3905    0.0000   -0.0385   -0.1862    0.5045   -0.0003
          10   -0.0005   -0.0000    0.0000   -0.1145    0.0001   -0.0001   -0.0001   -0.0621
          11   -0.0004   -0.0000    0.0000   -0.0572    0.0001    0.0000   -0.0001   -0.2753
          12    0.0044   -0.0513   -0.0130   -0.0006   -0.3065   -0.2946   -0.3057    0.0001
          13   -0.0004   -0.0000   -0.0001   -0.1646    0.0003    0.0000    0.0002    0.3600
          14   -0.0005   -0.0000    0.0000   -0.1198    0.0002    0.0001   -0.0000   -0.0516
          15    0.0035   -0.2098   -0.3939   -0.0003   -0.1911   -0.3619   -0.0766    0.0001
          16   -0.0003   -0.0000    0.0001   -0.0621    0.0001   -0.0000   -0.0001   -0.3084
          17   -0.0004   -0.0000    0.0000   -0.1043    0.0001   -0.0000   -0.0001   -0.0458
          18    0.0069   -0.1285    0.4752   -0.0004   -0.3408    0.1357    0.0989    0.0000
          19    0.0001    0.0002   -0.0001    0.0234   -0.0001    0.0003    0.0000    0.0645
          20    0.0001   -0.0000   -0.0001    0.0638   -0.0001   -0.0001   -0.0001   -0.1929
          21   -0.0377    0.3443   -0.2308   -0.0002   -0.1721    0.3993    0.0227   -0.0002
          22    0.0003   -0.0001   -0.0001    0.0661   -0.0001    0.0002    0.0000    0.1435
          23   -0.0008   -0.0001    0.0001   -0.2413    0.0004    0.0002    0.0001    0.0788
          24    0.0748   -0.4179   -0.1587   -0.0001   -0.0226    0.3928   -0.2039   -0.0000
          25    0.0007    0.0002    0.0001    0.2214   -0.0004   -0.0002   -0.0002   -0.1652
          26   -0.0001   -0.0000   -0.0000   -0.0193    0.0000   -0.0001   -0.0001   -0.1417
          27    0.0132    0.3217    0.2602   -0.0002   -0.0355   -0.2487   -0.2893    0.0003
          28    0.0008   -0.0000    0.0001    0.2356   -0.0003   -0.0001    0.0001   -0.1608
          29   -0.0005   -0.0000    0.0001   -0.1391    0.0003    0.0001    0.0000   -0.1094
          30    0.0764   -0.1704    0.3222    0.0001    0.1942   -0.0730    0.3439   -0.0001
          31   -0.0086   -0.0313   -0.0484   -0.0259    0.2363   -0.0202   -0.1539   -0.0730
          32    0.0020   -0.0340    0.0968   -0.0365    0.0657    0.0408   -0.1407    0.1744
          33   -0.0160   -0.0948    0.0080    0.0005    0.3078   -0.0066   -0.1617   -0.0001
          34    0.0084    0.0312    0.0484   -0.0267   -0.2360    0.0202    0.1538   -0.0731
          35   -0.0021    0.0339   -0.0968   -0.0367   -0.0656   -0.0407    0.1409    0.1743
          36   -0.0160   -0.0948    0.0080    0.0006    0.3079   -0.0066   -0.1618    0.0003
          37   -0.0003    0.0008   -0.0001    0.1719    0.0007    0.0006    0.0008    0.1540
          38   -0.0036   -0.0005    0.0002    0.2228   -0.0007   -0.0001   -0.0001    0.0822
          39    0.5374    0.2324   -0.0522   -0.0019    0.1459    0.0422    0.0547   -0.0003
          40    0.1042   -0.0849    0.0036   -0.0745   -0.1160   -0.0802   -0.0878   -0.0665
          41    0.4872    0.0666   -0.0303    0.2643    0.0380    0.0083    0.0183    0.1226
          42   -0.3110    0.1419   -0.0027    0.0004    0.1110    0.0490    0.0455   -0.0014
          43   -0.1039    0.0839   -0.0034   -0.0756    0.1149    0.0792    0.0867   -0.0686
          44   -0.4800   -0.0657    0.0299    0.2682   -0.0384   -0.0083   -0.0180    0.1235
          45   -0.3193    0.1412   -0.0022    0.0022    0.1109    0.0492    0.0455    0.0017
          46   -0.0001    0.0000    0.0001   -0.0133    0.0000    0.0000   -0.0000   -0.1968
          47   -0.0001   -0.0000    0.0000   -0.0289    0.0000   -0.0000   -0.0000   -0.0232
          48    0.0116   -0.0157    0.3007   -0.0002   -0.1678    0.1749    0.1557   -0.0000
          49    0.0000    0.0001   -0.0000    0.0015   -0.0000    0.0002   -0.0000    0.0300
          50    0.0002   -0.0000   -0.0000    0.0755   -0.0001   -0.0001   -0.0001   -0.1693
          51   -0.0213    0.1881   -0.0901   -0.0001   -0.0861    0.3554   -0.0795   -0.0001
          52    0.0003    0.0001    0.0001    0.0970   -0.0002   -0.0001   -0.0002   -0.0759
          53    0.0000   -0.0000   -0.0000    0.0178   -0.0000   -0.0000   -0.0000   -0.0620
          54    0.0030    0.1904    0.1833   -0.0001   -0.0167   -0.1929   -0.2807    0.0002
          55    0.0003   -0.0000    0.0001    0.1022   -0.0001   -0.0001    0.0001   -0.0970
          56   -0.0002   -0.0000    0.0001   -0.0558    0.0001    0.0000    0.0001   -0.0087
          57    0.0377   -0.0918    0.2215    0.0002    0.1427   -0.0492    0.2801   -0.0002
          58    0.0001   -0.0001   -0.0000    0.0258   -0.0000    0.0001   -0.0000    0.0320
          59   -0.0006   -0.0000    0.0000   -0.1337    0.0002    0.0001    0.0000    0.1226
          60    0.0420   -0.2088   -0.0534    0.0001   -0.0021    0.3556   -0.2014   -0.0000


   Root No.       9        10        11        12        13        14        15        16

                 9 A      10 A      11 A      12 A      13 A      14 A      15 A      16 A   

                 551.0     552.6     560.1     698.7     720.0     775.8     802.9     830.2
  
           1    0.0007    0.0461    0.0257    0.4896   -0.0007   -0.0001    0.0002   -0.1304
           2    0.0038    0.1195   -0.2849    0.0599   -0.0000    0.0001    0.0000   -0.0914
           3   -0.0466    0.0011   -0.0002   -0.0003   -0.1818    0.0769   -0.2751   -0.0004
           4    0.0098    0.3743   -0.2084   -0.3828    0.0005    0.0001    0.0001   -0.1818
[...]
 REDUCED MASS        0.4275         C  2 -- C  4          +5.2% ( 19.8%)      0.0%
 EFFECTIVE MASS      1.5781
 FORCE CONSTANT      0.4845

 VIBRATION         37   37A           ATOM PAIR      ENERGY CONTRIBUTION    RADIAL
 FREQUENCY          1390.38         C  2 -- H 15         +32.8% ( 53.4%)      1.8%
 TRANSITION DIPOLE   0.0546         C  2 -- H 14         +32.3% ( 53.0%)      1.9%
 TRAVEL (Ang.)       0.3729         C  2 -- H 13          +8.6% ( 27.4%)     48.6%
 REDUCED MASS        0.3488         C  2 -- C  4          +4.8% ( 20.4%)     24.4%
 EFFECTIVE MASS      2.1411
 FORCE CONSTANT      0.3973

 VIBRATION         38   38A           ATOM PAIR      ENERGY CONTRIBUTION    RADIAL
 FREQUENCY          1409.91         C  9 -- C 10         +12.9% ( 57.0%)     99.7%
 TRANSITION DIPOLE   0.1143         C  5 -- C  8          +7.8% ( 44.2%)     95.1%
 TRAVEL (Ang.)       0.2252         C  3 -- C  5          +7.5% ( 43.5%)     96.0%
 REDUCED MASS        0.9427         C  1 -- C  3          +6.7% ( 40.9%)     93.9%
 EFFECTIVE MASS      9.1109
 FORCE CONSTANT      1.1041

 VIBRATION         39   39A           ATOM PAIR      ENERGY CONTRIBUTION    RADIAL
 FREQUENCY          1479.05         C  2 -- C  4         +14.2% ( 57.0%)     72.9%
 TRANSITION DIPOLE   0.5144         C  9 -- C 10         +10.4% ( 48.8%)     96.9%
 TRAVEL (Ang.)       0.1802         C  4 -- C  6          +9.6% ( 46.9%)     17.0%
 REDUCED MASS        1.4035         C  4 -- C  5          +9.0% ( 45.3%)     99.9%
 EFFECTIVE MASS     10.4933
 FORCE CONSTANT      1.8089

 VIBRATION         40   40A           ATOM PAIR      ENERGY CONTRIBUTION    RADIAL
 FREQUENCY          1581.59         C  3 -- C  5         +15.4% ( 60.3%)     76.0%
 TRANSITION DIPOLE   0.8080         C  3 -- C  7         +12.2% ( 53.6%)     66.6%
 TRAVEL (Ang.)       0.1530         C  1 -- C  3         +11.1% ( 51.1%)     98.8%
 REDUCED MASS        1.8214         C  8 -- C 10         +10.9% ( 50.8%)     98.3%
 EFFECTIVE MASS     11.4514
 FORCE CONSTANT      2.6844

 VIBRATION         41   41A           ATOM PAIR      ENERGY CONTRIBUTION    RADIAL
 FREQUENCY          1605.28         C  4 -- C  5         +14.6% ( 59.0%)     99.8%
 TRANSITION DIPOLE   0.3297         C  7 -- C  9         +12.5% ( 54.6%)    100.0%
 TRAVEL (Ang.)       0.1536         C  3 -- C  5         +11.5% ( 52.4%)     41.6%
 REDUCED MASS        1.7814         C  5 -- C  8          +9.4% ( 47.2%)     80.6%
 EFFECTIVE MASS     11.5548
 FORCE CONSTANT      2.7047

 VIBRATION         42   42A           ATOM PAIR      ENERGY CONTRIBUTION    RADIAL
 FREQUENCY          1799.29         C  3 -- C  5         +15.5% ( 56.7%)     99.6%
 TRANSITION DIPOLE   0.0786         C  9 -- C 10         +14.2% ( 54.3%)     99.7%
 TRAVEL (Ang.)       0.1290         C  3 -- C  7         +12.2% ( 50.3%)     81.3%
 REDUCED MASS        2.2534         C  5 -- C  8          +9.0% ( 43.1%)     67.6%
 EFFECTIVE MASS     11.8862
 FORCE CONSTANT      4.2982

 VIBRATION         43   43A           ATOM PAIR      ENERGY CONTRIBUTION    RADIAL
 FREQUENCY          1825.62         C  5 -- C  8         +18.5% ( 63.5%)     92.2%
 TRANSITION DIPOLE   0.1606         C  3 -- C  7         +14.2% ( 55.6%)     87.6%
 TRAVEL (Ang.)       0.1239         C  3 -- C  5         +13.4% ( 54.0%)      0.4%
 REDUCED MASS        2.4071         C  4 -- C  5          +8.4% ( 42.7%)     81.6%
 EFFECTIVE MASS     11.9113
 FORCE CONSTANT      4.7268

 VIBRATION         44   44A           ATOM PAIR      ENERGY CONTRIBUTION    RADIAL
 FREQUENCY          1837.00         C  4 -- C  6         +37.4% ( 94.8%)     96.2%
 TRANSITION DIPOLE   0.3217         C  2 -- C  4         +17.5% ( 64.9%)     73.5%
 TRAVEL (Ang.)       0.0838         C  4 -- C  5         +15.2% ( 60.5%)      0.0%
 REDUCED MASS        5.2221         C  5 -- C  6          +8.6% ( 45.4%)     61.4%
 EFFECTIVE MASS     11.9111
 FORCE CONSTANT     10.3827

 VIBRATION         45   45A           ATOM PAIR      ENERGY CONTRIBUTION    RADIAL
 FREQUENCY          2980.36         C  1 -- H 12         +48.9% ( 72.5%)     96.8%
 TRANSITION DIPOLE   0.1251         C  1 -- H 11         +48.9% ( 72.4%)     96.8%
 TRAVEL (Ang.)       0.2090         C  1 -- C  6          +1.1% ( 10.8%)      0.0%
 REDUCED MASS        0.5178         C  1 -- C  3          +1.1% ( 10.8%)      0.0%
 EFFECTIVE MASS      1.5350
 FORCE CONSTANT      2.7096

 VIBRATION         46   46A           ATOM PAIR      ENERGY CONTRIBUTION    RADIAL
 FREQUENCY          3049.09         C  1 -- H 11         +49.3% ( 69.4%)     97.4%
 TRANSITION DIPOLE   0.2303         C  1 -- H 12         +49.2% ( 69.3%)     97.3%
 TRAVEL (Ang.)       0.2138         C  1 -- C  3          +0.7% (  8.5%)     38.9%
 REDUCED MASS        0.4837         C  1 -- C  6          +0.7% (  8.4%)     34.5%
 EFFECTIVE MASS      1.2872
 FORCE CONSTANT      2.6494

 VIBRATION         47   47A           ATOM PAIR      ENERGY CONTRIBUTION    RADIAL
 FREQUENCY          3054.74         C 10 -- H 19         +46.2% ( 69.1%)    100.0%
 TRANSITION DIPOLE   0.0605         C  9 -- H 18         +40.3% ( 64.6%)    100.0%
 TRAVEL (Ang.)       0.2423         C  8 -- H 20          +7.3% ( 27.4%)     99.9%
 REDUCED MASS        0.3761         C  7 -- H 17          +3.5% ( 19.0%)     99.9%
 EFFECTIVE MASS      1.4921
 FORCE CONSTANT      2.0680

 VIBRATION         48   48A           ATOM PAIR      ENERGY CONTRIBUTION    RADIAL
 FREQUENCY          3063.44         C  9 -- H 18         +33.2% ( 58.6%)    100.0%
 TRANSITION DIPOLE   0.3119         C  8 -- H 20         +31.2% ( 56.7%)    100.0%
 TRAVEL (Ang.)       0.2919         C 10 -- H 19         +17.9% ( 43.0%)     99.9%
 REDUCED MASS        0.2583         C  7 -- H 17         +14.7% ( 38.9%)    100.0%
 EFFECTIVE MASS      1.5051
 FORCE CONSTANT      1.4281

 VIBRATION         49   49A           ATOM PAIR      ENERGY CONTRIBUTION    RADIAL
 FREQUENCY          3066.83         C  2 -- H 14         +49.5% ( 72.6%)     97.1%
 TRANSITION DIPOLE   0.0443         C  2 -- H 15         +48.6% ( 71.9%)     96.9%
 TRAVEL (Ang.)       0.2077         C  2 -- C  4          +1.0% ( 10.2%)      0.0%
 REDUCED MASS        0.5098         C  2 -- H 13          +0.9% (  9.9%)      0.1%
 EFFECTIVE MASS      1.5035
 FORCE CONSTANT      2.8253

 VIBRATION         50   50A           ATOM PAIR      ENERGY CONTRIBUTION    RADIAL
 FREQUENCY          3073.29         C  8 -- H 20         +47.0% ( 69.6%)    100.0%
 TRANSITION DIPOLE   0.5348         C  7 -- H 17         +32.6% ( 57.9%)    100.0%
 TRAVEL (Ang.)       0.2492         C 10 -- H 19         +16.9% ( 41.8%)     99.9%
 REDUCED MASS        0.3534         C  8 -- C 10          +1.1% ( 10.8%)     86.5%
 EFFECTIVE MASS      1.5432
 FORCE CONSTANT      1.9667

 VIBRATION         51   51A           ATOM PAIR      ENERGY CONTRIBUTION    RADIAL
 FREQUENCY          3079.34         C  2 -- H 13         +60.8% ( 80.4%)     98.8%
 TRANSITION DIPOLE   0.0656         C  2 -- H 15         +18.9% ( 44.9%)     86.0%
 TRAVEL (Ang.)       0.2161         C  2 -- H 14         +18.1% ( 43.9%)     85.3%
 REDUCED MASS        0.4691         C  2 -- C  4          +1.0% ( 10.5%)      0.0%
 EFFECTIVE MASS      1.5153
 FORCE CONSTANT      2.6208

 VIBRATION         52   52A           ATOM PAIR      ENERGY CONTRIBUTION    RADIAL
 FREQUENCY          3080.36         C  7 -- H 17         +45.5% ( 68.4%)    100.0%
 TRANSITION DIPOLE   0.3308         C  9 -- H 18         +22.9% ( 48.6%)    100.0%
 TRAVEL (Ang.)       0.2715         C 10 -- H 19         +15.7% ( 40.2%)    100.0%
 REDUCED MASS        0.2969         C  8 -- H 20         +11.5% ( 34.3%)    100.0%
 EFFECTIVE MASS      1.5828
 FORCE CONSTANT      1.6601

 VIBRATION         53   53A           ATOM PAIR      ENERGY CONTRIBUTION    RADIAL
 FREQUENCY          3135.15         C  6 -- H 16         +94.9% ( 99.9%)    100.0%
 TRANSITION DIPOLE   0.4500         C  4 -- C  6          +1.7% ( 13.5%)     48.4%
 TRAVEL (Ang.)       0.1522         C  5 -- C  6          +1.6% ( 13.0%)     95.5%
 REDUCED MASS        0.9285         C  1 -- C  6          +1.6% ( 13.0%)     25.0%
 EFFECTIVE MASS      1.5534
 FORCE CONSTANT      5.3770

 VIBRATION         54   54A           ATOM PAIR      ENERGY CONTRIBUTION    RADIAL
 FREQUENCY          3165.79         C  2 -- H 13         +37.3% ( 58.9%)     97.6%
 TRANSITION DIPOLE   0.0692         C  2 -- H 15         +31.2% ( 53.8%)     96.7%
 TRAVEL (Ang.)       0.2545         C  2 -- H 14         +31.1% ( 53.8%)     96.7%
 REDUCED MASS        0.3290         C  2 -- C  4          +0.3% (  5.5%)     99.5%
 EFFECTIVE MASS      1.1395
 FORCE CONSTANT      1.9426

      SYMMETRY NUMBER FOR POINT-GROUP C1  =  1


          SYSTEM IS A GROUND STATE



 InChI=1S/C10H10/c1-8-6-7-9-4-2-3-5-10(8)9/h2-6H,7H2,1H3


          MOLECULE IS NOT LINEAR

          THERE ARE 54 GENUINE VIBRATIONS IN THIS SYSTEM
          THIS THERMODYNAMICS CALCULATION IS LIMITED TO
          MOLECULES WHICH HAVE NO INTERNAL ROTATIONS




                    CALCULATED THERMODYNAMIC PROPERTIES
                                          *
   TEMP. (K)   PARTITION FUNCTION   H.O.F.    ENTHALPY  HEAT CAPACITY ENTROPY
                                   KCAL/MOL   CAL/MOLE    CAL/K/MOL  CAL/K/MOL


 298.00  VIB.     0.5431D+02                  3409.8337    26.7145    19.3806
         ROT.     0.5259D+06                   888.2803     2.9808    29.1579
         INT.     0.2856D+08                  4298.1141    29.6953    48.5384
         TRA.     0.1436D+28                  1480.4672     4.9680    40.5022
         TOT.                       30.883    5778.5812    34.6633    89.0406

 200.00  VIB.     0.9147D+01                  1347.1509    15.6107    11.1343
         ROT.     0.2891D+06                   596.1613     2.9808    27.9692
         INT.     0.2645D+07                  1943.3122    18.5915    39.1035
         TRA.     0.7896D+27                   993.6021     4.9680    38.5210
         TOT.                       28.042    2936.9143    23.5595    77.6245

 210.00  VIB.     0.1085D+02                  1508.5052    16.6645    11.9214
         ROT.     0.3111D+06                   625.9693     2.9808    28.1146
         INT.     0.3376D+07                  2134.4745    19.6453    40.0360
         TRA.     0.8496D+27                  1043.2822     4.9680    38.7634
         TOT.                       28.283    3177.7568    24.6133    78.7994

 220.00  VIB.     0.1291D+02                  1680.5233    17.7431    12.7214
         ROT.     0.3336D+06                   655.7774     2.9808    28.2533
         INT.     0.4305D+07                  2336.3007    20.7240    40.9747
         TRA.     0.9110D+27                  1092.9623     4.9680    38.9945
         TOT.                       28.534    3429.2631    25.6920    79.9692

 230.00  VIB.     0.1539D+02                  1863.4438    18.8445    13.5343
         ROT.     0.3566D+06                   685.5855     2.9808    28.3858
         INT.     0.5487D+07                  2549.0293    21.8253    41.9201
         TRA.     0.9738D+27                  1142.6424     4.9680    39.2154
         TOT.                       28.796    3691.6717    26.7933    81.1355

 240.00  VIB.     0.1840D+02                  2057.4806    19.9659    14.3600
         ROT.     0.3801D+06                   715.3935     2.9808    28.5127
         INT.     0.6992D+07                  2772.8741    22.9468    42.8726
         TRA.     0.1038D+28                  1192.3226     4.9680    39.4268
         TOT.                       29.070    3965.1966    27.9148    82.2994

 250.00  VIB.     0.2205D+02                  2262.8200    21.1046    15.1981
         ROT.     0.4041D+06                   745.2016     2.9808    28.6343
         INT.     0.8909D+07                  3008.0216    24.0854    43.8324
         TRA.     0.1103D+28                  1242.0027     4.9680    39.6296
         TOT.                       29.355    4250.0243    29.0534    83.4620

 260.00  VIB.     0.2648D+02                  2479.6194    22.2574    16.0482
         ROT.     0.4286D+06                   775.0097     2.9808    28.7512
         INT.     0.1135D+08                  3254.6290    25.2382    44.7995
         TRA.     0.1170D+28                  1291.6828     4.9680    39.8245
         TOT.                       29.651    4546.3118    30.2062    84.6239

 270.00  VIB.     0.3189D+02                  2708.0054    23.4214    16.9100
         ROT.     0.4535D+06                   804.8177     2.9808    28.8637
         INT.     0.1446D+08                  3512.8231    26.4022    45.7738
         TRA.     0.1239D+28                  1341.3629     4.9680    40.0120
         TOT.                       29.959    4854.1860    31.3702    85.7857

 280.00  VIB.     0.3849D+02                  2948.0745    24.5935    17.7830
         ROT.     0.4790D+06                   834.6258     2.9808    28.9722
         INT.     0.1844D+08                  3782.7003    27.5743    46.7551
         TRA.     0.1308D+28                  1391.0430     4.9680    40.1926
         TOT.                       30.279    5173.7432    32.5423    86.9477

 290.00  VIB.     0.4656D+02                  3199.8931    25.7708    18.6665
         ROT.     0.5048D+06                   864.4339     2.9808    29.0768
         INT.     0.2351D+08                  4064.3269    28.7516    47.7433
         TRA.     0.1379D+28                  1440.7231     4.9680    40.3670
         TOT.                       30.610    5505.0500    33.7196    88.1102

 300.00  VIB.     0.5645D+02                  3463.4987    26.9505    19.5601
         ROT.     0.5312D+06                   894.2419     2.9808    29.1778
         INT.     0.2998D+08                  4357.7406    29.9313    48.7379
         TRA.     0.1451D+28                  1490.4032     4.9680    40.5354
         TOT.                       30.953    5848.1438    34.8993    89.2733

 310.00  VIB.     0.6858D+02                  3738.9012    28.1298    20.4630
         ROT.     0.5580D+06                   924.0500     2.9808    29.2755
         INT.     0.3827D+08                  4662.9512    31.1106    49.7385
         TRA.     0.1524D+28                  1540.0833     4.9680    40.6983
         TOT.                       31.308    6203.0345    36.0786    90.4368

 320.00  VIB.     0.8350D+02                  4026.0846    29.3062    21.3747
         ROT.     0.5852D+06                   953.8580     2.9808    29.3702
         INT.     0.4886D+08                  4979.9427    32.2871    50.7448
         TRA.     0.1598D+28                  1589.7634     4.9680    40.8560
         TOT.                       31.674    6569.7061    37.2551    91.6009

 330.00  VIB.     0.1019D+03                  4325.0090    30.4776    22.2944
         ROT.     0.6128D+06                   983.6661     2.9808    29.4619
         INT.     0.6243D+08                  5308.6751    33.4584    51.7563
         TRA.     0.1674D+28                  1639.4435     4.9680    41.0089
         TOT.                       32.053    6948.1187    38.4264    92.7652

 340.00  VIB.     0.1245D+03                  4635.6126    31.6417    23.2216
         ROT.     0.6409D+06                  1013.4742     2.9808    29.5509
         INT.     0.7981D+08                  5649.0867    34.6225    52.7725
         TRA.     0.1750D+28                  1689.1236     4.9680    41.1572
         TOT.                       32.443    7338.2104    39.5906    93.9297

 350.00  VIB.     0.1525D+03                  4957.8135    32.7968    24.1555
         ROT.     0.6694D+06                  1043.2822     2.9808    29.6373
         INT.     0.1021D+09                  6001.0957    35.7776    53.7928
         TRA.     0.1828D+28                  1738.8037     4.9680    41.3012
         TOT.                       32.845    7739.8995    40.7456    95.0940

 360.00  VIB.     0.1871D+03                  5291.5124    33.9411    25.0954
         ROT.     0.6982D+06                  1073.0903     2.9808    29.7213
         INT.     0.1307D+09                  6364.6027    36.9219    54.8167
         TRA.     0.1907D+28                  1788.4838     4.9680    41.4412
         TOT.                       33.258    8153.0865    41.8899    96.2579

 370.00  VIB.     0.2300D+03                  5636.5941    35.0731    26.0409
         ROT.     0.7275D+06                  1102.8984     2.9808    29.8029
         INT.     0.1674D+09                  6739.4924    38.0539    55.8438
         TRA.     0.1987D+28                  1838.1639     4.9680    41.5773
         TOT.                       33.682    8577.6564    43.0219    97.4211

 380.00  VIB.     0.2832D+03                  5992.9296    36.1917    26.9911
         ROT.     0.7572D+06                  1132.7064     2.9808    29.8824
         INT.     0.2145D+09                  7125.6361    39.1725    56.8735
         TRA.     0.2068D+28                  1887.8440     4.9680    41.7098
         TOT.                       34.118    9013.4801    44.1405    98.5833

 390.00  VIB.     0.3493D+03                  6360.3785    37.2956    27.9455
         ROT.     0.7873D+06                  1162.5145     2.9808    29.9599
         INT.     0.2750D+09                  7522.8930    40.2764    57.9053
         TRA.     0.2150D+28                  1937.5242     4.9680    41.8388
         TOT.                       34.565    9460.4172    45.2444    99.7442

 400.00  VIB.     0.4314D+03                  6738.7900    38.3840    28.9035
         ROT.     0.8178D+06                  1192.3226     2.9808    30.0353
         INT.     0.3528D+09                  7931.1126    41.3649    58.9388
         TRA.     0.2233D+28                  1987.2043     4.9680    41.9646
         TOT.                       35.023    9918.3168    46.3329   100.9034

   *: NOTE: HEATS OF FORMATION ARE RELATIVE TO THE
            ELEMENTS IN THEIR STANDARD STATE AT 298K
              (=  Standard Enthalpy of Formation).

            Hvib:  Zero-point energy is not included.
                   frequencies of less than zero cm-1 are not included.
            Hrot = (3/2)RT
            Htra = (3/2)RT + pV = (5/2)RT

            Heat capacity is Cp, not Cv

          For more information, see: HTTP://OpenMOPAC.net/Manual/thermochemistry.html


           FORCE CONSTANT IN CARTESIAN COORDINATES (Millidynes/A)

    ATOM   CHEMICAL       X               Y               Z
   NUMBER   SYMBOL  FORCE CONSTANT  FORCE CONSTANT  FORCE CONSTANT

      1       C        9.503556        8.209054        7.872327
      2       C        9.246450        8.510924        7.955225
      3       C       11.928862       13.339061        2.642661
      4       C       14.988071       11.007003        2.599662
      5       C       11.418057       14.375129        2.495994
      6       C       10.727758       13.725362        2.307102
      7       C       12.355227       11.885032        2.306593
      8       C       12.236764       11.992666        2.306503
      9       C       11.949168       11.910250        2.331116
     10       C       11.906908       11.961703        2.329386
     11       H        1.829960        0.899000        3.553949
     12       H        1.831852        0.898902        3.552112
     13       H        0.871224        5.206726        0.650511
     14       H        1.425093        1.418174        3.788298
     15       H        1.438320        1.470269        3.724694
     16       H        0.752726        5.345223        0.332594
     17       H        5.148822        0.771536        0.351580
     18       H        2.218758        3.696117        0.348032
     19       H        1.485223        4.429654        0.349155
     20       H        5.131965        0.766812        0.350995

 **********************
 *                    *
 * JOB ENDED NORMALLY *
 *                    *
 **********************



 TOTAL JOB TIME:             2.50 SECONDS

 == MOPAC DONE ==
