 *******************************************************************************
 **                                                                           **
 **                              MOPAC v23.1.2                                **
 **                                                                           **
 *******************************************************************************
 **          Digital Object Identifier (DOI): 10.5281/zenodo.6511958          **
 **    Visit the DOI location for information on how to cite this program.    **
 *******************************************************************************

                              PM3 CALCULATION RESULTS

 *******************************************************************************
 *  CALCULATION DONE: (MAX THREADS = 1)              Tue Jun  3 16:30:19 2025  *
 *  PM3        - The PM3 Hamiltonian to be used
 *  PRECISE    - TIGHTER CRITERIA TO BE USED
 *  NOSYM      - POINT-GROUP SYMMETRY SET TO C1
 *  THREADS=1  - MULTI-THREADING NOT USED
 *  T=         - A TIME OF 172800.0 SECONDS REQUESTED
 *  DUMP=N     - RESTART FILE WRITTEN EVERY 7200.0 SECONDS REQUESTED
 *******************************************************************************
pm3  precise nosym THREADS=1
 InChI=1S/C9H12/c1-2-5-9-7-3-6-8(9)4-1/h1,4-5,8H,2-3,6-7H2

   ATOM   CHEMICAL          X               Y               Z
  NUMBER   SYMBOL      (ANGSTROMS)     (ANGSTROMS)     (ANGSTROMS)

     1       C         -0.08680000  *  -0.68740000  *  -0.55090000  *
     2       C         -1.44360000  *  -1.19240000  *  -0.06960000  *
     3       C         -2.34890000  *   0.04470000  *  -0.02150000  *
     4       C         -1.43610000  *   1.24720000  *   0.22290000  *
     5       C          2.38300000  *   0.68910000  *  -0.03940000  *
     6       C         -0.08070000  *   0.74170000  *  -0.11900000  *
     7       C          1.08970000  *  -1.43430000  *   0.03840000  *
     8       C          1.06190000  *   1.40100000  *   0.13460000  *
     9       C          2.24740000  *  -0.78780000  *   0.27010000  *
    10       H         -0.02990000  *  -0.72870000  *  -1.66070000  *
    11       H         -3.11470000  *  -0.04990000  *   0.77860000  *
    12       H         -2.86270000  *   0.16250000  *  -1.00120000  *
    13       H         -1.36110000  *  -1.61950000  *   0.95520000  *
    14       H         -1.85260000  *  -1.96560000  *  -0.75530000  *
    15       H         -1.46960000  *   1.54640000  *   1.29320000  *
    16       H         -1.71430000  *   2.10510000  *  -0.42620000  *
    17       H          2.71510000  *   0.80330000  *  -1.09280000  *
    18       H          3.14650000  *   1.14500000  *   0.62540000  *
    19       H          1.01810000  *  -2.50070000  *   0.23020000  *
    20       H          3.10030000  *  -1.33330000  *   0.66170000  *
    21       H          1.03880000  *   2.41360000  *   0.52630000  *



          CARTESIAN COORDINATES 

    NO.       ATOM           X           Y           Z

     1         C         -0.0868     -0.6874     -0.5509
     2         C         -1.4436     -1.1924     -0.0696
     3         C         -2.3489      0.0447     -0.0215
     4         C         -1.4361      1.2472      0.2229
     5         C          2.3830      0.6891     -0.0394
     6         C         -0.0807      0.7417     -0.1190
     7         C          1.0897     -1.4343      0.0384
     8         C          1.0619      1.4010      0.1346
     9         C          2.2474     -0.7878      0.2701
    10         H         -0.0299     -0.7287     -1.6607
    11         H         -3.1147     -0.0499      0.7786
    12         H         -2.8627      0.1625     -1.0012
    13         H         -1.3611     -1.6195      0.9552
    14         H         -1.8526     -1.9656     -0.7553
    15         H         -1.4696      1.5464      1.2932
    16         H         -1.7143      2.1051     -0.4262
    17         H          2.7151      0.8033     -1.0928
    18         H          3.1465      1.1450      0.6254
    19         H          1.0181     -2.5007      0.2302
    20         H          3.1003     -1.3333      0.6617
    21         H          1.0388      2.4136      0.5263

  H: (PM3): J. J. P. STEWART, J. COMP. CHEM. 10, 209 (1989).
  C: (PM3): J. J. P. STEWART, J. COMP. CHEM. 10, 209 (1989).

           Empirical Formula: C9 H12  =    21 atoms



      MOLECULAR POINT GROUP   :   C1  


      RHF CALCULATION, NO. OF DOUBLY OCCUPIED LEVELS = 24


          Geometry optimization using EF

          DIAGONAL MATRIX USED AS START HESSIAN

 CYCLE:     1 TIME:   0.008 TIME LEFT:  2.00D  GRAD.:    68.671 HEAT:  14.03170
 CYCLE:     2 TIME:   0.016 TIME LEFT:  2.00D  GRAD.:    60.905 HEAT:  13.05969
 CYCLE:     3 TIME:   0.008 TIME LEFT:  2.00D  GRAD.:    44.607 HEAT:  12.40599
 CYCLE:     4 TIME:   0.008 TIME LEFT:  2.00D  GRAD.:    40.604 HEAT:  12.24140
 CYCLE:     5 TIME:   0.008 TIME LEFT:  2.00D  GRAD.:    46.730 HEAT:  12.18940
 CYCLE:     6 TIME:   0.004 TIME LEFT:  2.00D  GRAD.:    47.547 HEAT:  12.12271
 CYCLE:     7 TIME:   0.008 TIME LEFT:  2.00D  GRAD.:    48.504 HEAT:  12.06971
 CYCLE:     8 TIME:   0.008 TIME LEFT:  2.00D  GRAD.:    48.542 HEAT:  12.02245
 CYCLE:     9 TIME:   0.008 TIME LEFT:  2.00D  GRAD.:    48.906 HEAT:  11.93487
 CYCLE:    10 TIME:   0.008 TIME LEFT:  2.00D  GRAD.:    14.588 HEAT:  11.39210
 CYCLE:    11 TIME:   0.012 TIME LEFT:  2.00D  GRAD.:    16.066 HEAT:  11.36463
 CYCLE:    12 TIME:   0.008 TIME LEFT:  2.00D  GRAD.:    15.045 HEAT:  11.32841
 CYCLE:    13 TIME:   0.004 TIME LEFT:  2.00D  GRAD.:    13.341 HEAT:  11.28499
 CYCLE:    14 TIME:   0.008 TIME LEFT:  2.00D  GRAD.:    14.770 HEAT:  11.26770
 CYCLE:    15 TIME:   0.008 TIME LEFT:  2.00D  GRAD.:    14.331 HEAT:  11.23631
 CYCLE:    16 TIME:   0.008 TIME LEFT:  2.00D  GRAD.:    13.337 HEAT:  11.20350
 CYCLE:    17 TIME:   0.004 TIME LEFT:  2.00D  GRAD.:    13.119 HEAT:  11.16933
 CYCLE:    18 TIME:   0.008 TIME LEFT:  2.00D  GRAD.:    15.001 HEAT:  11.15773
 CYCLE:    19 TIME:   0.008 TIME LEFT:  2.00D  GRAD.:     9.210 HEAT:  11.11406
 CYCLE:    20 TIME:   0.008 TIME LEFT:  2.00D  GRAD.:     9.593 HEAT:  11.09677
 CYCLE:    21 TIME:   0.008 TIME LEFT:  2.00D  GRAD.:     9.382 HEAT:  11.08230
 CYCLE:    22 TIME:   0.008 TIME LEFT:  2.00D  GRAD.:     9.580 HEAT:  11.06577
 CYCLE:    23 TIME:   0.008 TIME LEFT:  2.00D  GRAD.:     6.830 HEAT:  11.04697
 CYCLE:    24 TIME:   0.004 TIME LEFT:  2.00D  GRAD.:     6.789 HEAT:  11.03384
 CYCLE:    25 TIME:   0.008 TIME LEFT:  2.00D  GRAD.:     4.094 HEAT:  11.01900
 CYCLE:    26 TIME:   0.008 TIME LEFT:  2.00D  GRAD.:     4.772 HEAT:  11.00941
 CYCLE:    27 TIME:   0.008 TIME LEFT:  2.00D  GRAD.:     2.971 HEAT:  10.99751
 CYCLE:    28 TIME:   0.008 TIME LEFT:  2.00D  GRAD.:     3.541 HEAT:  10.98715
 CYCLE:    29 TIME:   0.008 TIME LEFT:  2.00D  GRAD.:     2.870 HEAT:  10.97673
 CYCLE:    30 TIME:   0.008 TIME LEFT:  2.00D  GRAD.:     3.561 HEAT:  10.96786
 CYCLE:    31 TIME:   0.008 TIME LEFT:  2.00D  GRAD.:     4.011 HEAT:  10.95733
 CYCLE:    32 TIME:   0.008 TIME LEFT:  2.00D  GRAD.:     5.022 HEAT:  10.94048
 CYCLE:    33 TIME:   0.008 TIME LEFT:  2.00D  GRAD.:     4.001 HEAT:  10.91666
 CYCLE:    34 TIME:   0.008 TIME LEFT:  2.00D  GRAD.:     3.615 HEAT:  10.89079
 CYCLE:    35 TIME:   0.008 TIME LEFT:  2.00D  GRAD.:     4.677 HEAT:  10.86947
 CYCLE:    36 TIME:   0.004 TIME LEFT:  2.00D  GRAD.:     4.381 HEAT:  10.84041
 CYCLE:    37 TIME:   0.008 TIME LEFT:  2.00D  GRAD.:     3.275 HEAT:  10.80944
 CYCLE:    38 TIME:   0.008 TIME LEFT:  2.00D  GRAD.:     2.544 HEAT:  10.79089
 CYCLE:    39 TIME:   0.008 TIME LEFT:  2.00D  GRAD.:     2.191 HEAT:  10.78109
 CYCLE:    40 TIME:   0.004 TIME LEFT:  2.00D  GRAD.:     2.047 HEAT:  10.77231
 CYCLE:    41 TIME:   0.008 TIME LEFT:  2.00D  GRAD.:     1.693 HEAT:  10.76569
 CYCLE:    42 TIME:   0.008 TIME LEFT:  2.00D  GRAD.:     1.592 HEAT:  10.75943
 CYCLE:    43 TIME:   0.004 TIME LEFT:  2.00D  GRAD.:     1.637 HEAT:  10.75368
 CYCLE:    44 TIME:   0.008 TIME LEFT:  2.00D  GRAD.:     1.305 HEAT:  10.74839
 CYCLE:    45 TIME:   0.008 TIME LEFT:  2.00D  GRAD.:     1.200 HEAT:  10.74397
 CYCLE:    46 TIME:   0.008 TIME LEFT:  2.00D  GRAD.:     1.147 HEAT:  10.74052
 CYCLE:    47 TIME:   0.008 TIME LEFT:  2.00D  GRAD.:     0.979 HEAT:  10.73782
 CYCLE:    48 TIME:   0.008 TIME LEFT:  2.00D  GRAD.:     0.818 HEAT:  10.73576
 CYCLE:    49 TIME:   0.004 TIME LEFT:  2.00D  GRAD.:     0.743 HEAT:  10.73438
 CYCLE:    50 TIME:   0.008 TIME LEFT:  2.00D  GRAD.:     0.607 HEAT:  10.73345
 CYCLE:    51 TIME:   0.008 TIME LEFT:  2.00D  GRAD.:     0.497 HEAT:  10.73277
 CYCLE:    52 TIME:   0.008 TIME LEFT:  2.00D  GRAD.:     0.435 HEAT:  10.73213
 CYCLE:    53 TIME:   0.008 TIME LEFT:  2.00D  GRAD.:     0.376 HEAT:  10.73171
 CYCLE:    54 TIME:   0.008 TIME LEFT:  2.00D  GRAD.:     0.352 HEAT:  10.73136
 CYCLE:    55 TIME:   0.008 TIME LEFT:  2.00D  GRAD.:     0.395 HEAT:  10.73100
 CYCLE:    56 TIME:   0.008 TIME LEFT:  2.00D  GRAD.:     0.454 HEAT:  10.73051
 CYCLE:    57 TIME:   0.008 TIME LEFT:  2.00D  GRAD.:     0.492 HEAT:  10.72995
 CYCLE:    58 TIME:   0.004 TIME LEFT:  2.00D  GRAD.:     0.487 HEAT:  10.72930
 CYCLE:    59 TIME:   0.008 TIME LEFT:  2.00D  GRAD.:     0.364 HEAT:  10.72895
 CYCLE:    60 TIME:   0.008 TIME LEFT:  2.00D  GRAD.:     0.422 HEAT:  10.72842
 CYCLE:    61 TIME:   0.008 TIME LEFT:  2.00D  GRAD.:     0.329 HEAT:  10.72822
 CYCLE:    62 TIME:   0.008 TIME LEFT:  2.00D  GRAD.:     0.304 HEAT:  10.72776
 CYCLE:    63 TIME:   0.004 TIME LEFT:  2.00D  GRAD.:     0.249 HEAT:  10.72762
 CYCLE:    64 TIME:   0.008 TIME LEFT:  2.00D  GRAD.:     0.269 HEAT:  10.72740
 CYCLE:    65 TIME:   0.008 TIME LEFT:  2.00D  GRAD.:     0.251 HEAT:  10.72729
 CYCLE:    66 TIME:   0.008 TIME LEFT:  2.00D  GRAD.:     0.292 HEAT:  10.72700
 CYCLE:    67 TIME:   0.008 TIME LEFT:  2.00D  GRAD.:     0.271 HEAT:  10.72683
 CYCLE:    68 TIME:   0.004 TIME LEFT:  2.00D  GRAD.:     0.388 HEAT:  10.72663
 CYCLE:    69 TIME:   0.008 TIME LEFT:  2.00D  GRAD.:     0.194 HEAT:  10.72641
 CYCLE:    70 TIME:   0.008 TIME LEFT:  2.00D  GRAD.:     0.173 HEAT:  10.72631
 CYCLE:    71 TIME:   0.008 TIME LEFT:  2.00D  GRAD.:     0.206 HEAT:  10.72621
 CYCLE:    72 TIME:   0.004 TIME LEFT:  2.00D  GRAD.:     0.102 HEAT:  10.72612
 CYCLE:    73 TIME:   0.012 TIME LEFT:  2.00D  GRAD.:     0.086 HEAT:  10.72607
 CYCLE:    74 TIME:   0.004 TIME LEFT:  2.00D  GRAD.:     0.064 HEAT:  10.72606
 CYCLE:    75 TIME:   0.008 TIME LEFT:  2.00D  GRAD.:     0.034 HEAT:  10.72605

     GRADIENT =  0.03375 IS LESS THAN CUTOFF =  0.05000



 -------------------------------------------------------------------------------
 pm3  precise nosym THREADS=1
 InChI=1S/C9H12/c1-2-5-9-7-3-6-8(9)4-1/h1,4-5,8H,2-3,6-7H2



     GEOMETRY OPTIMISED USING EIGENVECTOR FOLLOWING (EF).     
     SCF FIELD WAS ACHIEVED                                   


                              PM3 CALCULATION
                                                       MOPAC v23.1.2 MacOS
                                                       Tue Jun  3 16:30:19 2025




          FINAL HEAT OF FORMATION =         10.72605 KCAL/MOL =      44.87780 KJ/MOL


          COSMO AREA              =        164.50 SQUARE ANGSTROMS
          COSMO VOLUME            =        164.15 CUBIC ANGSTROMS

          GRADIENT NORM           =          0.03375          =       0.00737 PER ATOM
          IONIZATION POTENTIAL    =          9.220915 EV
          HOMO LUMO ENERGIES (EV) =         -9.221  1.023
          NO. OF FILLED LEVELS    =         24
          MOLECULAR WEIGHT        =        120.1938         POINT GROUP:  C1  

          MOLECULAR DIMENSIONS (Angstroms)

            Atom       Atom       Distance
            H    20    H    12     6.47407
            H    21    H    14     5.02434
            H    17    H    11     3.23579


          SCF CALCULATIONS        =         80

          WALL-CLOCK TIME         =      0.566 SECONDS
          COMPUTATION TIME        =      0.336 SECONDS




   ATOM   CHEMICAL          X               Y               Z
  NUMBER   SYMBOL      (ANGSTROMS)     (ANGSTROMS)     (ANGSTROMS)

     1       C         -0.09755486  *  -0.67992108  *  -0.54017957  *
     2       C         -1.44214223  *  -1.20132478  *  -0.02324881  *
     3       C         -2.35495186  *   0.02481219  *   0.06339317  *
     4       C         -1.45119506  *   1.26372108  *   0.08443505  *
     5       C          2.38364937  *   0.68182282  *   0.07806012  *
     6       C         -0.06238459  *   0.75435161  *  -0.09972661  *
     7       C          1.09753796  *  -1.43123149  *  -0.06493117  *
     8       C          1.07773327  *   1.39250286  *   0.17149389  *
     9       C          2.24342723  *  -0.79792585  *   0.19754178  *
    10       H         -0.08386613  *  -0.70791647  *  -1.65846111  *
    11       H         -3.00004723  *  -0.01960470  *   0.95907040  *
    12       H         -3.04571593  *   0.06062668  *  -0.79927973  *
    13       H         -1.32055494  *  -1.67708295  *   0.96800028  *
    14       H         -1.86065631  *  -1.98205229  *  -0.68281417  *
    15       H         -1.54384768  *   1.82470554  *   1.03288580  *
    16       H         -1.71547242  *   1.97748155  *  -0.71819459  *
    17       H          2.87037940  *   0.92446912  *  -0.88919420  *
    18       H          3.06558384  *   1.05625454  *   0.86673581  *
    19       H          0.99445809  *  -2.51589220  *   0.03994917  *
    20       H          3.13476747  *  -1.34862760  *   0.51570210  *
    21       H          1.09049837  *   2.43759459  *   0.49572710  *

                             CARTESIAN COORDINATES

   1    C       -0.097554861    -0.679921076    -0.540179574
   2    C       -1.442142226    -1.201324777    -0.023248815
   3    C       -2.354951865     0.024812187     0.063393172
   4    C       -1.451195061     1.263721081     0.084435047
   5    C        2.383649368     0.681822815     0.078060116
   6    C       -0.062384592     0.754351609    -0.099726607
   7    C        1.097537962    -1.431231491    -0.064931168
   8    C        1.077733274     1.392502861     0.171493890
   9    C        2.243427234    -0.797925854     0.197541783
  10    H       -0.083866129    -0.707916471    -1.658461106
  11    H       -3.000047230    -0.019604704     0.959070396
  12    H       -3.045715928     0.060626685    -0.799279733
  13    H       -1.320554938    -1.677082948     0.968000279
  14    H       -1.860656305    -1.982052294    -0.682814168
  15    H       -1.543847683     1.824705541     1.032885799
  16    H       -1.715472418     1.977481548    -0.718194590
  17    H        2.870379401     0.924469119    -0.889194195
  18    H        3.065583839     1.056254541     0.866735812
  19    H        0.994458093    -2.515892197     0.039949165
  20    H        3.134767475    -1.348627603     0.515702098
  21    H        1.090498375     2.437594594     0.495727105


           Empirical Formula: C9 H12  =    21 atoms



      MOLECULAR POINT GROUP   :   C1  


                  EIGENVALUES  
 -41.71172 -35.41254 -31.13866 -27.65700 -26.33698 -21.76942 -20.41528 -19.90752
 -17.19331 -16.92210 -16.09888 -15.64037 -14.87822 -14.47266 -14.05217 -13.88840
 -13.16094 -12.76388 -12.68918 -12.37508 -11.63347 -11.30453 -10.02279  -9.22091
   1.02350   1.19488   3.33380   3.41588   3.51278   3.61986   3.69432   3.72406
   3.77928   4.00326   4.11836   4.17081   4.25016   4.31776   4.50192   4.70461
   4.78337   4.87433   5.08500   5.10164   5.47831   5.55603   6.04900   6.23646


              NET ATOMIC CHARGES AND DIPOLE CONTRIBUTIONS

  ATOM NO.   TYPE          CHARGE      No. of ELECS.   s-Pop       p-Pop       
    1          C          -0.004709        4.0047     1.15259     2.85212
    2          C          -0.090607        4.0906     1.16451     2.92609
    3          C          -0.094721        4.0947     1.16441     2.93031
    4          C          -0.047592        4.0476     1.14766     2.89993
    5          C          -0.016614        4.0166     1.13216     2.88445
    6          C          -0.122582        4.1226     1.20265     2.91993
    7          C          -0.140519        4.1405     1.19401     2.94651
    8          C          -0.152017        4.1520     1.18883     2.96319
    9          C          -0.147398        4.1474     1.19509     2.95231
   10          H           0.077004        0.9230     0.92300
   11          H           0.050046        0.9500     0.94995
   12          H           0.047319        0.9527     0.95268
   13          H           0.054926        0.9451     0.94507
   14          H           0.050015        0.9500     0.94998
   15          H           0.056257        0.9437     0.94374
   16          H           0.056464        0.9435     0.94354
   17          H           0.062292        0.9377     0.93771
   18          H           0.055337        0.9447     0.94466
   19          H           0.103525        0.8965     0.89647
   20          H           0.098909        0.9011     0.90109
   21          H           0.104667        0.8953     0.89533
 DIPOLE           X         Y         Z       TOTAL
 POINT-CHG.    -0.153     0.003    -0.105     0.186
 HYBRID         0.018     0.003     0.030     0.035
 SUM           -0.135     0.005    -0.075     0.155


          ATOMIC ORBITAL ELECTRON POPULATIONS

     Atom    s        px        py        pz   
    1  C   1.15259   0.93398   0.92501   0.99313
    2  C   1.16451   0.94726   0.96627   1.01257
    3  C   1.16441   0.96893   0.94674   1.01465
    4  C   1.14766   0.92467   0.96448   1.01078
    5  C   1.13216   0.95177   0.92720   1.00549
    6  C   1.20265   0.95389   0.96251   1.00353
    7  C   1.19401   0.95258   0.98430   1.00964
    8  C   1.18883   0.94584   0.98831   1.02904
    9  C   1.19509   0.97653   0.96352   1.01226
   10  H   0.92300
   11  H   0.94995
   12  H   0.95268
   13  H   0.94507
   14  H   0.94998
   15  H   0.94374
   16  H   0.94354
   17  H   0.93771
   18  H   0.94466
   19  H   0.89647
   20  H   0.90109
   21  H   0.89533
 *******************************************************************************
 **                                                                           **
 **                              MOPAC v23.1.2                                **
 **                                                                           **
 *******************************************************************************
 **          Digital Object Identifier (DOI): 10.5281/zenodo.6511958          **
 **    Visit the DOI location for information on how to cite this program.    **
 *******************************************************************************

                              PM3 CALCULATION RESULTS

 *******************************************************************************
 *  CALCULATION DONE: (MAX THREADS = 1)              Tue Jun  3 16:30:19 2025  *
 *  PM3        - The PM3 Hamiltonian to be used
 *  OLDGEO     - PREVIOUS GEOMETRY TO BE USED
 *  PRECISE    - TIGHTER CRITERIA TO BE USED
 *  NOSYM      - POINT-GROUP SYMMETRY SET TO C1
 *  THREADS=1  - MULTI-THREADING NOT USED
 *  T=         - A TIME OF 172800.0 SECONDS REQUESTED
 *  DUMP=N     - RESTART FILE WRITTEN EVERY 7200.0 SECONDS REQUESTED
 *  THERMO     - THERMODYNAMIC QUANTITIES TO BE CALCULATED
 *******************************************************************************
oldgeo thermo nosym precise THREADS=1  pm3
 InChI=1S/C9H12/c1-2-5-9-7-3-6-8(9)4-1/h1,4-5,8H,2-3,6-7H2

   ATOM   CHEMICAL          X               Y               Z
  NUMBER   SYMBOL      (ANGSTROMS)     (ANGSTROMS)     (ANGSTROMS)

     1       C         -0.09755486  *  -0.67992108  *  -0.54017957  *
     2       C         -1.44214223  *  -1.20132478  *  -0.02324881  *
     3       C         -2.35495186  *   0.02481219  *   0.06339317  *
     4       C         -1.45119506  *   1.26372108  *   0.08443505  *
     5       C          2.38364937  *   0.68182282  *   0.07806012  *
     6       C         -0.06238459  *   0.75435161  *  -0.09972661  *
     7       C          1.09753796  *  -1.43123149  *  -0.06493117  *
     8       C          1.07773327  *   1.39250286  *   0.17149389  *
     9       C          2.24342723  *  -0.79792585  *   0.19754178  *
    10       H         -0.08386613  *  -0.70791647  *  -1.65846111  *
    11       H         -3.00004723  *  -0.01960470  *   0.95907040  *
    12       H         -3.04571593  *   0.06062668  *  -0.79927973  *
    13       H         -1.32055494  *  -1.67708295  *   0.96800028  *
    14       H         -1.86065631  *  -1.98205229  *  -0.68281417  *
    15       H         -1.54384768  *   1.82470554  *   1.03288580  *
    16       H         -1.71547242  *   1.97748155  *  -0.71819459  *
    17       H          2.87037940  *   0.92446912  *  -0.88919420  *
    18       H          3.06558384  *   1.05625454  *   0.86673581  *
    19       H          0.99445809  *  -2.51589220  *   0.03994917  *
    20       H          3.13476747  *  -1.34862760  *   0.51570210  *
    21       H          1.09049837  *   2.43759459  *   0.49572710  *



          CARTESIAN COORDINATES 

    NO.       ATOM           X           Y           Z

     1         C         -0.0976     -0.6799     -0.5402
     2         C         -1.4421     -1.2013     -0.0232
     3         C         -2.3550      0.0248      0.0634
     4         C         -1.4512      1.2637      0.0844
     5         C          2.3836      0.6818      0.0781
     6         C         -0.0624      0.7544     -0.0997
     7         C          1.0975     -1.4312     -0.0649
     8         C          1.0777      1.3925      0.1715
     9         C          2.2434     -0.7979      0.1975
    10         H         -0.0839     -0.7079     -1.6585
    11         H         -3.0000     -0.0196      0.9591
    12         H         -3.0457      0.0606     -0.7993
    13         H         -1.3206     -1.6771      0.9680
    14         H         -1.8607     -1.9821     -0.6828
    15         H         -1.5438      1.8247      1.0329
    16         H         -1.7155      1.9775     -0.7182
    17         H          2.8704      0.9245     -0.8892
    18         H          3.0656      1.0563      0.8667
    19         H          0.9945     -2.5159      0.0399
    20         H          3.1348     -1.3486      0.5157
    21         H          1.0905      2.4376      0.4957

  H: (PM3): J. J. P. STEWART, J. COMP. CHEM. 10, 209 (1989).
  C: (PM3): J. J. P. STEWART, J. COMP. CHEM. 10, 209 (1989).

           Empirical Formula: C9 H12  =    21 atoms



      MOLECULAR POINT GROUP   :   C1  


      RHF CALCULATION, NO. OF DOUBLY OCCUPIED LEVELS = 24



          HEAT OF FORMATION =      10.726053 KCALS/MOLE


          CARTESIAN COORDINATE DERIVATIVES

   NUMBER  ATOM         X            Y            Z

     1       C      0.003279     0.000200    -0.002595
     2       C      0.005211     0.000716     0.000443
     3       C      0.004651    -0.000250     0.001153
     4       C      0.001148    -0.001795     0.001716
     5       C      0.001604    -0.000877    -0.005118
     6       C      0.000980    -0.002600    -0.006248
     7       C     -0.003566     0.000536     0.001119
     8       C     -0.001549    -0.000089     0.006473
     9       C     -0.001736     0.000221     0.000930
    10       H      0.003791    -0.003021     0.001519
    11       H     -0.007681     0.005304     0.001071
    12       H      0.001352     0.000923     0.001684
    13       H     -0.003123     0.001478     0.002123
    14       H      0.001678     0.000523    -0.001522
    15       H      0.012260     0.000600    -0.001513
    16       H     -0.000348     0.001843    -0.000219
    17       H     -0.000904    -0.003162     0.001460
    18       H     -0.001953     0.009525    -0.003325
    19       H     -0.013772    -0.004308     0.000636
    20       H      0.010242    -0.002865     0.003048
    21       H     -0.011564    -0.002899    -0.002837



          GRADIENT NORM =   0.03335

          MOLECULAR WEIGHT =  120.19



          ROTATIONAL CONSTANTS IN CM(-1)

          A =    0.10899403   B =    0.04892838   C =    0.03564490



           PRINCIPAL MOMENTS OF INERTIA IN UNITS OF 10**(-40)*GRAM-CM**2

          A =      256.8283   B =      572.1169   C =      785.3228


          ORIENTATION OF MOLECULE IN FORCE CALCULATION

    NO.       ATOM         X         Y         Z

     1          C       0.2511   -0.5283    0.6714
     2          C       1.7831   -0.5283    0.6714
     3          C       2.1961    0.9460    0.6714
     4          C       0.9884    1.7564    0.1850
     5          C      -2.1815   -0.2141   -0.8703
     6          C      -0.1193    0.7724    0.0208
     7          C      -0.3818   -1.6879   -0.0167
     8          C      -1.2457    0.9288   -0.6774
     9          C      -1.5145   -1.5378   -0.7078
    10          H      -0.1288   -0.5194    1.7236
    11          H       3.0796    1.1135    0.0298
    12          H       2.4991    1.2679    1.6849
    13          H       2.1727   -1.0502   -0.2227
    14          H       2.1935   -1.0723    1.5405
    15          H       1.1988    2.2771   -0.7676
    16          H       0.7066    2.5455    0.9072
    17          H      -3.0176   -0.1362   -0.1450
    18          H      -2.6413   -0.1497   -1.8761
    19          H       0.1132   -2.6587    0.0863
    20          H      -2.0020   -2.3924   -1.1884
    21          H      -1.5032    1.8813   -1.1507


    FIRST DERIVATIVES WILL BE USED IN THE CALCULATION OF SECOND DERIVATIVES

          ESTIMATED TIME TO COMPLETE CALCULATION =        1.97 SECONDS

    FOR POINT-GROUP C1   THERE ARE   1 UNIQUE SYMMETRY FUNCTIONS.

 STEP:   1 TIME =     0.02 SECS, INTEGRAL =      0.02 TIME LEFT: 172799.97
 STEP:   2 TIME =     0.02 SECS, INTEGRAL =      0.04 TIME LEFT: 172799.95
 STEP:   3 TIME =     0.02 SECS, INTEGRAL =      0.06 TIME LEFT: 172799.93
 STEP:   4 TIME =     0.02 SECS, INTEGRAL =      0.08 TIME LEFT: 172799.91
 STEP:   5 TIME =     0.02 SECS, INTEGRAL =      0.10 TIME LEFT: 172799.89
 STEP:   6 TIME =     0.02 SECS, INTEGRAL =      0.12 TIME LEFT: 172799.88
 STEP:   7 TIME =     0.02 SECS, INTEGRAL =      0.14 TIME LEFT: 172799.86
 STEP:   8 TIME =     0.02 SECS, INTEGRAL =      0.16 TIME LEFT: 172799.84
 STEP:   9 TIME =     0.02 SECS, INTEGRAL =      0.18 TIME LEFT: 172799.82
 STEP:  10 TIME =     0.02 SECS, INTEGRAL =      0.19 TIME LEFT: 172799.80
 STEP:  11 TIME =     0.02 SECS, INTEGRAL =      0.21 TIME LEFT: 172799.79
 STEP:  12 TIME =     0.02 SECS, INTEGRAL =      0.23 TIME LEFT: 172799.77
 STEP:  13 TIME =     0.02 SECS, INTEGRAL =      0.24 TIME LEFT: 172799.75
 STEP:  14 TIME =     0.02 SECS, INTEGRAL =      0.26 TIME LEFT: 172799.73
 STEP:  15 TIME =     0.02 SECS, INTEGRAL =      0.28 TIME LEFT: 172799.71
 STEP:  16 TIME =     0.02 SECS, INTEGRAL =      0.30 TIME LEFT: 172799.69
 STEP:  17 TIME =     0.02 SECS, INTEGRAL =      0.32 TIME LEFT: 172799.67
 STEP:  18 TIME =     0.02 SECS, INTEGRAL =      0.34 TIME LEFT: 172799.65
 STEP:  19 TIME =     0.02 SECS, INTEGRAL =      0.36 TIME LEFT: 172799.63
 STEP:  20 TIME =     0.02 SECS, INTEGRAL =      0.38 TIME LEFT: 172799.61
 STEP:  21 TIME =     0.02 SECS, INTEGRAL =      0.40 TIME LEFT: 172799.59
 STEP:  22 TIME =     0.02 SECS, INTEGRAL =      0.42 TIME LEFT: 172799.57
 STEP:  23 TIME =     0.02 SECS, INTEGRAL =      0.43 TIME LEFT: 172799.56
 STEP:  24 TIME =     0.02 SECS, INTEGRAL =      0.45 TIME LEFT: 172799.54
 STEP:  25 TIME =     0.02 SECS, INTEGRAL =      0.47 TIME LEFT: 172799.52
 STEP:  26 TIME =     0.02 SECS, INTEGRAL =      0.49 TIME LEFT: 172799.50
 STEP:  27 TIME =     0.02 SECS, INTEGRAL =      0.51 TIME LEFT: 172799.48
 STEP:  28 TIME =     0.02 SECS, INTEGRAL =      0.53 TIME LEFT: 172799.46
 STEP:  29 TIME =     0.02 SECS, INTEGRAL =      0.55 TIME LEFT: 172799.44
 STEP:  30 TIME =     0.02 SECS, INTEGRAL =      0.57 TIME LEFT: 172799.42
 STEP:  31 TIME =     0.02 SECS, INTEGRAL =      0.59 TIME LEFT: 172799.40
 STEP:  32 TIME =     0.02 SECS, INTEGRAL =      0.61 TIME LEFT: 172799.38
 STEP:  33 TIME =     0.02 SECS, INTEGRAL =      0.63 TIME LEFT: 172799.36
 STEP:  34 TIME =     0.02 SECS, INTEGRAL =      0.65 TIME LEFT: 172799.34
 STEP:  35 TIME =     0.02 SECS, INTEGRAL =      0.67 TIME LEFT: 172799.32
 STEP:  36 TIME =     0.02 SECS, INTEGRAL =      0.69 TIME LEFT: 172799.30
 STEP:  37 TIME =     0.02 SECS, INTEGRAL =      0.71 TIME LEFT: 172799.29
 STEP:  38 TIME =     0.02 SECS, INTEGRAL =      0.73 TIME LEFT: 172799.27
 STEP:  39 TIME =     0.02 SECS, INTEGRAL =      0.75 TIME LEFT: 172799.25
 STEP:  40 TIME =     0.02 SECS, INTEGRAL =      0.76 TIME LEFT: 172799.23
 STEP:  41 TIME =     0.02 SECS, INTEGRAL =      0.78 TIME LEFT: 172799.21
 STEP:  42 TIME =     0.02 SECS, INTEGRAL =      0.80 TIME LEFT: 172799.19
 STEP:  43 TIME =     0.02 SECS, INTEGRAL =      0.82 TIME LEFT: 172799.17
 STEP:  44 TIME =     0.02 SECS, INTEGRAL =      0.84 TIME LEFT: 172799.15
 STEP:  45 TIME =     0.02 SECS, INTEGRAL =      0.86 TIME LEFT: 172799.13
 STEP:  46 TIME =     0.02 SECS, INTEGRAL =      0.88 TIME LEFT: 172799.11
 STEP:  47 TIME =     0.02 SECS, INTEGRAL =      0.90 TIME LEFT: 172799.09
 STEP:  48 TIME =     0.02 SECS, INTEGRAL =      0.92 TIME LEFT: 172799.07
 STEP:  49 TIME =     0.02 SECS, INTEGRAL =      0.94 TIME LEFT: 172799.05
 STEP:  50 TIME =     0.02 SECS, INTEGRAL =      0.96 TIME LEFT: 172799.04
 STEP:  51 TIME =     0.02 SECS, INTEGRAL =      0.98 TIME LEFT: 172799.02
 STEP:  52 TIME =     0.02 SECS, INTEGRAL =      1.00 TIME LEFT: 172799.00
 STEP:  53 TIME =     0.02 SECS, INTEGRAL =      1.02 TIME LEFT: 172798.98
 STEP:  54 TIME =     0.02 SECS, INTEGRAL =      1.04 TIME LEFT: 172798.96
 STEP:  55 TIME =     0.02 SECS, INTEGRAL =      1.05 TIME LEFT: 172798.94
 STEP:  56 TIME =     0.02 SECS, INTEGRAL =      1.07 TIME LEFT: 172798.92
 STEP:  57 TIME =     0.02 SECS, INTEGRAL =      1.09 TIME LEFT: 172798.90
 STEP:  58 TIME =     0.02 SECS, INTEGRAL =      1.11 TIME LEFT: 172798.88
 STEP:  59 TIME =     0.02 SECS, INTEGRAL =      1.13 TIME LEFT: 172798.86
 STEP:  60 TIME =     0.02 SECS, INTEGRAL =      1.15 TIME LEFT: 172798.84
 STEP:  61 TIME =     0.02 SECS, INTEGRAL =      1.17 TIME LEFT: 172798.82
 STEP:  62 TIME =     0.02 SECS, INTEGRAL =      1.19 TIME LEFT: 172798.80
 STEP:  63 TIME =     0.02 SECS, INTEGRAL =      1.21 TIME LEFT: 172798.78

(To convert to Hartree/Bohr^2, multiply by (10^(-21) x N x a0^2)/(4.184 x 627.51) =  0.0642)


           FORCE MATRIX IN MILLIDYNES/ANGSTROM


                  C  1       C  2       C  3       C  4       C  5       C  6
 ------------------------------------------------------------------------------
     C    1  15.282854
     C    2   3.805423  14.347225
     C    3   0.780305   3.895382  14.280952
     C    4   0.759660   0.728161   3.827432  14.669640
     C    5   0.199308   0.011300   0.009111   0.128345  14.971586
     C    6   4.452916   0.885251   0.866314   4.808334   0.907089  19.222684
     C    7   4.858796   0.581653   0.045749   0.046046   0.854434   0.737930
     C    8   0.794035   0.047841   0.050596   0.690927   4.868221  10.520244
     C    9   0.890529   0.048025   0.008355   0.005074   4.823415   0.089713
     H   10   4.150445   0.433584   0.012882   0.015757   0.016973   0.410093
     H   11   0.038905   0.439755   4.568717   0.439832   0.001240   0.030411
     H   12   0.014308   0.442681   4.536015   0.439534   0.000763   0.025607
     H   13   0.454693   4.524434   0.442297   0.013901   0.000955   0.011157
     H   14   0.437406   4.572897   0.438640   0.037540   0.001530   0.045444
     H   15   0.034232   0.021796   0.437653   4.520801   0.010023   0.441231
     H   16   0.019978   0.029772   0.441333   4.503894   0.016238   0.428880
     H   17   0.018710   0.002674   0.001234   0.018456   4.364464   0.027330
     H   18   0.013488   0.001479   0.001683   0.014069   4.455130   0.046473
     H   19   0.434512   0.020376   0.002196   0.006100   0.123008   0.041357
     H   20   0.121614   0.012503   0.001981   0.001636   0.428305   0.005764
     H   21   0.114753   0.012146   0.003405   0.070606   0.428971   0.462222


                  C  7       C  8       C  9       H 10       H 11       H 12
 ------------------------------------------------------------------------------
     C    7  18.209542
     C    8   0.075751  18.231695
     C    9  10.604380   0.745312  18.099598
     H   10   0.394982   0.026701   0.030967   4.602623
     H   11   0.005512   0.004393   0.001552   0.001121   5.176802
     H   12   0.002633   0.003548   0.000633   0.001386   0.586153   5.139825
     H   13   0.034352   0.001338   0.003473   0.040007   0.030943   0.037705
     H   14   0.015763   0.006740   0.002021   0.032696   0.018012   0.030959
     H   15   0.005844   0.021684   0.001062   0.001325   0.029053   0.029781
     H   16   0.001513   0.023123   0.000850   0.002170   0.024852   0.027743
     H   17   0.029011   0.419458   0.419729   0.006222   0.000141   0.000172
     H   18   0.046224   0.425744   0.428297   0.002343   0.000306   0.000209
     H   19   4.857526   0.005788   0.447214   0.012817   0.000406   0.000449
     H   20   0.445243   0.042570   4.847546   0.016095   0.000376   0.000224
     H   21   0.008387   4.866591   0.042547   0.015422   0.000496   0.000413


                  H 13       H 14       H 15       H 16       H 17       H 18
 ------------------------------------------------------------------------------
     H   13   5.135556
     H   14   0.577852   5.188965
     H   15   0.000984   0.002821   5.120657
     H   16   0.001114   0.002806   0.574503   5.104131
     H   17   0.000410   0.000294   0.001666   0.002685   4.956802
     H   18   0.000279   0.000174   0.001011   0.001734   0.565303   5.030840
     H   19   0.013891   0.002629   0.000971   0.000348   0.017630   0.013135
     H   20   0.000731   0.000543   0.000181   0.000138   0.014111   0.036410
     H   21   0.000441   0.001720   0.009742   0.009839   0.012642   0.035816


                  H 19       H 20       H 21
 ------------------------------------------
     H   19   5.237493
     H   20   0.068794   5.221739
     H   21   0.001784   0.005770   5.245775


          HEAT OF FORMATION =      10.726053 KCALS/MOLE

          ZERO POINT ENERGY     115.552 KCAL/MOL


           NORMAL COORDINATE ANALYSIS (Total motion = 1 Angstrom)


   Root No.       1         2         3         4         5         6         7         8

                 1 A       2 A       3 A       4 A       5 A       6 A       7 A       8 A   

                  76.1     108.4     216.9     278.4     371.0     429.9     510.4     522.5
  
           1    0.0029   -0.0100   -0.0027   -0.0214    0.0118    0.0155   -0.0260    0.0049
           2   -0.0022    0.0004    0.0000    0.0142   -0.0334   -0.0129   -0.0206   -0.0088
           3   -0.0131    0.0054    0.0211    0.0333    0.0280   -0.0134   -0.0284    0.0042
           4    0.0023   -0.0103   -0.0023   -0.0210    0.0192    0.0197   -0.0349   -0.0071
           5    0.0023   -0.0007   -0.0031   -0.0069    0.0131    0.0033    0.0103   -0.0297
           6    0.0084    0.0540   -0.0020   -0.0269    0.0040    0.0064   -0.0064   -0.0022
           7   -0.0104    0.0082   -0.0001   -0.0047   -0.0100   -0.0017   -0.0194   -0.0472
           8    0.0053   -0.0058   -0.0048   -0.0138    0.0261    0.0145    0.0130   -0.0233
           9    0.0461   -0.0324   -0.0104   -0.0050   -0.0103    0.0020   -0.0099   -0.0102
          10    0.0160    0.0012    0.0084    0.0024   -0.0235   -0.0102    0.0037   -0.0414
          11   -0.0084   -0.0037   -0.0095    0.0005   -0.0087   -0.0041    0.0338   -0.0193
          12   -0.0419   -0.0089   -0.0376   -0.0005   -0.0137   -0.0025   -0.0062   -0.0125
          13   -0.0150   -0.0078    0.0103    0.0045   -0.0045   -0.0030    0.0588    0.0262
          14    0.0012    0.0001   -0.0016   -0.0063    0.0251    0.0102    0.0049    0.0318
          15    0.0346    0.0206   -0.0320    0.0203   -0.0043    0.0039    0.0191    0.0098
          16    0.0062   -0.0022   -0.0136   -0.0103   -0.0044    0.0178    0.0140   -0.0139
          17   -0.0020    0.0003    0.0026    0.0111   -0.0323   -0.0244    0.0185   -0.0204
          18   -0.0160    0.0011    0.0331    0.0155    0.0406   -0.0385    0.0206   -0.0263
          19    0.0101    0.0146   -0.0005   -0.0002   -0.0121   -0.0338   -0.0102    0.0518
          20    0.0005    0.0045    0.0036    0.0077   -0.0056   -0.0192   -0.0558   -0.0159
          21   -0.0248   -0.0268    0.0134    0.0242   -0.0088    0.0408   -0.0045    0.0086
          22   -0.0071   -0.0069   -0.0254    0.0102    0.0338   -0.0088    0.0281   -0.0072
          23    0.0003    0.0019    0.0116   -0.0032   -0.0137    0.0084    0.0266    0.0479
          24    0.0056    0.0084    0.0539   -0.0210   -0.0142    0.0137    0.0132   -0.0146
          25   -0.0024    0.0131    0.0199    0.0354   -0.0134    0.0138   -0.0059    0.0419
          26    0.0022    0.0045    0.0051    0.0025    0.0203    0.0127   -0.0340    0.0365
          27   -0.0044   -0.0248   -0.0190   -0.0335   -0.0058   -0.0341   -0.0031    0.0412
          28   -0.0105   -0.0450    0.0103   -0.0009    0.0306    0.0234   -0.0513   -0.0042
          29   -0.0052   -0.0092   -0.0078    0.0214   -0.0750    0.0384   -0.0424    0.0139
          30   -0.0178   -0.0073    0.0255    0.0390    0.0341   -0.0098   -0.0364    0.0007
          31    0.0385   -0.0224    0.0121    0.0009   -0.0148   -0.0029   -0.0178   -0.0445
          32    0.0190   -0.0499   -0.0110   -0.0131    0.0396    0.0264   -0.0075   -0.0069
          33    0.1175   -0.0867    0.0049    0.0032   -0.0134    0.0036   -0.0132   -0.0005
          34   -0.0955    0.0682   -0.0196   -0.0092   -0.0159   -0.0094   -0.0105   -0.0702
          35    0.0025    0.0365    0.0042   -0.0316    0.0430    0.0238    0.0076   -0.0216
          36    0.0727   -0.0639   -0.0073    0.0020   -0.0140    0.0014   -0.0111   -0.0041
          37    0.0171    0.0186   -0.0176   -0.0707    0.0182    0.0442   -0.0170   -0.0066
          38    0.0250   -0.0668   -0.0044    0.0188    0.0195   -0.0027    0.0041   -0.0354
          39    0.0016    0.1052   -0.0080   -0.0645    0.0003    0.0219    0.0054    0.0005
          40   -0.0060   -0.0436    0.0109    0.0119    0.0523    0.0122   -0.0452   -0.0008
          41   -0.0141    0.0571   -0.0031   -0.0426    0.0329    0.0235    0.0244   -0.0231
          42    0.0019    0.1063   -0.0083   -0.0655    0.0004    0.0227    0.0072   -0.0006
          43    0.0527   -0.0128    0.0032    0.0014   -0.0539   -0.0073   -0.0044   -0.0404
          44   -0.0774    0.0054   -0.0843   -0.0099   -0.0493    0.0357    0.0011    0.0063
          45   -0.0718   -0.0070   -0.0804   -0.0064   -0.0437    0.0204   -0.0273    0.0019
          46    0.0079    0.0111    0.0437    0.0195   -0.0232   -0.0525    0.0230   -0.0656
          47    0.0458   -0.0101    0.0506    0.0096    0.0211   -0.0380    0.0638   -0.0412
          48   -0.1047    0.0023   -0.0904   -0.0041   -0.0465    0.0191   -0.0319    0.0029
          49    0.0168    0.0190   -0.0505    0.0629    0.0102    0.0261    0.0799    0.0130
          50   -0.0071   -0.0202   -0.0388   -0.0294    0.0503   -0.0282    0.0089    0.0421
          51    0.0723    0.0538   -0.0990    0.0910    0.0099    0.0430    0.0440   -0.0074
          52   -0.0593   -0.0462    0.0914   -0.0790   -0.0207   -0.0470    0.0379    0.0457
          53    0.0090    0.0143    0.0162    0.0044    0.0321    0.0418    0.0234   -0.0130
          54    0.0556    0.0394   -0.0688    0.0604    0.0039    0.0268    0.0309   -0.0021
          55    0.0240    0.0334   -0.0087    0.0094   -0.0293   -0.0973   -0.0318    0.0621
          56    0.0050    0.0111    0.0008    0.0136   -0.0174   -0.0433   -0.0604   -0.0141
          57   -0.0510   -0.0550    0.0282    0.0355   -0.0375    0.1153    0.0507   -0.0277
          58   -0.0019    0.0293    0.0378    0.0836   -0.0202    0.0331   -0.0710    0.0223
          59    0.0078    0.0119    0.0039    0.0114    0.0303    0.0277   -0.0105    0.0445
          60   -0.0145   -0.0538   -0.0357   -0.0970   -0.0173   -0.0806    0.0217    0.0469
          61   -0.0126   -0.0083   -0.0409    0.0317    0.1058   -0.0340    0.0103   -0.0037
          62   -0.0021    0.0003    0.0277   -0.0225   -0.0173    0.0320    0.0276    0.0623
          63    0.0040    0.0062    0.0941   -0.0707   -0.0611    0.0753    0.0258    0.0136


   Root No.       9        10        11        12        13        14        15        16

                 9 A      10 A      11 A      12 A      13 A      14 A      15 A      16 A   

                 615.7     658.3     749.3     776.6     787.6     840.7     865.8     930.3
  
           1   -0.0241    0.0212    0.0025    0.0098    0.0011   -0.0045    0.0098    0.0029
           2   -0.0070    0.0073    0.0075   -0.0027   -0.0096   -0.0129   -0.0164    0.0037
           3    0.0349    0.0063    0.0170   -0.0111   -0.0097    0.0065    0.0207   -0.0090
           4   -0.0280    0.0086   -0.0012    0.0012   -0.0207   -0.0127    0.0258    0.0018
           5    0.0181   -0.0462   -0.0037   -0.0106    0.0029    0.0076   -0.0140    0.0009
           6    0.0005   -0.0011    0.0095    0.0055    0.0027   -0.0085    0.0318    0.0138
           7    0.0040   -0.0543   -0.0067   -0.0144   -0.0048    0.0079   -0.0058    0.0016
           8    0.0144   -0.0185   -0.0021   -0.0012   -0.0013    0.0011   -0.0051   -0.0035
           9   -0.0010   -0.0180    0.0039    0.0193    0.0033   -0.0114    0.0019   -0.0037
          10    0.0083   -0.0111   -0.0096   -0.0084    0.0113    0.0129    0.0125   -0.0039
          11    0.0030    0.0560   -0.0074    0.0173    0.0215    0.0178    0.0266   -0.0080
          12   -0.0105   -0.0145   -0.0017    0.0182   -0.0042    0.0080   -0.0199   -0.0076
          13   -0.0002   -0.0006    0.0151   -0.0078   -0.0351   -0.0202   -0.0041    0.0023
          14    0.0031   -0.0079   -0.0027    0.0003    0.0046    0.0019   -0.0031   -0.0011
          15    0.0084    0.0037   -0.0184    0.0000    0.0022   -0.0335   -0.0119    0.0222
          16    0.0371    0.0359    0.0076    0.0075    0.0102    0.0005   -0.0121   -0.0076
          17   -0.0268    0.0113   -0.0120    0.0019    0.0013   -0.0002    0.0223    0.0063
          18   -0.0331    0.0025   -0.0057   -0.0079    0.0003    0.0066   -0.0013    0.0117
          19    0.0003   -0.0107    0.0067   -0.0018    0.0268    0.0097   -0.0059    0.0076
          20   -0.0043    0.0334    0.0309   -0.0050   -0.0169   -0.0215   -0.0240    0.0125
          21   -0.0064   -0.0010   -0.0184    0.0082   -0.0104    0.0091    0.0002   -0.0174
          22    0.0128    0.0252    0.0055    0.0050   -0.0038    0.0058   -0.0203    0.0128
          23   -0.0121   -0.0343   -0.0031   -0.0088   -0.0255   -0.0185    0.0258   -0.0119
          24    0.0190    0.0201    0.0027   -0.0073    0.0144   -0.0175   -0.0106   -0.0219
          25   -0.0071   -0.0106   -0.0012   -0.0004    0.0296    0.0080   -0.0069   -0.0063
          26   -0.0010   -0.0044   -0.0051    0.0060    0.0371    0.0204   -0.0078   -0.0015
          27    0.0051   -0.0073   -0.0134    0.0078   -0.0021    0.0172   -0.0009    0.0066
          28   -0.0517    0.0350   -0.0152    0.0099   -0.0345   -0.0109    0.0186   -0.0262
          29    0.0177    0.0265    0.0012    0.0263   -0.0492   -0.0237   -0.0588   -0.0421
          30    0.0227    0.0114    0.0106   -0.0110   -0.0219    0.0045    0.0221   -0.0192
          31    0.0058   -0.0250   -0.0287   -0.0942   -0.0069    0.0456    0.0017    0.0186
          32   -0.0136    0.0002   -0.0185   -0.0412   -0.0423    0.0134   -0.0549   -0.0217
          33   -0.0062    0.0324   -0.0317   -0.1063   -0.0110    0.0457   -0.0020    0.0157
          34    0.0134   -0.1223    0.0273    0.1276    0.0191   -0.0428   -0.0061   -0.0285
          35    0.0248   -0.0473    0.0184    0.0181    0.0005   -0.0401    0.0461    0.0304
          36   -0.0076    0.0119   -0.0142   -0.0336   -0.0052    0.0189   -0.0145   -0.0052
          37   -0.0901    0.0331   -0.0443    0.0002   -0.0338   -0.0082   -0.0301   -0.0228
          38    0.0625   -0.0947    0.0333    0.0392    0.0238   -0.0362    0.0617    0.0397
          39   -0.0546    0.0391   -0.0327   -0.0261   -0.0166    0.0203   -0.0403   -0.0210
          40    0.0268    0.0037    0.0354    0.0087   -0.0166   -0.0179    0.1286    0.0196
          41   -0.0195    0.0044   -0.0410   -0.0576   -0.0211    0.0511   -0.0625   -0.0386
          42   -0.0521    0.0356   -0.0332   -0.0287   -0.0152    0.0227   -0.0487   -0.0209
          43    0.0106   -0.0122   -0.0066    0.0384    0.0256   -0.0023    0.0314   -0.0477
          44    0.0632    0.0940   -0.0203   -0.0954    0.0401    0.0043    0.1022    0.0147
          45    0.0242    0.0061   -0.0083   -0.0369    0.0092   -0.0030    0.0264   -0.0036
          46   -0.0491   -0.0069   -0.0265    0.0025    0.0081    0.0670    0.0327    0.0231
          47   -0.0483    0.0372   -0.0014    0.1098    0.0128    0.0375   -0.0134   -0.0285
          48    0.0249    0.0101   -0.0156   -0.0832    0.0048    0.0075    0.0354    0.0264
          49   -0.0415   -0.0128    0.0829   -0.0130   -0.0731    0.0426    0.0124   -0.0282
          50    0.0185    0.0026   -0.0234    0.0247   -0.0419    0.0388   -0.0197    0.0901
          51   -0.0432   -0.0121    0.0655   -0.0086   -0.0368    0.0391    0.0099   -0.0245
          52    0.0627    0.0217   -0.0757   -0.0013   -0.0010   -0.1185   -0.0384    0.0593
          53    0.0125    0.0201    0.0232   -0.0117    0.0090   -0.0261   -0.0250   -0.0370
          54   -0.0211   -0.0051    0.0273   -0.0043   -0.0150    0.0105    0.0022   -0.0072
          55    0.0530    0.0048   -0.0391    0.0149   -0.0940    0.0181   -0.0103   -0.0721
          56    0.0131    0.0387    0.0172   -0.0010   -0.0629   -0.0243   -0.0326   -0.0131
          57   -0.0964   -0.0211    0.0718   -0.0343    0.1368   -0.0524   -0.0553    0.1215
          58    0.0211    0.0203   -0.0932    0.0441   -0.0339    0.0259   -0.0183    0.0544
          59    0.0141   -0.0117   -0.0471    0.0169    0.0184    0.0150    0.0019    0.0177
          60   -0.0504   -0.0247    0.1555   -0.0568    0.0957    0.0088   -0.0093   -0.0887
          61    0.0027    0.0191   -0.0367   -0.0273    0.0669   -0.0868   -0.0408   -0.0829
          62    0.0050   -0.0318    0.0318    0.0055   -0.0551    0.0428    0.0050    0.0182
          63    0.0593    0.0280    0.0969    0.0390   -0.0838    0.1569   -0.0440    0.0908


   Root No.      17        18        19        20        21        22        23        24

                17 A      18 A      19 A      20 A      21 A      22 A      23 A      24 A   

                 936.8     979.2     990.4    1022.5    1023.9    1036.6    1056.5    1061.0
  
           1   -0.0088   -0.0030   -0.0041   -0.0021    0.0075    0.0007   -0.0045    0.0145
           2   -0.0059    0.0127    0.0003    0.0045   -0.0011    0.0069   -0.0048   -0.0086
           3    0.0316   -0.0097    0.0048    0.0053   -0.0182    0.0084   -0.0127    0.0077
           4    0.0120    0.0136    0.0061    0.0035   -0.0022    0.0026    0.0046   -0.0193
           5   -0.0020   -0.0141   -0.0027    0.0085    0.0353    0.0082   -0.0032    0.0100
           6   -0.0057    0.0224    0.0029   -0.0061    0.0089   -0.0066    0.0059    0.0005
           7    0.0013    0.0171   -0.0019   -0.0168   -0.0456   -0.0104   -0.0006    0.0059
           8    0.0011    0.0026    0.0004   -0.0055   -0.0183   -0.0043    0.0014   -0.0027
           9   -0.0091   -0.0138   -0.0085    0.0053   -0.0152    0.0042   -0.0064    0.0006
          10    0.0012   -0.0146    0.0007    0.0093    0.0163    0.0054    0.0010   -0.0071
          11    0.0076    0.0036    0.0034   -0.0046   -0.0282   -0.0096   -0.0026    0.0131
          12    0.0234    0.0101    0.0118   -0.0061    0.0189   -0.0039    0.0047    0.0097
          13   -0.0026   -0.0057   -0.0154   -0.0322    0.0058    0.0184    0.0031    0.0041
          14   -0.0035    0.0055    0.0062    0.0148   -0.0034   -0.0018   -0.0009   -0.0052
          15    0.0250    0.0010   -0.0233    0.0092   -0.0001   -0.0102    0.0033    0.0006
          16    0.0026    0.0004    0.0094   -0.0058    0.0054   -0.0059    0.0067    0.0056
          17    0.0001    0.0010   -0.0076    0.0009   -0.0010    0.0075    0.0002   -0.0181
          18   -0.0210    0.0030   -0.0104    0.0088   -0.0063    0.0056   -0.0079   -0.0171
          19    0.0005    0.0012    0.0179    0.0082   -0.0069    0.0075   -0.0157    0.0001
          20   -0.0034   -0.0212    0.0020   -0.0186    0.0102   -0.0118    0.0111    0.0081
          21   -0.0135    0.0014   -0.0157    0.0033    0.0086   -0.0166    0.0236   -0.0094
          22   -0.0041    0.0021   -0.0070    0.0081    0.0046   -0.0121   -0.0104   -0.0103
          23    0.0112   -0.0098    0.0222    0.0054   -0.0059   -0.0201   -0.0042    0.0155
          24   -0.0191    0.0035    0.0190   -0.0096    0.0032    0.0177    0.0187    0.0087
          25    0.0021    0.0038   -0.0147    0.0100   -0.0016   -0.0046    0.0177   -0.0020
          26   -0.0014    0.0009   -0.0281   -0.0304    0.0085    0.0094    0.0064   -0.0041
          27   -0.0159   -0.0085    0.0209   -0.0258    0.0048    0.0040   -0.0230   -0.0046
          28   -0.0036   -0.0839   -0.0661    0.0711   -0.0256    0.0263   -0.0952    0.1362
          29   -0.0131    0.1875   -0.0127    0.0751    0.0054    0.1411   -0.1254    0.0330
          30    0.0318   -0.0408   -0.0183    0.0315   -0.0306    0.0164   -0.0452    0.0528
          31   -0.0011    0.0410   -0.0035   -0.0251   -0.0343   -0.0240   -0.0069    0.0473
          32    0.0690    0.0476    0.0449   -0.0404   -0.0503   -0.0054    0.0471   -0.1026
          33    0.0060    0.0339    0.0016   -0.0166   -0.0084   -0.0159   -0.0031    0.0330
          34   -0.0087   -0.0493   -0.0144    0.0045   -0.0712    0.0118   -0.0106   -0.0107
          35   -0.0622    0.0065   -0.0363    0.0215    0.0144   -0.0069   -0.0136    0.0117
          36    0.0154    0.0058    0.0074   -0.0099   -0.0162   -0.0016    0.0016    0.0015
          37   -0.0205   -0.0531   -0.0390    0.0503   -0.0046   -0.0085   -0.0053    0.0012
          38   -0.0643    0.0177   -0.0247    0.0216    0.0809   -0.0211    0.0146    0.0199
          39    0.0180   -0.0269   -0.0041    0.0071   -0.0197    0.0064   -0.0093    0.0038
          40    0.0716    0.0419    0.0585   -0.0001    0.1065    0.0378    0.0246   -0.0572
          41    0.0743   -0.0720    0.0260    0.0258    0.0934    0.0577   -0.0095   -0.0110
          42    0.0153   -0.0297   -0.0044    0.0072   -0.0082    0.0082   -0.0087    0.0065
          43    0.0378   -0.1210    0.0178    0.0420    0.0215    0.0836   -0.0032   -0.1080
          44   -0.0589   -0.0356   -0.0277    0.0244   -0.0497    0.0089   -0.0145   -0.0189
          45   -0.0072   -0.0351   -0.0028    0.0174    0.0085    0.0242   -0.0033   -0.0299
          46    0.0289    0.0616    0.0009    0.0242    0.1656   -0.0403    0.0139    0.0950
          47    0.0677    0.0341    0.0307   -0.0216   -0.0056   -0.0285    0.0071    0.0451
          48   -0.0335    0.0063   -0.0188    0.0192    0.0521   -0.0014   -0.0012    0.0144
          49   -0.0546   -0.0132    0.0205   -0.0597    0.0030    0.0602    0.0238    0.0147
          50   -0.0183    0.0088    0.0455    0.1252   -0.0796    0.1290    0.2133    0.0576
          51   -0.0357   -0.0076    0.0150   -0.0349    0.0048    0.0249    0.0039    0.0053
          52    0.0667    0.0029   -0.0747   -0.0020    0.0092   -0.0131   -0.0000   -0.0050
          53   -0.0240    0.0335    0.0120    0.0450    0.0311   -0.0387   -0.1144   -0.0925
          54   -0.0097   -0.0018    0.0053   -0.0040    0.0011    0.0018   -0.0023   -0.0003
          55   -0.0482    0.0241   -0.0007    0.0889    0.0045   -0.0656    0.0532   -0.0519
          56   -0.0242   -0.0126    0.0052    0.0250    0.0129   -0.0464    0.0400   -0.0179
          57    0.0226   -0.0282    0.1175    0.0476   -0.0291   -0.0005   -0.0338   -0.0079
          58   -0.0545   -0.0533    0.1041   -0.0278    0.0114   -0.0434    0.0049    0.0148
          59    0.0038    0.0165   -0.0397   -0.0568    0.0046    0.0588   -0.0419   -0.0190
          60    0.0302    0.0208   -0.0786    0.0588   -0.0004   -0.0461    0.0777    0.0031
          61   -0.0660    0.0249    0.1036    0.0472    0.0138   -0.0458   -0.0224    0.0251
          62    0.0046   -0.0098    0.0245    0.0534   -0.0106   -0.0620   -0.0429   -0.0003
          63   -0.0002   -0.0088   -0.0372    0.0649   -0.0099   -0.0474   -0.0520   -0.0428


   Root No.      25        26        27        28        29        30        31        32

                25 A      26 A      27 A      28 A      29 A      30 A      31 A      32 A   

                1078.2    1089.2    1114.4    1121.9    1129.8    1146.2    1183.3    1203.8
  
           1   -0.0154    0.0003   -0.0159    0.0101   -0.0195    0.0022    0.0093   -0.0155
           2   -0.0048    0.0055   -0.0035    0.0012   -0.0023   -0.0134    0.0114    0.0351
           3    0.0181    0.0072    0.0116   -0.0026    0.0182    0.0087    0.0053    0.0081
           4    0.0061    0.0007    0.0039   -0.0098    0.0256    0.0019    0.0085    0.0107
           5   -0.0111    0.0092   -0.0284    0.0126    0.0138    0.0037    0.0015    0.0053
           6   -0.0048    0.0058   -0.0168    0.0307   -0.0137   -0.0064   -0.0070   -0.0024
           7   -0.0163    0.0046   -0.0027    0.0008    0.0047    0.0019    0.0036   -0.0041
           8    0.0134   -0.0103    0.0224   -0.0073   -0.0239   -0.0031    0.0023   -0.0196
           9    0.0066    0.0019   -0.0121   -0.0449   -0.0053   -0.0012    0.0051    0.0011
          10    0.0185   -0.0088    0.0090   -0.0015   -0.0130   -0.0025   -0.0125    0.0032
          11   -0.0095    0.0053   -0.0087   -0.0021    0.0178    0.0026    0.0059   -0.0130
          12   -0.0134   -0.0027    0.0281    0.0171    0.0013   -0.0013   -0.0033    0.0085
          13   -0.0001    0.0093    0.0010   -0.0004    0.0040   -0.0003    0.0087   -0.0100
          14   -0.0047    0.0131    0.0039   -0.0016   -0.0017    0.0037   -0.0078   -0.0077
          15   -0.0032   -0.0060   -0.0055    0.0011   -0.0003    0.0037    0.0059   -0.0051
          16    0.0058   -0.0019    0.0066   -0.0024   -0.0016   -0.0037   -0.0200    0.0188
          17   -0.0015    0.0004    0.0025   -0.0002   -0.0103    0.0024   -0.0107    0.0370
          18   -0.0026   -0.0176   -0.0090    0.0013   -0.0005    0.0028   -0.0099   -0.0139
          19    0.0032    0.0083    0.0058   -0.0003   -0.0004    0.0006    0.0028    0.0076
          20    0.0005   -0.0062   -0.0011   -0.0012    0.0022    0.0062    0.0071   -0.0145
          21   -0.0099    0.0029   -0.0036   -0.0004   -0.0030   -0.0004    0.0066    0.0035
          22    0.0006   -0.0134   -0.0042    0.0005   -0.0023    0.0008   -0.0176    0.0064
          23    0.0058   -0.0187   -0.0032    0.0003    0.0003    0.0042   -0.0128   -0.0035
          24    0.0025    0.0027    0.0034   -0.0001    0.0010   -0.0039   -0.0049    0.0081
          25   -0.0025   -0.0033   -0.0009   -0.0005   -0.0031    0.0030    0.0052    0.0070
          26    0.0043   -0.0078    0.0012   -0.0021    0.0046   -0.0055   -0.0073   -0.0085
          27    0.0045    0.0046    0.0049   -0.0018    0.0011    0.0019    0.0005    0.0016
          28   -0.0210    0.0477   -0.0036    0.0838   -0.1389   -0.0725   -0.0588    0.0355
          29    0.0322   -0.0878   -0.0213   -0.0002    0.0209    0.0557   -0.0412   -0.0965
          30    0.0165    0.0251    0.0163    0.0254   -0.0252   -0.0187   -0.0192    0.0263
          31   -0.0932   -0.0025    0.0349    0.0298    0.0514    0.0134    0.0059   -0.0234
          32    0.1706    0.0154   -0.0403    0.0859   -0.1312   -0.0278   -0.0073    0.0060
          33   -0.0593   -0.0009    0.0224    0.0190    0.0285    0.0073    0.0049   -0.0169
          34    0.0344    0.0256   -0.1032   -0.0845    0.0048    0.0074    0.0069   -0.0365
          35   -0.0225   -0.0778    0.2676   -0.0668   -0.0444   -0.0169    0.0358    0.0385
          36    0.0025    0.0173   -0.0601   -0.0014    0.0007    0.0015   -0.0060   -0.0089
          37    0.1171    0.0207    0.0562    0.0231    0.1926    0.0541   -0.0363    0.0446
          38    0.0558    0.0282   -0.0223    0.1199    0.1056    0.0314   -0.0480    0.0208
          39    0.0069    0.0035    0.0023   -0.0173    0.0055    0.0006    0.0019    0.0038
          40   -0.0974   -0.0221   -0.0534   -0.0883   -0.0192   -0.0237   -0.0469    0.0085
          41   -0.0733   -0.0181   -0.0421   -0.1180    0.0082    0.0016   -0.0251    0.0082
          42    0.0051    0.0009    0.0000   -0.0142    0.0044    0.0041    0.0024    0.0007
          43   -0.0404   -0.0520    0.0580    0.1573    0.0069    0.0038    0.0865   -0.1164
          44    0.0359   -0.0021   -0.0448   -0.0319    0.0066    0.0035    0.0291   -0.0622
          45   -0.0030   -0.0163    0.0188    0.0348   -0.0003    0.0008    0.0301   -0.0428
          46    0.1438    0.0539    0.0223   -0.0733   -0.0364   -0.0150    0.0991   -0.0867
          47   -0.0257    0.0142    0.0300    0.0237    0.0322    0.0014    0.0295   -0.0333
          48    0.0551    0.0110   -0.0067   -0.0404   -0.0239   -0.0049    0.0160   -0.0071
          49    0.0040    0.0245    0.0078   -0.0012    0.0058    0.0014    0.0227   -0.0137
          50   -0.0167    0.0448    0.0097    0.0031   -0.0225    0.0404    0.0437    0.0243
          51    0.0030    0.0087    0.0023   -0.0005    0.0040    0.0007    0.0145   -0.0112
          52   -0.0138    0.0129   -0.0078    0.0009   -0.0009    0.0252    0.0395   -0.0305
          53   -0.0582    0.1865    0.0545   -0.0083   -0.0589    0.1452    0.0523    0.0049
          54   -0.0004    0.0027    0.0010    0.0001   -0.0016    0.0024   -0.0021    0.0037
          55   -0.0345    0.0644    0.0350   -0.0206    0.0282   -0.1313   -0.0728   -0.1051
          56   -0.0159    0.0260    0.0179   -0.0130    0.0222   -0.0706   -0.0373   -0.0805
          57    0.0108    0.0462    0.0411   -0.0156    0.0390   -0.0921   -0.0589   -0.0832
          58    0.0057   -0.0471   -0.0074   -0.0048   -0.0480    0.1661   -0.0421   -0.0289
          59    0.0053    0.0414    0.0129    0.0005    0.0452   -0.1449    0.0314    0.0181
          60   -0.0065   -0.0366   -0.0078   -0.0031   -0.0262    0.0879   -0.0212   -0.0122
          61   -0.0027   -0.0759   -0.0695    0.0209    0.0208   -0.0740    0.1386    0.0674
          62    0.0021   -0.0590   -0.0431    0.0106    0.0099   -0.0304    0.0605    0.0260
          63   -0.0026   -0.0477   -0.0428    0.0103    0.0092   -0.0364    0.0597    0.0350


   Root No.      33        34        35        36        37        38        39        40

                33 A      34 A      35 A      36 A      37 A      38 A      39 A      40 A   

                1231.4    1274.6    1306.2    1330.6    1356.7    1384.2    1397.7    1410.0
  
           1    0.0457   -0.0146   -0.0176    0.0116    0.0369   -0.0040    0.0302   -0.0105
           2    0.0004    0.0179    0.0138   -0.0155    0.0009    0.0267    0.0196    0.0101
           3    0.0159    0.0036    0.0007    0.0083    0.0208   -0.0080    0.0158   -0.0030
           4    0.0020    0.0392    0.0275    0.0112   -0.0205   -0.0092   -0.0171    0.0311
           5    0.0173    0.0352   -0.0006    0.0155   -0.0124   -0.0064   -0.0115   -0.0243
           6   -0.0089   -0.0031    0.0046   -0.0017   -0.0044    0.0008   -0.0026    0.0019
           7   -0.0144    0.0052   -0.0274   -0.0043    0.0007    0.0030    0.0048   -0.0297
           8    0.0038   -0.0341    0.0563   -0.0148    0.0008    0.0082    0.0125    0.0047
           9   -0.0014    0.0094   -0.0133    0.0016   -0.0008   -0.0001   -0.0000   -0.0097
          10    0.0068   -0.0325    0.0155    0.0427   -0.0203   -0.0008    0.0107    0.0114
          11   -0.0073   -0.0001   -0.0100    0.0080    0.0017   -0.0160   -0.0188   -0.0113
          12    0.0019   -0.0088    0.0066    0.0117   -0.0049    0.0020    0.0078    0.0052
          13   -0.0136    0.0023    0.0016   -0.0038   -0.0128   -0.0298    0.0355    0.0005
          14    0.0012    0.0188    0.0023   -0.0075    0.0166    0.0296    0.0419    0.0011
          15   -0.0044   -0.0007    0.0002    0.0012   -0.0029   -0.0080    0.0090   -0.0001
          16    0.0105    0.0098   -0.0015   -0.0119    0.0051    0.0025   -0.0135   -0.0008
          17   -0.0015    0.0005    0.0046   -0.0010    0.0309   -0.0188    0.0090   -0.0037
          18    0.0090   -0.0013   -0.0038   -0.0027   -0.0088    0.0076   -0.0102    0.0008
          19    0.0076   -0.0086   -0.0043   -0.0066   -0.0041    0.0110   -0.0062    0.0004
          20    0.0029   -0.0236   -0.0122   -0.0035   -0.0172    0.0008   -0.0175   -0.0024
          21    0.0105   -0.0107   -0.0061   -0.0052   -0.0051    0.0084   -0.0069   -0.0008
          22    0.0107    0.0134   -0.0035   -0.0203   -0.0031    0.0103   -0.0192   -0.0001
          23    0.0216   -0.0044   -0.0082   -0.0054   -0.0093    0.0019   -0.0290   -0.0010
          24   -0.0014    0.0096    0.0008   -0.0103    0.0006    0.0040   -0.0026    0.0002
          25    0.0006   -0.0106   -0.0037   -0.0063   -0.0107    0.0055   -0.0126    0.0008
          26   -0.0230    0.0106    0.0095    0.0119    0.0009   -0.0222   -0.0026    0.0004
          27   -0.0058   -0.0037   -0.0000   -0.0019   -0.0068   -0.0011   -0.0070    0.0007
          28   -0.1125    0.0210    0.0164   -0.0210   -0.0414    0.0063   -0.0335    0.0178
          29   -0.0019   -0.0200   -0.0196    0.0218   -0.0073   -0.0253   -0.0209   -0.0121
          30   -0.0410    0.0157    0.0125   -0.0038   -0.0079   -0.0035   -0.0074    0.0070
          31   -0.0188   -0.0270    0.0276   -0.0544    0.0346   -0.0082   -0.0207    0.0787
          32   -0.0423    0.0099   -0.1554    0.0132    0.0247   -0.0193   -0.0262    0.0122
          33   -0.0161   -0.0212    0.0095   -0.0538    0.0457   -0.0187   -0.0382    0.1217
          34   -0.0206   -0.0300    0.0193   -0.0704    0.0528   -0.0195   -0.0431    0.1407
          35   -0.0212    0.0456   -0.1373    0.0229    0.0161   -0.0181   -0.0214   -0.0025
          36    0.0065   -0.0066    0.0326    0.0054   -0.0170    0.0126    0.0207   -0.0460
          37   -0.0684   -0.0947   -0.0104   -0.0449    0.0186    0.0367    0.0328   -0.1148
          38   -0.0378   -0.0679   -0.0823   -0.0112    0.0424   -0.0010    0.0237    0.1169
          39   -0.0075   -0.0012    0.0310   -0.0096   -0.0167    0.0155   -0.0010   -0.1246
          40   -0.1194   -0.0872   -0.0179   -0.0566   -0.0123    0.0430    0.0093   -0.1086
          41   -0.0373   -0.0446   -0.1084   -0.0117    0.0414   -0.0015    0.0193    0.1089
          42    0.0129    0.0064   -0.0367    0.0121    0.0230   -0.0188    0.0041    0.1315
          43   -0.0134    0.0493    0.0059   -0.0948    0.0362   -0.0090   -0.0395   -0.0346
          44   -0.0193    0.0181   -0.0665    0.0253   -0.0991    0.0952    0.0738    0.0574
          45   -0.0078    0.0187   -0.0221   -0.0121   -0.0387    0.0520    0.0391    0.0261
          46   -0.0167    0.0539   -0.0005   -0.0809    0.0108    0.0223   -0.0009   -0.0097
          47   -0.0226    0.0185   -0.0548    0.0209   -0.0744    0.0727    0.0609    0.0444
          48    0.0080    0.0056    0.0438   -0.0470    0.0789   -0.0737   -0.0726   -0.0553
          49   -0.0452    0.0017    0.0240    0.0716    0.0677    0.0789   -0.0649   -0.0004
          50    0.0004   -0.0474   -0.0065    0.0087   -0.0316   -0.0397   -0.0388   -0.0005
          51   -0.0366    0.0051    0.0238    0.0751    0.0821    0.1066   -0.0838   -0.0008
          52   -0.0564   -0.0035    0.0300    0.1036    0.0951    0.1119   -0.0912   -0.0014
          53   -0.0085   -0.0684   -0.0086    0.0183   -0.0455   -0.0525   -0.0567   -0.0005
          54    0.0099   -0.0030   -0.0108   -0.0379   -0.0473   -0.0665    0.0518    0.0006
          55   -0.0186    0.0337    0.0107    0.0404    0.0370   -0.0422    0.0191   -0.0053
          56   -0.0147    0.0002   -0.0034    0.0238    0.0046   -0.0311   -0.0044   -0.0056
          57   -0.0225    0.0209    0.0072    0.0322    0.0237   -0.0356    0.0078   -0.0052
          58   -0.0872    0.0792    0.0358    0.0201    0.0230   -0.0258    0.0493    0.0032
          59    0.0471   -0.0632   -0.0230   -0.0102   -0.0280    0.0028   -0.0512   -0.0016
          60   -0.0469    0.0370    0.0188    0.0113    0.0077   -0.0178    0.0159    0.0020
          61   -0.0888   -0.0395    0.0183    0.0417    0.0226   -0.0562    0.0330   -0.0029
          62   -0.0243   -0.0299    0.0031    0.0252    0.0040   -0.0276   -0.0032   -0.0019
          63   -0.0433   -0.0108    0.0129    0.0158    0.0124   -0.0197    0.0235    0.0002


   Root No.      41        42        43        44        45        46        47        48

                41 A      42 A      43 A      44 A      45 A      46 A      47 A      48 A   

                1414.2    1425.5    1468.0    1863.7    1925.5    2856.2    2936.9    2966.8
  
           1   -0.0124    0.0116    0.0322   -0.0201   -0.0177    0.0235    0.0001    0.0002
           2    0.0156   -0.0041    0.0986   -0.0219    0.0139   -0.0001   -0.0000   -0.0000
           3   -0.0121    0.0051    0.0074   -0.0143   -0.0162   -0.0649   -0.0005   -0.0005
           4    0.0059   -0.0117   -0.0208    0.0008   -0.0041    0.0009    0.0000    0.0003
           5    0.0037    0.0280   -0.0151   -0.0043    0.0053   -0.0001    0.0000   -0.0004
           6    0.0021   -0.0006   -0.0018   -0.0002   -0.0019    0.0036    0.0001   -0.0082
           7   -0.0127   -0.0293   -0.0047    0.0020   -0.0061   -0.0001   -0.0000   -0.0060
           8   -0.0181   -0.0169   -0.0045    0.0016   -0.0022   -0.0001   -0.0000    0.0021
           9   -0.0016   -0.0084    0.0001    0.0005   -0.0015   -0.0001    0.0000    0.0196
          10    0.0364    0.0081    0.0159    0.0059   -0.0304   -0.0000   -0.0000    0.0091
          11    0.0483   -0.0140    0.0202    0.0047   -0.0179   -0.0001    0.0000   -0.0055
          12    0.0026    0.0051    0.0009    0.0007   -0.0077    0.0002   -0.0001   -0.0307
          13    0.0126    0.0018    0.0011    0.0157    0.0215    0.0001   -0.0173    0.0000
          14    0.0561   -0.0033   -0.0611   -0.0242    0.0091    0.0000    0.0009   -0.0000
          15    0.0035    0.0005    0.0024    0.0073    0.0086   -0.0003    0.0569   -0.0001
          16   -0.0215    0.0011   -0.0068   -0.0407    0.2184   -0.0006    0.0001   -0.0001
          17   -0.0466    0.0085   -0.0709    0.0051   -0.0209    0.0008   -0.0001   -0.0000
          18    0.0061   -0.0026    0.0188   -0.0225    0.1252   -0.0007    0.0003   -0.0001
          19    0.0093   -0.0023   -0.0182    0.1879    0.0372   -0.0008    0.0001    0.0000
          20    0.0109   -0.0028   -0.0492    0.0088   -0.0006   -0.0006    0.0001    0.0000
          21    0.0081   -0.0014   -0.0192    0.1212    0.0244   -0.0007    0.0003    0.0000
          22   -0.0160   -0.0004    0.0125    0.0342   -0.1894    0.0006   -0.0008    0.0001
          23   -0.0182   -0.0009    0.0335    0.0024   -0.0045   -0.0000    0.0007    0.0001
          24   -0.0051    0.0002   -0.0019    0.0196   -0.1067    0.0001   -0.0006   -0.0000
          25    0.0059   -0.0034   -0.0225   -0.1876   -0.0375    0.0007   -0.0009   -0.0000
          26   -0.0272    0.0035    0.0419    0.0569    0.0096   -0.0002   -0.0005    0.0000
          27   -0.0001   -0.0016   -0.0077   -0.1084   -0.0212    0.0001   -0.0006   -0.0000
          28    0.0081   -0.0158   -0.0285    0.0069    0.0110   -0.2898   -0.0019   -0.0025
          29   -0.0088    0.0056   -0.0673   -0.0145    0.0097    0.0040    0.0001    0.0001
          30   -0.0038   -0.0051   -0.0133    0.0010    0.0015    0.7947    0.0039    0.0050
          31    0.0089    0.0853   -0.0055    0.0010   -0.0026   -0.0005    0.0000    0.1164
          32    0.0595    0.0713    0.0213    0.0003   -0.0017   -0.0000    0.0000    0.0239
          33    0.0394    0.1478    0.0054   -0.0022    0.0071    0.0004   -0.0000   -0.0833
          34    0.0386    0.1592    0.0036   -0.0005    0.0028    0.0002   -0.0000   -0.0451
          35    0.0516    0.0510    0.0195    0.0007   -0.0026   -0.0001   -0.0000   -0.0499
          36   -0.0334   -0.0700   -0.0094    0.0017   -0.0056    0.0003   -0.0001   -0.1528
          37   -0.0011    0.0543    0.0546   -0.0043    0.0008    0.0060    0.0001   -0.0254
          38   -0.0126   -0.1072    0.0260   -0.0034   -0.0005   -0.0139   -0.0002    0.0314
          39    0.0069    0.0919    0.0061   -0.0048    0.0036   -0.0236   -0.0003    0.0560
          40    0.0144    0.0485    0.0422    0.0020   -0.0016   -0.0054   -0.0000    0.0214
          41   -0.0126   -0.1067    0.0249    0.0002    0.0028    0.0145    0.0001   -0.0267
          42   -0.0110   -0.0989   -0.0060    0.0017   -0.0087   -0.0226   -0.0002    0.0423
          43    0.0043   -0.0429    0.0161   -0.0038    0.0271    0.0002   -0.0002   -0.0462
          44   -0.1144    0.0561   -0.0146    0.0009    0.0003    0.0008   -0.0005   -0.1165
          45   -0.0795    0.0257   -0.0137   -0.0039    0.0146   -0.0013    0.0008    0.2058
          46   -0.0508   -0.0158   -0.0017   -0.0028    0.0130    0.0006   -0.0002   -0.0634
          47   -0.0881    0.0445   -0.0128    0.0015   -0.0086   -0.0023    0.0008    0.1827
          48    0.0993   -0.0596    0.0248   -0.0001    0.0053   -0.0021    0.0006    0.1639
          49   -0.0149   -0.0026   -0.0005    0.0005    0.0035   -0.0053    0.3885   -0.0004
          50   -0.0479    0.0024    0.0485   -0.0174    0.0110    0.0005   -0.0363    0.0001
          51   -0.0149   -0.0044   -0.0093   -0.0036   -0.0013    0.0039   -0.3345    0.0004
          52   -0.0171   -0.0040    0.0027    0.0129    0.0253    0.0010   -0.1725    0.0002
          53   -0.0604    0.0016    0.0648   -0.0418    0.0214   -0.0001    0.0239   -0.0001
          54    0.0084    0.0030    0.0088    0.0051    0.0035    0.0010   -0.3507    0.0004
          55   -0.0454    0.0115    0.0421    0.0212   -0.0012    0.0003   -0.0004    0.0002
          56   -0.0208    0.0048   -0.0149   -0.1314   -0.0329    0.0019   -0.0005   -0.0001
          57   -0.0361    0.0083    0.0187   -0.0105   -0.0101   -0.0020    0.0005   -0.0000
          58   -0.0056    0.0051    0.0533   -0.0207    0.0038    0.0017    0.0055   -0.0000
          59   -0.0150   -0.0036   -0.0220   -0.1245   -0.0317    0.0020    0.0072   -0.0000
          60   -0.0114    0.0023    0.0283   -0.0382   -0.0068    0.0002    0.0068   -0.0000
          61   -0.0281    0.0084   -0.0446    0.0097    0.0144    0.0011    0.0038    0.0003
          62   -0.0223    0.0032    0.0052   -0.0186    0.1309   -0.0021   -0.0089   -0.0006
          63   -0.0054    0.0037   -0.0283    0.0086   -0.0394    0.0000    0.0069    0.0005


   Root No.      49        50        51        52        53        54        55        56

                49 A      50 A      51 A      52 A      53 A      54 A      55 A      56 A   

                2978.0    2990.6    3016.8    3051.2    3055.6    3062.8    3067.4    3071.2
  
           1    0.0004    0.0003    0.0000   -0.0002    0.0001   -0.0005   -0.0001   -0.0002
           2    0.0001   -0.0001   -0.0000   -0.0003    0.0002   -0.0001    0.0003    0.0001
           3   -0.0009   -0.0010   -0.0003    0.0001    0.0001   -0.0001   -0.0002   -0.0003
           4    0.0008    0.0008    0.0000   -0.0002   -0.0001   -0.0133   -0.0110    0.0004
           5   -0.0012   -0.0011    0.0000    0.0001    0.0003    0.0180    0.0142   -0.0005
           6   -0.0259   -0.0243   -0.0000    0.0001    0.0001   -0.0029   -0.0027    0.0001
           7   -0.0050    0.0075   -0.0000   -0.0054   -0.0000    0.0172   -0.0195    0.0010
           8    0.0018   -0.0027    0.0000   -0.0016   -0.0000    0.0070   -0.0074    0.0004
           9    0.0166   -0.0248   -0.0000   -0.0013   -0.0000    0.0035   -0.0039    0.0002
          10   -0.0049    0.0029   -0.0000   -0.0015    0.0000    0.0002   -0.0001    0.0004
          11    0.0029   -0.0018    0.0000    0.0363   -0.0002    0.0020   -0.0034    0.0000
          12    0.0165   -0.0097    0.0000   -0.0078    0.0001   -0.0004    0.0007   -0.0000
          13   -0.0000    0.0000   -0.0364    0.0001   -0.0017    0.0000    0.0000    0.0021
          14    0.0000   -0.0000    0.0041   -0.0000    0.0000    0.0000   -0.0000   -0.0003
          15    0.0001   -0.0000   -0.0155    0.0000   -0.0014   -0.0000    0.0000    0.0019
          16    0.0002    0.0001    0.0004    0.0004   -0.0002    0.0001    0.0004   -0.0044
          17   -0.0000   -0.0001    0.0002    0.0003   -0.0002   -0.0001   -0.0001    0.0003
          18    0.0001   -0.0001    0.0002    0.0001   -0.0001    0.0000    0.0002   -0.0025
          19    0.0001    0.0001    0.0001   -0.0001   -0.0132   -0.0000    0.0000    0.0054
          20    0.0000    0.0001    0.0000    0.0002    0.0273   -0.0001   -0.0002   -0.0088
          21    0.0000    0.0000    0.0001    0.0000   -0.0025   -0.0000   -0.0000    0.0015
          22   -0.0001    0.0000    0.0004   -0.0001    0.0007   -0.0001    0.0002    0.0167
          23   -0.0001    0.0000   -0.0032   -0.0001   -0.0017    0.0001   -0.0009   -0.0483
          24    0.0000   -0.0000    0.0013    0.0000    0.0011   -0.0001    0.0004    0.0260
          25   -0.0000   -0.0000    0.0016   -0.0001   -0.0182    0.0000    0.0000   -0.0030
          26    0.0000    0.0000    0.0035   -0.0001   -0.0309    0.0000    0.0001   -0.0031
          27   -0.0000   -0.0000    0.0017   -0.0001   -0.0177    0.0000    0.0000   -0.0027
          28   -0.0061   -0.0061   -0.0009    0.0002   -0.0000   -0.0010   -0.0009   -0.0003
          29    0.0002    0.0000    0.0000   -0.0001    0.0007    0.0003    0.0002   -0.0000
          30    0.0110    0.0109    0.0020   -0.0004   -0.0003    0.0014    0.0014    0.0006
          31    0.0987   -0.1506   -0.0000    0.0471    0.0002   -0.1671    0.1905   -0.0093
          32    0.0173   -0.0304   -0.0000    0.0092    0.0000   -0.0273    0.0329   -0.0016
          33   -0.0679    0.1037    0.0000   -0.0398   -0.0001    0.1373   -0.1568    0.0076
          34   -0.0405    0.0605    0.0000    0.0115    0.0000   -0.0397    0.0446   -0.0021
          35   -0.0392    0.0634    0.0000    0.0163    0.0000   -0.0518    0.0596   -0.0028
          36   -0.1307    0.1925    0.0001    0.0533    0.0002   -0.1802    0.2035   -0.0098
          37   -0.0789   -0.0727   -0.0002    0.0021    0.0010    0.0701    0.0557   -0.0020
          38    0.1025    0.0988    0.0002   -0.0031   -0.0004   -0.0921   -0.0744    0.0023
          39    0.1762    0.1639    0.0003   -0.0057   -0.0017   -0.1864   -0.1497    0.0050
          40    0.0675    0.0629    0.0002    0.0022    0.0007    0.0928    0.0752   -0.0027
          41   -0.0879   -0.0851   -0.0002   -0.0037   -0.0007   -0.1213   -0.1008    0.0036
          42    0.1346    0.1264    0.0003    0.0059    0.0015    0.2207    0.1808   -0.0065
          43    0.0229   -0.0126   -0.0001   -0.0847    0.0006   -0.0049    0.0074    0.0003
          44    0.0631   -0.0380   -0.0003   -0.1719    0.0011   -0.0114    0.0162   -0.0005
          45   -0.1098    0.0652    0.0007    0.3702   -0.0025    0.0244   -0.0347    0.0012
          46    0.0359   -0.0218    0.0002    0.1042   -0.0007    0.0072   -0.0100   -0.0002
          47   -0.1000    0.0593   -0.0005   -0.2625    0.0018   -0.0167    0.0240    0.0010
          48   -0.0882    0.0513   -0.0005   -0.2770    0.0018   -0.0175    0.0253    0.0007
          49    0.0001   -0.0002    0.2627   -0.0005    0.0095   -0.0000   -0.0002   -0.0091
          50   -0.0000    0.0000   -0.0239    0.0000   -0.0018    0.0000    0.0000   -0.0001
          51   -0.0001    0.0002   -0.2674    0.0005   -0.0108    0.0000    0.0002    0.0108
          52   -0.0002   -0.0001    0.1738   -0.0003    0.0122    0.0000   -0.0003   -0.0152
          53    0.0000   -0.0000   -0.0255    0.0000   -0.0048    0.0000   -0.0000   -0.0022
          54   -0.0005   -0.0002    0.4500   -0.0007    0.0285    0.0000   -0.0007   -0.0326
          55    0.0004    0.0004    0.0019    0.0013    0.1629   -0.0009   -0.0013   -0.0528
          56   -0.0002   -0.0001   -0.0030   -0.0026   -0.3281    0.0008    0.0018    0.1045
          57   -0.0001   -0.0001    0.0007    0.0002    0.0324   -0.0001   -0.0002   -0.0109
          58    0.0000    0.0000   -0.0228    0.0009    0.2071   -0.0002   -0.0005    0.0254
          59    0.0000    0.0000   -0.0347    0.0017    0.3715   -0.0004   -0.0009    0.0440
          60    0.0000    0.0000   -0.0209    0.0009    0.2060   -0.0002   -0.0005    0.0249
          61   -0.0002    0.0001   -0.0112    0.0000   -0.0064    0.0005   -0.0028   -0.1517
          62    0.0006   -0.0002    0.0322    0.0023    0.0239   -0.0017    0.0101    0.5694
          63   -0.0004    0.0001   -0.0169   -0.0011   -0.0118    0.0009   -0.0050   -0.2808


   Root No.      57

                57 A   

                3076.2
  
           1    0.0004
           2   -0.0001
           3    0.0004
           4   -0.0001
           5   -0.0001
           6   -0.0001
           7   -0.0001
           8   -0.0000
           9   -0.0000
          10   -0.0001
          11    0.0001
          12   -0.0000
          13   -0.0023
          14    0.0003
          15   -0.0017
          16    0.0009
          17    0.0004
          18    0.0005
          19    0.0206
          20   -0.0324
          21    0.0061
          22   -0.0027
          23    0.0079
          24   -0.0042
          25   -0.0170
          26   -0.0214
          27   -0.0151
          28    0.0010
          29   -0.0006
          30   -0.0013
          31    0.0013
          32    0.0002
          33   -0.0010
          34    0.0003
          35    0.0004
          36    0.0012
          37   -0.0006
          38   -0.0004
          39    0.0002
          40   -0.0000
          41   -0.0004
          42    0.0004
          43   -0.0002
          44   -0.0003
          45    0.0005
          46    0.0002
          47   -0.0006
          48   -0.0006
          49    0.0104
          50   -0.0012
          51   -0.0118
          52    0.0128
          53   -0.0032
          54    0.0294
          55   -0.1915
          56    0.3767
          57   -0.0397
          58    0.1483
          59    0.2591
          60    0.1461
          61    0.0241
          62   -0.0901
          63    0.0445


           MASS-WEIGHTED COORDINATE ANALYSIS (NORMAL COORDINATES)


   Root No.       1         2         3         4         5         6         7         8

                 1 A       2 A       3 A       4 A       5 A       6 A       7 A       8 A   

                  76.1     108.4     216.9     278.4     371.0     429.9     510.4     522.5
  
           1    0.0249   -0.0888   -0.0218   -0.1850    0.0987    0.1305   -0.1863    0.0324
           2   -0.0188    0.0036    0.0004    0.1231   -0.2790   -0.1084   -0.1475   -0.0585
           3   -0.1133    0.0475    0.1713    0.2881    0.2338   -0.1123   -0.2031    0.0281
           4    0.0201   -0.0916   -0.0186   -0.1815    0.1600    0.1652   -0.2499   -0.0473
           5    0.0202   -0.0059   -0.0256   -0.0594    0.1092    0.0278    0.0740   -0.1978
[...]
 TRAVEL (Ang.)       0.3703         C  3 -- H 12         +11.9% ( 36.8%)      4.2%
 REDUCED MASS        0.3487         C  3 -- H 11         +11.5% ( 36.2%)      5.1%
 EFFECTIVE MASS      3.0858         C  2 -- C  3         +10.5% ( 34.6%)      2.8%
 FORCE CONSTANT      0.4085

 VIBRATION         41   41A           ATOM PAIR      ENERGY CONTRIBUTION    RADIAL
 FREQUENCY          1414.16         C  4 -- C  6         +15.9% ( 58.2%)     89.6%
 TRANSITION DIPOLE   0.0485         C  4 -- H 16          +9.7% ( 45.3%)      5.8%
 TRAVEL (Ang.)       0.1922         C  4 -- H 15          +9.5% ( 44.9%)      6.2%
 REDUCED MASS        1.2911         C  5 -- C  9          +9.2% ( 44.2%)     71.1%
 EFFECTIVE MASS      8.5786
 FORCE CONSTANT      1.5213

 VIBRATION         42   42A           ATOM PAIR      ENERGY CONTRIBUTION    RADIAL
 FREQUENCY          1425.46         C  3 -- H 11         +18.9% ( 45.7%)      5.3%
 TRANSITION DIPOLE   0.0379         C  3 -- H 12         +18.3% ( 45.1%)      5.3%
 TRAVEL (Ang.)       0.3951         C  2 -- H 14         +13.3% ( 38.4%)      5.6%
 REDUCED MASS        0.3030         C  2 -- H 13         +13.3% ( 38.3%)      4.8%
 EFFECTIVE MASS      3.0532         C  2 -- C  3         +10.6% ( 34.3%)     96.5%
 FORCE CONSTANT      0.3627

 VIBRATION         43   43A           ATOM PAIR      ENERGY CONTRIBUTION    RADIAL
 FREQUENCY          1468.02         C  1 -- C  6         +17.6% ( 66.2%)     66.6%
 TRANSITION DIPOLE   0.1089         C  1 -- C  7         +16.2% ( 63.4%)     88.2%
 TRAVEL (Ang.)       0.1417         C  1 -- C  2         +10.4% ( 50.7%)     17.8%
 REDUCED MASS        2.2866         C  1 -- H 10         +10.3% ( 50.6%)      0.0%
 EFFECTIVE MASS     11.0396
 FORCE CONSTANT      2.9034

 VIBRATION         44   44A           ATOM PAIR      ENERGY CONTRIBUTION    RADIAL
 FREQUENCY          1863.67         C  7 -- C  9         +42.9% ( 96.9%)    100.0%
 TRANSITION DIPOLE   0.1114         C  1 -- C  7         +13.7% ( 54.7%)     48.9%
 TRAVEL (Ang.)       0.0845         C  5 -- C  9         +13.6% ( 54.5%)     50.3%
 REDUCED MASS        5.0652         C  9 -- H 20         +12.6% ( 52.5%)      5.1%
 EFFECTIVE MASS     11.8882         C  7 -- H 19         +12.6% ( 52.4%)      5.4%
 FORCE CONSTANT     10.3653

 VIBRATION         45   45A           ATOM PAIR      ENERGY CONTRIBUTION    RADIAL
 FREQUENCY          1925.53         C  6 -- C  8         +42.1% ( 96.1%)     99.2%
 TRANSITION DIPOLE   0.0537         C  4 -- C  6         +16.4% ( 60.0%)     49.0%
 TRAVEL (Ang.)       0.0814         C  1 -- C  6         +16.0% ( 59.2%)     29.1%
 REDUCED MASS        5.2858         C  5 -- C  8         +10.9% ( 48.8%)     43.0%
 EFFECTIVE MASS     11.9133         C  8 -- H 21         +10.2% ( 47.3%)      5.1%
 FORCE CONSTANT     11.5468

 VIBRATION         46   46A           ATOM PAIR      ENERGY CONTRIBUTION    RADIAL
 FREQUENCY          2856.18         C  1 -- H 10         +96.8% ( 99.9%)    100.0%
 TRANSITION DIPOLE   0.0851         C  1 -- C  2          +1.0% ( 10.1%)      9.9%
 TRAVEL (Ang.)       0.1597         C  1 -- C  6          +1.0% ( 10.0%)      9.4%
 REDUCED MASS        0.9257         C  1 -- C  7          +1.0% ( 10.0%)      7.6%
 EFFECTIVE MASS      1.4329
 FORCE CONSTANT      4.4492

 VIBRATION         47   47A           ATOM PAIR      ENERGY CONTRIBUTION    RADIAL
 FREQUENCY          2936.86         C  5 -- H 17         +60.8% ( 80.8%)     97.6%
 TRANSITION DIPOLE   0.0314         C  5 -- H 18         +37.0% ( 63.0%)     95.0%
 TRAVEL (Ang.)       0.2052         C  5 -- C  8          +1.1% ( 10.8%)      0.2%
 REDUCED MASS        0.5454         C  5 -- C  9          +1.1% ( 10.8%)      0.1%
 EFFECTIVE MASS      1.5332
 FORCE CONSTANT      2.7718

 VIBRATION         48   48A           ATOM PAIR      ENERGY CONTRIBUTION    RADIAL
 FREQUENCY          2966.81         C  4 -- H 16         +34.8% ( 61.5%)     96.7%
 TRANSITION DIPOLE   0.0297         C  4 -- H 15         +31.7% ( 58.7%)     96.2%
 TRAVEL (Ang.)       0.2833         C  3 -- H 12         +15.1% ( 40.5%)     96.9%
 REDUCED MASS        0.2832         C  3 -- H 11         +11.7% ( 35.6%)     95.4%
 EFFECTIVE MASS      1.5566
 FORCE CONSTANT      1.4687

 VIBRATION         49   49A           ATOM PAIR      ENERGY CONTRIBUTION    RADIAL
 FREQUENCY          2978.05         C  2 -- H 13         +30.9% ( 57.8%)     97.4%
 TRANSITION DIPOLE   0.0137         C  2 -- H 14         +20.5% ( 47.0%)     95.1%
 TRAVEL (Ang.)       0.3304         C  3 -- H 12         +13.2% ( 37.7%)     97.1%
 REDUCED MASS        0.2074         C  4 -- H 16         +12.4% ( 36.5%)     97.0%
 EFFECTIVE MASS      1.5422         C  4 -- H 15         +10.9% ( 34.3%)     96.4%
 FORCE CONSTANT      1.0840

 VIBRATION         50   50A           ATOM PAIR      ENERGY CONTRIBUTION    RADIAL
 FREQUENCY          2990.56         C  3 -- H 12         +27.0% ( 53.7%)     97.3%
 TRANSITION DIPOLE   0.0502         C  2 -- H 13         +25.2% ( 51.8%)     97.6%
 TRAVEL (Ang.)       0.3136         C  3 -- H 11         +21.2% ( 47.6%)     95.9%
 REDUCED MASS        0.2293         C  2 -- H 14         +16.9% ( 42.5%)     95.4%
 EFFECTIVE MASS      1.5257
 FORCE CONSTANT      1.2080

 VIBRATION         51   51A           ATOM PAIR      ENERGY CONTRIBUTION    RADIAL
 FREQUENCY          3016.80         C  5 -- H 18         +61.5% ( 77.4%)     98.8%
 TRANSITION DIPOLE   0.0804         C  5 -- H 17         +36.0% ( 59.3%)     95.6%
 TRAVEL (Ang.)       0.2110         C  5 -- C  9          +0.7% (  8.2%)     21.5%
 REDUCED MASS        0.5019         C  5 -- C  8          +0.7% (  8.2%)     23.0%
 EFFECTIVE MASS      1.2881
 FORCE CONSTANT      2.6914

 VIBRATION         52   52A           ATOM PAIR      ENERGY CONTRIBUTION    RADIAL
 FREQUENCY          3051.19         C  4 -- H 15         +50.9% ( 70.4%)     97.9%
 TRANSITION DIPOLE   0.0703         C  4 -- H 16         +45.6% ( 66.6%)     97.3%
 TRAVEL (Ang.)       0.2180         C  3 -- H 11          +1.2% ( 10.6%)     98.0%
 REDUCED MASS        0.4651         C  3 -- H 12          +1.0% (  9.6%)     96.7%
 EFFECTIVE MASS      1.2823
 FORCE CONSTANT      2.5509

 VIBRATION         53   53A           ATOM PAIR      ENERGY CONTRIBUTION    RADIAL
 FREQUENCY          3055.61         C  9 -- H 20         +60.5% ( 78.9%)    100.0%
 TRANSITION DIPOLE   0.2865         C  7 -- H 19         +36.6% ( 61.4%)    100.0%
 TRAVEL (Ang.)       0.2126         C  7 -- C  9          +1.1% ( 10.6%)      0.8%
 REDUCED MASS        0.4881         C  5 -- C  9          +0.8% (  9.2%)     22.5%
 EFFECTIVE MASS      1.4582
 FORCE CONSTANT      2.6853

 VIBRATION         54   54A           ATOM PAIR      ENERGY CONTRIBUTION    RADIAL
 FREQUENCY          3062.79         C  2 -- H 14         +34.9% ( 58.3%)     98.6%
 TRANSITION DIPOLE   0.0448         C  3 -- H 11         +22.9% ( 47.2%)     98.3%
 TRAVEL (Ang.)       0.2945         C  2 -- H 13         +22.8% ( 47.1%)     96.0%
 REDUCED MASS        0.2538         C  3 -- H 12         +17.4% ( 41.2%)     96.7%
 EFFECTIVE MASS      1.2823
 FORCE CONSTANT      1.4027

 VIBRATION         55   55A           ATOM PAIR      ENERGY CONTRIBUTION    RADIAL
 FREQUENCY          3067.42         C  3 -- H 11         +32.1% ( 55.8%)     98.4%
 TRANSITION DIPOLE   0.0507         C  2 -- H 14         +25.3% ( 49.5%)     98.7%
 TRAVEL (Ang.)       0.2983         C  3 -- H 12         +23.9% ( 48.2%)     96.7%
 REDUCED MASS        0.2470         C  2 -- H 13         +15.7% ( 39.1%)     95.9%
 EFFECTIVE MASS      1.2824
 FORCE CONSTANT      1.3694

 VIBRATION         56   56A           ATOM PAIR      ENERGY CONTRIBUTION    RADIAL
 FREQUENCY          3071.17         C  8 -- H 21         +92.8% ( 97.8%)    100.0%
 TRANSITION DIPOLE   0.3512         C  7 -- H 19          +3.0% ( 17.6%)    100.0%
 TRAVEL (Ang.)       0.1604         C  6 -- C  8          +1.5% ( 12.6%)     40.8%
 REDUCED MASS        0.8531         C  5 -- C  8          +1.4% ( 12.0%)     19.3%
 EFFECTIVE MASS      1.5263
 FORCE CONSTANT      4.7410

 VIBRATION         57   57A           ATOM PAIR      ENERGY CONTRIBUTION    RADIAL
 FREQUENCY          3076.24         C  7 -- H 19         +57.4% ( 76.9%)     99.9%
 TRANSITION DIPOLE   0.2554         C  9 -- H 20         +35.2% ( 60.2%)     99.9%
 TRAVEL (Ang.)       0.2193         C  8 -- H 21          +3.4% ( 18.7%)    100.0%
 REDUCED MASS        0.4557         C  7 -- C  9          +2.0% ( 14.3%)     98.0%
 EFFECTIVE MASS      1.5937
 FORCE CONSTANT      2.5410

      SYMMETRY NUMBER FOR POINT-GROUP C1  =  1


          SYSTEM IS A GROUND STATE



 InChI=1S/C9H12/c1-2-5-9-7-3-6-8(9)4-1/h1,4-5,8H,2-3,6-7H2


          MOLECULE IS NOT LINEAR

          THERE ARE 57 GENUINE VIBRATIONS IN THIS SYSTEM
          THIS THERMODYNAMICS CALCULATION IS LIMITED TO
          MOLECULES WHICH HAVE NO INTERNAL ROTATIONS




                    CALCULATED THERMODYNAMIC PROPERTIES
                                          *
   TEMP. (K)   PARTITION FUNCTION   H.O.F.    ENTHALPY  HEAT CAPACITY ENTROPY
                                   KCAL/MOL   CAL/MOLE    CAL/K/MOL  CAL/K/MOL


 298.00  VIB.     0.3755D+02                  3013.9904    24.7262    17.3191
         ROT.     0.3832D+06                   888.2803     2.9808    28.5289
         INT.     0.1439D+08                  3902.2707    27.7070    45.8480
         TRA.     0.1274D+28                  1480.4672     4.9680    40.2640
         TOT.                       10.726    5382.7379    32.6750    86.1121

 200.00  VIB.     0.7948D+01                  1165.7066    13.4357     9.9477
         ROT.     0.2107D+06                   596.1613     2.9808    27.3403
         INT.     0.1674D+07                  1761.8679    16.4165    37.2880
         TRA.     0.7004D+27                   993.6021     4.9680    38.2829
         TOT.                        8.099    2755.4700    21.3845    75.5709

 210.00  VIB.     0.9213D+01                  1305.0724    14.4446    10.6275
         ROT.     0.2267D+06                   625.9693     2.9808    27.4857
         INT.     0.2089D+07                  1931.0418    17.4254    38.1132
         TRA.     0.7536D+27                  1043.2822     4.9680    38.5253
         TOT.                        8.318    2974.3240    22.3934    76.6385

 220.00  VIB.     0.1071D+02                  1454.7364    15.4950    11.3235
         ROT.     0.2431D+06                   655.7774     2.9808    27.6244
         INT.     0.2602D+07                  2110.5138    18.4758    38.9479
         TRA.     0.8081D+27                  1092.9623     4.9680    38.7564
         TOT.                        8.547    3203.4762    23.4438    77.7043

 230.00  VIB.     0.1247D+02                  1615.1015    16.5843    12.0362
         ROT.     0.2598D+06                   685.5855     2.9808    27.7569
         INT.     0.3240D+07                  2300.6869    19.5651    39.7931
         TRA.     0.8638D+27                  1142.6424     4.9680    38.9773
         TOT.                        8.787    3443.3294    24.5331    78.7703

 240.00  VIB.     0.1456D+02                  1786.5399    17.7091    12.7657
         ROT.     0.2770D+06                   715.3935     2.9808    27.8837
         INT.     0.4032D+07                  2501.9335    20.6899    40.6494
         TRA.     0.9207D+27                  1192.3226     4.9680    39.1887
         TOT.                        9.038    3694.2560    25.6579    79.8381

 250.00  VIB.     0.1704D+02                  1969.3885    18.8656    13.5119
         ROT.     0.2945D+06                   745.2016     2.9808    28.0054
         INT.     0.5016D+07                  2714.5901    21.8464    41.5174
         TRA.     0.9789D+27                  1242.0027     4.9680    39.3915
         TOT.                        9.300    3956.5927    26.8144    80.9089

 260.00  VIB.     0.1999D+02                  2163.9440    20.0498    14.2748
         ROT.     0.3123D+06                   775.0097     2.9808    28.1223
         INT.     0.6242D+07                  2938.9537    23.0306    42.3972
         TRA.     0.1038D+28                  1291.6828     4.9680    39.5863
         TOT.                        9.574    4230.6365    27.9986    81.9835

 270.00  VIB.     0.2351D+02                  2370.4617    21.2573    15.0541
         ROT.     0.3305D+06                   804.8177     2.9808    28.2348
         INT.     0.7770D+07                  3175.2794    24.2381    43.2889
         TRA.     0.1099D+28                  1341.3629     4.9680    39.7738
         TOT.                        9.860    4516.6423    29.2061    83.0628

 280.00  VIB.     0.2773D+02                  2589.1535    22.4839    15.8493
         ROT.     0.3490D+06                   834.6258     2.9808    28.3432
         INT.     0.9677D+07                  3423.7792    25.4647    44.1925
         TRA.     0.1160D+28                  1391.0430     4.9680    39.9545
         TOT.                       10.158    4814.8222    30.4327    84.1471

 290.00  VIB.     0.3278D+02                  2820.1884    23.7252    16.6599
         ROT.     0.3679D+06                   864.4339     2.9808    28.4478
         INT.     0.1206D+08                  3684.6223    26.7061    45.1077
         TRA.     0.1223D+28                  1440.7231     4.9680    40.1289
         TOT.                       10.469    5125.3454    31.6741    85.2366

 300.00  VIB.     0.3886D+02                  3063.6939    24.9773    17.4853
         ROT.     0.3871D+06                   894.2419     2.9808    28.5489
         INT.     0.1504D+08                  3957.9358    27.9581    46.0342
         TRA.     0.1287D+28                  1490.4032     4.9680    40.2973
         TOT.                       10.792    5448.3390    32.9261    86.3315

 310.00  VIB.     0.4618D+02                  3319.7570    26.2361    18.3248
         ROT.     0.4066D+06                   924.0500     2.9808    28.6466
         INT.     0.1877D+08                  4243.8069    29.2169    46.9714
         TRA.     0.1352D+28                  1540.0833     4.9680    40.4602
         TOT.                       11.127    5783.8902    34.1849    87.4316

 320.00  VIB.     0.5501D+02                  3588.4268    27.4981    19.1777
         ROT.     0.4264D+06                   953.8580     2.9808    28.7413
         INT.     0.2346D+08                  4542.2848    30.4789    47.9190
         TRA.     0.1418D+28                  1589.7634     4.9680    40.6179
         TOT.                       11.475    6132.0482    35.4469    88.5369

 330.00  VIB.     0.6570D+02                  3869.7174    28.7597    20.0432
         ROT.     0.4466D+06                   983.6661     2.9808    28.8330
         INT.     0.2934D+08                  4853.3835    31.7405    48.8762
         TRA.     0.1485D+28                  1639.4435     4.9680    40.7708
         TOT.                       11.836    6492.8270    36.7086    89.6470

 340.00  VIB.     0.7867D+02                  4163.6103    30.0181    20.9205
         ROT.     0.4670D+06                  1013.4742     2.9808    28.9220
         INT.     0.3674D+08                  5177.0845    32.9989    49.8424
         TRA.     0.1553D+28                  1689.1236     4.9680    40.9191
         TOT.                       12.210    6866.2081    37.9669    90.7615

 350.00  VIB.     0.9441D+02                  4470.0581    31.2702    21.8087
         ROT.     0.4878D+06                  1043.2822     2.9808    29.0084
         INT.     0.4605D+08                  5513.3403    34.2511    50.8171
         TRA.     0.1622D+28                  1738.8037     4.9680    41.0631
         TOT.                       12.595    7252.1440    39.2191    91.8802

 360.00  VIB.     0.1136D+03                  4788.9866    32.5138    22.7070
         ROT.     0.5088D+06                  1073.0903     2.9808    29.0923
         INT.     0.5779D+08                  5862.0769    35.4946    51.7994
         TRA.     0.1692D+28                  1788.4838     4.9680    41.2031
         TOT.                       12.994    7650.5607    40.4627    93.0025

 370.00  VIB.     0.1369D+03                  5120.2988    33.7466    23.6147
         ROT.     0.5302D+06                  1102.8984     2.9808    29.1740
         INT.     0.7260D+08                  6223.1972    36.7274    52.7887
         TRA.     0.1762D+28                  1838.1639     4.9680    41.3392
         TOT.                       13.405    8061.3611    41.6955    94.1279

 380.00  VIB.     0.1655D+03                  5463.8772    34.9668    24.5309
         ROT.     0.5518D+06                  1132.7064     2.9808    29.2535
         INT.     0.9131D+08                  6596.5836    37.9476    53.7844
         TRA.     0.1834D+28                  1887.8440     4.9680    41.4717
         TOT.                       13.828    8484.4276    42.9156    95.2561

 390.00  VIB.     0.2004D+03                  5819.5867    36.1726    25.4548
         ROT.     0.5737D+06                  1162.5145     2.9808    29.3309
         INT.     0.1150D+09                  6982.1012    39.1534    54.7858
         TRA.     0.1907D+28                  1937.5242     4.9680    41.6007
         TOT.                       14.263    8919.6254    44.1214    96.3865

 400.00  VIB.     0.2432D+03                  6187.2775    37.3628    26.3857
         ROT.     0.5959D+06                  1192.3226     2.9808    29.4064
         INT.     0.1449D+09                  7379.6001    40.3436    55.7921
         TRA.     0.1981D+28                  1987.2043     4.9680    41.7265
         TOT.                       14.710    9366.8043    45.3116    97.5186

   *: NOTE: HEATS OF FORMATION ARE RELATIVE TO THE
            ELEMENTS IN THEIR STANDARD STATE AT 298K
              (=  Standard Enthalpy of Formation).

            Hvib:  Zero-point energy is not included.
                   frequencies of less than zero cm-1 are not included.
            Hrot = (3/2)RT
            Htra = (3/2)RT + pV = (5/2)RT

            Heat capacity is Cp, not Cv

          For more information, see: HTTP://OpenMOPAC.net/Manual/thermochemistry.html


           FORCE CONSTANT IN CARTESIAN COORDINATES (Millidynes/A)

    ATOM   CHEMICAL       X               Y               Z
   NUMBER   SYMBOL  FORCE CONSTANT  FORCE CONSTANT  FORCE CONSTANT

      1       C        8.652648        9.505525        8.150880
      2       C        7.950482        8.407043        8.383615
      3       C        8.877684        7.491077        8.261098
      4       C        7.878161        9.308187        8.128642
      5       C        8.804181        8.998672        8.054280
      6       C       13.651232        8.621407        6.328770
      7       C       11.690216        9.574851        6.049328
      8       C       11.840120        9.323599        6.140238
      9       C       11.610386        9.353247        6.153451
     10       H        1.130180        0.603606        4.058372
     11       H        3.412869        0.800012        2.281091
     12       H        0.971845        1.073725        4.411890
     13       H        1.234968        1.609948        3.620810
     14       H        1.276081        1.708990        3.521039
     15       H        0.869061        1.547701        3.979949
     16       H        0.954473        2.771558        2.627849
     17       H        2.935291        0.637809        2.553696
     18       H        1.296011        0.728799        4.263629
     19       H        1.527010        4.234573        0.503092
     20       H        1.495233        3.448811        1.317480
     21       H        0.878262        4.092539        1.294916

 **********************
 *                    *
 * JOB ENDED NORMALLY *
 *                    *
 **********************



 TOTAL JOB TIME:             2.49 SECONDS

 == MOPAC DONE ==
