 *******************************************************************************
 **                                                                           **
 **                              MOPAC v23.1.2                                **
 **                                                                           **
 *******************************************************************************
 **          Digital Object Identifier (DOI): 10.5281/zenodo.6511958          **
 **    Visit the DOI location for information on how to cite this program.    **
 *******************************************************************************

                              PM3 CALCULATION RESULTS

 *******************************************************************************
 *  CALCULATION DONE: (MAX THREADS = 1)              Tue Jun  3 16:38:55 2025  *
 *  PM3        - The PM3 Hamiltonian to be used
 *  PRECISE    - TIGHTER CRITERIA TO BE USED
 *  NOSYM      - POINT-GROUP SYMMETRY SET TO C1
 *  THREADS=1  - MULTI-THREADING NOT USED
 *  T=         - A TIME OF 172800.0 SECONDS REQUESTED
 *  DUMP=N     - RESTART FILE WRITTEN EVERY 7200.0 SECONDS REQUESTED
 *******************************************************************************
pm3  precise nosym THREADS=1
 InChI=1S/C12H20/c1-3-9-6-5-7-11-8-10(4-2)12(9)11/h5-6,9-12H,3-4,7-8H2,1-2H3

   ATOM   CHEMICAL          X               Y               Z
  NUMBER   SYMBOL      (ANGSTROMS)     (ANGSTROMS)     (ANGSTROMS)

     1       C          0.30930000  *  -0.10090000  *  -0.45510000  *
     2       C          1.60660000  *   0.05890000  *   0.35880000  *
     3       C          0.48550000  *  -1.63180000  *  -0.41290000  *
     4       C         -0.94910000  *   0.46060000  *   0.26440000  *
     5       C          1.78550000  *  -1.46160000  *   0.37860000  *
     6       C          2.73290000  *   0.79320000  *  -0.38880000  *
     7       C         -2.15490000  *   0.50000000  *  -0.69870000  *
     8       C         -0.61300000  *  -2.40850000  *   0.34420000  *
     9       C         -3.36010000  *   1.22170000  *  -0.09440000  *
    10       C          2.46800000  *   2.29510000  *  -0.44950000  *
    11       C         -1.27310000  *  -0.33250000  *   1.51250000  *
    12       C         -1.11170000  *  -1.66080000  *   1.55060000  *
    13       H          1.44970000  *   0.46070000  *   1.38560000  *
    14       H          0.67480000  *  -2.05890000  *  -1.42280000  *
    15       H          0.41000000  *   0.28870000  *  -1.49350000  *
    16       H         -0.72540000  *   1.50800000  *   0.56620000  *
    17       H         -1.86550000  *   1.04130000  *  -1.62590000  *
    18       H         -2.45660000  *  -0.52790000  *  -0.99070000  *
    19       H          3.69110000  *   0.62340000  *   0.14830000  *
    20       H          2.84370000  *   0.39690000  *  -1.42230000  *
    21       H          2.67070000  *  -1.81890000  *  -0.19290000  *
    22       H          1.74330000  *  -1.87450000  *   1.41070000  *
    23       H         -1.46690000  *  -2.58350000  *  -0.34290000  *
    24       H         -0.22580000  *  -3.40250000  *   0.65400000  *
    25       H         -3.08210000  *   2.25410000  *   0.20650000  *
    26       H         -3.74310000  *   0.67090000  *   0.79030000  *
    27       H         -4.17310000  *   1.27980000  *  -0.84850000  *
    28       H          2.38390000  *   2.71330000  *   0.57620000  *
    29       H          3.30840000  *   2.79960000  *  -0.97110000  *
    30       H          1.53000000  *   2.50290000  *  -1.00650000  *
    31       H         -1.30070000  *  -2.19910000  *   2.47420000  *
    32       H         -1.59230000  *   0.19220000  *   2.40790000  *



          CARTESIAN COORDINATES 

    NO.       ATOM           X           Y           Z

     1         C          0.3093     -0.1009     -0.4551
     2         C          1.6066      0.0589      0.3588
     3         C          0.4855     -1.6318     -0.4129
     4         C         -0.9491      0.4606      0.2644
     5         C          1.7855     -1.4616      0.3786
     6         C          2.7329      0.7932     -0.3888
     7         C         -2.1549      0.5000     -0.6987
     8         C         -0.6130     -2.4085      0.3442
     9         C         -3.3601      1.2217     -0.0944
    10         C          2.4680      2.2951     -0.4495
    11         C         -1.2731     -0.3325      1.5125
    12         C         -1.1117     -1.6608      1.5506
    13         H          1.4497      0.4607      1.3856
    14         H          0.6748     -2.0589     -1.4228
    15         H          0.4100      0.2887     -1.4935
    16         H         -0.7254      1.5080      0.5662
    17         H         -1.8655      1.0413     -1.6259
    18         H         -2.4566     -0.5279     -0.9907
    19         H          3.6911      0.6234      0.1483
    20         H          2.8437      0.3969     -1.4223
    21         H          2.6707     -1.8189     -0.1929
    22         H          1.7433     -1.8745      1.4107
    23         H         -1.4669     -2.5835     -0.3429
    24         H         -0.2258     -3.4025      0.6540
    25         H         -3.0821      2.2541      0.2065
    26         H         -3.7431      0.6709      0.7903
    27         H         -4.1731      1.2798     -0.8485
    28         H          2.3839      2.7133      0.5762
    29         H          3.3084      2.7996     -0.9711
    30         H          1.5300      2.5029     -1.0065
    31         H         -1.3007     -2.1991      2.4742
    32         H         -1.5923      0.1922      2.4079

  H: (PM3): J. J. P. STEWART, J. COMP. CHEM. 10, 209 (1989).
  C: (PM3): J. J. P. STEWART, J. COMP. CHEM. 10, 209 (1989).

           Empirical Formula: C12 H20  =    32 atoms



      MOLECULAR POINT GROUP   :   C1  


      RHF CALCULATION, NO. OF DOUBLY OCCUPIED LEVELS = 34


          Geometry optimization using EF

          DIAGONAL MATRIX USED AS START HESSIAN

 CYCLE:     1 TIME:   0.012 TIME LEFT:  2.00D  GRAD.:    80.316 HEAT: -8.336769
 CYCLE:     2 TIME:   0.016 TIME LEFT:  2.00D  GRAD.:    92.470 HEAT: -9.250473
 CYCLE:     3 TIME:   0.012 TIME LEFT:  2.00D  GRAD.:   107.781 HEAT: -9.291291
 CYCLE:     4 TIME:   0.020 TIME LEFT:  2.00D  GRAD.:    45.498 HEAT: -11.49997
 CYCLE:     5 TIME:   0.016 TIME LEFT:  2.00D  GRAD.:    30.724 HEAT: -12.03017
 CYCLE:     6 TIME:   0.020 TIME LEFT:  2.00D  GRAD.:    19.226 HEAT: -12.24489
 CYCLE:     7 TIME:   0.012 TIME LEFT:  2.00D  GRAD.:    19.949 HEAT: -12.38362
 CYCLE:     8 TIME:   0.008 TIME LEFT:  2.00D  GRAD.:    30.421 HEAT: -12.41189
 CYCLE:     9 TIME:   0.012 TIME LEFT:  2.00D  GRAD.:    26.087 HEAT: -12.53551
 CYCLE:    10 TIME:   0.020 TIME LEFT:  2.00D  GRAD.:    14.348 HEAT: -12.68366
 CYCLE:    11 TIME:   0.016 TIME LEFT:  2.00D  GRAD.:    10.194 HEAT: -12.72361
 CYCLE:    12 TIME:   0.012 TIME LEFT:  2.00D  GRAD.:    11.333 HEAT: -12.73478
 CYCLE:    13 TIME:   0.012 TIME LEFT:  2.00D  GRAD.:    10.779 HEAT: -12.75183
 CYCLE:    14 TIME:   0.016 TIME LEFT:  2.00D  GRAD.:     5.104 HEAT: -12.78445
 CYCLE:    15 TIME:   0.012 TIME LEFT:  2.00D  GRAD.:     7.564 HEAT: -12.78837
 CYCLE:    16 TIME:   0.012 TIME LEFT:  2.00D  GRAD.:     6.931 HEAT: -12.80748
 CYCLE:    17 TIME:   0.012 TIME LEFT:  2.00D  GRAD.:     8.573 HEAT: -12.81934
 CYCLE:    18 TIME:   0.012 TIME LEFT:  2.00D  GRAD.:     9.137 HEAT: -12.83647
 CYCLE:    19 TIME:   0.016 TIME LEFT:  2.00D  GRAD.:     6.896 HEAT: -12.85654
 CYCLE:    20 TIME:   0.012 TIME LEFT:  2.00D  GRAD.:     6.582 HEAT: -12.86859
 CYCLE:    21 TIME:   0.008 TIME LEFT:  2.00D  GRAD.:     6.141 HEAT: -12.88245
 CYCLE:    22 TIME:   0.012 TIME LEFT:  2.00D  GRAD.:     5.780 HEAT: -12.89448
 CYCLE:    23 TIME:   0.012 TIME LEFT:  2.00D  GRAD.:     7.916 HEAT: -12.90319
 CYCLE:    24 TIME:   0.008 TIME LEFT:  2.00D  GRAD.:     7.329 HEAT: -12.91864
 CYCLE:    25 TIME:   0.012 TIME LEFT:  2.00D  GRAD.:     6.458 HEAT: -12.93624
 CYCLE:    26 TIME:   0.012 TIME LEFT:  2.00D  GRAD.:     9.503 HEAT: -12.93854
 CYCLE:    27 TIME:   0.008 TIME LEFT:  2.00D  GRAD.:     7.948 HEAT: -12.96226
 CYCLE:    28 TIME:   0.012 TIME LEFT:  2.00D  GRAD.:     6.852 HEAT: -12.98234
 CYCLE:    29 TIME:   0.016 TIME LEFT:  2.00D  GRAD.:     7.755 HEAT: -12.98893
 CYCLE:    30 TIME:   0.012 TIME LEFT:  2.00D  GRAD.:     4.062 HEAT: -13.01253
 CYCLE:    31 TIME:   0.012 TIME LEFT:  2.00D  GRAD.:     6.553 HEAT: -13.02103
 CYCLE:    32 TIME:   0.008 TIME LEFT:  2.00D  GRAD.:     4.906 HEAT: -13.04062
 CYCLE:    33 TIME:   0.012 TIME LEFT:  2.00D  GRAD.:     7.519 HEAT: -13.04861
 CYCLE:    34 TIME:   0.012 TIME LEFT:  2.00D  GRAD.:     6.781 HEAT: -13.06124
 CYCLE:    35 TIME:   0.012 TIME LEFT:  2.00D  GRAD.:     5.515 HEAT: -13.07280
 CYCLE:    36 TIME:   0.008 TIME LEFT:  2.00D  GRAD.:     3.260 HEAT: -13.08496
 CYCLE:    37 TIME:   0.012 TIME LEFT:  2.00D  GRAD.:     3.494 HEAT: -13.09374
 CYCLE:    38 TIME:   0.012 TIME LEFT:  2.00D  GRAD.:     4.192 HEAT: -13.10747
 CYCLE:    39 TIME:   0.012 TIME LEFT:  2.00D  GRAD.:     4.170 HEAT: -13.12744
 CYCLE:    40 TIME:   0.008 TIME LEFT:  2.00D  GRAD.:     5.066 HEAT: -13.13265
 CYCLE:    41 TIME:   0.012 TIME LEFT:  2.00D  GRAD.:     2.651 HEAT: -13.14304
 CYCLE:    42 TIME:   0.012 TIME LEFT:  2.00D  GRAD.:     2.953 HEAT: -13.14666
 CYCLE:    43 TIME:   0.012 TIME LEFT:  2.00D  GRAD.:     2.011 HEAT: -13.15217
 CYCLE:    44 TIME:   0.008 TIME LEFT:  2.00D  GRAD.:     2.330 HEAT: -13.15702
 CYCLE:    45 TIME:   0.012 TIME LEFT:  2.00D  GRAD.:     2.189 HEAT: -13.16199
 CYCLE:    46 TIME:   0.012 TIME LEFT:  2.00D  GRAD.:     2.122 HEAT: -13.16832
 CYCLE:    47 TIME:   0.012 TIME LEFT:  2.00D  GRAD.:     1.782 HEAT: -13.17311
 CYCLE:    48 TIME:   0.012 TIME LEFT:  2.00D  GRAD.:     1.399 HEAT: -13.17710
 CYCLE:    49 TIME:   0.012 TIME LEFT:  2.00D  GRAD.:     1.438 HEAT: -13.18119
 CYCLE:    50 TIME:   0.012 TIME LEFT:  2.00D  GRAD.:     1.479 HEAT: -13.18502
 CYCLE:    51 TIME:   0.012 TIME LEFT:  2.00D  GRAD.:     1.343 HEAT: -13.18934
 CYCLE:    52 TIME:   0.012 TIME LEFT:  2.00D  GRAD.:     1.418 HEAT: -13.19289
 CYCLE:    53 TIME:   0.008 TIME LEFT:  2.00D  GRAD.:     1.539 HEAT: -13.19593
 CYCLE:    54 TIME:   0.012 TIME LEFT:  2.00D  GRAD.:     1.457 HEAT: -13.19967
 CYCLE:    55 TIME:   0.012 TIME LEFT:  2.00D  GRAD.:     1.346 HEAT: -13.20398
 CYCLE:    56 TIME:   0.012 TIME LEFT:  2.00D  GRAD.:     1.308 HEAT: -13.20726
 CYCLE:    57 TIME:   0.008 TIME LEFT:  2.00D  GRAD.:     1.311 HEAT: -13.21074
 CYCLE:    58 TIME:   0.012 TIME LEFT:  2.00D  GRAD.:     1.189 HEAT: -13.21399
 CYCLE:    59 TIME:   0.012 TIME LEFT:  2.00D  GRAD.:     1.165 HEAT: -13.21672
 CYCLE:    60 TIME:   0.012 TIME LEFT:  2.00D  GRAD.:     1.148 HEAT: -13.21884
 CYCLE:    61 TIME:   0.008 TIME LEFT:  2.00D  GRAD.:     1.053 HEAT: -13.22120
 CYCLE:    62 TIME:   0.012 TIME LEFT:  2.00D  GRAD.:     1.217 HEAT: -13.22484
 CYCLE:    63 TIME:   0.012 TIME LEFT:  2.00D  GRAD.:     1.378 HEAT: -13.22886
 CYCLE:    64 TIME:   0.012 TIME LEFT:  2.00D  GRAD.:     1.460 HEAT: -13.23364
 CYCLE:    65 TIME:   0.012 TIME LEFT:  2.00D  GRAD.:     1.441 HEAT: -13.23865
 CYCLE:    66 TIME:   0.008 TIME LEFT:  2.00D  GRAD.:     1.254 HEAT: -13.24283
 CYCLE:    67 TIME:   0.012 TIME LEFT:  2.00D  GRAD.:     1.079 HEAT: -13.24589
 CYCLE:    68 TIME:   0.012 TIME LEFT:  2.00D  GRAD.:     0.958 HEAT: -13.24824
 CYCLE:    69 TIME:   0.012 TIME LEFT:  2.00D  GRAD.:     0.932 HEAT: -13.25077
 CYCLE:    70 TIME:   0.012 TIME LEFT:  2.00D  GRAD.:     0.919 HEAT: -13.25291
 CYCLE:    71 TIME:   0.008 TIME LEFT:  2.00D  GRAD.:     0.837 HEAT: -13.25471
 CYCLE:    72 TIME:   0.012 TIME LEFT:  2.00D  GRAD.:     0.763 HEAT: -13.25618
 CYCLE:    73 TIME:   0.012 TIME LEFT:  2.00D  GRAD.:     0.692 HEAT: -13.25745
 CYCLE:    74 TIME:   0.012 TIME LEFT:  2.00D  GRAD.:     0.643 HEAT: -13.25858
 CYCLE:    75 TIME:   0.012 TIME LEFT:  2.00D  GRAD.:     0.537 HEAT: -13.25945
 CYCLE:    76 TIME:   0.008 TIME LEFT:  2.00D  GRAD.:     0.431 HEAT: -13.26006
 CYCLE:    77 TIME:   0.012 TIME LEFT:  2.00D  GRAD.:     0.417 HEAT: -13.26052
 CYCLE:    78 TIME:   0.012 TIME LEFT:  2.00D  GRAD.:     0.417 HEAT: -13.26096
 CYCLE:    79 TIME:   0.012 TIME LEFT:  2.00D  GRAD.:     0.409 HEAT: -13.26144
 CYCLE:    80 TIME:   0.012 TIME LEFT:  2.00D  GRAD.:     0.419 HEAT: -13.26191
 CYCLE:    81 TIME:   0.008 TIME LEFT:  2.00D  GRAD.:     0.456 HEAT: -13.26238
 CYCLE:    82 TIME:   0.012 TIME LEFT:  2.00D  GRAD.:     0.514 HEAT: -13.26295
 CYCLE:    83 TIME:   0.012 TIME LEFT:  2.00D  GRAD.:     0.578 HEAT: -13.26372
 CYCLE:    84 TIME:   0.012 TIME LEFT:  2.00D  GRAD.:     0.605 HEAT: -13.26466
 CYCLE:    85 TIME:   0.012 TIME LEFT:  2.00D  GRAD.:     0.569 HEAT: -13.26563
 CYCLE:    86 TIME:   0.012 TIME LEFT:  2.00D  GRAD.:     0.516 HEAT: -13.26644
 CYCLE:    87 TIME:   0.012 TIME LEFT:  2.00D  GRAD.:     0.494 HEAT: -13.26704
 CYCLE:    88 TIME:   0.012 TIME LEFT:  2.00D  GRAD.:     0.492 HEAT: -13.26756
 CYCLE:    89 TIME:   0.012 TIME LEFT:  2.00D  GRAD.:     0.496 HEAT: -13.26813
 CYCLE:    90 TIME:   0.008 TIME LEFT:  2.00D  GRAD.:     0.496 HEAT: -13.26876
 CYCLE:    91 TIME:   0.012 TIME LEFT:  2.00D  GRAD.:     0.478 HEAT: -13.26938
 CYCLE:    92 TIME:   0.012 TIME LEFT:  2.00D  GRAD.:     0.444 HEAT: -13.26993
 CYCLE:    93 TIME:   0.012 TIME LEFT:  2.00D  GRAD.:     0.399 HEAT: -13.27038
 CYCLE:    94 TIME:   0.012 TIME LEFT:  2.00D  GRAD.:     0.345 HEAT: -13.27073
 CYCLE:    95 TIME:   0.012 TIME LEFT:  2.00D  GRAD.:     0.300 HEAT: -13.27103
 CYCLE:    96 TIME:   0.008 TIME LEFT:  2.00D  GRAD.:     0.304 HEAT: -13.27128
 CYCLE:    97 TIME:   0.012 TIME LEFT:  2.00D  GRAD.:     0.286 HEAT: -13.27153
 CYCLE:    98 TIME:   0.012 TIME LEFT:  2.00D  GRAD.:     0.271 HEAT: -13.27176
 CYCLE:    99 TIME:   0.012 TIME LEFT:  2.00D  GRAD.:     0.253 HEAT: -13.27197
 CYCLE:   100 TIME:   0.012 TIME LEFT:  2.00D  GRAD.:     0.242 HEAT: -13.27214
 CYCLE:   101 TIME:   0.012 TIME LEFT:  2.00D  GRAD.:     0.266 HEAT: -13.27231
 CYCLE:   102 TIME:   0.012 TIME LEFT:  2.00D  GRAD.:     0.239 HEAT: -13.27245
 CYCLE:   103 TIME:   0.012 TIME LEFT:  2.00D  GRAD.:     0.225 HEAT: -13.27258
 CYCLE:   104 TIME:   0.012 TIME LEFT:  2.00D  GRAD.:     0.245 HEAT: -13.27271
 CYCLE:   105 TIME:   0.008 TIME LEFT:  2.00D  GRAD.:     0.197 HEAT: -13.27280
 CYCLE:   106 TIME:   0.012 TIME LEFT:  2.00D  GRAD.:     0.277 HEAT: -13.27295
 CYCLE:   107 TIME:   0.012 TIME LEFT:  2.00D  GRAD.:     0.174 HEAT: -13.27302
 CYCLE:   108 TIME:   0.012 TIME LEFT:  2.00D  GRAD.:     0.170 HEAT: -13.27308
 CYCLE:   109 TIME:   0.008 TIME LEFT:  2.00D  GRAD.:     0.132 HEAT: -13.27314
 CYCLE:   110 TIME:   0.012 TIME LEFT:  2.00D  GRAD.:     0.168 HEAT: -13.27318
 CYCLE:   111 TIME:   0.012 TIME LEFT:  2.00D  GRAD.:     0.093 HEAT: -13.27323
 CYCLE:   112 TIME:   0.008 TIME LEFT:  2.00D  GRAD.:     0.068 HEAT: -13.27325
 CYCLE:   113 TIME:   0.012 TIME LEFT:  2.00D  GRAD.:     0.064 HEAT: -13.27326
 CYCLE:   114 TIME:   0.008 TIME LEFT:  2.00D  GRAD.:     0.064 HEAT: -13.27327
 CYCLE:   115 TIME:   0.012 TIME LEFT:  2.00D  GRAD.:     0.060 HEAT: -13.27328
 CYCLE:   116 TIME:   0.012 TIME LEFT:  2.00D  GRAD.:     0.082 HEAT: -13.27330
 CYCLE:   117 TIME:   0.012 TIME LEFT:  2.00D  GRAD.:     0.070 HEAT: -13.27331
 CYCLE:   118 TIME:   0.008 TIME LEFT:  2.00D  GRAD.:     0.138 HEAT: -13.27336
 CYCLE:   119 TIME:   0.012 TIME LEFT:  2.00D  GRAD.:     0.117 HEAT: -13.27340
 CYCLE:   120 TIME:   0.012 TIME LEFT:  2.00D  GRAD.:     0.090 HEAT: -13.27345
 CYCLE:   121 TIME:   0.012 TIME LEFT:  2.00D  GRAD.:     0.092 HEAT: -13.27351
 CYCLE:   122 TIME:   0.012 TIME LEFT:  2.00D  GRAD.:     0.077 HEAT: -13.27355
 CYCLE:   123 TIME:   0.008 TIME LEFT:  2.00D  GRAD.:     0.056 HEAT: -13.27357
 CYCLE:   124 TIME:   0.012 TIME LEFT:  2.00D  GRAD.:     0.049 HEAT: -13.27358

     GRADIENT =  0.04863 IS LESS THAN CUTOFF =  0.05000



 -------------------------------------------------------------------------------
 pm3  precise nosym THREADS=1
 InChI=1S/C12H20/c1-3-9-6-5-7-11-8-10(4-2)12(9)11/h5-6,9-12H,3-4,7-8H2,1-2H3



     GEOMETRY OPTIMISED USING EIGENVECTOR FOLLOWING (EF).     
     SCF FIELD WAS ACHIEVED                                   


                              PM3 CALCULATION
                                                       MOPAC v23.1.2 MacOS
                                                       Tue Jun  3 16:38:57 2025




          FINAL HEAT OF FORMATION =        -13.27358 KCAL/MOL =     -55.53665 KJ/MOL


          COSMO AREA              =        218.78 SQUARE ANGSTROMS
          COSMO VOLUME            =        241.40 CUBIC ANGSTROMS

          GRADIENT NORM           =          0.04863          =       0.00860 PER ATOM
          IONIZATION POTENTIAL    =          9.701621 EV
          HOMO LUMO ENERGIES (EV) =         -9.702  1.161
          NO. OF FILLED LEVELS    =         34
          MOLECULAR WEIGHT        =        164.2900         POINT GROUP:  C1  

          MOLECULAR DIMENSIONS (Angstroms)

            Atom       Atom       Distance
            H    27    H    19     7.85645
            H    29    H    24     6.88632
            H    32    H    14     4.38730


          SCF CALCULATIONS        =        134

          WALL-CLOCK TIME         =      1.434 SECONDS
          COMPUTATION TIME        =      1.084 SECONDS




   ATOM   CHEMICAL          X               Y               Z
  NUMBER   SYMBOL      (ANGSTROMS)     (ANGSTROMS)     (ANGSTROMS)

     1       C          0.27899911  *  -0.14396901  *  -0.43104858  *
     2       C          1.62427088  *   0.05398142  *   0.32835582  *
     3       C          0.48099343  *  -1.68433177  *  -0.37524896  *
     4       C         -0.94462307  *   0.42623237  *   0.27586988  *
     5       C          1.83722870  *  -1.47612090  *   0.34000942  *
     6       C          2.68274883  *   0.83953095  *  -0.41681543  *
     7       C         -2.13255946  *   0.52060808  *  -0.69006044  *
     8       C         -0.54707396  *  -2.47114500  *   0.41211867  *
     9       C         -3.25679846  *   1.36494588  *  -0.13332078  *
    10       C          2.38664244  *   2.32268826  *  -0.40835177  *
    11       C         -1.32838129  *  -0.38245683  *   1.47390489  *
    12       C         -1.14471870  *  -1.70197238  *   1.53471000  *
    13       H          1.48383512  *   0.47861193  *   1.34619987  *
    14       H          0.59449406  *  -2.13623777  *  -1.38312333  *
    15       H          0.32107643  *   0.24985523  *  -1.47127011  *
    16       H         -0.67830631  *   1.45997739  *   0.61300696  *
    17       H         -1.79153273  *   0.94902486  *  -1.65437646  *
    18       H         -2.49961919  *  -0.49793306  *  -0.92739507  *
    19       H          3.66993186  *   0.64479176  *   0.04718345  *
    20       H          2.76750686  *   0.47470554  *  -1.46033560  *
    21       H          2.71254103  *  -1.82332955  *  -0.23044469  *
    22       H          1.90224808  *  -1.92217273  *   1.34414595  *
    23       H         -1.37263698  *  -2.78811015  *  -0.25796705  *
    24       H         -0.08319207  *  -3.40338155  *   0.79008938  *
    25       H         -2.93084101  *   2.39458385  *   0.06643156  *
    26       H         -3.64125804  *   0.95628700  *   0.81102750  *
    27       H         -4.09843426  *   1.41731766  *  -0.83571552  *
    28       H          2.37852942  *   2.72902802  *   0.61187257  *
    29       H          3.13695221  *   2.88324856  *  -0.97990167  *
    30       H          1.40395019  *   2.53694398  *  -0.85101374  *
    31       H         -1.44702485  *  -2.27322241  *   2.41889962  *
    32       H         -1.79150051  *   0.16230831  *   2.30402711  *

                             CARTESIAN COORDINATES

   1    C        0.278999109    -0.143969014    -0.431048579
   2    C        1.624270880     0.053981419     0.328355818
   3    C        0.480993432    -1.684331773    -0.375248957
   4    C       -0.944623073     0.426232375     0.275869881
   5    C        1.837228702    -1.476120897     0.340009424
   6    C        2.682748826     0.839530951    -0.416815431
   7    C       -2.132559464     0.520608083    -0.690060442
   8    C       -0.547073959    -2.471145001     0.412118671
   9    C       -3.256798460     1.364945883    -0.133320778
  10    C        2.386642439     2.322688255    -0.408351774
  11    C       -1.328381286    -0.382456832     1.473904887
  12    C       -1.144718697    -1.701972382     1.534710002
  13    H        1.483835125     0.478611931     1.346199875
  14    H        0.594494063    -2.136237768    -1.383123332
  15    H        0.321076426     0.249855233    -1.471270112
  16    H       -0.678306310     1.459977393     0.613006963
  17    H       -1.791532725     0.949024863    -1.654376458
  18    H       -2.499619190    -0.497933062    -0.927395069
  19    H        3.669931856     0.644791757     0.047183449
  20    H        2.767506863     0.474705537    -1.460335604
  21    H        2.712541030    -1.823329553    -0.230444693
  22    H        1.902248083    -1.922172728     1.344145953
  23    H       -1.372636983    -2.788110147    -0.257967054
  24    H       -0.083192068    -3.403381552     0.790089383
  25    H       -2.930841009     2.394583855     0.066431556
  26    H       -3.641258040     0.956286996     0.811027496
  27    H       -4.098434257     1.417317658    -0.835715522
  28    H        2.378529424     2.729028019     0.611872573
  29    H        3.136952208     2.883248561    -0.979901671
  30    H        1.403950187     2.536943978    -0.851013739
  31    H       -1.447024853    -2.273222411     2.418899624
  32    H       -1.791500505     0.162308311     2.304027108


           Empirical Formula: C12 H20  =    32 atoms



      MOLECULAR POINT GROUP   :   C1  


                  EIGENVALUES  
 -43.10727 -36.73657 -34.55464 -31.35433 -28.93169 -26.56667 -23.47082 -22.77199
 -21.17689 -21.16381 -18.86661 -17.60666 -16.70532 -16.41987 -15.90962 -15.47975
 -15.12392 -14.69606 -14.35663 -14.06877 -13.85433 -13.77567 -13.32511 -13.03465
 -12.75329 -12.49021 -12.37738 -11.94717 -11.76686 -11.58414 -11.23798 -11.14889
 -10.82748  -9.70162   1.16091   3.18678   3.30435   3.47929   3.52302   3.62211
   3.68293   3.75901   3.85215   3.87578   3.93366   4.02038   4.02890   4.10432
   4.14522   4.24144   4.31082   4.33598   4.43929   4.51412   4.52379   4.61239
   4.68936   4.79093   4.91990   4.94620   4.98179   4.98483   5.08003   5.13736
   5.51257   5.53431   5.88248   6.08951


              NET ATOMIC CHARGES AND DIPOLE CONTRIBUTIONS

  ATOM NO.   TYPE          CHARGE      No. of ELECS.   s-Pop       p-Pop       
    1          C          -0.088512        4.0885     1.19808     2.89043
    2          C          -0.096244        4.0962     1.19420     2.90204
    3          C          -0.083276        4.0833     1.18973     2.89354
    4          C          -0.031193        4.0312     1.16424     2.86695
    5          C          -0.110773        4.1108     1.17737     2.93340
    6          C          -0.088437        4.0884     1.15711     2.93132
    7          C          -0.093549        4.0935     1.16173     2.93182
    8          C          -0.049525        4.0495     1.14374     2.90578
    9          C          -0.111711        4.1117     1.13867     2.97304
   10          C          -0.111150        4.1112     1.13845     2.97270
   11          C          -0.144871        4.1449     1.19540     2.94947
   12          C          -0.141623        4.1416     1.19374     2.94789
   13          H           0.079013        0.9210     0.92099
   14          H           0.066924        0.9331     0.93308
   15          H           0.076623        0.9234     0.92338
   16          H           0.068922        0.9311     0.93108
   17          H           0.048623        0.9514     0.95138
   18          H           0.054227        0.9458     0.94577
   19          H           0.049564        0.9504     0.95044
   20          H           0.050305        0.9497     0.94969
   21          H           0.057008        0.9430     0.94299
   22          H           0.061155        0.9388     0.93885
   23          H           0.056654        0.9433     0.94335
   24          H           0.054601        0.9454     0.94540
   25          H           0.036953        0.9630     0.96305
   26          H           0.041129        0.9589     0.95887
   27          H           0.037025        0.9630     0.96298
   28          H           0.038010        0.9620     0.96199
   29          H           0.036997        0.9630     0.96300
   30          H           0.040092        0.9599     0.95991
   31          H           0.097532        0.9025     0.90247
   32          H           0.099508        0.9005     0.90049
 DIPOLE           X         Y         Z       TOTAL
 POINT-CHG.     0.014    -0.027    -0.173     0.176
 HYBRID        -0.025    -0.009     0.039     0.047
 SUM           -0.011    -0.035    -0.135     0.140


          ATOMIC ORBITAL ELECTRON POPULATIONS

     Atom    s        px        py        pz   
    1  C   1.19808   0.94265   0.95509   0.99270
    2  C   1.19420   0.95177   0.95366   0.99661
    3  C   1.18973   0.95423   0.95251   0.98681
    4  C   1.16424   0.94130   0.98395   0.94170
    5  C   1.17737   0.96706   0.95869   1.00765
    6  C   1.15711   0.97815   0.95297   1.00020
    7  C   1.16173   0.95558   1.00280   0.97344
    8  C   1.14374   0.97322   0.96911   0.96345
    9  C   1.13867   0.97705   0.99072   1.00527
   10  C   1.13845   1.00839   0.95489   1.00942
   11  C   1.19540   1.00874   0.95875   0.98198
   12  C   1.19374   1.00340   0.96030   0.98419
   13  H   0.92099
   14  H   0.93308
   15  H   0.92338
   16  H   0.93108
   17  H   0.95138
   18  H   0.94577
   19  H   0.95044
   20  H   0.94969
   21  H   0.94299
   22  H   0.93885
   23  H   0.94335
   24  H   0.94540
   25  H   0.96305
   26  H   0.95887
   27  H   0.96298
   28  H   0.96199
   29  H   0.96300
   30  H   0.95991
   31  H   0.90247
   32  H   0.90049
 *******************************************************************************
 **                                                                           **
 **                              MOPAC v23.1.2                                **
 **                                                                           **
 *******************************************************************************
 **          Digital Object Identifier (DOI): 10.5281/zenodo.6511958          **
 **    Visit the DOI location for information on how to cite this program.    **
 *******************************************************************************

                              PM3 CALCULATION RESULTS

 *******************************************************************************
 *  CALCULATION DONE: (MAX THREADS = 1)              Tue Jun  3 16:38:57 2025  *
 *  PM3        - The PM3 Hamiltonian to be used
 *  OLDGEO     - PREVIOUS GEOMETRY TO BE USED
 *  PRECISE    - TIGHTER CRITERIA TO BE USED
 *  NOSYM      - POINT-GROUP SYMMETRY SET TO C1
 *  THREADS=1  - MULTI-THREADING NOT USED
 *  T=         - A TIME OF 172800.0 SECONDS REQUESTED
 *  DUMP=N     - RESTART FILE WRITTEN EVERY 7200.0 SECONDS REQUESTED
 *  THERMO     - THERMODYNAMIC QUANTITIES TO BE CALCULATED
 *******************************************************************************
oldgeo thermo nosym precise THREADS=1  pm3
 InChI=1S/C12H20/c1-3-9-6-5-7-11-8-10(4-2)12(9)11/h5-6,9-12H,3-4,7-8H2,1-2H3

   ATOM   CHEMICAL          X               Y               Z
  NUMBER   SYMBOL      (ANGSTROMS)     (ANGSTROMS)     (ANGSTROMS)

     1       C          0.27899911  *  -0.14396901  *  -0.43104858  *
     2       C          1.62427088  *   0.05398142  *   0.32835582  *
     3       C          0.48099343  *  -1.68433177  *  -0.37524896  *
     4       C         -0.94462307  *   0.42623237  *   0.27586988  *
     5       C          1.83722870  *  -1.47612090  *   0.34000942  *
     6       C          2.68274883  *   0.83953095  *  -0.41681543  *
     7       C         -2.13255946  *   0.52060808  *  -0.69006044  *
     8       C         -0.54707396  *  -2.47114500  *   0.41211867  *
     9       C         -3.25679846  *   1.36494588  *  -0.13332078  *
    10       C          2.38664244  *   2.32268826  *  -0.40835177  *
    11       C         -1.32838129  *  -0.38245683  *   1.47390489  *
    12       C         -1.14471870  *  -1.70197238  *   1.53471000  *
    13       H          1.48383512  *   0.47861193  *   1.34619987  *
    14       H          0.59449406  *  -2.13623777  *  -1.38312333  *
    15       H          0.32107643  *   0.24985523  *  -1.47127011  *
    16       H         -0.67830631  *   1.45997739  *   0.61300696  *
    17       H         -1.79153273  *   0.94902486  *  -1.65437646  *
    18       H         -2.49961919  *  -0.49793306  *  -0.92739507  *
    19       H          3.66993186  *   0.64479176  *   0.04718345  *
    20       H          2.76750686  *   0.47470554  *  -1.46033560  *
    21       H          2.71254103  *  -1.82332955  *  -0.23044469  *
    22       H          1.90224808  *  -1.92217273  *   1.34414595  *
    23       H         -1.37263698  *  -2.78811015  *  -0.25796705  *
    24       H         -0.08319207  *  -3.40338155  *   0.79008938  *
    25       H         -2.93084101  *   2.39458385  *   0.06643156  *
    26       H         -3.64125804  *   0.95628700  *   0.81102750  *
    27       H         -4.09843426  *   1.41731766  *  -0.83571552  *
    28       H          2.37852942  *   2.72902802  *   0.61187257  *
    29       H          3.13695221  *   2.88324856  *  -0.97990167  *
    30       H          1.40395019  *   2.53694398  *  -0.85101374  *
    31       H         -1.44702485  *  -2.27322241  *   2.41889962  *
    32       H         -1.79150051  *   0.16230831  *   2.30402711  *



          CARTESIAN COORDINATES 

    NO.       ATOM           X           Y           Z

     1         C          0.2790     -0.1440     -0.4310
     2         C          1.6243      0.0540      0.3284
     3         C          0.4810     -1.6843     -0.3752
     4         C         -0.9446      0.4262      0.2759
     5         C          1.8372     -1.4761      0.3400
     6         C          2.6827      0.8395     -0.4168
     7         C         -2.1326      0.5206     -0.6901
     8         C         -0.5471     -2.4711      0.4121
     9         C         -3.2568      1.3649     -0.1333
    10         C          2.3866      2.3227     -0.4084
    11         C         -1.3284     -0.3825      1.4739
    12         C         -1.1447     -1.7020      1.5347
    13         H          1.4838      0.4786      1.3462
    14         H          0.5945     -2.1362     -1.3831
    15         H          0.3211      0.2499     -1.4713
    16         H         -0.6783      1.4600      0.6130
    17         H         -1.7915      0.9490     -1.6544
    18         H         -2.4996     -0.4979     -0.9274
    19         H          3.6699      0.6448      0.0472
    20         H          2.7675      0.4747     -1.4603
    21         H          2.7125     -1.8233     -0.2304
    22         H          1.9022     -1.9222      1.3441
    23         H         -1.3726     -2.7881     -0.2580
    24         H         -0.0832     -3.4034      0.7901
    25         H         -2.9308      2.3946      0.0664
    26         H         -3.6413      0.9563      0.8110
    27         H         -4.0984      1.4173     -0.8357
    28         H          2.3785      2.7290      0.6119
    29         H          3.1370      2.8832     -0.9799
    30         H          1.4040      2.5369     -0.8510
    31         H         -1.4470     -2.2732      2.4189
    32         H         -1.7915      0.1623      2.3040

  H: (PM3): J. J. P. STEWART, J. COMP. CHEM. 10, 209 (1989).
  C: (PM3): J. J. P. STEWART, J. COMP. CHEM. 10, 209 (1989).

           Empirical Formula: C12 H20  =    32 atoms



      MOLECULAR POINT GROUP   :   C1  


      RHF CALCULATION, NO. OF DOUBLY OCCUPIED LEVELS = 34



          HEAT OF FORMATION =     -13.273578 KCALS/MOLE


          CARTESIAN COORDINATE DERIVATIVES

   NUMBER  ATOM         X            Y            Z

     1       C     -0.001547     0.001516     0.000398
     2       C      0.002419     0.000189     0.002642
     3       C      0.005778     0.001803     0.005567
     4       C     -0.004254    -0.001926    -0.000777
     5       C      0.004352     0.001363     0.003045
     6       C      0.003913    -0.000830     0.000801
     7       C     -0.009141    -0.003190     0.000125
     8       C      0.007491     0.000999     0.004092
     9       C      0.000350     0.007657     0.006039
    10       C      0.007464    -0.004548     0.002044
    11       C     -0.005601    -0.005753    -0.002061
    12       C     -0.000737     0.001253     0.002468
    13       H     -0.008505     0.004816    -0.004638
    14       H      0.004387     0.004000     0.002580
    15       H     -0.011265    -0.003355    -0.006794
    16       H     -0.003741    -0.003440     0.001518
    17       H      0.001900     0.008671     0.000103
    18       H     -0.001109    -0.005974    -0.000570
    19       H      0.004009     0.001433     0.004464
    20       H     -0.003478    -0.000232    -0.001431
    21       H      0.004568     0.002185     0.002549
    22       H     -0.012192    -0.000034    -0.004284
    23       H      0.007902     0.002074     0.000370
    24       H     -0.002541     0.004934    -0.003633
    25       H      0.008424    -0.009353    -0.000005
    26       H      0.001876     0.002550    -0.012121
    27       H     -0.018559    -0.000082    -0.008192
    28       H      0.005619     0.000577     0.005360
    29       H      0.006238    -0.001468     0.000812
    30       H      0.005722     0.000330    -0.001204
    31       H     -0.000033    -0.002728     0.000307
    32       H      0.000291    -0.003437     0.000425



          GRADIENT NORM =   0.04804

          MOLECULAR WEIGHT =  164.29



          ROTATIONAL CONSTANTS IN CM(-1)

          A =    0.03932370   B =    0.02559055   C =    0.01798968



           PRINCIPAL MOMENTS OF INERTIA IN UNITS OF 10**(-40)*GRAM-CM**2

          A =      711.8545   B =     1093.8708   C =     1556.0453


          ORIENTATION OF MOLECULE IN FORCE CALCULATION

    NO.       ATOM         X         Y         Z

     1          C      -0.0330    0.0053    0.6381
     2          C       1.5245    0.0053    0.6381
     3          C      -0.0270    1.5598    0.6381
     4          C      -0.6727   -0.6909   -0.5570
     5          C       1.5196    1.5495    0.6823
     6          C       2.1753   -0.6648    1.8298
     7          C      -2.1578   -0.9678   -0.2906
     8          C      -0.6311    2.2364   -0.5757
     9          C      -2.7501   -1.9283   -1.2973
    10          C       2.1121   -2.1724    1.7260
    11          C      -0.5228    0.1030   -1.8155
    12          C      -0.5022    1.4364   -1.8216
    13          H       1.9535   -0.3988   -0.3047
    14          H      -0.4779    1.9879    1.5581
    15          H      -0.4538   -0.4152    1.5788
    16          H      -0.1469   -1.6705   -0.6878
    17          H      -2.2790   -1.3822    0.7308
    18          H      -2.7200   -0.0127   -0.2955
    19          H       3.2295   -0.3309    1.9002
    20          H       1.6933   -0.3279    2.7697
    21          H       1.9534    1.9852    1.5956
    22          H       2.0087    2.0341   -0.1765
    23          H      -1.7113    2.4233   -0.4040
    24          H      -0.1646    3.2322   -0.7094
    25          H      -2.2403   -2.9010   -1.2793
    26          H      -2.6737   -1.5397   -2.3219
    27          H      -3.8129   -2.1107   -1.0933
    28          H       2.6542   -2.5415    0.8451
    29          H       2.5528   -2.6525    2.6087
    30          H       1.0747   -2.5243    1.6398
    31          H      -0.4048    1.9945   -2.7589
    32          H      -0.4488   -0.4675   -2.7479


    FIRST DERIVATIVES WILL BE USED IN THE CALCULATION OF SECOND DERIVATIVES

          ESTIMATED TIME TO COMPLETE CALCULATION =        4.50 SECONDS

    FOR POINT-GROUP C1   THERE ARE   1 UNIQUE SYMMETRY FUNCTIONS.

 STEP:   1 TIME =     0.04 SECS, INTEGRAL =      0.04 TIME LEFT: 172799.95
 STEP:   2 TIME =     0.04 SECS, INTEGRAL =      0.07 TIME LEFT: 172799.91
 STEP:   3 TIME =     0.04 SECS, INTEGRAL =      0.11 TIME LEFT: 172799.88
 STEP:   4 TIME =     0.04 SECS, INTEGRAL =      0.14 TIME LEFT: 172799.84
 STEP:   5 TIME =     0.04 SECS, INTEGRAL =      0.18 TIME LEFT: 172799.80
 STEP:   6 TIME =     0.04 SECS, INTEGRAL =      0.22 TIME LEFT: 172799.77
 STEP:   7 TIME =     0.04 SECS, INTEGRAL =      0.25 TIME LEFT: 172799.73
 STEP:   8 TIME =     0.04 SECS, INTEGRAL =      0.29 TIME LEFT: 172799.70
 STEP:   9 TIME =     0.04 SECS, INTEGRAL =      0.32 TIME LEFT: 172799.66
 STEP:  10 TIME =     0.04 SECS, INTEGRAL =      0.36 TIME LEFT: 172799.63
 STEP:  11 TIME =     0.04 SECS, INTEGRAL =      0.39 TIME LEFT: 172799.59
 STEP:  12 TIME =     0.04 SECS, INTEGRAL =      0.43 TIME LEFT: 172799.56
 STEP:  13 TIME =     0.04 SECS, INTEGRAL =      0.47 TIME LEFT: 172799.52
 STEP:  14 TIME =     0.04 SECS, INTEGRAL =      0.50 TIME LEFT: 172799.48
 STEP:  15 TIME =     0.04 SECS, INTEGRAL =      0.54 TIME LEFT: 172799.45
 STEP:  16 TIME =     0.04 SECS, INTEGRAL =      0.58 TIME LEFT: 172799.41
 STEP:  17 TIME =     0.04 SECS, INTEGRAL =      0.62 TIME LEFT: 172799.37
 STEP:  18 TIME =     0.04 SECS, INTEGRAL =      0.66 TIME LEFT: 172799.33
 STEP:  19 TIME =     0.04 SECS, INTEGRAL =      0.69 TIME LEFT: 172799.30
 STEP:  20 TIME =     0.04 SECS, INTEGRAL =      0.73 TIME LEFT: 172799.26
 STEP:  21 TIME =     0.04 SECS, INTEGRAL =      0.76 TIME LEFT: 172799.23
 STEP:  22 TIME =     0.04 SECS, INTEGRAL =      0.80 TIME LEFT: 172799.19
 STEP:  23 TIME =     0.04 SECS, INTEGRAL =      0.83 TIME LEFT: 172799.16
 STEP:  24 TIME =     0.04 SECS, INTEGRAL =      0.87 TIME LEFT: 172799.12
 STEP:  25 TIME =     0.04 SECS, INTEGRAL =      0.91 TIME LEFT: 172799.08
 STEP:  26 TIME =     0.04 SECS, INTEGRAL =      0.95 TIME LEFT: 172799.04
 STEP:  27 TIME =     0.04 SECS, INTEGRAL =      0.98 TIME LEFT: 172799.01
 STEP:  28 TIME =     0.04 SECS, INTEGRAL =      1.02 TIME LEFT: 172798.97
 STEP:  29 TIME =     0.04 SECS, INTEGRAL =      1.06 TIME LEFT: 172798.93
 STEP:  30 TIME =     0.04 SECS, INTEGRAL =      1.10 TIME LEFT: 172798.89
 STEP:  31 TIME =     0.04 SECS, INTEGRAL =      1.14 TIME LEFT: 172798.84
 STEP:  32 TIME =     0.04 SECS, INTEGRAL =      1.18 TIME LEFT: 172798.80
 STEP:  33 TIME =     0.04 SECS, INTEGRAL =      1.22 TIME LEFT: 172798.77
 STEP:  34 TIME =     0.04 SECS, INTEGRAL =      1.26 TIME LEFT: 172798.73
 STEP:  35 TIME =     0.04 SECS, INTEGRAL =      1.29 TIME LEFT: 172798.70
 STEP:  36 TIME =     0.04 SECS, INTEGRAL =      1.33 TIME LEFT: 172798.66
 STEP:  37 TIME =     0.04 SECS, INTEGRAL =      1.36 TIME LEFT: 172798.62
 STEP:  38 TIME =     0.04 SECS, INTEGRAL =      1.40 TIME LEFT: 172798.59
 STEP:  39 TIME =     0.04 SECS, INTEGRAL =      1.44 TIME LEFT: 172798.55
 STEP:  40 TIME =     0.04 SECS, INTEGRAL =      1.47 TIME LEFT: 172798.52
 STEP:  41 TIME =     0.04 SECS, INTEGRAL =      1.51 TIME LEFT: 172798.48
 STEP:  42 TIME =     0.04 SECS, INTEGRAL =      1.54 TIME LEFT: 172798.45
 STEP:  43 TIME =     0.04 SECS, INTEGRAL =      1.58 TIME LEFT: 172798.41
 STEP:  44 TIME =     0.04 SECS, INTEGRAL =      1.62 TIME LEFT: 172798.37
 STEP:  45 TIME =     0.04 SECS, INTEGRAL =      1.66 TIME LEFT: 172798.33
 STEP:  46 TIME =     0.04 SECS, INTEGRAL =      1.70 TIME LEFT: 172798.29
 STEP:  47 TIME =     0.04 SECS, INTEGRAL =      1.74 TIME LEFT: 172798.25
 STEP:  48 TIME =     0.04 SECS, INTEGRAL =      1.78 TIME LEFT: 172798.21
 STEP:  49 TIME =     0.04 SECS, INTEGRAL =      1.82 TIME LEFT: 172798.17
 STEP:  50 TIME =     0.04 SECS, INTEGRAL =      1.86 TIME LEFT: 172798.13
 STEP:  51 TIME =     0.04 SECS, INTEGRAL =      1.89 TIME LEFT: 172798.10
 STEP:  52 TIME =     0.04 SECS, INTEGRAL =      1.93 TIME LEFT: 172798.06
 STEP:  53 TIME =     0.04 SECS, INTEGRAL =      1.96 TIME LEFT: 172798.03
 STEP:  54 TIME =     0.04 SECS, INTEGRAL =      2.00 TIME LEFT: 172797.99
 STEP:  55 TIME =     0.04 SECS, INTEGRAL =      2.04 TIME LEFT: 172797.95
 STEP:  56 TIME =     0.04 SECS, INTEGRAL =      2.07 TIME LEFT: 172797.91
 STEP:  57 TIME =     0.04 SECS, INTEGRAL =      2.12 TIME LEFT: 172797.87
 STEP:  58 TIME =     0.04 SECS, INTEGRAL =      2.16 TIME LEFT: 172797.83
 STEP:  59 TIME =     0.04 SECS, INTEGRAL =      2.19 TIME LEFT: 172797.80
 STEP:  60 TIME =     0.04 SECS, INTEGRAL =      2.23 TIME LEFT: 172797.76
 STEP:  61 TIME =     0.04 SECS, INTEGRAL =      2.27 TIME LEFT: 172797.72
 STEP:  62 TIME =     0.04 SECS, INTEGRAL =      2.30 TIME LEFT: 172797.69
 STEP:  63 TIME =     0.04 SECS, INTEGRAL =      2.34 TIME LEFT: 172797.65
 STEP:  64 TIME =     0.04 SECS, INTEGRAL =      2.38 TIME LEFT: 172797.61
 STEP:  65 TIME =     0.04 SECS, INTEGRAL =      2.41 TIME LEFT: 172797.57
 STEP:  66 TIME =     0.04 SECS, INTEGRAL =      2.45 TIME LEFT: 172797.54
 STEP:  67 TIME =     0.04 SECS, INTEGRAL =      2.49 TIME LEFT: 172797.50
 STEP:  68 TIME =     0.04 SECS, INTEGRAL =      2.53 TIME LEFT: 172797.46
 STEP:  69 TIME =     0.04 SECS, INTEGRAL =      2.57 TIME LEFT: 172797.42
 STEP:  70 TIME =     0.04 SECS, INTEGRAL =      2.61 TIME LEFT: 172797.38
 STEP:  71 TIME =     0.04 SECS, INTEGRAL =      2.64 TIME LEFT: 172797.34
 STEP:  72 TIME =     0.04 SECS, INTEGRAL =      2.68 TIME LEFT: 172797.30
 STEP:  73 TIME =     0.04 SECS, INTEGRAL =      2.72 TIME LEFT: 172797.27
 STEP:  74 TIME =     0.04 SECS, INTEGRAL =      2.75 TIME LEFT: 172797.23
 STEP:  75 TIME =     0.04 SECS, INTEGRAL =      2.79 TIME LEFT: 172797.20
 STEP:  76 TIME =     0.04 SECS, INTEGRAL =      2.83 TIME LEFT: 172797.16
 STEP:  77 TIME =     0.04 SECS, INTEGRAL =      2.87 TIME LEFT: 172797.12
 STEP:  78 TIME =     0.04 SECS, INTEGRAL =      2.91 TIME LEFT: 172797.08
 STEP:  79 TIME =     0.04 SECS, INTEGRAL =      2.94 TIME LEFT: 172797.05
 STEP:  80 TIME =     0.04 SECS, INTEGRAL =      2.98 TIME LEFT: 172797.01
 STEP:  81 TIME =     0.04 SECS, INTEGRAL =      3.02 TIME LEFT: 172796.97
 STEP:  82 TIME =     0.04 SECS, INTEGRAL =      3.05 TIME LEFT: 172796.93
 STEP:  83 TIME =     0.04 SECS, INTEGRAL =      3.09 TIME LEFT: 172796.90
 STEP:  84 TIME =     0.04 SECS, INTEGRAL =      3.13 TIME LEFT: 172796.86
 STEP:  85 TIME =     0.04 SECS, INTEGRAL =      3.16 TIME LEFT: 172796.82
 STEP:  86 TIME =     0.04 SECS, INTEGRAL =      3.20 TIME LEFT: 172796.79
 STEP:  87 TIME =     0.04 SECS, INTEGRAL =      3.24 TIME LEFT: 172796.75
 STEP:  88 TIME =     0.04 SECS, INTEGRAL =      3.27 TIME LEFT: 172796.71
 STEP:  89 TIME =     0.04 SECS, INTEGRAL =      3.31 TIME LEFT: 172796.68
 STEP:  90 TIME =     0.04 SECS, INTEGRAL =      3.35 TIME LEFT: 172796.64
 STEP:  91 TIME =     0.04 SECS, INTEGRAL =      3.39 TIME LEFT: 172796.60
 STEP:  92 TIME =     0.04 SECS, INTEGRAL =      3.42 TIME LEFT: 172796.57
 STEP:  93 TIME =     0.04 SECS, INTEGRAL =      3.46 TIME LEFT: 172796.53
 STEP:  94 TIME =     0.04 SECS, INTEGRAL =      3.50 TIME LEFT: 172796.49
 STEP:  95 TIME =     0.04 SECS, INTEGRAL =      3.54 TIME LEFT: 172796.45
 STEP:  96 TIME =     0.04 SECS, INTEGRAL =      3.57 TIME LEFT: 172796.42

(To convert to Hartree/Bohr^2, multiply by (10^(-21) x N x a0^2)/(4.184 x 627.51) =  0.0642)


           FORCE MATRIX IN MILLIDYNES/ANGSTROM


                  C  1       C  2       C  3       C  4       C  5       C  6
 ------------------------------------------------------------------------------
     C    1  14.288926
     C    2   3.172257  14.481257
     C    3   3.233575   1.790244  14.459217
     C    4   3.973174   0.519446   0.503124  14.635570
     C    5   1.801812   3.555218   3.488106   0.038762  14.389820
     C    6   0.531375   4.316260   0.042858   0.033879   0.541931  14.492529
     C    7   0.638690   0.043449   0.016797   3.713591   0.005268   0.005350
     C    8   0.524114   0.038558   4.261102   0.107060   0.542674   0.002860
     C    9   0.051653   0.007920   0.002312   0.621829   0.000775   0.001525
     C   10   0.030990   0.664503   0.004719   0.005225   0.050776   4.462522
     C   11   0.670296   0.032768   0.057383   4.695437   0.010865   0.002558
     C   12   0.058891   0.012865   0.684130   0.826503   0.028549   0.001231
     H   13   0.438675   4.388310   0.025362   0.036578   0.428840   0.429395
     H   14   0.428161   0.028758   4.430730   0.033343   0.428240   0.003776
     H   15   4.341692   0.437086   0.429419   0.428314   0.026948   0.035053
     H   16   0.414042   0.034896   0.042819   4.156343   0.002442   0.002362
     H   17   0.057757   0.001957   0.002049   0.444311   0.000518   0.000559
     H   18   0.014242   0.000982   0.003094   0.446661   0.000436   0.000368
     H   19   0.046582   0.433034   0.003972   0.005847   0.019072   4.456802
     H   20   0.025186   0.450853   0.002287   0.001602   0.019040   4.434642
     H   21   0.030649   0.453316   0.443322   0.001175   4.670864   0.028873
     H   22   0.029681   0.443628   0.453316   0.003821   4.686597   0.032763
     H   23   0.007031   0.003923   0.439681   0.015841   0.043981   0.000980
     H   24   0.045223   0.003137   0.433994   0.006495   0.025359   0.000897
     H   25   0.002092   0.000382   0.000422   0.022977   0.000104   0.000112
     H   26   0.001331   0.000525   0.000360   0.020361   0.000163   0.000104
     H   27   0.008916   0.001522   0.000638   0.050587   0.000199   0.000410
     H   28   0.002006   0.022994   0.000465   0.001200   0.001561   0.463898
     H   29   0.002096   0.052555   0.000631   0.000280   0.008848   0.451272
     H   30   0.007215   0.022412   0.000565   0.005071   0.002015   0.463576
     H   31   0.008021   0.000576   0.040355   0.124867   0.001317   0.000400
     H   32   0.039933   0.001787   0.009892   0.431176   0.000531   0.000890


                  C  7       C  8       C  9       C 10       C 11       C 12
 ------------------------------------------------------------------------------
     C    7  14.241462
     C    8   0.024039  14.813067
     C    9   4.466182   0.001641  14.354941
     C   10   0.000542   0.000718   0.000298  14.371061
     C   11   0.683276   0.865321   0.054773   0.000692  18.145531
     C   12   0.037670   5.000452   0.003832   0.000403  10.694204  18.190732
     H   13   0.002553   0.003060   0.000812   0.033300   0.009265   0.003561
     H   14   0.001294   0.418639   0.000520   0.000827   0.003369   0.046653
     H   15   0.070744   0.034616   0.002328   0.008188   0.044416   0.003369
     H   16   0.434158   0.006096   0.035475   0.002799   0.419225   0.046698
     H   17   4.424062   0.002651   0.435883   0.000446   0.046360   0.004692
     H   18   4.452375   0.004120   0.438812   0.000160   0.031339   0.005592
     H   19   0.001225   0.000799   0.000466   0.440204   0.000474   0.000278
     H   20   0.000456   0.000600   0.000155   0.437625   0.000778   0.000304
     H   21   0.000645   0.034134   0.000134   0.002841   0.000789   0.001982
     H   22   0.000837   0.025977   0.000171   0.006047   0.001988   0.006268
     H   23   0.004281   4.394979   0.000735   0.000278   0.027677   0.406110
     H   24   0.001100   4.462437   0.000397   0.000209   0.049213   0.440837
     H   25   0.464023   0.000257   4.717134   0.000118   0.002752   0.000632
     H   26   0.464884   0.000571   4.713990   0.000109   0.011750   0.001599
     H   27   0.449845   0.000284   4.749369   0.000104   0.003469   0.000489
     H   28   0.000275   0.000126   0.000170   4.723614   0.000556   0.000202
     H   29   0.000259   0.000185   0.000135   4.756680   0.000290   0.000234
     H   30   0.000789   0.000374   0.000257   4.703387   0.000642   0.000396
     H   31   0.018599   0.429607   0.001143   0.000261   0.444854   4.839174
     H   32   0.013600   0.126680   0.011267   0.000286   4.826558   0.445182


                  H 13       H 14       H 15       H 16       H 17       H 18
 ------------------------------------------------------------------------------
     H   13   4.892701
     H   14   0.001112   4.914773
     H   15   0.030672   0.031391   4.841515
     H   16   0.027014   0.005098   0.020586   4.613472
     H   17   0.000486   0.000473   0.030886   0.020779   5.034914
     H   18   0.000436   0.000480   0.002283   0.043625   0.566035   5.062410
     H   19   0.024444   0.000721   0.003110   0.000472   0.000157   0.000110
     H   20   0.042853   0.000999   0.028256   0.000411   0.000215   0.000091
     H   21   0.031801   0.027857   0.002787   0.000619   0.000121   0.000210
     H   22   0.027704   0.031592   0.000829   0.000662   0.000243   0.000207
     H   23   0.000666   0.036851   0.000792   0.000975   0.000547   0.008699
     H   24   0.000619   0.021107   0.005462   0.000791   0.000394   0.000452
     H   25   0.000164   0.000157   0.000425   0.024118   0.025702   0.048129
     H   26   0.000189   0.000161   0.000503   0.002102   0.048308   0.023727
     H   27   0.000164   0.000133   0.000548   0.002336   0.030861   0.030198
     H   28   0.021523   0.000172   0.000500   0.001827   0.000114   0.000128
     H   29   0.002037   0.000149   0.000549   0.000468   0.000133   0.000095
     H   30   0.002272   0.000231   0.010760   0.007931   0.000998   0.000174
     H   31   0.000549   0.006408   0.001252   0.010883   0.003054   0.001159
     H   32   0.001386   0.001256   0.005980   0.037440   0.002041   0.002383


                  H 19       H 20       H 21       H 22       H 23       H 24
 ------------------------------------------------------------------------------
     H   19   5.067193
     H   20   0.572571   5.053390
     H   21   0.011005   0.014742   5.297216
     H   22   0.001892   0.001203   0.549871   5.307990
     H   23   0.000201   0.000160   0.004902   0.003270   4.974143
     H   24   0.000262   0.000182   0.002517   0.021635   0.559157   5.048933
     H   25   0.000049   0.000035   0.000049   0.000057   0.000333   0.000108
     H   26   0.000046   0.000069   0.000030   0.000102   0.000304   0.000174
     H   27   0.000132   0.000057   0.000025   0.000034   0.000191   0.000090
     H   28   0.025615   0.048365   0.000452   0.000304   0.000051   0.000021
     H   29   0.027325   0.031193   0.000670   0.001152   0.000103   0.000067
     H   30   0.049156   0.022829   0.000415   0.000413   0.000093   0.000117
     H   31   0.000092   0.000138   0.000450   0.001188   0.015571   0.036063
     H   32   0.000208   0.000321   0.000299   0.000457   0.017332   0.011167


                  H 25       H 26       H 27       H 28       H 29       H 30
 ------------------------------------------------------------------------------
     H   25   5.461665
     H   26   0.577650   5.456761
     H   27   0.573279   0.572440   5.485965
     H   28   0.000055   0.000046   0.000050   5.466675
     H   29   0.000042   0.000033   0.000036   0.572604   5.490830
     H   30   0.000108   0.000078   0.000087   0.577861   0.567739   5.438289
     H   31   0.000264   0.000522   0.000236   0.000090   0.000087   0.000113
     H   32   0.000545   0.020701   0.000668   0.000169   0.000098   0.000163


                  H 31       H 32
 ------------------------------
     H   31   5.212027
     H   32   0.070751   5.202828


          HEAT OF FORMATION =     -13.273578 KCALS/MOLE

          ZERO POINT ENERGY     181.962 KCAL/MOL


           NORMAL COORDINATE ANALYSIS (Total motion = 1 Angstrom)


   Root No.       1         2         3         4         5         6         7         8

                 1 A       2 A       3 A       4 A       5 A       6 A       7 A       8 A   

                  51.2      58.3      91.4      98.5     160.5     162.6     195.1     209.7
  
           1   -0.0013    0.0078   -0.0072    0.0014    0.0018   -0.0156    0.0036   -0.0066
           2   -0.0069   -0.0082   -0.0030   -0.0098   -0.0098    0.0130    0.0019   -0.0031
           3    0.0078   -0.0043   -0.0042    0.0008   -0.0132    0.0178    0.0005    0.0038
           4   -0.0013    0.0079   -0.0068    0.0015    0.0019   -0.0147    0.0039   -0.0039
           5    0.0043   -0.0092   -0.0174   -0.0032   -0.0005   -0.0058    0.0027   -0.0017
           6    0.0048   -0.0077    0.0051   -0.0086    0.0019    0.0018    0.0032   -0.0092
           7   -0.0122    0.0088    0.0075   -0.0053   -0.0077    0.0051    0.0035   -0.0040
           8   -0.0067   -0.0081   -0.0028   -0.0097   -0.0096    0.0137    0.0023   -0.0022
           9    0.0008    0.0002   -0.0034    0.0077   -0.0012    0.0011   -0.0031    0.0065
          10   -0.0007    0.0049   -0.0095   -0.0018   -0.0009   -0.0136    0.0035   -0.0161
          11   -0.0129   -0.0026    0.0064   -0.0000   -0.0014    0.0056   -0.0047    0.0000
          12    0.0108   -0.0066   -0.0089   -0.0035   -0.0171    0.0208    0.0047    0.0061
          13   -0.0124    0.0094    0.0074   -0.0049   -0.0090    0.0055    0.0033   -0.0051
          14    0.0043   -0.0086   -0.0167   -0.0029   -0.0007   -0.0057    0.0024   -0.0026
          15    0.0063   -0.0254   -0.0165   -0.0099    0.0273   -0.0150    0.0060    0.0135
          16    0.0082    0.0083   -0.0187    0.0132    0.0084    0.0026    0.0030    0.0271
          17    0.0083    0.0092    0.0014    0.0046    0.0022   -0.0025   -0.0001    0.0066
          18    0.0018    0.0029    0.0228   -0.0107    0.0005   -0.0067    0.0022   -0.0218
          19   -0.0055    0.0084   -0.0109   -0.0097    0.0000   -0.0150    0.0052   -0.0189
          20    0.0078   -0.0140    0.0101    0.0279    0.0011   -0.0054   -0.0141   -0.0018
          21    0.0052    0.0016   -0.0109   -0.0175   -0.0043   -0.0031    0.0064   -0.0081
          22   -0.0102   -0.0127    0.0030   -0.0201    0.0174    0.0051    0.0085    0.0207
          23   -0.0186   -0.0028    0.0062   -0.0116    0.0046    0.0073    0.0055    0.0069
          24   -0.0073    0.0143    0.0042    0.0138   -0.0062   -0.0023   -0.0040   -0.0008
          25   -0.0276   -0.0030   -0.0056   -0.0014   -0.0160    0.0171    0.0036   -0.0013
          26    0.0499    0.0183   -0.0069   -0.0045   -0.0020   -0.0068    0.0085   -0.0085
          27   -0.0218   -0.0225    0.0022    0.0086    0.0086   -0.0224   -0.0149   -0.0141
          28    0.0347   -0.0100    0.0508   -0.0019    0.0155    0.0105    0.0002    0.0083
          29    0.0079    0.0076   -0.0005    0.0039    0.0016   -0.0030    0.0001    0.0059
          30   -0.0079    0.0398    0.0128    0.0108    0.0180   -0.0033   -0.0005    0.0170
          31    0.0169   -0.0096   -0.0100    0.0208   -0.0119   -0.0014   -0.0160   -0.0128
          32   -0.0236    0.0077    0.0119    0.0017    0.0057   -0.0034   -0.0034   -0.0008
          33    0.0059   -0.0019   -0.0056   -0.0003   -0.0138    0.0164    0.0031    0.0061
          34    0.0118   -0.0194   -0.0056    0.0106   -0.0008    0.0065   -0.0240    0.0070
          35   -0.0234    0.0079    0.0119    0.0022    0.0054   -0.0036   -0.0036   -0.0013
          36   -0.0023    0.0069   -0.0002    0.0075   -0.0082    0.0050   -0.0010    0.0033
          37   -0.0014    0.0075   -0.0030   -0.0030    0.0113   -0.0331    0.0052   -0.0155
          38    0.0088   -0.0230   -0.0363   -0.0038    0.0147   -0.0175    0.0050    0.0068
          39    0.0028   -0.0017    0.0151   -0.0103   -0.0000   -0.0023    0.0028   -0.0177
          40   -0.0198    0.0251    0.0200    0.0018   -0.0285    0.0195   -0.0004   -0.0126
          41   -0.0043   -0.0119   -0.0005   -0.0144   -0.0205    0.0304    0.0026   -0.0025
          42   -0.0042    0.0101    0.0018    0.0132   -0.0063    0.0003   -0.0050    0.0022
          43    0.0037    0.0092   -0.0169    0.0069    0.0012   -0.0164    0.0038    0.0022
          44   -0.0063   -0.0115   -0.0011   -0.0186   -0.0184    0.0265    0.0062   -0.0042
          45    0.0102   -0.0053   -0.0077   -0.0009   -0.0169    0.0226    0.0025    0.0067
          46   -0.0110    0.0094   -0.0128   -0.0174   -0.0019   -0.0093    0.0084   -0.0176
          47   -0.0198    0.0016    0.0055   -0.0087   -0.0000    0.0059   -0.0012   -0.0010
          48    0.0228   -0.0187   -0.0148    0.0008   -0.0284    0.0317    0.0014    0.0064
          49   -0.0114    0.0216   -0.0159   -0.0338    0.0093   -0.0303    0.0049   -0.0309
          50   -0.0196   -0.0474    0.0270    0.0692    0.0063   -0.0119   -0.0350    0.0017
          51   -0.0067   -0.0104   -0.0047   -0.0036   -0.0009   -0.0079   -0.0024   -0.0084
          52    0.0136    0.0071   -0.0114    0.0011    0.0027   -0.0244    0.0070   -0.0226
          53    0.0193   -0.0146    0.0098    0.0342    0.0027   -0.0112   -0.0129   -0.0042
          54    0.0340    0.0393   -0.0292   -0.0647   -0.0028   -0.0095    0.0263   -0.0195
          55    0.0023    0.0127   -0.0350    0.0174    0.0083    0.0023    0.0036    0.0335
          56    0.0261   -0.0016    0.0457   -0.0041    0.0060    0.0027   -0.0021   -0.0038
          57    0.0055   -0.0123    0.0598   -0.0315   -0.0119   -0.0243    0.0026   -0.0639
          58    0.0010    0.0189   -0.0636    0.0308    0.0161    0.0158    0.0038    0.0620
          59   -0.0059    0.0368   -0.0242    0.0210    0.0077   -0.0039   -0.0009    0.0322
          60    0.0031   -0.0015    0.0090   -0.0075    0.0026    0.0004    0.0029   -0.0130
          61   -0.0191    0.0260    0.0205    0.0043   -0.0304    0.0214   -0.0030   -0.0108
          62    0.0060    0.0030   -0.0068    0.0003   -0.0141   -0.0010    0.0004   -0.0173
          63    0.0086   -0.0389   -0.0275   -0.0158    0.0442   -0.0249    0.0101    0.0236
          64   -0.0124   -0.0059    0.0035   -0.0178    0.0059    0.0024    0.0095    0.0010
          65    0.0089   -0.0197   -0.0342   -0.0019    0.0182   -0.0220    0.0046    0.0125
          66    0.0089   -0.0405   -0.0287   -0.0167    0.0467   -0.0260    0.0108    0.0255
          67   -0.0141   -0.0122    0.0046   -0.0262    0.0217    0.0055    0.0150    0.0249
          68   -0.0313   -0.0140    0.0091   -0.0445    0.0350    0.0098    0.0349    0.0385
          69   -0.0175    0.0294    0.0110    0.0118   -0.0130   -0.0036    0.0048   -0.0102
          70   -0.0214   -0.0231    0.0060   -0.0477    0.0455    0.0066    0.0326    0.0492
          71   -0.0134    0.0024    0.0051    0.0029   -0.0079    0.0057   -0.0073   -0.0064
          72   -0.0073    0.0170    0.0072    0.0270   -0.0034   -0.0095   -0.0171   -0.0030
          73   -0.0424    0.0030   -0.0092   -0.0296   -0.0162    0.0351   -0.1278    0.0142
          74    0.0416    0.0206   -0.0084   -0.0181   -0.0022    0.0025   -0.0578   -0.0005
          75   -0.0573   -0.0656    0.0251    0.0744    0.0038   -0.0249    0.1051   -0.0161
          76   -0.0292   -0.0228    0.0045    0.0466   -0.0325    0.0253    0.1832   -0.0047
          77    0.0822    0.0549   -0.0267   -0.0566   -0.0057    0.0050   -0.0603   -0.0039
          78   -0.0097   -0.0101   -0.0045   -0.0075    0.0060   -0.0174   -0.0279   -0.0126
          79   -0.0290    0.0015   -0.0080   -0.0138   -0.0128    0.0175   -0.0465    0.0010
          80    0.0597    0.0050    0.0005    0.0354   -0.0008   -0.0290    0.1624   -0.0266
          81   -0.0199   -0.0109   -0.0035   -0.0204    0.0268   -0.0410   -0.1392   -0.0182
          82    0.0447   -0.0277    0.1061   -0.0285   -0.0741   -0.0671   -0.0011    0.0732
          83    0.0226   -0.0194    0.0267   -0.0122    0.0009    0.0039    0.0008   -0.0300
          84   -0.0080    0.0402    0.0355    0.0013   -0.0369   -0.0541   -0.0015    0.0723
          85    0.0393   -0.0015    0.0322    0.0177    0.1162    0.0985   -0.0003   -0.0724
          86    0.0098    0.0240    0.0142    0.0122    0.0147    0.0013   -0.0024    0.0244
          87   -0.0091    0.0445    0.0302    0.0056   -0.0249   -0.0448   -0.0017    0.0675
          88    0.0410   -0.0151    0.0696   -0.0070    0.0110    0.0068   -0.0006    0.0087
          89   -0.0091    0.0165   -0.0441    0.0110   -0.0122   -0.0149    0.0023    0.0224
          90   -0.0144    0.0646   -0.0348    0.0434    0.1324    0.0930   -0.0006   -0.0565
          91    0.0248   -0.0316   -0.0078    0.0263   -0.0080    0.0159   -0.0501    0.0121
          92   -0.0282    0.0153    0.0158    0.0102    0.0079   -0.0126   -0.0078   -0.0061
          93   -0.0036    0.0100    0.0019    0.0141   -0.0076    0.0006   -0.0064    0.0009
          94    0.0348   -0.0123   -0.0159    0.0447   -0.0305    0.0024   -0.0259   -0.0265
          95   -0.0302    0.0149    0.0157    0.0051    0.0101   -0.0109   -0.0025   -0.0023
          96    0.0115   -0.0066   -0.0084   -0.0003   -0.0180    0.0211    0.0014    0.0058


   Root No.       9        10        11        12        13        14        15        16

                 9 A      10 A      11 A      12 A      13 A      14 A      15 A      16 A   

                 252.4     312.9     355.1     366.5     391.3     468.9     487.8     570.0
  
           1   -0.0111    0.0136   -0.0117   -0.0068   -0.0042   -0.0234    0.0083    0.0036
           2    0.0003   -0.0125    0.0026   -0.0193   -0.0144    0.0060   -0.0129   -0.0088
           3   -0.0052   -0.0048    0.0127    0.0023    0.0105    0.0067   -0.0124   -0.0011
           4   -0.0115    0.0168   -0.0118   -0.0130   -0.0004   -0.0290    0.0128   -0.0020
           5   -0.0009    0.0088   -0.0023   -0.0090   -0.0074   -0.0214   -0.0118   -0.0148
           6   -0.0130   -0.0084    0.0175   -0.0181    0.0385   -0.0062   -0.0037   -0.0082
           7   -0.0055    0.0116   -0.0057   -0.0265   -0.0097    0.0170    0.0058   -0.0013
           8    0.0017   -0.0118    0.0060   -0.0201   -0.0159    0.0042   -0.0113    0.0005
           9    0.0064    0.0136   -0.0013    0.0069   -0.0054    0.0102   -0.0280   -0.0341
          10   -0.0088   -0.0063    0.0190    0.0086   -0.0054    0.0057   -0.0244    0.0207
          11    0.0012   -0.0145   -0.0098   -0.0077    0.0092    0.0060    0.0016   -0.0314
          12   -0.0095    0.0039   -0.0011    0.0003   -0.0058   -0.0104    0.0034    0.0142
          13   -0.0058    0.0113   -0.0052   -0.0261   -0.0107    0.0167    0.0057   -0.0026
          14   -0.0018    0.0048   -0.0033   -0.0109   -0.0099   -0.0307   -0.0149   -0.0186
          15   -0.0121   -0.0061   -0.0119   -0.0193   -0.0127    0.0222    0.0098    0.0038
          16   -0.0106   -0.0112    0.0141   -0.0170    0.0347   -0.0036    0.0086   -0.0009
          17    0.0092    0.0255   -0.0002    0.0065    0.0067    0.0231    0.0071    0.0051
          18   -0.0093    0.0142    0.0038   -0.0110    0.0300   -0.0059    0.0115   -0.0002
          19    0.0046   -0.0155    0.0142    0.0131   -0.0025    0.0131   -0.0274    0.0180
          20   -0.0392   -0.0016   -0.0116    0.0148    0.0052    0.0028   -0.0062    0.0014
          21    0.0172   -0.0157   -0.0234    0.0202    0.0064    0.0004    0.0198   -0.0085
          22    0.0062    0.0230    0.0063    0.0196    0.0017    0.0042   -0.0115   -0.0176
          23    0.0082   -0.0039    0.0186    0.0108   -0.0072   -0.0190    0.0156    0.0294
          24    0.0066    0.0161   -0.0009    0.0007   -0.0076    0.0066   -0.0100   -0.0104
          25   -0.0244   -0.0149   -0.0307    0.0319    0.0093    0.0067    0.0000    0.0031
          26   -0.0123   -0.0100   -0.0105    0.0185    0.0044    0.0059   -0.0055    0.0053
          27    0.0089   -0.0118    0.0015    0.0122    0.0013    0.0063    0.0003   -0.0004
          28   -0.0007   -0.0152    0.0001   -0.0035   -0.0052   -0.0049   -0.0029   -0.0019
          29    0.0090    0.0300    0.0004    0.0062    0.0109    0.0311    0.0110    0.0082
          30   -0.0010   -0.0200   -0.0057   -0.0022   -0.0173   -0.0112   -0.0049   -0.0026
          31    0.0088   -0.0095    0.0308    0.0118   -0.0227    0.0058    0.0344   -0.0242
          32    0.0147   -0.0105    0.0032    0.0006    0.0102   -0.0059    0.0137    0.0076
          33    0.0002    0.0081    0.0091    0.0059   -0.0106   -0.0179    0.0149    0.0348
          34    0.0577    0.0033   -0.0183   -0.0027    0.0140   -0.0085   -0.0164    0.0142
          35    0.0147   -0.0107    0.0044    0.0008    0.0091   -0.0062    0.0155    0.0082
          36    0.0077    0.0181    0.0064    0.0056   -0.0155   -0.0050   -0.0076    0.0129
          37   -0.0144    0.0295   -0.0222   -0.0141    0.0008   -0.0515    0.0225   -0.0030
          38   -0.0053    0.0052   -0.0130   -0.0128   -0.0245   -0.0354   -0.0120   -0.0187
          39   -0.0124   -0.0003    0.0161   -0.0170    0.0449   -0.0110    0.0015   -0.0072
          40   -0.0004    0.0137    0.0022   -0.0322   -0.0106    0.0303   -0.0011   -0.0044
          41   -0.0016   -0.0233    0.0120   -0.0303   -0.0116    0.0243   -0.0194   -0.0027
          42    0.0100    0.0195   -0.0003    0.0079   -0.0078    0.0077   -0.0269   -0.0332
          43   -0.0089    0.0246   -0.0248    0.0022   -0.0166   -0.0430    0.0156    0.0015
          44   -0.0039   -0.0217    0.0120   -0.0320   -0.0166    0.0104   -0.0015    0.0212
          45   -0.0062   -0.0037    0.0102    0.0013    0.0036   -0.0004   -0.0039    0.0115
          46    0.0049   -0.0135    0.0256    0.0005   -0.0047    0.0131   -0.0474    0.0286
          47    0.0098   -0.0182   -0.0067   -0.0116    0.0121    0.0083   -0.0105   -0.0244
          48   -0.0232    0.0050    0.0069   -0.0060   -0.0252   -0.0011   -0.0026   -0.0023
          49    0.0480   -0.0370    0.0115    0.0135    0.0037    0.0282   -0.0113   -0.0298
          50   -0.0809    0.0149   -0.0010    0.0151    0.0002   -0.0027   -0.0285    0.0413
          51    0.0062   -0.0122   -0.0190    0.0207    0.0051    0.0007    0.0128    0.0011
          52   -0.0112   -0.0070    0.0265    0.0197   -0.0085    0.0115   -0.0461    0.0554
          53   -0.0486    0.0034   -0.0038    0.0185    0.0016    0.0020   -0.0185    0.0250
          54    0.0738   -0.0398   -0.0297    0.0224    0.0125    0.0134    0.0415   -0.0571
          55   -0.0129   -0.0154    0.0184   -0.0212    0.0422   -0.0052    0.0077   -0.0032
          56    0.0166    0.0293   -0.0070    0.0175   -0.0098    0.0361    0.0072    0.0114
          57   -0.0087    0.0530   -0.0262   -0.0028   -0.0075   -0.0362    0.0217    0.0024
          58   -0.0150   -0.0443    0.0423   -0.0296    0.0743    0.0129   -0.0006   -0.0074
          59    0.0116    0.0163    0.0011    0.0086    0.0040    0.0341    0.0088    0.0091
          60   -0.0123    0.0007    0.0171   -0.0179    0.0497   -0.0015    0.0062   -0.0047
          61    0.0090    0.0236    0.0072   -0.0084   -0.0025    0.0129   -0.0318   -0.0450
          62   -0.0022    0.0089    0.0160   -0.0037    0.0311   -0.0745   -0.0331   -0.0462
          63   -0.0191   -0.0139   -0.0275   -0.0318   -0.0370    0.0469    0.0377    0.0389
          64   -0.0169   -0.0051   -0.0106   -0.0487   -0.0227    0.0487    0.0400    0.0421
          65   -0.0037    0.0089   -0.0274   -0.0113   -0.0447   -0.0164    0.0034   -0.0001
          66   -0.0198   -0.0138   -0.0292   -0.0333   -0.0401    0.0502    0.0411    0.0419
          67   -0.0028    0.0284    0.0160    0.0316   -0.0021    0.0019   -0.0055   -0.0267
          68   -0.0211    0.0252    0.0680    0.0921   -0.0158   -0.0444    0.0278   -0.0133
          69   -0.0191    0.0167    0.0026   -0.0187   -0.0213    0.0232    0.0120   -0.0152
          70   -0.0154    0.0480    0.0484    0.0936   -0.0020   -0.0185   -0.0008   -0.0561
          71    0.0213   -0.0159   -0.0020   -0.0222   -0.0028   -0.0100    0.0109    0.0485
          72    0.0310    0.0103   -0.0143    0.0021    0.0138   -0.0006   -0.0083    0.0048
          73   -0.0708   -0.0085   -0.0508    0.0441    0.0138    0.0023    0.0176   -0.0072
          74   -0.0362   -0.0066   -0.0207    0.0246    0.0067    0.0036    0.0033    0.0001
          75    0.0160   -0.0126   -0.0069    0.0115    0.0063    0.0069   -0.0024   -0.0063
          76    0.0081   -0.0251   -0.0602    0.0423    0.0184    0.0049    0.0203   -0.0110
          77   -0.0155   -0.0129   -0.0219    0.0280    0.0050    0.0035    0.0117    0.0022
          78    0.0102   -0.0137   -0.0046    0.0163    0.0021    0.0052    0.0082   -0.0027
          79   -0.0360   -0.0124   -0.0276    0.0318    0.0080    0.0066   -0.0011    0.0041
          80    0.0383   -0.0169    0.0137    0.0043   -0.0006    0.0120   -0.0291    0.0183
          81   -0.0052   -0.0043    0.0431   -0.0038   -0.0106    0.0113   -0.0288    0.0175
          82    0.0018   -0.0323    0.0001   -0.0008   -0.0166   -0.0059   -0.0100   -0.0038
          83    0.0078    0.0537    0.0009    0.0062    0.0288    0.0389    0.0207    0.0117
          84    0.0011   -0.0408   -0.0060   -0.0005   -0.0324   -0.0156   -0.0136   -0.0055
          85    0.0027   -0.0018   -0.0100    0.0028   -0.0241   -0.0083   -0.0070   -0.0027
          86    0.0172    0.0030   -0.0119    0.0169   -0.0418    0.0205   -0.0105    0.0026
          87    0.0018   -0.0420   -0.0076    0.0005   -0.0375   -0.0161   -0.0152   -0.0056
          88    0.0017   -0.0183   -0.0037    0.0001   -0.0175   -0.0073   -0.0079   -0.0033
          89    0.0014    0.0363    0.0133   -0.0054    0.0504    0.0387    0.0260    0.0123
          90    0.0012   -0.0129   -0.0141    0.0017   -0.0359   -0.0174   -0.0096   -0.0042
          91    0.1244   -0.0016   -0.0575   -0.0199    0.0348   -0.0344   -0.0092    0.0486
          92    0.0167   -0.0098    0.0000   -0.0022    0.0123    0.0076    0.0060   -0.0209
          93    0.0159    0.0179   -0.0007    0.0017   -0.0112    0.0005   -0.0126   -0.0006
          94    0.0156   -0.0284    0.0551    0.0191   -0.0544    0.0040    0.1386   -0.0849
          95    0.0215   -0.0044    0.0084    0.0047    0.0063   -0.0064    0.0120    0.0159
          96   -0.0035    0.0029    0.0077    0.0038   -0.0110   -0.0174    0.0242    0.0244


   Root No.      17        18        19        20        21        22        23        24

                17 A      18 A      19 A      20 A      21 A      22 A      23 A      24 A   

                 594.7     721.2     760.6     808.7     824.7     850.9     887.0     899.1
  
           1    0.0109    0.0086   -0.0029   -0.0007   -0.0194    0.0016   -0.0120    0.0036
           2   -0.0112    0.0176   -0.0108   -0.0066   -0.0028   -0.0086    0.0143    0.0129
           3    0.0455    0.0014    0.0168    0.0082    0.0141   -0.0047   -0.0164   -0.0237
           4    0.0135    0.0199   -0.0087   -0.0026    0.0001   -0.0031    0.0006   -0.0013
           5   -0.0041   -0.0175    0.0116    0.0043    0.0066    0.0000   -0.0068   -0.0031
           6   -0.0189   -0.0176    0.0102    0.0047    0.0040    0.0043   -0.0125    0.0120
           7   -0.0060   -0.0175    0.0110    0.0049    0.0058    0.0018    0.0070   -0.0017
           8   -0.0197    0.0135   -0.0169   -0.0156   -0.0063    0.0091   -0.0053   -0.0161
           9    0.0060    0.0139   -0.0105   -0.0239   -0.0122    0.0144   -0.0069   -0.0129
          10    0.0080   -0.0012   -0.0000   -0.0030   -0.0006    0.0002   -0.0081   -0.0079
          11    0.0319    0.0256   -0.0005    0.0155   -0.0071   -0.0141    0.0019    0.0241
          12    0.0306    0.0040    0.0020    0.0015   -0.0066   -0.0030    0.0037    0.0100
          13   -0.0052   -0.0095    0.0153    0.0025   -0.0014    0.0020   -0.0257    0.0019
          14   -0.0059   -0.0214    0.0125    0.0075    0.0078   -0.0048    0.0090   -0.0097
          15   -0.0009   -0.0010   -0.0003   -0.0092   -0.0069    0.0166   -0.0150    0.0151
          16   -0.0082    0.0159   -0.0116   -0.0065    0.0267    0.0035    0.0055   -0.0027
          17    0.0023   -0.0008    0.0011    0.0005   -0.0010    0.0001   -0.0006   -0.0000
          18   -0.0080    0.0108   -0.0086   -0.0017   -0.0116   -0.0074    0.0129   -0.0119
          19    0.0078    0.0100    0.0103    0.0012   -0.0021    0.0004    0.0103    0.0088
          20   -0.0048    0.0028   -0.0033    0.0195   -0.0015    0.0107    0.0004   -0.0027
          21   -0.0120   -0.0101   -0.0028   -0.0184    0.0025   -0.0100   -0.0074   -0.0023
          22    0.0090   -0.0205   -0.0076   -0.0062    0.0034    0.0075    0.0378    0.0003
          23   -0.0251    0.0087   -0.0132    0.0006   -0.0034    0.0081   -0.0094   -0.0019
          24   -0.0150   -0.0012    0.0020    0.0062    0.0052   -0.0103    0.0076    0.0043
          25   -0.0111   -0.0004    0.0022    0.0017    0.0003    0.0012    0.0076    0.0080
          26   -0.0073   -0.0011    0.0011    0.0039    0.0012    0.0050    0.0037   -0.0021
          27   -0.0053   -0.0024    0.0008   -0.0040    0.0026   -0.0025    0.0004   -0.0000
          28   -0.0031    0.0013   -0.0020   -0.0016    0.0071    0.0014    0.0029    0.0007
          29    0.0029    0.0005    0.0009   -0.0003   -0.0024    0.0031   -0.0073    0.0073
          30   -0.0000    0.0016   -0.0018   -0.0008   -0.0019   -0.0025    0.0071   -0.0076
          31    0.0035   -0.0118   -0.0241    0.0055    0.0021   -0.0108   -0.0165    0.0010
          32    0.0242   -0.0118    0.0053   -0.0071   -0.0001    0.0026    0.0008   -0.0035
          33    0.0181   -0.0129   -0.0011    0.0024   -0.0089    0.0156    0.0114    0.0091
          34   -0.0006   -0.0055   -0.0177    0.0049    0.0015   -0.0097   -0.0089    0.0021
          35    0.0225   -0.0135    0.0038   -0.0092    0.0005    0.0021    0.0001   -0.0047
          36   -0.0428    0.0080   -0.0084    0.0190    0.0065   -0.0107    0.0049    0.0065
          37   -0.0018    0.0234   -0.0218   -0.0101   -0.0343    0.0040    0.0054    0.0232
          38   -0.0019   -0.0310    0.0163    0.0023    0.0129    0.0160   -0.0146    0.0106
          39   -0.0257   -0.0090    0.0016    0.0020   -0.0136    0.0002   -0.0055    0.0159
          40   -0.0171   -0.0126    0.0230    0.0121    0.0219   -0.0136   -0.0093   -0.0392
          41    0.0075    0.0214   -0.0104   -0.0192    0.0129    0.0016   -0.0059   -0.0655
          42   -0.0123    0.0121   -0.0073   -0.0178   -0.0122    0.0092   -0.0125   -0.0079
          43    0.0407    0.0268   -0.0090   -0.0067   -0.0506    0.0012   -0.0275   -0.0141
          44   -0.0229    0.0068   -0.0108    0.0010    0.0214   -0.0205    0.0459    0.0244
          45    0.0532    0.0046    0.0142    0.0091    0.0102   -0.0102   -0.0093   -0.0248
          46    0.0197    0.0138    0.0150   -0.0164    0.0026   -0.0106    0.0046   -0.0021
          47    0.0393    0.0306    0.0106    0.0064   -0.0045   -0.0186    0.0053    0.0226
          48    0.0167    0.0228   -0.0195    0.0094   -0.0088   -0.0180    0.0248    0.0396
          49    0.0015    0.0260   -0.0103    0.0719   -0.0038    0.0261    0.0118    0.0119
          50   -0.0140   -0.0137    0.0222   -0.0917    0.0073   -0.0526   -0.0056    0.0207
          51   -0.0164   -0.0145    0.0046   -0.0518    0.0059   -0.0308   -0.0090    0.0075
          52   -0.0055   -0.0061    0.0229   -0.0310    0.0045    0.0071    0.0080   -0.0235
          53   -0.0124   -0.0067    0.0052   -0.0022    0.0026    0.0132   -0.0002   -0.0206
          54   -0.0119    0.0063   -0.0336    0.1083   -0.0034    0.0632   -0.0040   -0.0353
          55   -0.0145    0.0091   -0.0076   -0.0018   -0.0081   -0.0067    0.0093   -0.0121
          56    0.0104    0.0071   -0.0049   -0.0089    0.0688    0.0247   -0.0107    0.0298
          57    0.0373    0.0610   -0.0327   -0.0217    0.1233    0.0182    0.0027   -0.0128
          58   -0.0499   -0.0282    0.0098    0.0126   -0.1035   -0.0253    0.0165   -0.0128
          59    0.0007   -0.0061    0.0047    0.0074   -0.0792   -0.0212    0.0161   -0.0236
          60   -0.0273   -0.0091    0.0009    0.0051   -0.0461   -0.0133    0.0113   -0.0079
          61   -0.0106   -0.0015   -0.0063   -0.0556   -0.0389    0.0679   -0.0646    0.0100
          62   -0.0216   -0.0554    0.0254    0.0102    0.0121    0.0208   -0.0110    0.0591
          63    0.0097    0.0117    0.0045    0.0185    0.0102   -0.0292    0.0139   -0.0247
          64   -0.0139   -0.0179    0.0384    0.0471    0.0253   -0.0445   -0.0317   -0.0067
          65    0.0215    0.0044    0.0043    0.0166    0.0181   -0.0431    0.0663   -0.0823
          66    0.0103    0.0100    0.0084    0.0228    0.0145   -0.0342    0.0149   -0.0327
          67    0.0025   -0.0095    0.0111   -0.0004    0.0056    0.0000    0.0269    0.0004
          68   -0.0496    0.0770    0.0543    0.0263   -0.0003   -0.0386   -0.1012   -0.0051
          69   -0.0266   -0.0142    0.0360    0.0132    0.0162   -0.0027    0.0468    0.0094
          70   -0.0035    0.0338    0.0530    0.0171    0.0078   -0.0384   -0.0354    0.0018
          71   -0.0152   -0.0192   -0.0412   -0.0093   -0.0044    0.0267    0.0255   -0.0011
          72    0.0205   -0.0297   -0.0039    0.0086    0.0110   -0.0219    0.0258    0.0202
          73   -0.0296   -0.0119   -0.0111    0.0243    0.0054    0.0267   -0.0113   -0.0393
          74   -0.0164   -0.0068   -0.0055    0.0150    0.0038    0.0175   -0.0058   -0.0257
          75   -0.0058    0.0033   -0.0128    0.0666   -0.0012    0.0512    0.0023   -0.0373
          76   -0.0296   -0.0172   -0.0045   -0.0292    0.0095   -0.0157   -0.0165   -0.0140
          77   -0.0206   -0.0179    0.0097   -0.0803    0.0112   -0.0536   -0.0120    0.0172
          78   -0.0112   -0.0094    0.0034   -0.0358    0.0067   -0.0242   -0.0067    0.0052
          79   -0.0108    0.0012    0.0020    0.0113   -0.0006    0.0089    0.0102    0.0050
          80    0.0139    0.0142    0.0159   -0.0092   -0.0049   -0.0141    0.0296    0.0477
          81    0.0208    0.0226    0.0138    0.0364   -0.0096    0.0203    0.0402    0.0348
          82   -0.0033   -0.0142    0.0098    0.0076   -0.0423   -0.0102   -0.0018   -0.0067
          83   -0.0018    0.0005   -0.0001    0.0067   -0.0965   -0.0293    0.0286   -0.0427
          84    0.0021   -0.0078    0.0060    0.0017    0.0107    0.0050   -0.0120    0.0104
          85    0.0012   -0.0112    0.0087    0.0069   -0.0360   -0.0088   -0.0035   -0.0044
          86    0.0137   -0.0295    0.0266    0.0110   -0.0024    0.0150   -0.0588    0.0486
          87    0.0038   -0.0091    0.0073    0.0014    0.0198    0.0092   -0.0187    0.0180
          88   -0.0015   -0.0103    0.0071    0.0056   -0.0308   -0.0079   -0.0007   -0.0058
          89   -0.0036    0.0331   -0.0253   -0.0200    0.0935    0.0252    0.0080    0.0195
          90    0.0060   -0.0020    0.0026   -0.0012    0.0297    0.0101   -0.0142    0.0156
          91   -0.0583    0.0982    0.1765   -0.0072   -0.0065    0.0357   -0.0004   -0.0167
          92    0.0195   -0.0161    0.0053   -0.0082    0.0149   -0.0276   -0.0016   -0.0112
          93   -0.0498    0.0172    0.0128    0.0190    0.0141   -0.0236    0.0056    0.0016
          94   -0.0375    0.0376    0.1212   -0.0589   -0.0065    0.0511    0.1047   -0.0066
          95   -0.0142   -0.0237   -0.0008   -0.0091    0.0150   -0.0029   -0.0068   -0.0281
          96    0.0382   -0.0015    0.0144   -0.0013   -0.0188    0.0237    0.0265    0.0240


   Root No.      25        26        27        28        29        30        31        32

                25 A      26 A      27 A      28 A      29 A      30 A      31 A      32 A   

                 916.5     944.9     971.8     976.4     983.3     999.2    1003.5    1024.0
  
           1    0.0076   -0.0030    0.0085    0.0226   -0.0030   -0.0087   -0.0149   -0.0110
           2   -0.0306   -0.0130    0.0020   -0.0016   -0.0040    0.0017    0.0033   -0.0076
[...]
 TRANSITION DIPOLE   0.0149         C  8 -- H 24         +32.2% ( 58.8%)     94.5%
 TRAVEL (Ang.)       0.2224         C  3 -- H 14          +5.5% ( 24.4%)    100.0%
 REDUCED MASS        0.4635         C  3 -- C  8          +1.1% ( 11.0%)      0.0%
 EFFECTIVE MASS      1.5352
 FORCE CONSTANT      2.3622

 VIBRATION         75   75A           ATOM PAIR      ENERGY CONTRIBUTION    RADIAL
 FREQUENCY          2949.28         C  7 -- H 17         +52.1% ( 74.9%)     97.0%
 TRANSITION DIPOLE   0.0154         C  7 -- H 18         +42.9% ( 68.0%)     95.9%
 TRAVEL (Ang.)       0.2151         C  7 -- C  9          +1.1% ( 11.1%)      0.0%
 REDUCED MASS        0.4941         C  4 -- C  7          +1.1% ( 11.0%)      0.1%
 EFFECTIVE MASS      1.5430
 FORCE CONSTANT      2.5322

 VIBRATION         76   76A           ATOM PAIR      ENERGY CONTRIBUTION    RADIAL
 FREQUENCY          2951.58         C  3 -- H 14         +85.8% ( 94.7%)    100.0%
 TRANSITION DIPOLE   0.0846         C  8 -- H 24          +3.7% ( 19.7%)     97.3%
 TRAVEL (Ang.)       0.1742         C  8 -- H 23          +2.9% ( 17.3%)     96.0%
 REDUCED MASS        0.7530         C  1 -- H 15          +2.6% ( 16.5%)    100.0%
 EFFECTIVE MASS      1.4539
 FORCE CONSTANT      3.8649

 VIBRATION         77   77A           ATOM PAIR      ENERGY CONTRIBUTION    RADIAL
 FREQUENCY          2952.61         C  6 -- H 20         +45.1% ( 69.6%)     96.9%
 TRANSITION DIPOLE   0.0303         C  6 -- H 19         +39.8% ( 65.3%)     96.1%
 TRAVEL (Ang.)       0.2377         C  2 -- H 13         +11.9% ( 35.7%)    100.0%
 REDUCED MASS        0.4042         C  2 -- C  6          +1.1% ( 10.7%)      1.3%
 EFFECTIVE MASS      1.5263
 FORCE CONSTANT      2.0763

 VIBRATION         78   78A           ATOM PAIR      ENERGY CONTRIBUTION    RADIAL
 FREQUENCY          3019.25         C  8 -- H 24         +61.1% ( 77.2%)     98.8%
 TRANSITION DIPOLE   0.0637         C  8 -- H 23         +35.0% ( 58.4%)     95.4%
 TRAVEL (Ang.)       0.2136         C 12 -- H 31          +0.9% (  9.2%)     99.9%
 REDUCED MASS        0.4894         C  8 -- C 12          +0.7% (  8.0%)     20.6%
 EFFECTIVE MASS      1.2857
 FORCE CONSTANT      2.6283

 VIBRATION         79   79A           ATOM PAIR      ENERGY CONTRIBUTION    RADIAL
 FREQUENCY          3027.16         C  7 -- H 18         +53.7% ( 72.2%)     98.2%
 TRANSITION DIPOLE   0.0193         C  7 -- H 17         +43.3% ( 64.8%)     97.0%
 TRAVEL (Ang.)       0.2172         C  7 -- C  9          +0.6% (  7.7%)     25.9%
 REDUCED MASS        0.4721         C  4 -- C  7          +0.6% (  7.5%)     28.5%
 EFFECTIVE MASS      1.2737
 FORCE CONSTANT      2.5487

 VIBRATION         80   80A           ATOM PAIR      ENERGY CONTRIBUTION    RADIAL
 FREQUENCY          3031.68         C  6 -- H 19         +52.7% ( 71.5%)     98.1%
 TRANSITION DIPOLE   0.0211         C  6 -- H 20         +45.3% ( 66.3%)     97.3%
 TRAVEL (Ang.)       0.2153         C  6 -- C 10          +0.6% (  7.8%)     26.1%
 REDUCED MASS        0.4800         C  2 -- C  6          +0.6% (  7.7%)     29.4%
 EFFECTIVE MASS      1.2755
 FORCE CONSTANT      2.5995

 VIBRATION         81   81A           ATOM PAIR      ENERGY CONTRIBUTION    RADIAL
 FREQUENCY          3034.85         C  5 -- H 21         +50.4% ( 73.9%)     97.2%
 TRANSITION DIPOLE   0.0797         C  5 -- H 22         +45.3% ( 70.1%)     96.6%
 TRAVEL (Ang.)       0.2088         C  1 -- C  5          +1.1% ( 11.1%)      0.0%
 REDUCED MASS        0.5095         C  2 -- C  5          +1.1% ( 11.0%)      0.0%
 EFFECTIVE MASS      1.5435
 FORCE CONSTANT      2.7650

 VIBRATION         82   82A           ATOM PAIR      ENERGY CONTRIBUTION    RADIAL
 FREQUENCY          3048.26         C 11 -- H 32         +56.9% ( 76.5%)    100.0%
 TRANSITION DIPOLE   0.2840         C 12 -- H 31         +40.3% ( 64.4%)    100.0%
 TRAVEL (Ang.)       0.2160         C 11 -- C 12          +1.1% ( 10.5%)      0.5%
 REDUCED MASS        0.4743         C  4 -- C 11          +0.8% (  8.8%)     19.8%
 EFFECTIVE MASS      1.4565
 FORCE CONSTANT      2.5966

 VIBRATION         83   83A           ATOM PAIR      ENERGY CONTRIBUTION    RADIAL
 FREQUENCY          3068.75         C 12 -- H 31         +55.6% ( 75.7%)     99.9%
 TRANSITION DIPOLE   0.2789         C 11 -- H 32         +39.7% ( 63.9%)     99.9%
 TRAVEL (Ang.)       0.2166         C 11 -- C 12          +2.0% ( 14.4%)     98.9%
 REDUCED MASS        0.4685         C  8 -- C 12          +0.9% (  9.7%)     16.4%
 EFFECTIVE MASS      1.5889
 FORCE CONSTANT      2.5993

 VIBRATION         84   84A           ATOM PAIR      ENERGY CONTRIBUTION    RADIAL
 FREQUENCY          3073.82         C 10 -- H 30         +60.4% ( 80.2%)     98.3%
 TRANSITION DIPOLE   0.0090         C 10 -- H 28         +36.1% ( 62.0%)     94.7%
 TRAVEL (Ang.)       0.2047         C 10 -- H 29          +2.2% ( 15.2%)     26.7%
 REDUCED MASS        0.5234         C  6 -- C 10          +1.0% ( 10.2%)      0.0%
 EFFECTIVE MASS      1.5010
 FORCE CONSTANT      2.9135

 VIBRATION         85   85A           ATOM PAIR      ENERGY CONTRIBUTION    RADIAL
 FREQUENCY          3076.09         C  9 -- H 26         +51.9% ( 74.3%)     97.5%
 TRANSITION DIPOLE   0.0109         C  9 -- H 25         +45.2% ( 69.4%)     96.5%
 TRAVEL (Ang.)       0.2091         C  9 -- H 27          +1.1% ( 10.7%)      3.9%
 REDUCED MASS        0.5013         C  7 -- C  9          +1.0% ( 10.2%)      0.0%
 EFFECTIVE MASS      1.5014
 FORCE CONSTANT      2.7946

 VIBRATION         86   86A           ATOM PAIR      ENERGY CONTRIBUTION    RADIAL
 FREQUENCY          3083.28         C  9 -- H 27         +61.2% ( 80.7%)     98.7%
 TRANSITION DIPOLE   0.0028         C  9 -- H 25         +21.7% ( 48.1%)     88.3%
 TRAVEL (Ang.)       0.2147         C  9 -- H 26         +15.5% ( 40.7%)     82.9%
 REDUCED MASS        0.4746         C  7 -- C  9          +1.0% ( 10.3%)      0.0%
 EFFECTIVE MASS      1.5033
 FORCE CONSTANT      2.6584

 VIBRATION         87   87A           ATOM PAIR      ENERGY CONTRIBUTION    RADIAL
 FREQUENCY          3084.87         C 10 -- H 29         +59.0% ( 79.2%)     98.5%
 TRANSITION DIPOLE   0.0061         C 10 -- H 28         +29.5% ( 56.1%)     92.2%
 TRAVEL (Ang.)       0.2146         C 10 -- H 30          +9.9% ( 32.5%)     73.2%
 REDUCED MASS        0.4744         C  6 -- C 10          +1.0% ( 10.3%)      0.0%
 EFFECTIVE MASS      1.5039
 FORCE CONSTANT      2.6600

 VIBRATION         88   88A           ATOM PAIR      ENERGY CONTRIBUTION    RADIAL
 FREQUENCY          3098.94         C  5 -- H 22         +51.8% ( 71.4%)     97.5%
 TRANSITION DIPOLE   0.0764         C  5 -- H 21         +46.2% ( 67.4%)     96.7%
 TRAVEL (Ang.)       0.2117         C  1 -- C  5          +0.7% (  8.3%)     99.9%
 REDUCED MASS        0.4854         C  2 -- C  5          +0.7% (  8.2%)     49.3%
 EFFECTIVE MASS      1.2823
 FORCE CONSTANT      2.7463

 VIBRATION         89   89A           ATOM PAIR      ENERGY CONTRIBUTION    RADIAL
 FREQUENCY          3178.14         C 10 -- H 29         +38.3% ( 59.6%)     97.8%
 TRANSITION DIPOLE   0.0097         C 10 -- H 28         +33.5% ( 55.7%)     97.1%
 TRAVEL (Ang.)       0.2530         C 10 -- H 30         +27.9% ( 50.9%)     96.1%
 REDUCED MASS        0.3313         C  6 -- C 10          +0.3% (  5.1%)     98.7%
 EFFECTIVE MASS      1.1374
 FORCE CONSTANT      1.9719

 VIBRATION         90   90A           ATOM PAIR      ENERGY CONTRIBUTION    RADIAL
 FREQUENCY          3179.21         C  9 -- H 27         +37.1% ( 58.6%)     97.7%
 TRANSITION DIPOLE   0.0191         C  9 -- H 25         +31.7% ( 54.2%)     96.8%
 TRAVEL (Ang.)       0.2540         C  9 -- H 26         +30.9% ( 53.5%)     96.7%
 REDUCED MASS        0.3288         C  7 -- C  9          +0.3% (  5.1%)     99.4%
 EFFECTIVE MASS      1.1368
 FORCE CONSTANT      1.9579

      SYMMETRY NUMBER FOR POINT-GROUP C1  =  1


          SYSTEM IS A GROUND STATE



 InChI=1S/C12H20/c1-3-9-6-5-7-11-8-10(4-2)12(9)11/h5-6,9-12H,3-4,7-8H2,1-2H3


          MOLECULE IS NOT LINEAR

          THERE ARE 90 GENUINE VIBRATIONS IN THIS SYSTEM
          THIS THERMODYNAMICS CALCULATION IS LIMITED TO
          MOLECULES WHICH HAVE NO INTERNAL ROTATIONS




                    CALCULATED THERMODYNAMIC PROPERTIES
                                          *
   TEMP. (K)   PARTITION FUNCTION   H.O.F.    ENTHALPY  HEAT CAPACITY ENTROPY
                                   KCAL/MOL   CAL/MOLE    CAL/K/MOL  CAL/K/MOL


 298.00  VIB.     0.7320D+04                  6039.7530    42.4764    37.9505
         ROT.     0.1242D+07                   888.2803     2.9808    30.8653
         INT.     0.9090D+10                  6928.0333    45.4572    68.8158
         TRA.     0.2036D+28                  1480.4672     4.9680    41.1956
         TOT.                      -13.274    8408.5005    50.4252   110.0115

 200.00  VIB.     0.2639D+03                  2690.2345    26.5841    24.5310
         ROT.     0.6827D+06                   596.1613     2.9808    29.6766
         INT.     0.1802D+09                  3286.3958    29.5649    54.2076
         TRA.     0.1119D+28                   993.6021     4.9680    39.2145
         TOT.                      -17.402    4279.9979    34.5329    93.4221

 210.00  VIB.     0.3701D+03                  2963.0736    27.9927    25.8619
         ROT.     0.7346D+06                   625.9693     2.9808    29.8221
         INT.     0.2719D+09                  3589.0429    30.9735    55.6839
         TRA.     0.1204D+28                  1043.2822     4.9680    39.4569
         TOT.                      -17.050    4632.3252    35.9415    95.1408

 220.00  VIB.     0.5190D+03                  3250.2710    29.4559    27.1977
         ROT.     0.7877D+06                   655.7774     2.9808    29.9607
         INT.     0.4088D+09                  3906.0484    32.4367    57.1584
         TRA.     0.1291D+28                  1092.9623     4.9680    39.6880
         TOT.                      -16.683    4999.0107    37.4047    96.8464

 230.00  VIB.     0.7276D+03                  3552.3732    30.9735    28.5403
         ROT.     0.8420D+06                   685.5855     2.9808    30.0932
         INT.     0.6126D+09                  4237.9587    33.9543    58.6335
         TRA.     0.1380D+28                  1142.6424     4.9680    39.9088
         TOT.                      -16.301    5380.6012    38.9223    98.5424

 240.00  VIB.     0.1020D+04                  3869.9164    32.5437    29.8915
         ROT.     0.8975D+06                   715.3935     2.9808    30.2201
         INT.     0.9156D+09                  4585.3100    35.5245    60.1116
         TRA.     0.1471D+28                  1192.3226     4.9680    40.1203
         TOT.                      -15.904    5777.6325    40.4925   100.2319

 250.00  VIB.     0.1431D+04                  4203.4116    34.1633    31.2527
         ROT.     0.9541D+06                   745.2016     2.9808    30.3418
         INT.     0.1365D+10                  4948.6132    37.1441    61.5945
         TRA.     0.1564D+28                  1242.0027     4.9680    40.3231
         TOT.                      -15.491    6190.6159    42.1121   101.9176

 260.00  VIB.     0.2008D+04                  4553.3332    35.8282    32.6249
         ROT.     0.1012D+07                   775.0097     2.9808    30.4587
         INT.     0.2032D+10                  5328.3429    38.8090    63.0836
         TRA.     0.1659D+28                  1291.6828     4.9680    40.5179
         TOT.                      -15.062    6620.0257    43.7770   103.6015

 270.00  VIB.     0.2819D+04                  4920.1101    37.5335    34.0089
         ROT.     0.1071D+07                   804.8177     2.9808    30.5712
         INT.     0.3018D+10                  5724.9278    40.5143    64.5801
         TRA.     0.1756D+28                  1341.3629     4.9680    40.7054
         TOT.                      -14.616    7066.2907    45.4823   105.2855

 280.00  VIB.     0.3960D+04                  5304.1195    39.2738    35.4053
         ROT.     0.1131D+07                   834.6258     2.9808    30.6796
         INT.     0.4479D+10                  6138.7453    42.2546    66.0849
         TRA.     0.1854D+28                  1391.0430     4.9680    40.8861
         TOT.                      -14.152    7529.7882    47.2226   106.9710

 290.00  VIB.     0.5569D+04                  5705.6832    41.0434    36.8142
         ROT.     0.1192D+07                   864.4339     2.9808    30.7842
         INT.     0.6638D+10                  6570.1170    44.0242    67.5984
         TRA.     0.1954D+28                  1440.7231     4.9680    41.0604
         TOT.                      -13.671    8010.8401    48.9922   108.6589

 300.00  VIB.     0.7839D+04                  6125.0659    42.8366    38.2358
         ROT.     0.1254D+07                   894.2419     2.9808    30.8852
         INT.     0.9832D+10                  7019.3078    45.8174    69.1211
         TRA.     0.2056D+28                  1490.4032     4.9680    41.2289
         TOT.                      -13.172    8509.7110    50.7854   110.3500

 310.00  VIB.     0.1105D+05                  6562.4751    44.6477    39.6699
         ROT.     0.1317D+07                   924.0500     2.9808    30.9830
         INT.     0.1455D+11                  7486.5250    47.6286    70.6529
         TRA.     0.2160D+28                  1540.0833     4.9680    41.3918
         TOT.                      -12.655    9026.6083    52.5966   112.0447

 320.00  VIB.     0.1559D+05                  7018.0622    46.4713    41.1162
         ROT.     0.1382D+07                   953.8580     2.9808    31.0776
         INT.     0.2154D+11                  7971.9202    49.4521    72.1938
         TRA.     0.2265D+28                  1589.7634     4.9680    41.5495
         TOT.                      -12.120    9561.6836    54.4201   113.7433

 330.00  VIB.     0.2202D+05                  7491.9251    48.3021    42.5742
         ROT.     0.1447D+07                   983.6661     2.9808    31.1693
         INT.     0.3186D+11                  8475.5912    51.2829    73.7436
         TRA.     0.2372D+28                  1639.4435     4.9680    41.7024
         TOT.                      -11.567   10115.0347    56.2509   115.4459

 340.00  VIB.     0.3115D+05                  7984.1109    50.1351    44.0434
         ROT.     0.1513D+07                  1013.4742     2.9808    31.2583
         INT.     0.4714D+11                  8997.5850    53.1159    75.3017
         TRA.     0.2481D+28                  1689.1236     4.9680    41.8507
         TOT.                      -10.995   10686.7087    58.0839   117.1524

 350.00  VIB.     0.4413D+05                  8494.6197    51.9659    45.5231
         ROT.     0.1581D+07                  1043.2822     2.9808    31.3447
         INT.     0.6974D+11                  9537.9020    54.9468    76.8679
         TRA.     0.2591D+28                  1738.8037     4.9680    41.9947
         TOT.                      -10.405   11276.7057    59.9148   118.8626

 360.00  VIB.     0.6260D+05                  9023.4087    53.7905    47.0126
         ROT.     0.1649D+07                  1073.0903     2.9808    31.4287
         INT.     0.1032D+12                 10096.4990    56.7713    78.4414
         TRA.     0.2703D+28                  1788.4838     4.9680    42.1347
         TOT.                       -9.797   11884.9828    61.7393   120.5760

 370.00  VIB.     0.8893D+05                  9570.3958    55.6050    48.5112
         ROT.     0.1718D+07                  1102.8984     2.9808    31.5104
         INT.     0.1528D+12                 10673.2942    58.5858    80.0216
         TRA.     0.2817D+28                  1838.1639     4.9680    42.2708
         TOT.                       -9.171   12511.4581    63.5538   122.2924

 380.00  VIB.     0.1265D+06                 10135.4643    57.4062    50.0181
         ROT.     0.1788D+07                  1132.7064     2.9808    31.5899
         INT.     0.2262D+12                 11268.1707    60.3870    81.6079
         TRA.     0.2932D+28                  1887.8440     4.9680    42.4033
         TOT.                       -8.526   13156.0147    65.3550   124.0112

 390.00  VIB.     0.1802D+06                 10718.4664    59.1913    51.5323
         ROT.     0.1859D+07                  1162.5145     2.9808    31.6673
         INT.     0.3351D+12                 11880.9809    62.1721    83.1996
         TRA.     0.3048D+28                  1937.5242     4.9680    42.5323
         TOT.                       -7.864   13818.5051    67.1401   125.7319

 400.00  VIB.     0.2571D+06                 11319.2279    60.9577    53.0532
         ROT.     0.1931D+07                  1192.3226     2.9808    31.7428
         INT.     0.4965D+12                 12511.5504    63.9385    84.7960
         TRA.     0.3166D+28                  1987.2043     4.9680    42.6581
         TOT.                       -7.183   14498.7547    68.9065   127.4541

   *: NOTE: HEATS OF FORMATION ARE RELATIVE TO THE
            ELEMENTS IN THEIR STANDARD STATE AT 298K
              (=  Standard Enthalpy of Formation).

            Hvib:  Zero-point energy is not included.
                   frequencies of less than zero cm-1 are not included.
            Hrot = (3/2)RT
            Htra = (3/2)RT + pV = (5/2)RT

            Heat capacity is Cp, not Cv

          For more information, see: HTTP://OpenMOPAC.net/Manual/thermochemistry.html


           FORCE CONSTANT IN CARTESIAN COORDINATES (Millidynes/A)

    ATOM   CHEMICAL       X               Y               Z
   NUMBER   SYMBOL  FORCE CONSTANT  FORCE CONSTANT  FORCE CONSTANT

      1       C        7.831369        7.844904        8.683814
      2       C        7.710635        8.295913        8.692635
      3       C        7.969091        7.858816        8.821651
      4       C        7.833364        8.745370        8.726117
      5       C        7.866783        7.937524        8.672356
      6       C        8.317580        8.475108        8.307372
      7       C        7.850162        8.351457        8.450416
      8       C        8.038860        8.885651        8.692664
      9       C        8.422564        8.226412        8.212148
     10       C        8.221940        8.321052        8.344773
     11       C        2.653807       15.267597        9.370777
     12       C        2.468068       15.270306        9.521818
     13       H        1.353328        1.265745        3.624114
     14       H        1.402192        1.326159        3.507255
     15       H        1.324611        1.282030        3.584491
     16       H        1.578300        3.604387        0.754805
     17       H        0.760054        1.357248        4.235327
     18       H        1.799223        3.884540        0.702824
     19       H        4.599396        1.078024        0.699313
     20       H        1.589014        1.090300        3.715034
     21       H        1.366403        1.394960        3.851010
     22       H        1.576651        1.539457        3.504300
     23       H        4.696651        0.732717        0.773622
     24       H        1.509429        4.050455        0.779717
     25       H        1.759595        4.310106        0.704168
     26       H        0.715950        1.351580        4.699551
     27       H        5.093265        0.799916        0.895029
     28       H        1.848347        1.196662        3.731737
     29       H        1.443885        1.544842        3.802730
     30       H        4.901323        1.144786        0.691838
     31       H        0.379235        1.887744        3.986409
     32       H        0.371712        1.933926        3.947193

 **********************
 *                    *
 * JOB ENDED NORMALLY *
 *                    *
 **********************



 TOTAL JOB TIME:             6.65 SECONDS

 == MOPAC DONE ==
