 *******************************************************************************
 **                                                                           **
 **                              MOPAC v23.1.2                                **
 **                                                                           **
 *******************************************************************************
 **          Digital Object Identifier (DOI): 10.5281/zenodo.6511958          **
 **    Visit the DOI location for information on how to cite this program.    **
 *******************************************************************************

                              PM3 CALCULATION RESULTS

 *******************************************************************************
 *  CALCULATION DONE: (MAX THREADS = 1)              Tue Jun  3 16:30:58 2025  *
 *  PM3        - The PM3 Hamiltonian to be used
 *  PRECISE    - TIGHTER CRITERIA TO BE USED
 *  NOSYM      - POINT-GROUP SYMMETRY SET TO C1
 *  THREADS=1  - MULTI-THREADING NOT USED
 *  T=         - A TIME OF 172800.0 SECONDS REQUESTED
 *  DUMP=N     - RESTART FILE WRITTEN EVERY 7200.0 SECONDS REQUESTED
 *******************************************************************************
pm3  precise nosym THREADS=1
 InChI=1S/C6H10/c1-6-4-2-3-5-6/h2,4,6H,3,5H2,1H3

   ATOM   CHEMICAL          X               Y               Z
  NUMBER   SYMBOL      (ANGSTROMS)     (ANGSTROMS)     (ANGSTROMS)

     1       C          0.57010000  *  -0.55960000  *  -0.29230000  *
     2       C         -0.45040000  *   0.32220000  *  -1.03600000  *
     3       C         -1.59940000  *   0.56870000  *  -0.05260000  *
     4       C          1.91200000  *   0.14810000  *  -0.08780000  *
     5       C         -0.07930000  *  -0.84370000  *   1.01780000  *
     6       C         -1.24740000  *  -0.23910000  *   1.14320000  *
     7       H          0.73070000  *  -1.51400000  *  -0.84000000  *
     8       H         -0.01320000  *   1.28950000  *  -1.36980000  *
     9       H         -0.83020000  *  -0.21550000  *  -1.93260000  *
    10       H         -1.66120000  *   1.64290000  *   0.22500000  *
    11       H         -2.56890000  *   0.22660000  *  -0.47410000  *
    12       H          2.37260000  *   0.37450000  *  -1.07280000  *
    13       H          1.77550000  *   1.09800000  *   0.47340000  *
    14       H          2.60550000  *  -0.50870000  *   0.47960000  *
    15       H          0.35200000  *  -1.47380000  *   1.78930000  *
    16       H         -1.86840000  *  -0.31620000  *   2.02970000  *



          CARTESIAN COORDINATES 

    NO.       ATOM           X           Y           Z

     1         C          0.5701     -0.5596     -0.2923
     2         C         -0.4504      0.3222     -1.0360
     3         C         -1.5994      0.5687     -0.0526
     4         C          1.9120      0.1481     -0.0878
     5         C         -0.0793     -0.8437      1.0178
     6         C         -1.2474     -0.2391      1.1432
     7         H          0.7307     -1.5140     -0.8400
     8         H         -0.0132      1.2895     -1.3698
     9         H         -0.8302     -0.2155     -1.9326
    10         H         -1.6612      1.6429      0.2250
    11         H         -2.5689      0.2266     -0.4741
    12         H          2.3726      0.3745     -1.0728
    13         H          1.7755      1.0980      0.4734
    14         H          2.6055     -0.5087      0.4796
    15         H          0.3520     -1.4738      1.7893
    16         H         -1.8684     -0.3162      2.0297

  H: (PM3): J. J. P. STEWART, J. COMP. CHEM. 10, 209 (1989).
  C: (PM3): J. J. P. STEWART, J. COMP. CHEM. 10, 209 (1989).

           Empirical Formula: C6 H10  =    16 atoms



      MOLECULAR POINT GROUP   :   C1  


      RHF CALCULATION, NO. OF DOUBLY OCCUPIED LEVELS = 17


          Geometry optimization using EF

          DIAGONAL MATRIX USED AS START HESSIAN

 CYCLE:     1 TIME:   0.008 TIME LEFT:  2.00D  GRAD.:    49.915 HEAT:-0.8517088
 CYCLE:     2 TIME:   0.008 TIME LEFT:  2.00D  GRAD.:    41.364 HEAT: -1.448345
 CYCLE:     3 TIME:   0.004 TIME LEFT:  2.00D  GRAD.:    20.514 HEAT: -1.900623
 CYCLE:     4 TIME:   0.008 TIME LEFT:  2.00D  GRAD.:    32.035 HEAT: -2.063862
 CYCLE:     5 TIME:   0.004 TIME LEFT:  2.00D  GRAD.:    19.898 HEAT: -2.333784
 CYCLE:     6 TIME:   0.008 TIME LEFT:  2.00D  GRAD.:    17.814 HEAT: -2.407148
 CYCLE:     7 TIME:   0.004 TIME LEFT:  2.00D  GRAD.:    14.596 HEAT: -2.479079
 CYCLE:     8 TIME:   0.004 TIME LEFT:  2.00D  GRAD.:    16.980 HEAT: -2.491921
 CYCLE:     9 TIME:   0.008 TIME LEFT:  2.00D  GRAD.:     9.360 HEAT: -2.555611
 CYCLE:    10 TIME:   0.008 TIME LEFT:  2.00D  GRAD.:     5.202 HEAT: -2.576658
 CYCLE:    11 TIME:   0.004 TIME LEFT:  2.00D  GRAD.:     4.719 HEAT: -2.585948
 CYCLE:    12 TIME:   0.008 TIME LEFT:  2.00D  GRAD.:     4.834 HEAT: -2.592879
 CYCLE:    13 TIME:   0.004 TIME LEFT:  2.00D  GRAD.:     4.989 HEAT: -2.595586
 CYCLE:    14 TIME:   0.004 TIME LEFT:  2.00D  GRAD.:     3.720 HEAT: -2.598658
 CYCLE:    15 TIME:   0.004 TIME LEFT:  2.00D  GRAD.:     3.631 HEAT: -2.600072
 CYCLE:    16 TIME:   0.004 TIME LEFT:  2.00D  GRAD.:     2.965 HEAT: -2.602180
 CYCLE:    17 TIME:   0.004 TIME LEFT:  2.00D  GRAD.:     1.946 HEAT: -2.604672
 CYCLE:    18 TIME:   0.004 TIME LEFT:  2.00D  GRAD.:     1.200 HEAT: -2.606276
 CYCLE:    19 TIME:   0.004 TIME LEFT:  2.00D  GRAD.:     1.258 HEAT: -2.607646
 CYCLE:    20 TIME:   0.008 TIME LEFT:  2.00D  GRAD.:     1.609 HEAT: -2.610440
 CYCLE:    21 TIME:   0.004 TIME LEFT:  2.00D  GRAD.:     1.828 HEAT: -2.615320
 CYCLE:    22 TIME:   0.004 TIME LEFT:  2.00D  GRAD.:     2.242 HEAT: -2.617443
 CYCLE:    23 TIME:   0.004 TIME LEFT:  2.00D  GRAD.:     1.695 HEAT: -2.620189
 CYCLE:    24 TIME:   0.004 TIME LEFT:  2.00D  GRAD.:     2.288 HEAT: -2.622796
 CYCLE:    25 TIME:   0.004 TIME LEFT:  2.00D  GRAD.:     1.724 HEAT: -2.627826
 CYCLE:    26 TIME:   0.008 TIME LEFT:  2.00D  GRAD.:     1.244 HEAT: -2.633578
 CYCLE:    27 TIME:   0.004 TIME LEFT:  2.00D  GRAD.:     1.492 HEAT: -2.636748
 CYCLE:    28 TIME:   0.004 TIME LEFT:  2.00D  GRAD.:     1.618 HEAT: -2.641975
 CYCLE:    29 TIME:   0.008 TIME LEFT:  2.00D  GRAD.:     1.460 HEAT: -2.647659
 CYCLE:    30 TIME:   0.004 TIME LEFT:  2.00D  GRAD.:     1.274 HEAT: -2.651860
 CYCLE:    31 TIME:   0.008 TIME LEFT:  2.00D  GRAD.:     1.403 HEAT: -2.655142
 CYCLE:    32 TIME:   0.004 TIME LEFT:  2.00D  GRAD.:     1.789 HEAT: -2.660630
 CYCLE:    33 TIME:   0.004 TIME LEFT:  2.00D  GRAD.:     2.077 HEAT: -2.668267
 CYCLE:    34 TIME:   0.008 TIME LEFT:  2.00D  GRAD.:     2.076 HEAT: -2.678450
 CYCLE:    35 TIME:   0.004 TIME LEFT:  2.00D  GRAD.:     1.503 HEAT: -2.683275
 CYCLE:    36 TIME:   0.004 TIME LEFT:  2.00D  GRAD.:     1.125 HEAT: -2.687437
 CYCLE:    37 TIME:   0.004 TIME LEFT:  2.00D  GRAD.:     1.045 HEAT: -2.689282
 CYCLE:    38 TIME:   0.008 TIME LEFT:  2.00D  GRAD.:     1.043 HEAT: -2.692609
 CYCLE:    39 TIME:   0.004 TIME LEFT:  2.00D  GRAD.:     1.038 HEAT: -2.695209
 CYCLE:    40 TIME:   0.004 TIME LEFT:  2.00D  GRAD.:     0.987 HEAT: -2.697760
 CYCLE:    41 TIME:   0.008 TIME LEFT:  2.00D  GRAD.:     0.743 HEAT: -2.699498
 CYCLE:    42 TIME:   0.004 TIME LEFT:  2.00D  GRAD.:     0.538 HEAT: -2.700530
 CYCLE:    43 TIME:   0.008 TIME LEFT:  2.00D  GRAD.:     0.429 HEAT: -2.701067
 CYCLE:    44 TIME:   0.004 TIME LEFT:  2.00D  GRAD.:     0.364 HEAT: -2.701454
 CYCLE:    45 TIME:   0.004 TIME LEFT:  2.00D  GRAD.:     0.305 HEAT: -2.701765
 CYCLE:    46 TIME:   0.004 TIME LEFT:  2.00D  GRAD.:     0.250 HEAT: -2.701954
 CYCLE:    47 TIME:   0.004 TIME LEFT:  2.00D  GRAD.:     0.221 HEAT: -2.702084
 CYCLE:    48 TIME:   0.004 TIME LEFT:  2.00D  GRAD.:     0.223 HEAT: -2.702199
 CYCLE:    49 TIME:   0.008 TIME LEFT:  2.00D  GRAD.:     0.227 HEAT: -2.702321
 CYCLE:    50 TIME:   0.004 TIME LEFT:  2.00D  GRAD.:     0.230 HEAT: -2.702459
 CYCLE:    51 TIME:   0.004 TIME LEFT:  2.00D  GRAD.:     0.255 HEAT: -2.702611
 CYCLE:    52 TIME:   0.008 TIME LEFT:  2.00D  GRAD.:     0.283 HEAT: -2.702811
 CYCLE:    53 TIME:   0.004 TIME LEFT:  2.00D  GRAD.:     0.322 HEAT: -2.703096
 CYCLE:    54 TIME:   0.004 TIME LEFT:  2.00D  GRAD.:     0.298 HEAT: -2.703287
 CYCLE:    55 TIME:   0.004 TIME LEFT:  2.00D  GRAD.:     0.256 HEAT: -2.703501
 CYCLE:    56 TIME:   0.008 TIME LEFT:  2.00D  GRAD.:     0.205 HEAT: -2.703564
 CYCLE:    57 TIME:   0.004 TIME LEFT:  2.00D  GRAD.:     0.706 HEAT: -2.703274
 CYCLE:    58 TIME:   0.004 TIME LEFT:  2.00D  GRAD.:     0.159 HEAT: -2.703700
 CYCLE:    59 TIME:   0.004 TIME LEFT:  2.00D  GRAD.:     0.100 HEAT: -2.703739
 CYCLE:    60 TIME:   0.008 TIME LEFT:  2.00D  GRAD.:     0.092 HEAT: -2.703801
 CYCLE:    61 TIME:   0.004 TIME LEFT:  2.00D  GRAD.:     0.079 HEAT: -2.703814
 CYCLE:    62 TIME:   0.004 TIME LEFT:  2.00D  GRAD.:     0.061 HEAT: -2.703838
 CYCLE:    63 TIME:   0.004 TIME LEFT:  2.00D  GRAD.:     0.061 HEAT: -2.703850
 CYCLE:    64 TIME:   0.008 TIME LEFT:  2.00D  GRAD.:     0.045 HEAT: -2.703857

     GRADIENT =  0.04469 IS LESS THAN CUTOFF =  0.05000



 -------------------------------------------------------------------------------
 pm3  precise nosym THREADS=1
 InChI=1S/C6H10/c1-6-4-2-3-5-6/h2,4,6H,3,5H2,1H3



     GEOMETRY OPTIMISED USING EIGENVECTOR FOLLOWING (EF).     
     SCF FIELD WAS ACHIEVED                                   


                              PM3 CALCULATION
                                                       MOPAC v23.1.2 MacOS
                                                       Tue Jun  3 16:30:58 2025




          FINAL HEAT OF FORMATION =         -2.70386 KCAL/MOL =     -11.31294 KJ/MOL


          COSMO AREA              =        131.98 SQUARE ANGSTROMS
          COSMO VOLUME            =        123.33 CUBIC ANGSTROMS

          GRADIENT NORM           =          0.04469          =       0.01117 PER ATOM
          IONIZATION POTENTIAL    =          9.614978 EV
          HOMO LUMO ENERGIES (EV) =         -9.615  1.140
          NO. OF FILLED LEVELS    =         17
          MOLECULAR WEIGHT        =         82.1450         POINT GROUP:  C1  

          MOLECULAR DIMENSIONS (Angstroms)

            Atom       Atom       Distance
            H    16    H    12     5.37220
            H    15    H    10     4.07420
            H     9    H    13     3.29159


          SCF CALCULATIONS        =         72

          WALL-CLOCK TIME         =      0.340 SECONDS
          COMPUTATION TIME        =      0.173 SECONDS




   ATOM   CHEMICAL          X               Y               Z
  NUMBER   SYMBOL      (ANGSTROMS)     (ANGSTROMS)     (ANGSTROMS)

     1       C          0.57127812  *  -0.54103810  *  -0.27847378  *
     2       C         -0.43524481  *   0.37407489  *  -1.00913158  *
     3       C         -1.64223489  *   0.52176372  *  -0.07119939  *
     4       C          1.93759536  *   0.09613281  *  -0.12643822  *
     5       C         -0.06707666  *  -0.81023086  *   1.05508113  *
     6       C         -1.26995452  *  -0.23637391  *   1.16211591  *
     7       H          0.68029366  *  -1.50761456  *  -0.82474403  *
     8       H          0.01254234  *   1.35791173  *  -1.24157890  *
     9       H         -0.73147208  *  -0.05727175  *  -1.98155363  *
    10       H         -1.85887777  *   1.57921666  *   0.16691584  *
    11       H         -2.56750705  *   0.11201485  *  -0.51661052  *
    12       H          2.39029633  *   0.30106725  *  -1.10511905  *
    13       H          1.88536758  *   1.04822465  *   0.41804667  *
    14       H          2.62183881  *  -0.56062771  *   0.42612439  *
    15       H          0.44055512  *  -1.41093416  *   1.80930706  *
    16       H         -1.93984453  *  -0.28536652  *   2.02002309  *

                             CARTESIAN COORDINATES

   1    C        0.571278118    -0.541038098    -0.278473780
   2    C       -0.435244806     0.374074886    -1.009131576
   3    C       -1.642234892     0.521763724    -0.071199388
   4    C        1.937595360     0.096132806    -0.126438215
   5    C       -0.067076662    -0.810230863     1.055081134
   6    C       -1.269954516    -0.236373913     1.162115909
   7    H        0.680293658    -1.507614559    -0.824744031
   8    H        0.012542336     1.357911735    -1.241578902
   9    H       -0.731472083    -0.057271752    -1.981553631
  10    H       -1.858877766     1.579216658     0.166915841
  11    H       -2.567507053     0.112014851    -0.516610520
  12    H        2.390296334     0.301067254    -1.105119045
  13    H        1.885367582     1.048224652     0.418046675
  14    H        2.621838811    -0.560627713     0.426124385
  15    H        0.440555115    -1.410934157     1.809307060
  16    H       -1.939844532    -0.285366515     2.020023092


           Empirical Formula: C6 H10  =    16 atoms



      MOLECULAR POINT GROUP   :   C1  


                  EIGENVALUES  
 -40.43199 -31.33243 -28.01401 -24.23477 -19.84647 -18.48313 -17.42749 -16.11669
 -14.41457 -14.10778 -13.54451 -13.07297 -12.84146 -12.27779 -12.00829 -11.81841
  -9.61498   1.14000   3.42908   3.53196   3.72011   3.79343   3.87127   4.08908
   4.17564   4.26359   4.32206   4.57885   4.65592   4.74498   5.15963   5.26098
   5.63851   6.01437


              NET ATOMIC CHARGES AND DIPOLE CONTRIBUTIONS

  ATOM NO.   TYPE          CHARGE      No. of ELECS.   s-Pop       p-Pop       
    1          C          -0.045836        4.0458     1.17030     2.87553
    2          C          -0.100970        4.1010     1.16934     2.93163
    3          C          -0.065050        4.0651     1.15384     2.91121
    4          C          -0.103050        4.1031     1.13921     2.96384
    5          C          -0.154981        4.1550     1.20469     2.95029
    6          C          -0.151431        4.1514     1.20200     2.94943
    7          H           0.066285        0.9337     0.93371
    8          H           0.054370        0.9456     0.94563
    9          H           0.049514        0.9505     0.95049
   10          H           0.054911        0.9451     0.94509
   11          H           0.055006        0.9450     0.94499
   12          H           0.037960        0.9620     0.96204
   13          H           0.042469        0.9575     0.95753
   14          H           0.038681        0.9613     0.96132
   15          H           0.112100        0.8879     0.88790
   16          H           0.110023        0.8900     0.88998
 DIPOLE           X         Y         Z       TOTAL
 POINT-CHG.     0.010     0.063    -0.141     0.155
 HYBRID        -0.004     0.008     0.025     0.027
 SUM            0.006     0.071    -0.116     0.136


          ATOMIC ORBITAL ELECTRON POPULATIONS

     Atom    s        px        py        pz   
    1  C   1.17030   0.94805   0.98043   0.94706
    2  C   1.16934   0.95972   0.99681   0.97509
    3  C   1.15384   0.97231   0.99313   0.94577
    4  C   1.13921   0.95553   1.00135   1.00696
    5  C   1.20469   0.96979   1.00313   0.97737
    6  C   1.20200   0.97481   0.99320   0.98142
    7  H   0.93371
    8  H   0.94563
    9  H   0.95049
   10  H   0.94509
   11  H   0.94499
   12  H   0.96204
   13  H   0.95753
   14  H   0.96132
   15  H   0.88790
   16  H   0.88998
 *******************************************************************************
 **                                                                           **
 **                              MOPAC v23.1.2                                **
 **                                                                           **
 *******************************************************************************
 **          Digital Object Identifier (DOI): 10.5281/zenodo.6511958          **
 **    Visit the DOI location for information on how to cite this program.    **
 *******************************************************************************

                              PM3 CALCULATION RESULTS

 *******************************************************************************
 *  CALCULATION DONE: (MAX THREADS = 1)              Tue Jun  3 16:30:58 2025  *
 *  PM3        - The PM3 Hamiltonian to be used
 *  OLDGEO     - PREVIOUS GEOMETRY TO BE USED
 *  PRECISE    - TIGHTER CRITERIA TO BE USED
 *  NOSYM      - POINT-GROUP SYMMETRY SET TO C1
 *  THREADS=1  - MULTI-THREADING NOT USED
 *  T=         - A TIME OF 172800.0 SECONDS REQUESTED
 *  DUMP=N     - RESTART FILE WRITTEN EVERY 7200.0 SECONDS REQUESTED
 *  THERMO     - THERMODYNAMIC QUANTITIES TO BE CALCULATED
 *******************************************************************************
oldgeo thermo nosym precise THREADS=1  pm3
 InChI=1S/C6H10/c1-6-4-2-3-5-6/h2,4,6H,3,5H2,1H3

   ATOM   CHEMICAL          X               Y               Z
  NUMBER   SYMBOL      (ANGSTROMS)     (ANGSTROMS)     (ANGSTROMS)

     1       C          0.57127812  *  -0.54103810  *  -0.27847378  *
     2       C         -0.43524481  *   0.37407489  *  -1.00913158  *
     3       C         -1.64223489  *   0.52176372  *  -0.07119939  *
     4       C          1.93759536  *   0.09613281  *  -0.12643822  *
     5       C         -0.06707666  *  -0.81023086  *   1.05508113  *
     6       C         -1.26995452  *  -0.23637391  *   1.16211591  *
     7       H          0.68029366  *  -1.50761456  *  -0.82474403  *
     8       H          0.01254234  *   1.35791173  *  -1.24157890  *
     9       H         -0.73147208  *  -0.05727175  *  -1.98155363  *
    10       H         -1.85887777  *   1.57921666  *   0.16691584  *
    11       H         -2.56750705  *   0.11201485  *  -0.51661052  *
    12       H          2.39029633  *   0.30106725  *  -1.10511905  *
    13       H          1.88536758  *   1.04822465  *   0.41804667  *
    14       H          2.62183881  *  -0.56062771  *   0.42612439  *
    15       H          0.44055512  *  -1.41093416  *   1.80930706  *
    16       H         -1.93984453  *  -0.28536652  *   2.02002309  *



          CARTESIAN COORDINATES 

    NO.       ATOM           X           Y           Z

     1         C          0.5713     -0.5410     -0.2785
     2         C         -0.4352      0.3741     -1.0091
     3         C         -1.6422      0.5218     -0.0712
     4         C          1.9376      0.0961     -0.1264
     5         C         -0.0671     -0.8102      1.0551
     6         C         -1.2700     -0.2364      1.1621
     7         H          0.6803     -1.5076     -0.8247
     8         H          0.0125      1.3579     -1.2416
     9         H         -0.7315     -0.0573     -1.9816
    10         H         -1.8589      1.5792      0.1669
    11         H         -2.5675      0.1120     -0.5166
    12         H          2.3903      0.3011     -1.1051
    13         H          1.8854      1.0482      0.4180
    14         H          2.6218     -0.5606      0.4261
    15         H          0.4406     -1.4109      1.8093
    16         H         -1.9398     -0.2854      2.0200

  H: (PM3): J. J. P. STEWART, J. COMP. CHEM. 10, 209 (1989).
  C: (PM3): J. J. P. STEWART, J. COMP. CHEM. 10, 209 (1989).

           Empirical Formula: C6 H10  =    16 atoms



      MOLECULAR POINT GROUP   :   C1  


      RHF CALCULATION, NO. OF DOUBLY OCCUPIED LEVELS = 17



          HEAT OF FORMATION =      -2.703857 KCALS/MOLE


          CARTESIAN COORDINATE DERIVATIVES

   NUMBER  ATOM         X            Y            Z

     1       C     -0.001313     0.001563     0.002675
     2       C      0.008913     0.001217    -0.006510
     3       C      0.008945    -0.000049     0.005099
     4       C      0.002683     0.004301    -0.002881
     5       C      0.008043     0.009665    -0.001528
     6       C      0.004021    -0.000802     0.011926
     7       H      0.000215     0.002550     0.002237
     8       H     -0.000590     0.006532    -0.008657
     9       H      0.005752     0.002762     0.008860
    10       H      0.004444    -0.012420     0.002682
    11       H     -0.015160    -0.002866    -0.000547
    12       H     -0.008463    -0.003778    -0.000610
    13       H      0.005750     0.001722    -0.005018
    14       H     -0.012273    -0.012658     0.010610
    15       H     -0.005739    -0.004353    -0.007917
    16       H     -0.005227     0.006615    -0.010421



          GRADIENT NORM =   0.04613

          MOLECULAR WEIGHT =   82.15



          ROTATIONAL CONSTANTS IN CM(-1)

          A =    0.21089851   B =    0.11091428   C =    0.08266949



           PRINCIPAL MOMENTS OF INERTIA IN UNITS OF 10**(-40)*GRAM-CM**2

          A =      132.7309   B =      252.3819   C =      338.6104


          ORIENTATION OF MOLECULE IN FORCE CALCULATION

    NO.       ATOM         X         Y         Z

     1          C      -0.5468   -0.6921   -0.2336
     2          C       0.9973   -0.6921   -0.2336
     3          C       1.4278    0.7820   -0.2336
     4          C      -1.1318   -1.4794    0.9214
     5          C      -0.9213    0.7614   -0.1605
     6          C       0.1522    1.5584   -0.1658
     7          H      -0.9322   -1.1132   -1.1921
     8          H       1.3985   -1.2252    0.6481
     9          H       1.3949   -1.2276   -1.1137
    10          H       2.0830    1.0255    0.6227
    11          H       1.9988    1.0484   -1.1421
    12          H      -0.8423   -2.5368    0.8669
    13          H      -0.7911   -1.0943    1.8916
    14          H      -2.2285   -1.4337    0.9170
    15          H      -1.9651    1.0703   -0.1101
    16          H       0.1539    2.6474   -0.1292


    FIRST DERIVATIVES WILL BE USED IN THE CALCULATION OF SECOND DERIVATIVES

          ESTIMATED TIME TO COMPLETE CALCULATION =        0.75 SECONDS

    FOR POINT-GROUP C1   THERE ARE   1 UNIQUE SYMMETRY FUNCTIONS.

 STEP:   1 TIME =     0.01 SECS, INTEGRAL =      0.01 TIME LEFT: 172799.98
 STEP:   2 TIME =     0.01 SECS, INTEGRAL =      0.02 TIME LEFT: 172799.97
 STEP:   3 TIME =     0.01 SECS, INTEGRAL =      0.04 TIME LEFT: 172799.96
 STEP:   4 TIME =     0.01 SECS, INTEGRAL =      0.04 TIME LEFT: 172799.95
 STEP:   5 TIME =     0.01 SECS, INTEGRAL =      0.05 TIME LEFT: 172799.94
 STEP:   6 TIME =     0.01 SECS, INTEGRAL =      0.07 TIME LEFT: 172799.93
 STEP:   7 TIME =     0.01 SECS, INTEGRAL =      0.07 TIME LEFT: 172799.92
 STEP:   8 TIME =     0.01 SECS, INTEGRAL =      0.09 TIME LEFT: 172799.91
 STEP:   9 TIME =     0.01 SECS, INTEGRAL =      0.10 TIME LEFT: 172799.90
 STEP:  10 TIME =     0.01 SECS, INTEGRAL =      0.11 TIME LEFT: 172799.89
 STEP:  11 TIME =     0.01 SECS, INTEGRAL =      0.12 TIME LEFT: 172799.88
 STEP:  12 TIME =     0.01 SECS, INTEGRAL =      0.13 TIME LEFT: 172799.87
 STEP:  13 TIME =     0.01 SECS, INTEGRAL =      0.14 TIME LEFT: 172799.86
 STEP:  14 TIME =     0.01 SECS, INTEGRAL =      0.15 TIME LEFT: 172799.84
 STEP:  15 TIME =     0.01 SECS, INTEGRAL =      0.16 TIME LEFT: 172799.83
 STEP:  16 TIME =     0.01 SECS, INTEGRAL =      0.17 TIME LEFT: 172799.82
 STEP:  17 TIME =     0.01 SECS, INTEGRAL =      0.18 TIME LEFT: 172799.81
 STEP:  18 TIME =     0.01 SECS, INTEGRAL =      0.20 TIME LEFT: 172799.80
 STEP:  19 TIME =     0.01 SECS, INTEGRAL =      0.21 TIME LEFT: 172799.79
 STEP:  20 TIME =     0.01 SECS, INTEGRAL =      0.21 TIME LEFT: 172799.78
 STEP:  21 TIME =     0.01 SECS, INTEGRAL =      0.23 TIME LEFT: 172799.77
 STEP:  22 TIME =     0.01 SECS, INTEGRAL =      0.24 TIME LEFT: 172799.76
 STEP:  23 TIME =     0.01 SECS, INTEGRAL =      0.25 TIME LEFT: 172799.75
 STEP:  24 TIME =     0.01 SECS, INTEGRAL =      0.26 TIME LEFT: 172799.73
 STEP:  25 TIME =     0.01 SECS, INTEGRAL =      0.27 TIME LEFT: 172799.73
 STEP:  26 TIME =     0.01 SECS, INTEGRAL =      0.28 TIME LEFT: 172799.72
 STEP:  27 TIME =     0.01 SECS, INTEGRAL =      0.29 TIME LEFT: 172799.71
 STEP:  28 TIME =     0.01 SECS, INTEGRAL =      0.30 TIME LEFT: 172799.70
 STEP:  29 TIME =     0.01 SECS, INTEGRAL =      0.31 TIME LEFT: 172799.68
 STEP:  30 TIME =     0.01 SECS, INTEGRAL =      0.32 TIME LEFT: 172799.68
 STEP:  31 TIME =     0.01 SECS, INTEGRAL =      0.33 TIME LEFT: 172799.66
 STEP:  32 TIME =     0.01 SECS, INTEGRAL =      0.34 TIME LEFT: 172799.65
 STEP:  33 TIME =     0.01 SECS, INTEGRAL =      0.36 TIME LEFT: 172799.64
 STEP:  34 TIME =     0.01 SECS, INTEGRAL =      0.37 TIME LEFT: 172799.63
 STEP:  35 TIME =     0.01 SECS, INTEGRAL =      0.38 TIME LEFT: 172799.62
 STEP:  36 TIME =     0.01 SECS, INTEGRAL =      0.38 TIME LEFT: 172799.61
 STEP:  37 TIME =     0.01 SECS, INTEGRAL =      0.39 TIME LEFT: 172799.60
 STEP:  38 TIME =     0.01 SECS, INTEGRAL =      0.41 TIME LEFT: 172799.59
 STEP:  39 TIME =     0.01 SECS, INTEGRAL =      0.42 TIME LEFT: 172799.58
 STEP:  40 TIME =     0.01 SECS, INTEGRAL =      0.43 TIME LEFT: 172799.57
 STEP:  41 TIME =     0.01 SECS, INTEGRAL =      0.44 TIME LEFT: 172799.55
 STEP:  42 TIME =     0.01 SECS, INTEGRAL =      0.45 TIME LEFT: 172799.54
 STEP:  43 TIME =     0.01 SECS, INTEGRAL =      0.46 TIME LEFT: 172799.53
 STEP:  44 TIME =     0.01 SECS, INTEGRAL =      0.48 TIME LEFT: 172799.52
 STEP:  45 TIME =     0.01 SECS, INTEGRAL =      0.49 TIME LEFT: 172799.51
 STEP:  46 TIME =     0.01 SECS, INTEGRAL =      0.50 TIME LEFT: 172799.50
 STEP:  47 TIME =     0.01 SECS, INTEGRAL =      0.51 TIME LEFT: 172799.48
 STEP:  48 TIME =     0.01 SECS, INTEGRAL =      0.52 TIME LEFT: 172799.47

(To convert to Hartree/Bohr^2, multiply by (10^(-21) x N x a0^2)/(4.184 x 627.51) =  0.0642)


           FORCE MATRIX IN MILLIDYNES/ANGSTROM


                  C  1       C  2       C  3       C  4       C  5       C  6
 ------------------------------------------------------------------------------
     C    1  14.694614
     C    2   3.505544  14.207650
     C    3   0.724374   3.775608  14.673342
     C    4   4.320941   0.584812   0.036293  14.407246
     C    5   4.472180   0.862558   1.183323   0.666871  18.369237
     C    6   1.142135   0.887240   4.740802   0.043593  10.605285  18.378938
     H    7   4.260603   0.421616   0.025170   0.429020   0.403607   0.037688
     H    8   0.452981   4.537089   0.440341   0.062191   0.023830   0.026193
     H    9   0.439191   4.582583   0.440659   0.026668   0.030607   0.030115
     H   10   0.031354   0.436171   4.526079   0.001431   0.039330   0.431309
     H   11   0.026613   0.436416   4.516128   0.005498   0.037997   0.429965
     H   12   0.454508   0.017786   0.002843   4.742011   0.050387   0.007373
     H   13   0.467484   0.020664   0.001461   4.733661   0.014951   0.002626
     H   14   0.453257   0.047090   0.005037   4.743263   0.021663   0.002738
     H   15   0.415290   0.041329   0.119009   0.011116   5.015670   0.448794
     H   16   0.116378   0.043235   0.413195   0.017757   0.449298   5.018761


                  H  7       H  8       H  9       H 10       H 11       H 12
 ------------------------------------------------------------------------------
     H    7   4.724073
     H    8   0.028250   5.157581
     H    9   0.028612   0.583631   5.187105
     H   10   0.003910   0.029035   0.026505   5.132247
     H   11   0.001341   0.028875   0.028895   0.575226   5.122875
     H   12   0.028468   0.015937   0.001665   0.000299   0.000615   5.475838
     H   13   0.046808   0.023887   0.001471   0.000408   0.000535   0.572791
     H   14   0.030237   0.002852   0.004410   0.000463   0.000974   0.568290
     H   15   0.013921   0.002572   0.003205   0.016218   0.016656   0.001695
     H   16   0.015604   0.002842   0.003427   0.014940   0.014007   0.002963


                  H 13       H 14       H 15       H 16
 ------------------------------------------------------
     H   13   5.471973
     H   14   0.574125   5.476613
     H   15   0.002403   0.008086   5.412888
     H   16   0.000820   0.000737   0.049209   5.415009


          HEAT OF FORMATION =      -2.703857 KCALS/MOLE

          ZERO POINT ENERGY      89.910 KCAL/MOL


           NORMAL COORDINATE ANALYSIS (Total motion = 1 Angstrom)


   Root No.       1         2         3         4         5         6         7         8

                 1 A       2 A       3 A       4 A       5 A       6 A       7 A       8 A   

                  80.1     176.7     271.2     377.3     493.2     656.3     753.1     766.8
  
           1   -0.0060   -0.0055    0.0130   -0.0270    0.0050    0.0435    0.0190    0.0033
           2   -0.0061    0.0025   -0.0169    0.0185    0.0017    0.0340   -0.0200    0.0264
           3   -0.0106   -0.0042   -0.0271   -0.0193   -0.0439    0.0333   -0.0001    0.0215
           4   -0.0058   -0.0055    0.0135   -0.0287    0.0022    0.0305   -0.0070    0.0179
           5   -0.0058   -0.0040   -0.0035   -0.0073   -0.0160   -0.0433   -0.0327    0.0087
           6   -0.0440   -0.0117    0.0001    0.0298    0.0113    0.0045   -0.0079   -0.0014
           7   -0.0034    0.0017   -0.0045   -0.0069   -0.0125   -0.0382   -0.0507    0.0200
           8   -0.0066   -0.0067    0.0024   -0.0189   -0.0152   -0.0355   -0.0035   -0.0078
           9    0.0481   -0.0036   -0.0207    0.0032    0.0079    0.0045   -0.0155   -0.0224
          10    0.0234    0.0017   -0.0074    0.0524    0.0251    0.0152   -0.0021   -0.0002
          11    0.0265    0.0059    0.0429   -0.0132    0.0382    0.0183   -0.0154    0.0063
          12    0.0274    0.0021    0.0051   -0.0015   -0.0210   -0.0171    0.0127    0.0027
          13   -0.0061    0.0013   -0.0029   -0.0108   -0.0118   -0.0266    0.0474   -0.0408
          14   -0.0050    0.0039   -0.0216    0.0257   -0.0079    0.0231    0.0098    0.0102
          15   -0.0313    0.0054   -0.0206   -0.0334    0.0476    0.0015   -0.0216   -0.0232
          16   -0.0052    0.0056   -0.0098    0.0069   -0.0136   -0.0236   -0.0013   -0.0051
          17   -0.0062   -0.0016   -0.0131    0.0041   -0.0097    0.0108    0.0739   -0.0380
          18    0.0041    0.0122    0.0603    0.0159   -0.0223    0.0062   -0.0078   -0.0131
          19   -0.0290   -0.0097    0.0271   -0.0300    0.0070    0.0560   -0.0008    0.0244
          20   -0.0327    0.0014   -0.0459    0.0157    0.0322    0.0576   -0.0375   -0.0059
          21    0.0108   -0.0017   -0.0184   -0.0158   -0.0558    0.0156    0.0156    0.0267
          22    0.0168   -0.0048   -0.0007   -0.0670   -0.0412    0.0763   -0.0065    0.0255
          23   -0.0722   -0.0113    0.0229    0.0242    0.0116   -0.0931    0.0181    0.0329
          24   -0.0948   -0.0164    0.0228    0.0688    0.0501   -0.0469    0.0253    0.0104
          25   -0.0291   -0.0124    0.0399   -0.0005    0.0507   -0.0190    0.0295   -0.0131
          26    0.0597   -0.0005   -0.0203   -0.0537   -0.0464   -0.0126   -0.0674   -0.0326
          27   -0.0947   -0.0170    0.0227    0.0716    0.0528   -0.0403    0.0301    0.0103
          28   -0.0607    0.0104    0.0661    0.0272   -0.0650   -0.0040   -0.1288   -0.0730
          29   -0.0456   -0.0168    0.0055   -0.0198   -0.0037   -0.0175   -0.0400   -0.0016
          30    0.1035   -0.0074   -0.0768   -0.0232    0.0463   -0.0295    0.0561    0.0515
          31    0.0587   -0.0051   -0.0865   -0.0339    0.0393   -0.0923    0.0331    0.1152
          32    0.0323   -0.0019    0.0154   -0.0408   -0.0225   -0.0378   -0.0081    0.0137
          33    0.0989   -0.0065   -0.0695   -0.0208    0.0401   -0.0311    0.0406    0.0463
          34    0.0125    0.2267   -0.0495    0.0976    0.0161    0.0099   -0.0207    0.0162
          35    0.0226    0.0592    0.0299   -0.0001    0.0347    0.0185   -0.0216    0.0128
          36    0.0446    0.1549    0.0488   -0.0404    0.0205   -0.0545    0.0262   -0.0562
          37    0.0577   -0.2047    0.0124    0.0985    0.0552   -0.0284   -0.0193   -0.0271
          38    0.0478    0.1824    0.0718   -0.0180    0.0846   -0.0271   -0.0197   -0.0498
          39    0.0069    0.0042   -0.0128   -0.0149   -0.0483    0.0150    0.0200    0.0331
          40    0.0237   -0.0069   -0.0059    0.0516    0.0258    0.0155   -0.0017   -0.0012
          41    0.0358   -0.2210    0.0871   -0.0629    0.0502    0.0281    0.0004   -0.0125
          42    0.0612   -0.1477    0.0095    0.0708    0.0080   -0.0744   -0.0102   -0.0212
          43   -0.0074    0.0031   -0.0078   -0.0064   -0.0110   -0.0420    0.0401   -0.0320
          44   -0.0036    0.0087   -0.0346    0.0468   -0.0251   -0.0152   -0.0353    0.0201
          45   -0.0666    0.0105   -0.0394   -0.0782    0.1713   -0.0885    0.0961    0.1045
          46   -0.0057    0.0113   -0.0194    0.0316   -0.0093    0.0186    0.0114    0.0232
          47   -0.0061   -0.0020   -0.0161    0.0032   -0.0093    0.0124    0.0680   -0.0461
          48    0.0043    0.0260    0.1489    0.0442   -0.0416   -0.0577    0.1799    0.2219


   Root No.       9        10        11        12        13        14        15        16

                 9 A      10 A      11 A      12 A      13 A      14 A      15 A      16 A   

                 818.0     923.5     934.3     955.2     993.8    1020.0    1043.1    1057.1
  
           1   -0.0043   -0.0156    0.0084    0.0124   -0.0027    0.0081   -0.0139   -0.0066
           2   -0.0043   -0.0011    0.0046   -0.0120    0.0046    0.0146   -0.0024   -0.0082
           3   -0.0049   -0.0163    0.0024   -0.0040   -0.0057    0.0128   -0.0047    0.0188
           4   -0.0074    0.0574   -0.0134   -0.0144    0.0045   -0.0028    0.0071   -0.0056
           5    0.0023   -0.0177    0.0069    0.0255   -0.0103   -0.0156   -0.0298   -0.0008
           6    0.0309   -0.0184   -0.0182    0.0001   -0.0165   -0.0030    0.0095    0.0073
           7   -0.0000   -0.0078    0.0026   -0.0066    0.0068    0.0270    0.0037   -0.0246
           8    0.0009   -0.0017   -0.0037   -0.0138    0.0065    0.0099    0.0219    0.0052
           9    0.0213    0.0154    0.0183    0.0003    0.0250    0.0067   -0.0114    0.0135
          10    0.0003   -0.0292    0.0138    0.0247    0.0090   -0.0010    0.0190    0.0081
          11    0.0015   -0.0234    0.0095   -0.0327    0.0001   -0.0210   -0.0030    0.0078
          12   -0.0057    0.0185    0.0097   -0.0001    0.0112   -0.0041    0.0002   -0.0198
          13    0.0051   -0.0217   -0.0011   -0.0242    0.0020   -0.0064    0.0030    0.0168
          14   -0.0018    0.0328   -0.0026    0.0269   -0.0041    0.0003    0.0027   -0.0117
          15   -0.0191   -0.0152   -0.0249    0.0051    0.0220   -0.0197   -0.0144    0.0014
          16    0.0019    0.0015   -0.0005    0.0054   -0.0035   -0.0123    0.0039    0.0149
          17    0.0042   -0.0005   -0.0012   -0.0041   -0.0015    0.0101   -0.0095   -0.0230
          18   -0.0209    0.0003    0.0082   -0.0041   -0.0380   -0.0021    0.0246   -0.0234
          19    0.0271   -0.0093   -0.0222    0.0646   -0.0997   -0.0125   -0.1047   -0.0352
          20   -0.0270    0.0087   -0.0582   -0.0499    0.0663    0.1451    0.0225    0.0175
          21   -0.0080   -0.0185    0.0412   -0.0074    0.0066   -0.0361    0.0203    0.0177
          22    0.0439    0.0204   -0.0729   -0.0167   -0.0916   -0.0093    0.0161    0.0886
          23   -0.1194    0.0029    0.0356    0.0198   -0.0292   -0.0101   -0.0518    0.0755
          24   -0.0709    0.0118    0.0287   -0.0020    0.0170    0.0046   -0.0096    0.0100
          25   -0.0636    0.1622    0.0332    0.0071    0.0965   -0.0743   -0.0389   -0.0842
          26    0.1221   -0.0034   -0.0288    0.0480    0.0026   -0.0896   -0.0375   -0.0424
          27   -0.0718    0.0209    0.0263   -0.0050    0.0186    0.0102   -0.0062    0.0003
          28    0.0699    0.0214    0.0712    0.0030    0.0568    0.0781   -0.0846   -0.0034
          29    0.0745    0.0265   -0.0637   -0.0259    0.0565   -0.0690    0.1730   -0.0496
          30   -0.0572   -0.0156   -0.0185   -0.0028   -0.0301   -0.0100    0.0127    0.0120
          31   -0.0723   -0.0815   -0.0574    0.0020   -0.0573    0.0091    0.0317   -0.1410
          32   -0.0836    0.0701    0.0302   -0.0365   -0.0188    0.0430   -0.0011    0.2131
          33   -0.0527   -0.0120   -0.0106   -0.0023   -0.0248    0.0054    0.0011    0.0031
          34    0.0134   -0.0040   -0.0051   -0.1211   -0.0223   -0.0429   -0.0386    0.0083
          35    0.0046   -0.0188    0.0065   -0.0778   -0.0076   -0.0355   -0.0191    0.0086
          36   -0.0047    0.0535   -0.0561    0.1719   -0.0010    0.1047    0.0244   -0.0091
          37    0.0210    0.0296   -0.0683   -0.0285   -0.0478    0.0315   -0.0402    0.0222
          38    0.0122    0.0188   -0.0801    0.0544   -0.0358    0.0729   -0.0127    0.0371
          39   -0.0170   -0.0170    0.0713   -0.0150    0.0442   -0.0500    0.0234   -0.0365
          40    0.0004   -0.0305    0.0130    0.0285    0.0087    0.0009    0.0198    0.0094
          41   -0.0113   -0.0659    0.0253    0.1220    0.0281    0.0258    0.0583    0.0275
          42    0.0186    0.1140   -0.0873   -0.1094   -0.0546    0.0212   -0.0869   -0.0267
          43    0.0123    0.0027   -0.0006   -0.0117   -0.0024   -0.0254    0.0384    0.0532
          44   -0.0067    0.0973   -0.0291    0.0701    0.0013   -0.0704    0.1129    0.1037
          45    0.1614    0.0983    0.1497   -0.0105   -0.0954    0.0543    0.0386    0.0042
          46    0.0005    0.0721   -0.0070    0.1061   -0.0342   -0.1058   -0.0708    0.0454
          47    0.0007    0.0026    0.0018   -0.0041   -0.0078    0.0095   -0.0059   -0.0257
          48    0.0841   -0.0488   -0.0914    0.0149    0.1444    0.0070   -0.0625    0.0508


   Root No.      17        18        19        20        21        22        23        24

                17 A      18 A      19 A      20 A      21 A      22 A      23 A      24 A   

                1081.6    1100.1    1115.1    1128.8    1152.4    1234.3    1260.3    1305.8
  
           1    0.0058    0.0001    0.0008    0.0210   -0.0182    0.0218   -0.0294    0.0830
           2    0.0077    0.0049   -0.0005    0.0086   -0.0167   -0.0274   -0.0204   -0.0124
           3    0.0065   -0.0100   -0.0090   -0.0056   -0.0486    0.0138    0.0291   -0.0275
           4   -0.0037   -0.0050   -0.0077   -0.0254    0.0161   -0.0054   -0.0343   -0.0526
           5    0.0247   -0.0003   -0.0242   -0.0052   -0.0018   -0.0071   -0.0421   -0.0248
           6   -0.0064    0.0309    0.0093   -0.0239    0.0157   -0.0025   -0.0088    0.0084
           7   -0.0231   -0.0062    0.0189   -0.0051    0.0077    0.0008    0.0098    0.0027
           8   -0.0129    0.0002    0.0241    0.0085    0.0013    0.0357    0.0188    0.0081
           9    0.0027   -0.0328   -0.0059    0.0123    0.0058   -0.0003    0.0015   -0.0001
          10   -0.0019    0.0043    0.0009   -0.0072    0.0057   -0.0039    0.0085   -0.0148
          11   -0.0031   -0.0009   -0.0013   -0.0017    0.0037    0.0092    0.0061    0.0041
          12    0.0075    0.0180   -0.0009    0.0222    0.0340   -0.0043   -0.0035   -0.0005
          13    0.0139    0.0063   -0.0117    0.0058   -0.0090   -0.0118   -0.0070   -0.0197
          14   -0.0179   -0.0058    0.0106   -0.0034    0.0054   -0.0212    0.0104    0.0323
          15   -0.0210   -0.0049    0.0076    0.0015    0.0092   -0.0049   -0.0038    0.0038
          16    0.0111    0.0036    0.0016    0.0084   -0.0090   -0.0279    0.0059    0.0132
          17   -0.0174   -0.0080    0.0051   -0.0148    0.0148    0.0075    0.0023   -0.0172
          18    0.0119    0.0029   -0.0026   -0.0020   -0.0061    0.0027    0.0013   -0.0016
          19   -0.0903    0.0327   -0.0054    0.2573    0.0124   -0.0389    0.1080   -0.1281
          20    0.2149    0.1087   -0.0811    0.0500    0.0647    0.0759    0.0370    0.0087
          21   -0.0458   -0.0678    0.0280   -0.1187   -0.0985   -0.0076   -0.0524    0.0484
          22    0.0187   -0.0783   -0.0701   -0.0861    0.1732   -0.0580    0.1251    0.0766
          23    0.0726   -0.1349   -0.0948   -0.0045    0.0640   -0.0505    0.0851    0.0978
          24    0.0104   -0.0171   -0.0049    0.0037   -0.0185   -0.0026   -0.0049    0.0208
          25    0.0180    0.0857   -0.0567   -0.0615   -0.1172   -0.0092    0.1697    0.0116
          26    0.0422    0.1441   -0.0437   -0.0838   -0.0523   -0.0322    0.0790    0.0909
          27   -0.0055   -0.0163   -0.0006    0.0060   -0.0151    0.0103    0.0088   -0.0300
          28   -0.0703   -0.0322   -0.0120   -0.0395    0.0537    0.0730    0.0494    0.0124
          29    0.0954   -0.1223    0.0810    0.1247   -0.0610   -0.0708    0.0347    0.0245
          30    0.0077    0.0214    0.0021    0.0029   -0.0089   -0.0227   -0.0291   -0.0107
          31   -0.0232    0.0068   -0.0153   -0.0512    0.0188    0.0785    0.0526    0.0114
          32   -0.0582    0.1417    0.1496    0.0089   -0.0045   -0.0768    0.0132    0.0325
          33   -0.0107    0.0176    0.0091   -0.0149    0.0103    0.0128    0.0226    0.0114
          34   -0.0082   -0.0086   -0.0035    0.0105   -0.0154    0.0326    0.0288   -0.0065
          35   -0.0037   -0.0034   -0.0037    0.0039   -0.0001    0.0216    0.0173   -0.0019
          36    0.0155   -0.0019    0.0033   -0.0068   -0.0245   -0.0453   -0.0501    0.0413
          37   -0.0067   -0.0317   -0.0019   -0.0084   -0.0761    0.0192    0.0247   -0.0136
          38    0.0059   -0.0360   -0.0053   -0.0356   -0.0965    0.0121    0.0297   -0.0593
          39    0.0061    0.0444    0.0017    0.0372    0.1000   -0.0140   -0.0217    0.0288
          40   -0.0018    0.0045    0.0003   -0.0066    0.0041   -0.0027    0.0134   -0.0207
          41    0.0055    0.0041   -0.0049   -0.0303    0.0007   -0.0082    0.0469   -0.0842
          42    0.0029   -0.0172    0.0027    0.0340   -0.0466    0.0070   -0.0714    0.1031
          43   -0.0169    0.0162   -0.0676    0.0312   -0.0168    0.0429   -0.0260   -0.0209
          44   -0.1326    0.0244   -0.1693    0.0757   -0.0114    0.1592   -0.0505    0.0276
          45    0.0318    0.0023   -0.0180   -0.0011   -0.0206    0.0117    0.0081   -0.0032
          46    0.1553   -0.0321    0.1984   -0.0155    0.0432    0.1772    0.0074   -0.0626
          47   -0.0172   -0.0081    0.0072   -0.0152    0.0155    0.0090    0.0035   -0.0180
          48   -0.0265   -0.0128   -0.0043    0.0026    0.0037   -0.0044    0.0019   -0.0012


   Root No.      25        26        27        28        29        30        31        32

                25 A      26 A      27 A      28 A      29 A      30 A      31 A      32 A   

                1350.6    1375.4    1403.0    1407.0    1411.4    1421.7    1423.9    1830.9
  
           1   -0.0097   -0.0109    0.0009   -0.0048    0.0016   -0.0158    0.0111    0.0075
           2    0.0399    0.0408    0.0039   -0.0079    0.0009   -0.0194    0.0517    0.0185
           3   -0.0076   -0.0008   -0.0037    0.0094   -0.0034    0.0132   -0.0229   -0.0002
           4   -0.0023   -0.0029   -0.0021   -0.0158    0.0080    0.0296   -0.0090    0.0049
           5   -0.0159   -0.0140    0.0005    0.0090    0.0056   -0.0296   -0.0226   -0.0065
           6    0.0007   -0.0001    0.0004   -0.0009    0.0003   -0.0028    0.0035   -0.0001
           7   -0.0315   -0.0064    0.0054    0.0393   -0.0304    0.0064    0.0242   -0.0197
           8    0.0670   -0.0165   -0.0009   -0.0111    0.0015    0.0173    0.0023   -0.0014
           9    0.0026    0.0003   -0.0003   -0.0018    0.0012   -0.0002   -0.0010    0.0005
          10    0.0055    0.0110   -0.0267    0.0012   -0.0229    0.0061   -0.0191   -0.0012
          11   -0.0011    0.0062   -0.0224    0.0242    0.0111    0.0160   -0.0249    0.0026
          12   -0.0074   -0.0192   -0.0205   -0.0172    0.0121   -0.0158    0.0353   -0.0006
          13    0.0091    0.0138   -0.0000   -0.0029    0.0027   -0.0047    0.0063   -0.1755
          14   -0.0053   -0.0337   -0.0027   -0.0101    0.0077    0.0101   -0.0282   -0.1621
          15    0.0015   -0.0005    0.0001   -0.0011    0.0006   -0.0009    0.0017    0.0007
          16    0.0258   -0.0219   -0.0030   -0.0176    0.0127    0.0046   -0.0225    0.2064
          17   -0.0350    0.0084    0.0017    0.0157   -0.0103    0.0005    0.0055    0.1205
          18   -0.0024    0.0006    0.0001    0.0014   -0.0009    0.0003    0.0001   -0.0024
          19    0.0209    0.0283   -0.0046    0.0017   -0.0102    0.0294   -0.0096   -0.0206
          20   -0.0488   -0.0335   -0.0038    0.0175   -0.0011    0.0172   -0.0495    0.0214
          21    0.0196    0.0163    0.0010   -0.0049    0.0025   -0.0210    0.0299    0.0042
          22    0.0679    0.0157    0.0114    0.0600   -0.0246   -0.1402    0.0280    0.0009
          23   -0.0410    0.0532   -0.0059   -0.0323   -0.0214    0.1294    0.0746   -0.0020
          24   -0.0420    0.0270   -0.0083   -0.0523   -0.0004    0.1487    0.0386    0.0058
          25    0.0453    0.0105    0.0080    0.0667   -0.0216   -0.1104   -0.0006    0.0011
          26   -0.0513    0.0505   -0.0045   -0.0319   -0.0201    0.1349    0.0713   -0.0024
          27    0.0384   -0.0288    0.0068    0.0530    0.0026   -0.1433   -0.0437   -0.0055
          28   -0.0141    0.0847   -0.0130   -0.0902    0.0755   -0.0437   -0.0499   -0.0248
          29   -0.1395    0.0590   -0.0030   -0.0069    0.0218   -0.0533   -0.0258    0.0261
          30    0.0413   -0.0796    0.0124    0.0839   -0.0746    0.0506    0.0550    0.0022
          31   -0.0202    0.0913   -0.0141   -0.0976    0.0824   -0.0471   -0.0563   -0.0224
          32   -0.1338    0.0570   -0.0019   -0.0074    0.0213   -0.0542   -0.0204    0.0259
          33   -0.0427    0.0726   -0.0111   -0.0752    0.0675   -0.0478   -0.0499    0.0014
          34   -0.0460   -0.0589    0.3381   -0.0329    0.0454   -0.0054    0.0279   -0.0011
          35   -0.0235   -0.0256    0.0788   -0.0064    0.0122    0.0016   -0.0012    0.0041
          36    0.0800    0.1096    0.1466    0.1215    0.1018    0.0631   -0.0519    0.0008
          37   -0.0308   -0.0570   -0.0309    0.0681    0.2273    0.0164    0.0973    0.0017
          38   -0.0396   -0.0630   -0.1444   -0.1218   -0.1180   -0.0691    0.0667   -0.0001
          39    0.0251    0.0412    0.0567    0.0216   -0.0301    0.0199   -0.0540    0.0000
          40    0.0001    0.0016    0.0038   -0.0027   -0.0090    0.0038   -0.0064   -0.0019
          41   -0.0254   -0.0387    0.3154   -0.0905   -0.0585   -0.0294    0.0310   -0.0005
          42    0.0386    0.0784    0.0816   -0.0281   -0.1870    0.0002   -0.1147    0.0004
          43   -0.0041    0.0367    0.0017    0.0077   -0.0052   -0.0139    0.0272   -0.1447
          44   -0.0527    0.0393    0.0042    0.0276   -0.0211   -0.0172    0.0410    0.1001
          45   -0.0049   -0.0015   -0.0002    0.0019   -0.0015    0.0019   -0.0035    0.0074
          46    0.0180    0.0519    0.0056    0.0260   -0.0227   -0.0033    0.0495   -0.0558
          47   -0.0370    0.0078    0.0018    0.0169   -0.0114    0.0015    0.0052    0.1652
          48   -0.0034   -0.0012   -0.0006    0.0009    0.0000    0.0012   -0.0037    0.0080


   Root No.      33        34        35        36        37        38        39        40

                33 A      34 A      35 A      36 A      37 A      38 A      39 A      40 A   

                2891.7    2972.3    2989.3    3055.3    3067.8    3081.4    3084.5    3114.7
  
           1   -0.0230    0.0005   -0.0007   -0.0004    0.0006   -0.0005   -0.0003   -0.0001
           2   -0.0255    0.0004   -0.0006   -0.0002   -0.0003   -0.0006    0.0002    0.0003
           3   -0.0567    0.0010   -0.0017    0.0000   -0.0003   -0.0013    0.0000   -0.0001
           4   -0.0009    0.0006   -0.0013   -0.0032    0.0213    0.0007    0.0000    0.0001
           5    0.0001   -0.0008    0.0016    0.0052   -0.0285   -0.0007    0.0005    0.0001
           6    0.0044    0.0218   -0.0382    0.0007   -0.0038   -0.0004   -0.0004    0.0000
           7    0.0002   -0.0015   -0.0007    0.0338    0.0051    0.0001    0.0000   -0.0002
           8    0.0001    0.0007    0.0004    0.0139    0.0016    0.0000    0.0000   -0.0002
           9   -0.0002   -0.0387   -0.0213   -0.0004   -0.0003   -0.0000    0.0000   -0.0000
          10    0.0014   -0.0000    0.0001    0.0000    0.0004   -0.0250   -0.0440    0.0001
          11    0.0016    0.0000   -0.0000   -0.0001    0.0009   -0.0281    0.0363    0.0001
          12    0.0010   -0.0001    0.0001   -0.0001    0.0010   -0.0322    0.0024    0.0003
          13    0.0003   -0.0000    0.0000    0.0002    0.0004   -0.0002   -0.0001   -0.0372
          14   -0.0009    0.0000   -0.0000   -0.0003   -0.0000    0.0002   -0.0003    0.0109
          15   -0.0001   -0.0002   -0.0002   -0.0000   -0.0000   -0.0001    0.0002    0.0018
          16    0.0003    0.0000    0.0000    0.0005   -0.0001    0.0000    0.0000    0.0001
          17    0.0004    0.0000    0.0000   -0.0017   -0.0006   -0.0001   -0.0001   -0.0374
          18   -0.0003   -0.0000   -0.0001   -0.0001   -0.0000   -0.0000   -0.0000   -0.0013
          19    0.2776   -0.0065    0.0103   -0.0004    0.0027    0.0039   -0.0011   -0.0006
          20    0.3035   -0.0053    0.0085    0.0000    0.0014    0.0039    0.0008    0.0014
          21    0.6911   -0.0120    0.0185   -0.0002    0.0041    0.0167   -0.0002    0.0010
          22   -0.0080   -0.0666    0.1163    0.0197   -0.1200   -0.0017    0.0034    0.0002
          23    0.0145    0.0833   -0.1541   -0.0240    0.1572    0.0033   -0.0022    0.0000
          24   -0.0241   -0.1398    0.2479    0.0481   -0.3040   -0.0078    0.0048    0.0002
          25    0.0079    0.0578   -0.0986    0.0232   -0.1382   -0.0042    0.0008    0.0002
          26   -0.0181   -0.0741    0.1347   -0.0295    0.1866    0.0056   -0.0008    0.0001
          27   -0.0290   -0.1211    0.2090   -0.0567    0.3494    0.0105   -0.0017   -0.0001
          28    0.0018    0.1756    0.0973   -0.2223   -0.0328   -0.0005   -0.0002    0.0035
          29    0.0004    0.0641    0.0386   -0.0814   -0.0129   -0.0002   -0.0001   -0.0003
          30    0.0022    0.2218    0.1212   -0.3313   -0.0496   -0.0008   -0.0003    0.0040
          31   -0.0005   -0.1585   -0.0887   -0.1821   -0.0289   -0.0007   -0.0002    0.0027
          32    0.0004   -0.0723   -0.0434   -0.0866   -0.0150   -0.0004   -0.0001   -0.0003
          33    0.0005    0.2447    0.1351    0.3368    0.0533    0.0013    0.0003   -0.0038
          34    0.0050    0.0001   -0.0002   -0.0003    0.0028   -0.0751    0.1097    0.0001
          35   -0.0102   -0.0000   -0.0002    0.0008   -0.0069    0.2026   -0.4413    0.0004
          36   -0.0037    0.0000   -0.0000    0.0000   -0.0002   -0.0006   -0.0330    0.0000
          37   -0.0080    0.0004   -0.0008    0.0002   -0.0042    0.1405   -0.0265   -0.0012
          38   -0.0097    0.0002   -0.0005    0.0003   -0.0049    0.1609    0.0142   -0.0014
          39   -0.0144    0.0002   -0.0005    0.0007   -0.0124    0.3976   -0.0092   -0.0033
          40   -0.0111    0.0019   -0.0037   -0.0009   -0.0013    0.2326    0.4418   -0.0007
          41    0.0028   -0.0001    0.0001    0.0000    0.0005   -0.0279   -0.0071    0.0006
          42   -0.0034   -0.0000    0.0000   -0.0000    0.0005   -0.0106    0.0128   -0.0000
          43   -0.0055    0.0001   -0.0002   -0.0092   -0.0098    0.0025   -0.0002    0.4396
          44    0.0000    0.0000    0.0000    0.0024    0.0032   -0.0010   -0.0006   -0.1338
          45   -0.0012   -0.0004   -0.0003    0.0004    0.0005   -0.0002    0.0003   -0.0211
          46    0.0003   -0.0001   -0.0000    0.0017   -0.0001   -0.0000    0.0000   -0.0025
          47    0.0040   -0.0003   -0.0001    0.0172    0.0119    0.0014    0.0008    0.4452
          48   -0.0006   -0.0008   -0.0006    0.0005    0.0004    0.0001   -0.0001    0.0151


   Root No.      41        42

                41 A      42 A   

                3133.9    3180.0
  
           1    0.0006   -0.0003
           2    0.0008   -0.0004
           3    0.0003    0.0003
           4   -0.0011   -0.0001
           5    0.0014    0.0002
           6    0.0001   -0.0002
           7   -0.0022    0.0000
           8   -0.0007    0.0000
           9    0.0000   -0.0000
          10    0.0000   -0.0097
          11   -0.0001   -0.0129
          12   -0.0001    0.0185
          13    0.0397    0.0002
          14   -0.0063    0.0000
          15   -0.0017   -0.0000
          16   -0.0052   -0.0000
          17   -0.0411   -0.0000
          18   -0.0012    0.0000
          19   -0.0007    0.0002
          20   -0.0023    0.0001
          21   -0.0037    0.0022
          22    0.0027    0.0003
          23   -0.0036   -0.0017
          24    0.0071    0.0030
          25    0.0031    0.0003
          26   -0.0042   -0.0004
          27   -0.0081   -0.0009
          28    0.0096    0.0000
          29    0.0022    0.0000
          30    0.0130    0.0000
          31    0.0077   -0.0000
          32    0.0024   -0.0000
          33   -0.0131    0.0001
          34    0.0000   -0.0936
          35   -0.0003    0.3059
          36    0.0000    0.0314
          37    0.0009   -0.1089
          38    0.0009   -0.1251
          39    0.0021   -0.2742
          40   -0.0010    0.3219
          41   -0.0005   -0.0236
          42    0.0001    0.0163
          43   -0.4027   -0.0024
          44    0.1199    0.0004
          45    0.0193    0.0003
          46    0.0001    0.0000
          47    0.4341    0.0001
          48    0.0146    0.0000


           MASS-WEIGHTED COORDINATE ANALYSIS (NORMAL COORDINATES)


   Root No.       1         2         3         4         5         6         7         8

                 1 A       2 A       3 A       4 A       5 A       6 A       7 A       8 A   

                  80.1     176.7     271.2     377.3     493.2     656.3     753.1     766.8
  
           1   -0.0499   -0.0391    0.1072   -0.2244    0.0405    0.3257    0.1323    0.0268
           2   -0.0507    0.0181   -0.1393    0.1538    0.0143    0.2546   -0.1391    0.2154
           3   -0.0889   -0.0299   -0.2232   -0.1606   -0.3597    0.2493   -0.0008    0.1753
           4   -0.0489   -0.0391    0.1112   -0.2385    0.0180    0.2285   -0.0484    0.1463
           5   -0.0487   -0.0285   -0.0284   -0.0608   -0.1312   -0.3245   -0.2275    0.0708
           6   -0.3673   -0.0838    0.0008    0.2477    0.0927    0.0337   -0.0551   -0.0111
           7   -0.0280    0.0121   -0.0368   -0.0574   -0.1023   -0.2863   -0.3529    0.1635
           8   -0.0552   -0.0476    0.0199   -0.1569   -0.1245   -0.2661   -0.0244   -0.0638
           9    0.4022   -0.0257   -0.1700    0.0267    0.0644    0.0337   -0.1078   -0.1827
          10    0.1953    0.0123   -0.0610    0.4347    0.2053    0.1141   -0.0147   -0.0016
          11    0.2215    0.0424    0.3530   -0.1100    0.3124    0.1371   -0.1074    0.0517
          12    0.2293    0.0147    0.0420   -0.0121   -0.1720   -0.1281    0.0882    0.0223
          13   -0.0509    0.0091   -0.0238   -0.0894   -0.0968   -0.1992    0.3298   -0.3334
          14   -0.0421    0.0280   -0.1773    0.2132   -0.0649    0.1728    0.0679    0.0837
          15   -0.2614    0.0384   -0.1698   -0.2772    0.3898    0.0115   -0.1506   -0.1894
          16   -0.0439    0.0399   -0.0802    0.0575   -0.1113   -0.1768   -0.0088   -0.0414
          17   -0.0515   -0.0112   -0.1077    0.0341   -0.0790    0.0805    0.5142   -0.3106
          18    0.0342    0.0870    0.4956    0.1322   -0.1822    0.0464   -0.0541   -0.1071
          19   -0.0701   -0.0201    0.0646   -0.0721    0.0166    0.1215   -0.0016    0.0578
          20   -0.0792    0.0029   -0.1093    0.0379    0.0763    0.1250   -0.0755   -0.0139
          21    0.0262   -0.0035   -0.0440   -0.0379   -0.1324    0.0339    0.0315    0.0632
          22    0.0408   -0.0099   -0.0016   -0.1611   -0.0976    0.1654   -0.0132    0.0604
          23   -0.1749   -0.0233    0.0546    0.0582    0.0274   -0.2018    0.0364    0.0779
          24   -0.2295   -0.0340    0.0542    0.1654    0.1187   -0.1018    0.0510    0.0245
          25   -0.0705   -0.0257    0.0951   -0.0012    0.1201   -0.0413    0.0594   -0.0311
          26    0.1445   -0.0011   -0.0485   -0.1292   -0.1101   -0.0273   -0.1359   -0.0771
          27   -0.2292   -0.0351    0.0540    0.1722    0.1251   -0.0874    0.0607    0.0244
          28   -0.1469    0.0216    0.1576    0.0654   -0.1541   -0.0088   -0.2598   -0.1727
          29   -0.1103   -0.0348    0.0130   -0.0477   -0.0088   -0.0379   -0.0806   -0.0038
          30    0.2505   -0.0154   -0.1830   -0.0558    0.1097   -0.0640    0.1131    0.1218
          31    0.1420   -0.0105   -0.2062   -0.0815    0.0932   -0.2001    0.0667    0.2725
          32    0.0782   -0.0040    0.0367   -0.0982   -0.0533   -0.0821   -0.0163    0.0324
          33    0.2393   -0.0134   -0.1657   -0.0500    0.0950   -0.0674    0.0818    0.1096
          34    0.0303    0.4686   -0.1180    0.2347    0.0381    0.0214   -0.0418    0.0382
          35    0.0548    0.1224    0.0713   -0.0002    0.0822    0.0401   -0.0436    0.0303
          36    0.1080    0.3201    0.1162   -0.0972    0.0485   -0.1182    0.0528   -0.1330
          37    0.1397   -0.4232    0.0296    0.2370    0.1310   -0.0615   -0.0388   -0.0640
          38    0.1156    0.3770    0.1711   -0.0433    0.2006   -0.0588   -0.0396   -0.1178
          39    0.0168    0.0087   -0.0305   -0.0359   -0.1145    0.0325    0.0402    0.0783
          40    0.0573   -0.0142   -0.0140    0.1240    0.0612    0.0335   -0.0035   -0.0028
          41    0.0867   -0.4568    0.2076   -0.1513    0.1190    0.0610    0.0008   -0.0296
          42    0.1481   -0.3053    0.0226    0.1702    0.0189   -0.1615   -0.0206   -0.0503
          43   -0.0178    0.0065   -0.0185   -0.0153   -0.0261   -0.0911    0.0808   -0.0757
          44   -0.0086    0.0181   -0.0825    0.1125   -0.0596   -0.0330   -0.0712    0.0476
          45   -0.1612    0.0218   -0.0938   -0.1882    0.4061   -0.1919    0.1937    0.2472
          46   -0.0138    0.0233   -0.0461    0.0761   -0.0222    0.0403    0.0231    0.0548
          47   -0.0149   -0.0042   -0.0385    0.0077   -0.0220    0.0269    0.1372   -0.1092
          48    0.0103    0.0537    0.3547    0.1063   -0.0986   -0.1251    0.3627    0.5250


   Root No.       9        10        11        12        13        14        15        16

                 9 A      10 A      11 A      12 A      13 A      14 A      15 A      16 A   

                 818.0     923.5     934.3     955.2     993.8    1020.0    1043.1    1057.1
  
           1   -0.0401   -0.1239    0.0863    0.1054   -0.0260    0.0793   -0.1308   -0.0569
           2   -0.0395   -0.0088    0.0476   -0.1020    0.0450    0.1417   -0.0224   -0.0707
           3   -0.0458   -0.1294    0.0246   -0.0344   -0.0551    0.1248   -0.0445    0.1627
           4   -0.0684    0.4555   -0.1368   -0.1230    0.0438   -0.0274    0.0667   -0.0486
           5    0.0214   -0.1406    0.0707    0.2176   -0.0998   -0.1522   -0.2799   -0.0071
           6    0.2859   -0.1457   -0.1867    0.0010   -0.1609   -0.0290    0.0892    0.0635
           7   -0.0002   -0.0615    0.0264   -0.0562    0.0661    0.2633    0.0346   -0.2129
           8    0.0083   -0.0138   -0.0381   -0.1176    0.0633    0.0966    0.2059    0.0449
           9    0.1969    0.1224    0.1875    0.0022    0.2433    0.0654   -0.1070    0.1168
          10    0.0031   -0.2313    0.1410    0.2107    0.0877   -0.0094    0.1787    0.0700
          11    0.0135   -0.1854    0.0971   -0.2787    0.0007   -0.2049   -0.0284    0.0676
          12   -0.0526    0.1468    0.0996   -0.0007    0.1086   -0.0401    0.0020   -0.1710
          13    0.0469   -0.1723   -0.0115   -0.2067    0.0198   -0.0625    0.0286    0.1457
          14   -0.0162    0.2600   -0.0270    0.2292   -0.0397    0.0025    0.0255   -0.1008
          15   -0.1770   -0.1207   -0.2549    0.0437    0.2134   -0.1915   -0.1356    0.0120
          16    0.0179    0.0117   -0.0056    0.0460   -0.0338   -0.1201    0.0368    0.1293
          17    0.0389   -0.0038   -0.0125   -0.0345   -0.0149    0.0985   -0.0890   -0.1991
          18   -0.1933    0.0023    0.0841   -0.0351   -0.3696   -0.0203    0.2311   -0.2027
          19    0.0727   -0.0215   -0.0659    0.1596   -0.2807   -0.0354   -0.2852   -0.0882
          20   -0.0723    0.0201   -0.1726   -0.1233    0.1867    0.4093    0.0612    0.0440
          21   -0.0214   -0.0425    0.1221   -0.0182    0.0187   -0.1017    0.0554    0.0443
          22    0.1177    0.0469   -0.2163   -0.0412   -0.2579   -0.0261    0.0438    0.2221
          23   -0.3201    0.0066    0.1055    0.0489   -0.0821   -0.0286   -0.1411    0.1892
          24   -0.1900    0.0272    0.0852   -0.0049    0.0478    0.0129   -0.0261    0.0251
          25   -0.1704    0.3729    0.0986    0.0175    0.2718   -0.2095   -0.1059   -0.2110
          26    0.3272   -0.0079   -0.0854    0.1185    0.0072   -0.2527   -0.1022   -0.1062
          27   -0.1923    0.0479    0.0781   -0.0124    0.0523    0.0286   -0.0170    0.0007
          28    0.1873    0.0491    0.2113    0.0075    0.1599    0.2203   -0.2306   -0.0084
          29    0.1997    0.0609   -0.1888   -0.0639    0.1591   -0.1947    0.4713   -0.1243
          30   -0.1533   -0.0359   -0.0548   -0.0069   -0.0847   -0.0282    0.0346    0.0300
          31   -0.1938   -0.1873   -0.1702    0.0049   -0.1615    0.0256    0.0864   -0.3536
          32   -0.2240    0.1611    0.0897   -0.0902   -0.0530    0.1214   -0.0030    0.5342
          33   -0.1413   -0.0275   -0.0315   -0.0056   -0.0698    0.0152    0.0030    0.0077
          34    0.0358   -0.0092   -0.0152   -0.2993   -0.0627   -0.1211   -0.1053    0.0208
          35    0.0123   -0.0432    0.0193   -0.1922   -0.0214   -0.1000   -0.0522    0.0215
          36   -0.0126    0.1228   -0.1664    0.4248   -0.0028    0.2954    0.0664   -0.0228
          37    0.0563    0.0680   -0.2026   -0.0705   -0.1347    0.0890   -0.1096    0.0556
          38    0.0326    0.0432   -0.2374    0.1344   -0.1008    0.2058   -0.0347    0.0930
          39   -0.0454   -0.0390    0.2113   -0.0371    0.1244   -0.1412    0.0638   -0.0915
          40    0.0010   -0.0702    0.0386    0.0705    0.0246    0.0024    0.0539    0.0235
          41   -0.0304   -0.1516    0.0750    0.3014    0.0791    0.0728    0.1588    0.0689
          42    0.0497    0.2619   -0.2588   -0.2704   -0.1537    0.0597   -0.2367   -0.0668
          43    0.0331    0.0062   -0.0018   -0.0288   -0.0068   -0.0717    0.1048    0.1335
          44   -0.0180    0.2235   -0.0862    0.1732    0.0038   -0.1986    0.3077    0.2598
          45    0.4324    0.2260    0.4438   -0.0259   -0.2686    0.1531    0.1051    0.0106
          46    0.0013    0.1656   -0.0207    0.2623   -0.0962   -0.2986   -0.1930    0.1139
          47    0.0019    0.0061    0.0052   -0.0101   -0.0219    0.0269   -0.0160   -0.0645
          48    0.2252   -0.1122   -0.2711    0.0368    0.4066    0.0196   -0.1702    0.1274


   Root No.      17        18        19        20        21        22        23        24

                17 A      18 A      19 A      20 A      21 A      22 A      23 A      24 A   

                1081.6    1100.1    1115.1    1128.8    1152.4    1234.3    1260.3    1305.8
  
           1    0.0495    0.0012    0.0071    0.1767   -0.1542    0.1924   -0.2466    0.5891
           2    0.0657    0.0445   -0.0047    0.0723   -0.1408   -0.2419   -0.1710   -0.0883
           3    0.0555   -0.0902   -0.0792   -0.0468   -0.4110    0.1223    0.2445   -0.1952
           4   -0.0316   -0.0447   -0.0679   -0.2135    0.1363   -0.0481   -0.2884   -0.3733
           5    0.2110   -0.0028   -0.2127   -0.0435   -0.0149   -0.0629   -0.3533   -0.1756
           6   -0.0547    0.2779    0.0814   -0.2012    0.1326   -0.0220   -0.0741    0.0595
           7   -0.1971   -0.0558    0.1664   -0.0428    0.0652    0.0072    0.0824    0.0193
           8   -0.1101    0.0014    0.2118    0.0718    0.0108    0.3151    0.1577    0.0573
           9    0.0228   -0.2955   -0.0519    0.1034    0.0492   -0.0029    0.0128   -0.0005
          10   -0.0164    0.0387    0.0080   -0.0610    0.0480   -0.0341    0.0713   -0.1051
          11   -0.0267   -0.0077   -0.0113   -0.0139    0.0313    0.0817    0.0514    0.0291
          12    0.0636    0.1621   -0.0077    0.1871    0.2874   -0.0380   -0.0297   -0.0032
          13    0.1187    0.0567   -0.1029    0.0490   -0.0760   -0.1043   -0.0585   -0.1399
          14   -0.1523   -0.0526    0.0935   -0.0286    0.0460   -0.1877    0.0870    0.2291
          15   -0.1787   -0.0443    0.0665    0.0129    0.0779   -0.0429   -0.0319    0.0268
          16    0.0951    0.0320    0.0143    0.0704   -0.0760   -0.2463    0.0500    0.0934
          17   -0.1484   -0.0722    0.0451   -0.1242    0.1252    0.0665    0.0196   -0.1223
          18    0.1017    0.0258   -0.0232   -0.0164   -0.0519    0.0241    0.0109   -0.0117
          19   -0.2230    0.0853   -0.0138    0.6274    0.0304   -0.0996    0.2628   -0.2633
          20    0.5309    0.2837   -0.2065    0.1219    0.1585    0.1943    0.0901    0.0179
          21   -0.1132   -0.1769    0.0712   -0.2896   -0.2413   -0.0194   -0.1274    0.0996
          22    0.0461   -0.2044   -0.1784   -0.2101    0.4242   -0.1484    0.3043    0.1574
          23    0.1793   -0.3520   -0.2413   -0.0110    0.1566   -0.1292    0.2071    0.2011
          24    0.0257   -0.0446   -0.0125    0.0090   -0.0454   -0.0065   -0.0118    0.0427
          25    0.0445    0.2236   -0.1444   -0.1500   -0.2870   -0.0236    0.4128    0.0238
          26    0.1042    0.3761   -0.1111   -0.2045   -0.1281   -0.0825    0.1922    0.1868
          27   -0.0136   -0.0426   -0.0015    0.0146   -0.0369    0.0263    0.0215   -0.0617
          28   -0.1737   -0.0840   -0.0306   -0.0963    0.1314    0.1868    0.1202    0.0254
          29    0.2357   -0.3191    0.2061    0.3040   -0.1495   -0.1814    0.0844    0.0504
          30    0.0191    0.0559    0.0053    0.0071   -0.0218   -0.0581   -0.0707   -0.0220
          31   -0.0572    0.0177   -0.0390   -0.1247    0.0460    0.2009    0.1280    0.0235
          32   -0.1439    0.3697    0.3807    0.0218   -0.0111   -0.1966    0.0322    0.0667
          33   -0.0264    0.0459    0.0231   -0.0364    0.0253    0.0328    0.0551    0.0235
          34   -0.0202   -0.0224   -0.0088    0.0255   -0.0377    0.0834    0.0701   -0.0133
          35   -0.0091   -0.0089   -0.0093    0.0096   -0.0001    0.0554    0.0420   -0.0038
          36    0.0382   -0.0049    0.0083   -0.0165   -0.0601   -0.1159   -0.1220    0.0850
          37   -0.0166   -0.0827   -0.0048   -0.0206   -0.1863    0.0490    0.0601   -0.0280
          38    0.0146   -0.0939   -0.0134   -0.0868   -0.2364    0.0310    0.0722   -0.1219
          39    0.0151    0.1159    0.0043    0.0907    0.2450   -0.0359   -0.0527    0.0591
          40   -0.0045    0.0117    0.0007   -0.0161    0.0101   -0.0070    0.0327   -0.0425
          41    0.0137    0.0108   -0.0126   -0.0739    0.0018   -0.0209    0.1142   -0.1730
          42    0.0072   -0.0449    0.0068    0.0829   -0.1141    0.0179   -0.1736    0.2119
          43   -0.0418    0.0422   -0.1721    0.0760   -0.0410    0.1098   -0.0632   -0.0429
          44   -0.3276    0.0637   -0.4308    0.1847   -0.0280    0.4076   -0.1229    0.0568
          45    0.0785    0.0060   -0.0458   -0.0026   -0.0504    0.0301    0.0198   -0.0065
          46    0.3836   -0.0838    0.5049   -0.0379    0.1058    0.4536    0.0180   -0.1286
          47   -0.0426   -0.0211    0.0183   -0.0371    0.0380    0.0231    0.0086   -0.0369
          48   -0.0656   -0.0335   -0.0109    0.0064    0.0090   -0.0113    0.0045   -0.0024


   Root No.      25        26        27        28        29        30        31        32

                25 A      26 A      27 A      28 A      29 A      30 A      31 A      32 A   

                1350.6    1375.4    1403.0    1407.0    1411.4    1421.7    1423.9    1830.9
  
           1   -0.0763   -0.1013    0.0055   -0.0449    0.0137   -0.1285    0.0935    0.0215
           2    0.3142    0.3795    0.0246   -0.0737    0.0072   -0.1582    0.4375    0.0532
           3   -0.0602   -0.0078   -0.0234    0.0875   -0.0288    0.1075   -0.1938   -0.0005
           4   -0.0180   -0.0265   -0.0135   -0.1471    0.0670    0.2415   -0.0763    0.0140
           5   -0.1249   -0.1301    0.0033    0.0839    0.0473   -0.2414   -0.1912   -0.0187
           6    0.0057   -0.0010    0.0028   -0.0087    0.0027   -0.0225    0.0292   -0.0003
           7   -0.2479   -0.0596    0.0342    0.3663   -0.2545    0.0524    0.2049   -0.0566
           8    0.5282   -0.1534   -0.0056   -0.1036    0.0123    0.1408    0.0194   -0.0040
           9    0.0208    0.0027   -0.0021   -0.0166    0.0103   -0.0017   -0.0088    0.0014
          10    0.0432    0.1023   -0.1700    0.0115   -0.1921    0.0497   -0.1611   -0.0034
          11   -0.0085    0.0574   -0.1422    0.2252    0.0932    0.1302   -0.2103    0.0074
          12   -0.0582   -0.1783   -0.1303   -0.1599    0.1016   -0.1288    0.2982   -0.0016
          13    0.0715    0.1286   -0.0001   -0.0269    0.0227   -0.0379    0.0533   -0.5055
          14   -0.0416   -0.3138   -0.0170   -0.0939    0.0644    0.0827   -0.2384   -0.4669
          15    0.0115   -0.0042    0.0004   -0.0105    0.0051   -0.0070    0.0145    0.0019
          16    0.2030   -0.2034   -0.0194   -0.1641    0.1063    0.0378   -0.1903    0.5946
          17   -0.2755    0.0777    0.0107    0.1458   -0.0865    0.0040    0.0462    0.3472
          18   -0.0189    0.0060    0.0005    0.0126   -0.0074    0.0023    0.0011   -0.0069
          19    0.0478    0.0762   -0.0085    0.0047   -0.0247    0.0695   -0.0234   -0.0172
          20   -0.1115   -0.0902   -0.0070    0.0471   -0.0026    0.0407   -0.1212    0.0179
          21    0.0448    0.0439    0.0018   -0.0131    0.0061   -0.0497    0.0733    0.0035
          22    0.1549    0.0423    0.0210    0.1617   -0.0597   -0.3310    0.0687    0.0007
          23   -0.0936    0.1434   -0.0109   -0.0870   -0.0518    0.3055    0.1827   -0.0017
          24   -0.0960    0.0727   -0.0152   -0.1410   -0.0010    0.3510    0.0944    0.0049
          25    0.1034    0.0284    0.0148    0.1799   -0.0523   -0.2607   -0.0015    0.0009
          26   -0.1172    0.1359   -0.0083   -0.0860   -0.0487    0.3185    0.1746   -0.0020
          27    0.0878   -0.0777    0.0124    0.1430    0.0064   -0.3383   -0.1071   -0.0046
          28   -0.0321    0.2283   -0.0239   -0.2433    0.1831   -0.1031   -0.1222   -0.0207
          29   -0.3184    0.1590   -0.0056   -0.0186    0.0529   -0.1258   -0.0633    0.0218
          30    0.0943   -0.2143    0.0229    0.2263   -0.1808    0.1195    0.1346    0.0019
          31   -0.0460    0.2460   -0.0260   -0.2632    0.1998   -0.1112   -0.1378   -0.0187
          32   -0.3053    0.1536   -0.0035   -0.0199    0.0516   -0.1280   -0.0499    0.0216
          33   -0.0974    0.1955   -0.0205   -0.2028    0.1636   -0.1128   -0.1221    0.0012
          34   -0.1050   -0.1588    0.6228   -0.0886    0.1102   -0.0127    0.0684   -0.0009
          35   -0.0536   -0.0691    0.1451   -0.0172    0.0296    0.0038   -0.0029    0.0034
          36    0.1825    0.2952    0.2700    0.3277    0.2468    0.1490   -0.1271    0.0006
          37   -0.0703   -0.1536   -0.0569    0.1835    0.5510    0.0386    0.2384    0.0014
          38   -0.0903   -0.1698   -0.2659   -0.3285   -0.2860   -0.1632    0.1634   -0.0001
          39    0.0572    0.1110    0.1044    0.0582   -0.0729    0.0469   -0.1322    0.0000
          40    0.0001    0.0044    0.0070   -0.0073   -0.0219    0.0089   -0.0156   -0.0016
          41   -0.0579   -0.1043    0.5810   -0.2439   -0.1419   -0.0695    0.0759   -0.0004
          42    0.0881    0.2112    0.1503   -0.0758   -0.4534    0.0005   -0.2809    0.0004
          43   -0.0093    0.0990    0.0031    0.0208   -0.0127   -0.0327    0.0666   -0.1207
          44   -0.1204    0.1058    0.0078    0.0745   -0.0511   -0.0407    0.1004    0.0835
          45   -0.0113   -0.0039   -0.0003    0.0052   -0.0035    0.0045   -0.0086    0.0062
          46    0.0410    0.1398    0.0103    0.0700   -0.0550   -0.0078    0.1212   -0.0466
          47   -0.0845    0.0211    0.0033    0.0456   -0.0276    0.0035    0.0128    0.1379
          48   -0.0077   -0.0034   -0.0011    0.0025    0.0000    0.0029   -0.0090    0.0067


   Root No.      33        34        35        36        37        38        39        40

                33 A      34 A      35 A      36 A      37 A      38 A      39 A      40 A   

                2891.7    2972.3    2989.3    3055.3    3067.8    3081.4    3084.5    3114.7
  
           1   -0.0948    0.0032   -0.0050   -0.0021    0.0034   -0.0032   -0.0013   -0.0003
           2   -0.1051    0.0030   -0.0045   -0.0014   -0.0017   -0.0036    0.0011    0.0014
           3   -0.2336    0.0072   -0.0115    0.0001   -0.0018   -0.0077    0.0003   -0.0003
           4   -0.0039    0.0044   -0.0091   -0.0188    0.1279    0.0041    0.0000    0.0004
           5    0.0006   -0.0052    0.0113    0.0304   -0.1710   -0.0042    0.0024    0.0004
           6    0.0182    0.1495   -0.2652    0.0042   -0.0229   -0.0022   -0.0023    0.0000
           7    0.0009   -0.0100   -0.0048    0.1991    0.0305    0.0007    0.0002   -0.0008
           8    0.0006    0.0045    0.0031    0.0818    0.0094    0.0002    0.0000   -0.0010
           9   -0.0009   -0.2659   -0.1480   -0.0026   -0.0020   -0.0002    0.0001   -0.0002
          10    0.0057   -0.0001    0.0004    0.0003    0.0021   -0.1490   -0.2281    0.0005
          11    0.0066    0.0002   -0.0003   -0.0004    0.0057   -0.1674    0.1884    0.0007
          12    0.0041   -0.0005    0.0010   -0.0004    0.0058   -0.1923    0.0125    0.0014
          13    0.0011   -0.0001    0.0001    0.0014    0.0025   -0.0013   -0.0007   -0.1923
          14   -0.0037    0.0000   -0.0001   -0.0015   -0.0001    0.0013   -0.0018    0.0565
          15   -0.0002   -0.0011   -0.0011   -0.0001   -0.0001   -0.0006    0.0009    0.0091
          16    0.0014    0.0002    0.0001    0.0028   -0.0004    0.0000    0.0002    0.0008
          17    0.0015    0.0001    0.0001   -0.0097   -0.0038   -0.0005   -0.0003   -0.1935
          18   -0.0011   -0.0002   -0.0006   -0.0004   -0.0002   -0.0001   -0.0000   -0.0065
          19    0.3312   -0.0129    0.0207   -0.0006    0.0047    0.0068   -0.0017   -0.0008
          20    0.3621   -0.0105    0.0171    0.0000    0.0025    0.0068    0.0012    0.0021
          21    0.8247   -0.0238    0.0372   -0.0003    0.0072    0.0288   -0.0004    0.0015
          22   -0.0096   -0.1325    0.2338    0.0335   -0.2085   -0.0030    0.0051    0.0003
          23    0.0173    0.1657   -0.3098   -0.0409    0.2731    0.0057   -0.0033    0.0000
          24   -0.0287   -0.2783    0.4984    0.0820   -0.5282   -0.0135    0.0073    0.0003
          25    0.0094    0.1151   -0.1983    0.0396   -0.2401   -0.0073    0.0013    0.0003
          26   -0.0216   -0.1475    0.2709   -0.0503    0.3243    0.0096   -0.0011    0.0001
          27   -0.0346   -0.2410    0.4202   -0.0965    0.6070    0.0181   -0.0026   -0.0002
          28    0.0021    0.3494    0.1957   -0.3786   -0.0570   -0.0009   -0.0003    0.0053
          29    0.0005    0.1276    0.0775   -0.1387   -0.0225   -0.0003   -0.0001   -0.0005
          30    0.0027    0.4413    0.2438   -0.5644   -0.0861   -0.0015   -0.0004    0.0059
          31   -0.0006   -0.3154   -0.1783   -0.3102   -0.0502   -0.0012   -0.0003    0.0041
          32    0.0005   -0.1439   -0.0872   -0.1475   -0.0260   -0.0007   -0.0002   -0.0004
          33    0.0006    0.4869    0.2716    0.5737    0.0926    0.0022    0.0005   -0.0057
          34    0.0059    0.0003   -0.0003   -0.0005    0.0048   -0.1297    0.1648    0.0001
          35   -0.0121   -0.0001   -0.0004    0.0013   -0.0120    0.3500   -0.6629    0.0005
          36   -0.0044    0.0001   -0.0000    0.0001   -0.0003   -0.0011   -0.0495    0.0001
          37   -0.0096    0.0008   -0.0016    0.0004   -0.0073    0.2426   -0.0399   -0.0019
          38   -0.0116    0.0004   -0.0011    0.0005   -0.0086    0.2778    0.0213   -0.0021
          39   -0.0171    0.0004   -0.0011    0.0012   -0.0215    0.6868   -0.0138   -0.0050
          40   -0.0133    0.0038   -0.0074   -0.0015   -0.0023    0.4017    0.6637   -0.0010
          41    0.0033   -0.0001    0.0003    0.0000    0.0009   -0.0482   -0.0107    0.0008
          42   -0.0040   -0.0000    0.0001   -0.0001    0.0009   -0.0184    0.0193   -0.0001
          43   -0.0066    0.0002   -0.0003   -0.0156   -0.0169    0.0042   -0.0003    0.6593
          44    0.0000    0.0000    0.0000    0.0041    0.0055   -0.0017   -0.0009   -0.2006
          45   -0.0014   -0.0007   -0.0007    0.0007    0.0008   -0.0003    0.0004   -0.0316
          46    0.0003   -0.0002   -0.0001    0.0029   -0.0001   -0.0000    0.0000   -0.0038
          47    0.0048   -0.0007   -0.0002    0.0293    0.0207    0.0024    0.0012    0.6676
          48   -0.0007   -0.0016   -0.0012    0.0009    0.0007    0.0001   -0.0001    0.0226


   Root No.      41        42

                41 A      42 A   

                3133.9    3180.0
  
           1    0.0032   -0.0018
           2    0.0046   -0.0024
           3    0.0015    0.0020
           4   -0.0057   -0.0003
           5    0.0076    0.0010
           6    0.0006   -0.0010
           7   -0.0120    0.0000
           8   -0.0038    0.0000
           9    0.0001   -0.0001
          10    0.0001   -0.0596
          11   -0.0008   -0.0788
          12   -0.0007    0.1131
          13    0.2153    0.0013
          14   -0.0344    0.0002
          15   -0.0091   -0.0001
          16   -0.0281   -0.0001
          17   -0.2226   -0.0001
          18   -0.0066    0.0000
          19   -0.0010    0.0004
          20   -0.0035    0.0003
          21   -0.0058    0.0040
          22    0.0043    0.0006
          23   -0.0057   -0.0030
          24    0.0111    0.0053
          25    0.0049    0.0005
          26   -0.0067   -0.0007
          27   -0.0127   -0.0016
          28    0.0150    0.0001
          29    0.0034    0.0001
          30    0.0204    0.0001
          31    0.0121   -0.0000
          32    0.0037   -0.0000
          33   -0.0205    0.0001
          34    0.0000   -0.1661
          35   -0.0004    0.5428
          36    0.0000    0.0556
          37    0.0014   -0.1932
          38    0.0014   -0.2219
          39    0.0033   -0.4865
          40   -0.0016    0.5711
          41   -0.0008   -0.0418
          42    0.0002    0.0289
          43   -0.6319   -0.0042
          44    0.1881    0.0007
          45    0.0302    0.0004
          46    0.0002    0.0000
          47    0.6811    0.0002
          48    0.0229    0.0001


          DESCRIPTION OF VIBRATIONS


 VIBRATION          1    1A           ATOM PAIR      ENERGY CONTRIBUTION    RADIAL
 FREQUENCY            80.06         C  2 -- C  3         +18.3% (790.2%)      0.0%
 TRANSITION DIPOLE   0.0373         C  3 -- H 10          +9.1% (556.6%)     99.7%
 TRAVEL (Ang.)       0.9688         C  3 -- C  6          +8.9% (549.7%)      0.0%
 REDUCED MASS        0.8973         C  1 -- C  4          +8.8% (547.5%)      0.0%
 EFFECTIVE MASS    549.0485
 FORCE CONSTANT      0.0034

 VIBRATION          2    2A           ATOM PAIR      ENERGY CONTRIBUTION    RADIAL
 FREQUENCY           176.67         C  4 -- H 12         +31.9% (344.6%)      0.3%
 TRANSITION DIPOLE   0.0085         C  4 -- H 13         +30.9% (338.9%)      0.2%
 TRAVEL (Ang.)       0.0000         C  4 -- H 14         +30.6% (337.4%)      0.0%
 REDUCED MASS        0.3129         C  2 -- C  3          +1.0% ( 61.7%)      0.2%
 EFFECTIVE MASS      4.5021
 FORCE CONSTANT      0.0058

[...]
 TRANSITION DIPOLE   0.0732         C  1 -- H  7         +16.8% ( 60.7%)      0.0%
 TRAVEL (Ang.)       0.1496         C  1 -- C  5         +16.6% ( 60.2%)     36.6%
 REDUCED MASS        2.3078         C  1 -- C  4         +12.5% ( 52.4%)     23.4%
 EFFECTIVE MASS      8.2151
 FORCE CONSTANT      2.3183

 VIBRATION         25   25A           ATOM PAIR      ENERGY CONTRIBUTION    RADIAL
 FREQUENCY          1350.62         C  3 -- C  6         +21.0% ( 64.1%)     76.0%
 TRANSITION DIPOLE   0.0580         C  3 -- H 10         +16.9% ( 57.5%)      0.0%
 TRAVEL (Ang.)       0.1696         C  3 -- H 11         +16.5% ( 56.9%)      0.0%
 REDUCED MASS        1.7353         C  2 -- C  3         +12.5% ( 49.4%)     66.0%
 EFFECTIVE MASS      7.2970
 FORCE CONSTANT      1.8651

 VIBRATION         26   26A           ATOM PAIR      ENERGY CONTRIBUTION    RADIAL
 FREQUENCY          1375.40         C  1 -- C  5         +17.7% ( 51.6%)     99.3%
 TRANSITION DIPOLE   0.0764         C  4 -- H 12          +8.4% ( 35.5%)      0.3%
 TRAVEL (Ang.)       0.2949         C  1 -- H  7          +8.1% ( 34.9%)      2.0%
 REDUCED MASS        0.5637         C  1 -- C  2          +7.9% ( 34.5%)      2.1%
 EFFECTIVE MASS      5.1264
 FORCE CONSTANT      0.6282

 VIBRATION         27   27A           ATOM PAIR      ENERGY CONTRIBUTION    RADIAL
 FREQUENCY          1403.04         C  4 -- H 12         +47.8% ( 60.2%)      0.9%
 TRANSITION DIPOLE   0.0402         C  4 -- H 14         +35.9% ( 52.2%)      3.4%
 TRAVEL (Ang.)       0.3365         C  4 -- H 13          +9.5% ( 26.8%)     47.6%
 REDUCED MASS        0.4244         C  1 -- C  4          +5.4% ( 20.2%)      7.6%
 EFFECTIVE MASS      1.6108
 FORCE CONSTANT      0.4923

 VIBRATION         28   28A           ATOM PAIR      ENERGY CONTRIBUTION    RADIAL
 FREQUENCY          1406.95         C  3 -- C  6         +13.2% ( 42.5%)     98.9%
 TRANSITION DIPOLE   0.0204         C  3 -- H 11         +13.1% ( 42.3%)      5.3%
 TRAVEL (Ang.)       0.3318         C  3 -- H 10         +13.0% ( 42.2%)      5.4%
 REDUCED MASS        0.4354         C  4 -- H 13         +11.2% ( 39.1%)      0.7%
 EFFECTIVE MASS      4.3478
 FORCE CONSTANT      0.5078

 VIBRATION         29   29A           ATOM PAIR      ENERGY CONTRIBUTION    RADIAL
 FREQUENCY          1411.43         C  4 -- H 13         +31.3% ( 54.7%)      0.4%
 TRANSITION DIPOLE   0.0642         C  4 -- H 14         +18.3% ( 41.8%)      8.0%
 TRAVEL (Ang.)       0.3901         C  3 -- H 11          +9.8% ( 30.6%)      6.0%
 REDUCED MASS        0.3140         C  3 -- H 10          +9.7% ( 30.5%)      6.3%
 EFFECTIVE MASS      2.5091
 FORCE CONSTANT      0.3686

 VIBRATION         30   30A           ATOM PAIR      ENERGY CONTRIBUTION    RADIAL
 FREQUENCY          1421.67         C  2 -- H  8         +26.3% ( 55.8%)      3.9%
 TRANSITION DIPOLE   0.0466         C  2 -- H  9         +22.7% ( 51.8%)      6.1%
 TRAVEL (Ang.)       0.3383         C  1 -- C  2          +9.8% ( 34.0%)     85.2%
 REDUCED MASS        0.4144         C  2 -- C  3          +8.3% ( 31.3%)     54.1%
 EFFECTIVE MASS      3.3917
 FORCE CONSTANT      0.4935

 VIBRATION         31   31A           ATOM PAIR      ENERGY CONTRIBUTION    RADIAL
 FREQUENCY          1423.92         C  1 -- C  4         +17.3% ( 58.0%)     90.3%
 TRANSITION DIPOLE   0.0649         C  1 -- C  5         +12.9% ( 50.0%)     80.0%
 TRAVEL (Ang.)       0.2063         C  1 -- C  2         +10.0% ( 44.0%)      6.1%
 REDUCED MASS        1.1129         C  1 -- H  7          +9.5% ( 43.0%)      0.1%
 EFFECTIVE MASS      7.0969
 FORCE CONSTANT      1.3295

 VIBRATION         32   32A           ATOM PAIR      ENERGY CONTRIBUTION    RADIAL
 FREQUENCY          1830.90         C  5 -- C  6         +45.8% (100.2%)    100.0%
 TRANSITION DIPOLE   0.1086         C  1 -- C  5         +13.9% ( 55.2%)     25.2%
 TRAVEL (Ang.)       0.0826         C  3 -- C  6         +13.9% ( 55.1%)     25.5%
 REDUCED MASS        5.3942         C  5 -- H 15         +13.0% ( 53.3%)     10.0%
 EFFECTIVE MASS     11.8854         C  6 -- H 16         +12.9% ( 53.2%)      9.7%
 FORCE CONSTANT     10.6538

 VIBRATION         33   33A           ATOM PAIR      ENERGY CONTRIBUTION    RADIAL
 FREQUENCY          2891.75         C  1 -- H  7         +96.4% ( 99.8%)    100.0%
 TRANSITION DIPOLE   0.0525         C  1 -- C  2          +1.1% ( 10.4%)     10.0%
 TRAVEL (Ang.)       0.1591         C  1 -- C  4          +1.0% ( 10.4%)      9.0%
 REDUCED MASS        0.9217         C  1 -- C  5          +1.0% ( 10.3%)      9.9%
 EFFECTIVE MASS      1.4451
 FORCE CONSTANT      4.5412

 VIBRATION         34   34A           ATOM PAIR      ENERGY CONTRIBUTION    RADIAL
 FREQUENCY          2972.25         C  3 -- H 11         +38.3% ( 64.4%)     96.7%
 TRANSITION DIPOLE   0.0068         C  3 -- H 10         +35.9% ( 62.4%)     96.4%
 TRAVEL (Ang.)       0.2620         C  2 -- H  8         +13.1% ( 37.7%)     97.0%
 REDUCED MASS        0.3305         C  2 -- H  9         +10.2% ( 33.3%)     95.4%
 EFFECTIVE MASS      1.5516
 FORCE CONSTANT      1.7205

 VIBRATION         35   35A           ATOM PAIR      ENERGY CONTRIBUTION    RADIAL
 FREQUENCY          2989.34         C  2 -- H  8         +42.7% ( 67.6%)     97.4%
 TRANSITION DIPOLE   0.0470         C  2 -- H  9         +31.8% ( 58.3%)     95.6%
 TRAVEL (Ang.)       0.2598         C  3 -- H 11         +12.1% ( 36.0%)     97.1%
 REDUCED MASS        0.3341         C  3 -- H 10         +11.2% ( 34.6%)     96.6%
 EFFECTIVE MASS      1.5301
 FORCE CONSTANT      1.7592

 VIBRATION         36   36A           ATOM PAIR      ENERGY CONTRIBUTION    RADIAL
 FREQUENCY          3055.29         C  3 -- H 10         +49.9% ( 69.7%)     97.8%
 TRANSITION DIPOLE   0.0746         C  3 -- H 11         +46.2% ( 67.0%)     97.4%
 TRAVEL (Ang.)       0.2188         C  2 -- H  9          +1.4% ( 11.7%)     98.3%
 REDUCED MASS        0.4608         C  2 -- H  8          +1.0% (  9.8%)     96.0%
 EFFECTIVE MASS      1.2838
 FORCE CONSTANT      2.5346

 VIBRATION         37   37A           ATOM PAIR      ENERGY CONTRIBUTION    RADIAL
 FREQUENCY          3067.77         C  2 -- H  9         +55.4% ( 73.4%)     98.4%
 TRANSITION DIPOLE   0.0650         C  2 -- H  8         +40.7% ( 62.9%)     96.6%
 TRAVEL (Ang.)       0.2165         C  3 -- H 11          +1.2% ( 10.8%)     97.9%
 REDUCED MASS        0.4691         C  3 -- H 10          +1.1% ( 10.5%)     97.7%
 EFFECTIVE MASS      1.2806
 FORCE CONSTANT      2.6012

 VIBRATION         38   38A           ATOM PAIR      ENERGY CONTRIBUTION    RADIAL
 FREQUENCY          3081.41         C  4 -- H 13         +65.1% ( 83.3%)     98.9%
 TRANSITION DIPOLE   0.0140         C  4 -- H 14         +18.2% ( 44.0%)     85.7%
 TRAVEL (Ang.)       0.2071         C  4 -- H 12         +15.5% ( 40.7%)     83.0%
 REDUCED MASS        0.5102         C  1 -- C  4          +1.0% ( 10.3%)      0.0%
 EFFECTIVE MASS      1.5042
 FORCE CONSTANT      2.8542

 VIBRATION         39   39A           ATOM PAIR      ENERGY CONTRIBUTION    RADIAL
 FREQUENCY          3084.50         C  4 -- H 12         +50.5% ( 73.3%)     97.3%
 TRANSITION DIPOLE   0.0120         C  4 -- H 14         +47.5% ( 71.1%)     96.9%
 TRAVEL (Ang.)       0.2070         C  1 -- C  4          +1.0% ( 10.5%)      0.0%
 REDUCED MASS        0.5100         C  4 -- H 13          +1.0% ( 10.3%)      0.9%
 EFFECTIVE MASS      1.5078
 FORCE CONSTANT      2.8590

 VIBRATION         40   40A           ATOM PAIR      ENERGY CONTRIBUTION    RADIAL
 FREQUENCY          3114.73         C  5 -- H 15         +50.3% ( 72.0%)    100.0%
 TRANSITION DIPOLE   0.3680         C  6 -- H 16         +47.1% ( 69.7%)    100.0%
 TRAVEL (Ang.)       0.2157         C  5 -- C  6          +1.1% ( 10.7%)      0.0%
 REDUCED MASS        0.4653         C  1 -- C  5          +0.7% (  8.8%)     25.8%
 EFFECTIVE MASS      1.4613
 FORCE CONSTANT      2.6595

 VIBRATION         41   41A           ATOM PAIR      ENERGY CONTRIBUTION    RADIAL
 FREQUENCY          3133.86         C  6 -- H 16         +49.2% ( 71.5%)     99.9%
 TRANSITION DIPOLE   0.3350         C  5 -- H 15         +46.2% ( 69.2%)     99.9%
 TRAVEL (Ang.)       0.2148         C  5 -- C  6          +2.5% ( 16.1%)    100.0%
 REDUCED MASS        0.4664         C  3 -- C  6          +1.0% ( 10.0%)     20.8%
 EFFECTIVE MASS      1.6522
 FORCE CONSTANT      2.6985

 VIBRATION         42   42A           ATOM PAIR      ENERGY CONTRIBUTION    RADIAL
 FREQUENCY          3180.03         C  4 -- H 14         +33.6% ( 55.8%)     97.2%
 TRANSITION DIPOLE   0.0274         C  4 -- H 12         +33.2% ( 55.4%)     97.1%
 TRAVEL (Ang.)       0.2546         C  4 -- H 13         +32.9% ( 55.2%)     97.1%
 REDUCED MASS        0.3270         C  1 -- C  4          +0.3% (  5.0%)    100.0%
 EFFECTIVE MASS      1.1350
 FORCE CONSTANT      1.9486

      SYMMETRY NUMBER FOR POINT-GROUP C1  =  1


          SYSTEM IS A GROUND STATE



 InChI=1S/C6H10/c1-6-4-2-3-5-6/h2,4,6H,3,5H2,1H3


          MOLECULE IS NOT LINEAR

          THERE ARE 42 GENUINE VIBRATIONS IN THIS SYSTEM
          THIS THERMODYNAMICS CALCULATION IS LIMITED TO
          MOLECULES WHICH HAVE NO INTERNAL ROTATIONS




                    CALCULATED THERMODYNAMIC PROPERTIES
                                          *
   TEMP. (K)   PARTITION FUNCTION   H.O.F.    ENTHALPY  HEAT CAPACITY ENTROPY
                                   KCAL/MOL   CAL/MOLE    CAL/K/MOL  CAL/K/MOL


 298.00  VIB.     0.1211D+02                  2043.2584    16.6537    11.8130
         ROT.     0.1201D+06                   888.2803     2.9808    26.2241
         INT.     0.1455D+07                  2931.5387    19.6345    38.0370
         TRA.     0.7198D+27                  1480.4672     4.9680    39.1295
         TOT.                       -2.704    4412.0059    24.6025    77.1665

 200.00  VIB.     0.4199D+01                   804.0114     9.0267     6.8713
         ROT.     0.6606D+05                   596.1613     2.9808    25.0354
         INT.     0.2774D+06                  1400.1726    12.0075    31.9066
         TRA.     0.3957D+27                   993.6021     4.9680    37.1484
         TOT.                       -4.722    2393.7748    16.9755    69.0550

 210.00  VIB.     0.4649D+01                   897.5310     9.6829     7.3274
         ROT.     0.7107D+05                   625.9693     2.9808    25.1808
         INT.     0.3304D+06                  1523.5003    12.6637    32.5082
         TRA.     0.4258D+27                  1043.2822     4.9680    37.3907
         TOT.                       -4.549    2566.7826    17.6318    69.8990

 220.00  VIB.     0.5153D+01                   997.7821    10.3728     7.7937
         ROT.     0.7621D+05                   655.7774     2.9808    25.3195
         INT.     0.3927D+06                  1653.5595    13.3536    33.1131
         TRA.     0.4566D+27                  1092.9623     4.9680    37.6219
         TOT.                       -4.369    2746.5218    18.3216    70.7350

 230.00  VIB.     0.5721D+01                  1105.0933    11.0947     8.2706
         ROT.     0.8147D+05                   685.5855     2.9808    25.4520
         INT.     0.4660D+06                  1790.6788    14.0755    33.7225
         TRA.     0.4880D+27                  1142.6424     4.9680    37.8427
         TOT.                       -4.183    2933.3212    19.0435    71.5652

 240.00  VIB.     0.6359D+01                  1219.7755    11.8466     8.7585
         ROT.     0.8684D+05                   715.3935     2.9808    25.5788
         INT.     0.5522D+06                  1935.1690    14.8274    34.3374
         TRA.     0.5202D+27                  1192.3226     4.9680    38.0541
         TOT.                       -3.988    3127.4916    19.7954    72.3915

 250.00  VIB.     0.7080D+01                  1342.1163    12.6259     9.2578
         ROT.     0.9232D+05                   745.2016     2.9808    25.7005
         INT.     0.6536D+06                  2087.3179    15.6067    34.9584
         TRA.     0.5531D+27                  1242.0027     4.9680    38.2569
         TOT.                       -3.787    3329.3205    20.5747    73.2153

 260.00  VIB.     0.7893D+01                  1472.3761    13.4299     9.7686
         ROT.     0.9791D+05                   775.0097     2.9808    25.8174
         INT.     0.7729D+06                  2247.3857    16.4107    35.5861
         TRA.     0.5866D+27                  1291.6828     4.9680    38.4518
         TOT.                       -3.577    3539.0685    21.3787    74.0379

 270.00  VIB.     0.8815D+01                  1610.7854    14.2553    10.2909
         ROT.     0.1036D+06                   804.8177     2.9808    25.9299
         INT.     0.9134D+06                  2415.6031    17.2361    36.2208
         TRA.     0.6208D+27                  1341.3629     4.9680    38.6393
         TOT.                       -3.359    3756.9660    22.2041    74.8601

 280.00  VIB.     0.9859D+01                  1757.5432    15.0990    10.8245
         ROT.     0.1094D+06                   834.6258     2.9808    26.0383
         INT.     0.1079D+07                  2592.1690    18.0799    36.8629
         TRA.     0.6556D+27                  1391.0430     4.9680    38.8200
         TOT.                       -3.133    3983.2120    23.0479    75.6828

 290.00  VIB.     0.1105D+02                  1912.8166    15.9579    11.3693
         ROT.     0.1153D+06                   864.4339     2.9808    26.1429
         INT.     0.1274D+07                  2777.2505    18.9387    37.5122
         TRA.     0.6910D+27                  1440.7231     4.9680    38.9943
         TOT.                       -2.898    4217.9736    23.9067    76.5065

 300.00  VIB.     0.1240D+02                  2076.7407    16.8287    11.9250
         ROT.     0.1214D+06                   894.2419     2.9808    26.2440
         INT.     0.1504D+07                  2970.9827    19.8095    38.1689
         TRA.     0.7270D+27                  1490.4032     4.9680    39.1627
         TOT.                       -2.654    4461.3858    24.7775    77.3317

 310.00  VIB.     0.1393D+02                  2249.4198    17.7084    12.4911
         ROT.     0.1275D+06                   924.0500     2.9808    26.3417
         INT.     0.1776D+07                  3173.4698    20.6892    38.8328
         TRA.     0.7637D+27                  1540.0833     4.9680    39.3256
         TOT.                       -2.402    4713.5531    25.6572    78.1584

 320.00  VIB.     0.1569D+02                  2430.9286    18.5942    13.0673
         ROT.     0.1337D+06                   953.8580     2.9808    26.4364
         INT.     0.2097D+07                  3384.7867    21.5750    39.5036
         TRA.     0.8009D+27                  1589.7634     4.9680    39.4834
         TOT.                       -2.141    4974.5501    26.5430    78.9870

 330.00  VIB.     0.1769D+02                  2621.3141    19.4833    13.6531
         ROT.     0.1400D+06                   983.6661     2.9808    26.5281
         INT.     0.2477D+07                  3604.9802    22.4641    40.1811
         TRA.     0.8388D+27                  1639.4435     4.9680    39.6362
         TOT.                       -1.871    5244.4237    27.4321    79.8174

 340.00  VIB.     0.1999D+02                  2820.5974    20.3733    14.2479
         ROT.     0.1464D+06                  1013.4742     2.9808    26.6171
         INT.     0.2927D+07                  3834.0716    23.3541    40.8650
         TRA.     0.8772D+27                  1689.1236     4.9680    39.7845
         TOT.                       -1.593    5523.1952    28.3221    80.6495

 350.00  VIB.     0.2262D+02                  3028.7761    21.2620    14.8513
         ROT.     0.1529D+06                  1043.2822     2.9808    26.7035
         INT.     0.3459D+07                  4072.0583    24.2428    41.5548
         TRA.     0.9162D+27                  1738.8037     4.9680    39.9285
         TOT.                       -1.305    5810.8620    29.2108    81.4833

 360.00  VIB.     0.2564D+02                  3245.8262    22.1473    15.4627
         ROT.     0.1595D+06                  1073.0903     2.9808    26.7875
         INT.     0.4090D+07                  4318.9165    25.1281    42.2502
         TRA.     0.9557D+27                  1788.4838     4.9680    40.0685
         TOT.                       -1.008    6107.4003    30.0961    82.3187

 370.00  VIB.     0.2910D+02                  3471.7047    23.0274    16.0815
         ROT.     0.1662D+06                  1102.8984     2.9808    26.8691
         INT.     0.4837D+07                  4574.6031    26.0082    42.9507
         TRA.     0.9958D+27                  1838.1639     4.9680    40.2046
         TOT.                       -0.703    6412.7670    30.9762    83.1553

 380.00  VIB.     0.3309D+02                  3706.3516    23.9007    16.7072
         ROT.     0.1730D+06                  1132.7064     2.9808    26.9486
         INT.     0.5725D+07                  4839.0581    26.8815    43.6559
         TRA.     0.1036D+28                  1887.8440     4.9680    40.3371
         TOT.                       -0.389    6726.9021    31.8495    83.9930

 390.00  VIB.     0.3768D+02                  3949.6920    24.7659    17.3393
         ROT.     0.1799D+06                  1162.5145     2.9808    27.0260
         INT.     0.6778D+07                  5112.2064    27.7467    44.3653
         TRA.     0.1078D+28                  1937.5242     4.9680    40.4662
         TOT.                       -0.066    7049.7306    32.7147    84.8315

 400.00  VIB.     0.4297D+02                  4201.6380    25.6217    17.9771
         ROT.     0.1868D+06                  1192.3226     2.9808    27.1015
         INT.     0.8029D+07                  5393.9605    28.6025    45.0786
         TRA.     0.1119D+28                  1987.2043     4.9680    40.5919
         TOT.                        0.265    7381.1648    33.5705    85.6706

   *: NOTE: HEATS OF FORMATION ARE RELATIVE TO THE
            ELEMENTS IN THEIR STANDARD STATE AT 298K
              (=  Standard Enthalpy of Formation).

            Hvib:  Zero-point energy is not included.
                   frequencies of less than zero cm-1 are not included.
            Hrot = (3/2)RT
            Htra = (3/2)RT + pV = (5/2)RT

            Heat capacity is Cp, not Cv

          For more information, see: HTTP://OpenMOPAC.net/Manual/thermochemistry.html


           FORCE CONSTANT IN CARTESIAN COORDINATES (Millidynes/A)

    ATOM   CHEMICAL       X               Y               Z
   NUMBER   SYMBOL  FORCE CONSTANT  FORCE CONSTANT  FORCE CONSTANT

      1       C        7.831698        9.255224        8.247587
      2       C        7.602393        8.439401        8.420236
      3       C        9.632621        7.569044        8.067970
      4       C        8.399413        8.372384        8.180453
      5       C       14.611083       10.390663        2.417779
      6       C       11.986373       13.104637        2.342011
      7       H        1.176751        1.218604        3.600910
      8       H        1.312458        1.651241        3.560100
      9       H        1.240835        1.672578        3.589060
     10       H        2.108010        0.896502        3.389479
     11       H        1.739464        0.933944        3.707743
     12       H        1.029634        5.015903        0.725129
     13       H        1.176285        1.318760        4.280874
     14       H        5.373431        0.690212        0.707499
     15       H        4.959292        1.093913        0.357870
     16       H        0.710907        5.351038        0.354840

 **********************
 *                    *
 * JOB ENDED NORMALLY *
 *                    *
 **********************



 TOTAL JOB TIME:             1.32 SECONDS

 == MOPAC DONE ==
