 *******************************************************************************
 **                                                                           **
 **                              MOPAC v23.1.2                                **
 **                                                                           **
 *******************************************************************************
 **          Digital Object Identifier (DOI): 10.5281/zenodo.6511958          **
 **    Visit the DOI location for information on how to cite this program.    **
 *******************************************************************************

                              PM3 CALCULATION RESULTS

 *******************************************************************************
 *  CALCULATION DONE: (MAX THREADS = 1)              Tue Jun  3 16:30:49 2025  *
 *  PM3        - The PM3 Hamiltonian to be used
 *  PRECISE    - TIGHTER CRITERIA TO BE USED
 *  NOSYM      - POINT-GROUP SYMMETRY SET TO C1
 *  THREADS=1  - MULTI-THREADING NOT USED
 *  T=         - A TIME OF 172800.0 SECONDS REQUESTED
 *  DUMP=N     - RESTART FILE WRITTEN EVERY 7200.0 SECONDS REQUESTED
 *******************************************************************************
pm3  precise nosym THREADS=1
 InChI=1S/C9H12/c1-8(2)9-6-4-3-5-7-9/h4-7,9H,1,3H2,2H3

   ATOM   CHEMICAL          X               Y               Z
  NUMBER   SYMBOL      (ANGSTROMS)     (ANGSTROMS)     (ANGSTROMS)

     1       C         -0.09750000  *  -0.63780000  *   0.74790000  *
     2       C          2.20410000  *   0.73580000  *  -0.51030000  *
     3       C         -1.63320000  *   0.59820000  *  -0.99210000  *
     4       C         -1.46970000  *  -0.34850000  *   0.17000000  *
     5       C          0.50720000  *   0.62490000  *   1.31670000  *
     6       C          0.77790000  *  -1.30070000  *  -0.29030000  *
     7       C          1.83060000  *  -0.68410000  *  -0.84640000  *
     8       C          1.56060000  *   1.23620000  *   0.75610000  *
     9       C         -2.56100000  *  -0.93400000  *   0.68760000  *
    10       H         -0.18060000  *  -1.35530000  *   1.59370000  *
    11       H          1.90670000  *   1.39600000  *  -1.35160000  *
    12       H          3.30680000  *   0.79520000  *  -0.39570000  *
    13       H         -2.28680000  *   1.44620000  *  -0.69720000  *
    14       H         -2.09250000  *   0.06410000  *  -1.85060000  *
    15       H         -0.65630000  *   1.00850000  *  -1.31910000  *
    16       H          0.53130000  *  -2.30930000  *  -0.60900000  *
    17       H          0.05730000  *   1.06130000  *   2.20380000  *
    18       H          2.40140000  *  -1.20260000  *  -1.61070000  *
    19       H          1.92870000  *   2.15880000  *   1.19450000  *
    20       H         -2.48830000  *  -1.62200000  *   1.52430000  *
    21       H         -3.54650000  *  -0.73110000  *   0.27850000  *



          CARTESIAN COORDINATES 

    NO.       ATOM           X           Y           Z

     1         C         -0.0975     -0.6378      0.7479
     2         C          2.2041      0.7358     -0.5103
     3         C         -1.6332      0.5982     -0.9921
     4         C         -1.4697     -0.3485      0.1700
     5         C          0.5072      0.6249      1.3167
     6         C          0.7779     -1.3007     -0.2903
     7         C          1.8306     -0.6841     -0.8464
     8         C          1.5606      1.2362      0.7561
     9         C         -2.5610     -0.9340      0.6876
    10         H         -0.1806     -1.3553      1.5937
    11         H          1.9067      1.3960     -1.3516
    12         H          3.3068      0.7952     -0.3957
    13         H         -2.2868      1.4462     -0.6972
    14         H         -2.0925      0.0641     -1.8506
    15         H         -0.6563      1.0085     -1.3191
    16         H          0.5313     -2.3093     -0.6090
    17         H          0.0573      1.0613      2.2038
    18         H          2.4014     -1.2026     -1.6107
    19         H          1.9287      2.1588      1.1945
    20         H         -2.4883     -1.6220      1.5243
    21         H         -3.5465     -0.7311      0.2785

  H: (PM3): J. J. P. STEWART, J. COMP. CHEM. 10, 209 (1989).
  C: (PM3): J. J. P. STEWART, J. COMP. CHEM. 10, 209 (1989).

           Empirical Formula: C9 H12  =    21 atoms



      MOLECULAR POINT GROUP   :   C1  


      RHF CALCULATION, NO. OF DOUBLY OCCUPIED LEVELS = 24


          Geometry optimization using EF

          DIAGONAL MATRIX USED AS START HESSIAN

 CYCLE:     1 TIME:   0.008 TIME LEFT:  2.00D  GRAD.:    65.891 HEAT:  35.28586
 CYCLE:     2 TIME:   0.016 TIME LEFT:  2.00D  GRAD.:    50.982 HEAT:  34.26198
 CYCLE:     3 TIME:   0.004 TIME LEFT:  2.00D  GRAD.:    55.346 HEAT:  33.92600
 CYCLE:     4 TIME:   0.008 TIME LEFT:  2.00D  GRAD.:    44.569 HEAT:  33.73784
 CYCLE:     5 TIME:   0.012 TIME LEFT:  2.00D  GRAD.:    24.662 HEAT:  33.28507
 CYCLE:     6 TIME:   0.008 TIME LEFT:  2.00D  GRAD.:    17.920 HEAT:  33.16943
 CYCLE:     7 TIME:   0.008 TIME LEFT:  2.00D  GRAD.:    21.842 HEAT:  33.12005
 CYCLE:     8 TIME:   0.004 TIME LEFT:  2.00D  GRAD.:    14.907 HEAT:  33.02122
 CYCLE:     9 TIME:   0.012 TIME LEFT:  2.00D  GRAD.:    13.231 HEAT:  32.97016
 CYCLE:    10 TIME:   0.008 TIME LEFT:  2.00D  GRAD.:    17.693 HEAT:  32.94575
 CYCLE:    11 TIME:   0.004 TIME LEFT:  2.00D  GRAD.:    16.409 HEAT:  32.91417
 CYCLE:    12 TIME:   0.008 TIME LEFT:  2.00D  GRAD.:    15.011 HEAT:  32.87979
 CYCLE:    13 TIME:   0.008 TIME LEFT:  2.00D  GRAD.:     7.471 HEAT:  32.82805
 CYCLE:    14 TIME:   0.012 TIME LEFT:  2.00D  GRAD.:     6.508 HEAT:  32.81543
 CYCLE:    15 TIME:   0.004 TIME LEFT:  2.00D  GRAD.:     3.943 HEAT:  32.79920
 CYCLE:    16 TIME:   0.008 TIME LEFT:  2.00D  GRAD.:     6.713 HEAT:  32.78322
 CYCLE:    17 TIME:   0.008 TIME LEFT:  2.00D  GRAD.:     5.325 HEAT:  32.75509
 CYCLE:    18 TIME:   0.012 TIME LEFT:  2.00D  GRAD.:     7.583 HEAT:  32.74801
 CYCLE:    19 TIME:   0.004 TIME LEFT:  2.00D  GRAD.:     6.125 HEAT:  32.73266
 CYCLE:    20 TIME:   0.008 TIME LEFT:  2.00D  GRAD.:     8.898 HEAT:  32.72831
 CYCLE:    21 TIME:   0.008 TIME LEFT:  2.00D  GRAD.:     3.617 HEAT:  32.70490
 CYCLE:    22 TIME:   0.004 TIME LEFT:  2.00D  GRAD.:     4.582 HEAT:  32.69660
 CYCLE:    23 TIME:   0.008 TIME LEFT:  2.00D  GRAD.:     4.117 HEAT:  32.68788
 CYCLE:    24 TIME:   0.008 TIME LEFT:  2.00D  GRAD.:     4.200 HEAT:  32.67863
 CYCLE:    25 TIME:   0.004 TIME LEFT:  2.00D  GRAD.:     3.088 HEAT:  32.67107
 CYCLE:    26 TIME:   0.008 TIME LEFT:  2.00D  GRAD.:     6.024 HEAT:  32.66946
 CYCLE:    27 TIME:   0.004 TIME LEFT:  2.00D  GRAD.:     2.896 HEAT:  32.65785
 CYCLE:    28 TIME:   0.008 TIME LEFT:  2.00D  GRAD.:     3.465 HEAT:  32.64928
 CYCLE:    29 TIME:   0.004 TIME LEFT:  2.00D  GRAD.:     3.332 HEAT:  32.63959
 CYCLE:    30 TIME:   0.008 TIME LEFT:  2.00D  GRAD.:     3.415 HEAT:  32.63142
 CYCLE:    31 TIME:   0.008 TIME LEFT:  2.00D  GRAD.:     1.895 HEAT:  32.62433
 CYCLE:    32 TIME:   0.004 TIME LEFT:  2.00D  GRAD.:     2.266 HEAT:  32.61839
 CYCLE:    33 TIME:   0.008 TIME LEFT:  2.00D  GRAD.:     2.563 HEAT:  32.61200
 CYCLE:    34 TIME:   0.008 TIME LEFT:  2.00D  GRAD.:     1.878 HEAT:  32.60818
 CYCLE:    35 TIME:   0.004 TIME LEFT:  2.00D  GRAD.:     1.430 HEAT:  32.60519
 CYCLE:    36 TIME:   0.008 TIME LEFT:  2.00D  GRAD.:     1.514 HEAT:  32.60228
 CYCLE:    37 TIME:   0.008 TIME LEFT:  2.00D  GRAD.:     1.561 HEAT:  32.59742
 CYCLE:    38 TIME:   0.008 TIME LEFT:  2.00D  GRAD.:     1.442 HEAT:  32.59314
 CYCLE:    39 TIME:   0.008 TIME LEFT:  2.00D  GRAD.:     1.643 HEAT:  32.58738
 CYCLE:    40 TIME:   0.008 TIME LEFT:  2.00D  GRAD.:     1.641 HEAT:  32.58181
 CYCLE:    41 TIME:   0.008 TIME LEFT:  2.00D  GRAD.:     1.474 HEAT:  32.57694
 CYCLE:    42 TIME:   0.004 TIME LEFT:  2.00D  GRAD.:     1.222 HEAT:  32.57314
 CYCLE:    43 TIME:   0.008 TIME LEFT:  2.00D  GRAD.:     1.322 HEAT:  32.56994
 CYCLE:    44 TIME:   0.008 TIME LEFT:  2.00D  GRAD.:     1.851 HEAT:  32.56433
 CYCLE:    45 TIME:   0.008 TIME LEFT:  2.00D  GRAD.:     2.523 HEAT:  32.55524
 CYCLE:    46 TIME:   0.008 TIME LEFT:  2.00D  GRAD.:     4.425 HEAT:  32.53275
 CYCLE:    47 TIME:   0.008 TIME LEFT:  2.00D  GRAD.:     4.036 HEAT:  32.50936
 CYCLE:    48 TIME:   0.008 TIME LEFT:  2.00D  GRAD.:     2.887 HEAT:  32.46393
 CYCLE:    49 TIME:   0.008 TIME LEFT:  2.00D  GRAD.:     3.329 HEAT:  32.42305
 CYCLE:    50 TIME:   0.008 TIME LEFT:  2.00D  GRAD.:     3.220 HEAT:  32.40107
 CYCLE:    51 TIME:   0.008 TIME LEFT:  2.00D  GRAD.:     6.714 HEAT:  32.39670
 CYCLE:    52 TIME:   0.008 TIME LEFT:  2.00D  GRAD.:     2.751 HEAT:  32.35866
 CYCLE:    53 TIME:   0.004 TIME LEFT:  2.00D  GRAD.:     2.406 HEAT:  32.34399
 CYCLE:    54 TIME:   0.012 TIME LEFT:  2.00D  GRAD.:     3.386 HEAT:  32.31635
 CYCLE:    55 TIME:   0.008 TIME LEFT:  2.00D  GRAD.:     3.101 HEAT:  32.30190
 CYCLE:    56 TIME:   0.008 TIME LEFT:  2.00D  GRAD.:     3.077 HEAT:  32.27794
 CYCLE:    57 TIME:   0.004 TIME LEFT:  2.00D  GRAD.:     1.941 HEAT:  32.26130
 CYCLE:    58 TIME:   0.016 TIME LEFT:  2.00D  GRAD.:     2.787 HEAT:  32.25055
 CYCLE:    59 TIME:   0.008 TIME LEFT:  2.00D  GRAD.:     2.497 HEAT:  32.24031
 CYCLE:    60 TIME:   0.008 TIME LEFT:  2.00D  GRAD.:     2.000 HEAT:  32.23521
 CYCLE:    61 TIME:   0.004 TIME LEFT:  2.00D  GRAD.:     0.973 HEAT:  32.23280
 CYCLE:    62 TIME:   0.008 TIME LEFT:  2.00D  GRAD.:     1.043 HEAT:  32.23130
 CYCLE:    63 TIME:   0.008 TIME LEFT:  2.00D  GRAD.:     0.698 HEAT:  32.23027
 CYCLE:    64 TIME:   0.008 TIME LEFT:  2.00D  GRAD.:     0.624 HEAT:  32.22960
 CYCLE:    65 TIME:   0.008 TIME LEFT:  2.00D  GRAD.:     0.493 HEAT:  32.22895
 CYCLE:    66 TIME:   0.008 TIME LEFT:  2.00D  GRAD.:     0.492 HEAT:  32.22843
 CYCLE:    67 TIME:   0.008 TIME LEFT:  2.00D  GRAD.:     0.465 HEAT:  32.22775
 CYCLE:    68 TIME:   0.008 TIME LEFT:  2.00D  GRAD.:     0.422 HEAT:  32.22736
 CYCLE:    69 TIME:   0.004 TIME LEFT:  2.00D  GRAD.:     0.384 HEAT:  32.22701
 CYCLE:    70 TIME:   0.008 TIME LEFT:  2.00D  GRAD.:     0.377 HEAT:  32.22661
 CYCLE:    71 TIME:   0.008 TIME LEFT:  2.00D  GRAD.:     0.376 HEAT:  32.22631
 CYCLE:    72 TIME:   0.008 TIME LEFT:  2.00D  GRAD.:     0.325 HEAT:  32.22602
 CYCLE:    73 TIME:   0.008 TIME LEFT:  2.00D  GRAD.:     0.271 HEAT:  32.22579
 CYCLE:    74 TIME:   0.004 TIME LEFT:  2.00D  GRAD.:     0.239 HEAT:  32.22562
 CYCLE:    75 TIME:   0.008 TIME LEFT:  2.00D  GRAD.:     0.222 HEAT:  32.22553
 CYCLE:    76 TIME:   0.008 TIME LEFT:  2.00D  GRAD.:     0.156 HEAT:  32.22549
 CYCLE:    77 TIME:   0.008 TIME LEFT:  2.00D  GRAD.:     0.140 HEAT:  32.22543
 CYCLE:    78 TIME:   0.008 TIME LEFT:  2.00D  GRAD.:     0.263 HEAT:  32.22542
 CYCLE:    79 TIME:   0.008 TIME LEFT:  2.00D  GRAD.:     0.180 HEAT:  32.22534
 CYCLE:    80 TIME:   0.008 TIME LEFT:  2.00D  GRAD.:     0.465 HEAT:  32.22509
 CYCLE:    81 TIME:   0.008 TIME LEFT:  2.00D  GRAD.:     0.326 HEAT:  32.22490
 CYCLE:    82 TIME:   0.008 TIME LEFT:  2.00D  GRAD.:     0.450 HEAT:  32.22453
 CYCLE:    83 TIME:   0.008 TIME LEFT:  2.00D  GRAD.:     0.348 HEAT:  32.22434
 CYCLE:    84 TIME:   0.004 TIME LEFT:  2.00D  GRAD.:     0.384 HEAT:  32.22426
 CYCLE:    85 TIME:   0.008 TIME LEFT:  2.00D  GRAD.:     0.225 HEAT:  32.22398
 CYCLE:    86 TIME:   0.008 TIME LEFT:  2.00D  GRAD.:     0.271 HEAT:  32.22391
 CYCLE:    87 TIME:   0.008 TIME LEFT:  2.00D  GRAD.:     0.217 HEAT:  32.22375
 CYCLE:    88 TIME:   0.008 TIME LEFT:  2.00D  GRAD.:     0.423 HEAT:  32.22372
 CYCLE:    89 TIME:   0.008 TIME LEFT:  2.00D  GRAD.:     0.257 HEAT:  32.22333
 CYCLE:    90 TIME:   0.008 TIME LEFT:  2.00D  GRAD.:     0.219 HEAT:  32.22312
 CYCLE:    91 TIME:   0.008 TIME LEFT:  2.00D  GRAD.:     0.336 HEAT:  32.22281
 CYCLE:    92 TIME:   0.008 TIME LEFT:  2.00D  GRAD.:     0.363 HEAT:  32.22232
 CYCLE:    93 TIME:   0.012 TIME LEFT:  2.00D  GRAD.:     1.874 HEAT:  32.22367
 CYCLE:    94 TIME:   0.008 TIME LEFT:  2.00D  GRAD.:     0.700 HEAT:  32.22030
 CYCLE:    95 TIME:   0.008 TIME LEFT:  2.00D  GRAD.:     0.454 HEAT:  32.21983
 CYCLE:    96 TIME:   0.004 TIME LEFT:  2.00D  GRAD.:     0.893 HEAT:  32.21867
 CYCLE:    97 TIME:   0.008 TIME LEFT:  2.00D  GRAD.:     0.652 HEAT:  32.21820
 CYCLE:    98 TIME:   0.008 TIME LEFT:  2.00D  GRAD.:     1.493 HEAT:  32.22061
 CYCLE:    99 TIME:   0.008 TIME LEFT:  2.00D  GRAD.:     0.627 HEAT:  32.21752
 CYCLE:   100 TIME:   0.008 TIME LEFT:  2.00D  GRAD.:     0.220 HEAT:  32.21733
 CYCLE:   101 TIME:   0.008 TIME LEFT:  2.00D  GRAD.:     0.157 HEAT:  32.21725
 CYCLE:   102 TIME:   0.004 TIME LEFT:  2.00D  GRAD.:     0.298 HEAT:  32.21707
 CYCLE:   103 TIME:   0.008 TIME LEFT:  2.00D  GRAD.:     0.134 HEAT:  32.21693
 CYCLE:   104 TIME:   0.008 TIME LEFT:  2.00D  GRAD.:     0.117 HEAT:  32.21688
 CYCLE:   105 TIME:   0.008 TIME LEFT:  2.00D  GRAD.:     0.224 HEAT:  32.21696
 CYCLE:   106 TIME:   0.004 TIME LEFT:  2.00D  GRAD.:     0.105 HEAT:  32.21686
 CYCLE:   107 TIME:   0.008 TIME LEFT:  2.00D  GRAD.:     0.460 HEAT:  32.21847
 CYCLE:   108 TIME:   0.008 TIME LEFT:  2.00D  GRAD.:     0.161 HEAT:  32.21688
 CYCLE:   109 TIME:   0.008 TIME LEFT:  2.00D  GRAD.:     0.131 HEAT:  32.21682
 CYCLE:   110 TIME:   0.008 TIME LEFT:  2.00D  GRAD.:     0.254 HEAT:  32.21690
 CYCLE:   111 TIME:   0.008 TIME LEFT:  2.00D  GRAD.:     0.150 HEAT:  32.21682
 CYCLE:   112 TIME:   0.012 TIME LEFT:  2.00D  GRAD.:     0.244 HEAT:  32.21683
 CYCLE:   113 TIME:   0.008 TIME LEFT:  2.00D  GRAD.:     0.537 HEAT:  32.21752
 CYCLE:   114 TIME:   0.008 TIME LEFT:  2.00D  GRAD.:     0.263 HEAT:  32.21676
 CYCLE:   115 TIME:   0.008 TIME LEFT:  2.00D  GRAD.:     0.148 HEAT:  32.21667
 CYCLE:   116 TIME:   0.008 TIME LEFT:  2.00D  GRAD.:     0.196 HEAT:  32.21661
 CYCLE:   117 TIME:   0.012 TIME LEFT:  2.00D  GRAD.:     1.310 HEAT:  32.21633
 CYCLE:   118 TIME:   0.008 TIME LEFT:  2.00D  GRAD.:     1.308 HEAT:  32.21505
 CYCLE:   119 TIME:   0.008 TIME LEFT:  2.00D  GRAD.:     1.299 HEAT:  32.21352
 CYCLE:   120 TIME:   0.012 TIME LEFT:  2.00D  GRAD.:     1.422 HEAT:  32.20971
 CYCLE:   121 TIME:   0.008 TIME LEFT:  2.00D  GRAD.:     5.158 HEAT:  32.20742
 CYCLE:   122 TIME:   0.008 TIME LEFT:  2.00D  GRAD.:     3.652 HEAT:  32.19701
 CYCLE:   123 TIME:   0.008 TIME LEFT:  2.00D  GRAD.:     3.058 HEAT:  32.18930
 CYCLE:   124 TIME:   0.012 TIME LEFT:  2.00D  GRAD.:     8.294 HEAT:  32.18318
 CYCLE:   125 TIME:   0.008 TIME LEFT:  2.00D  GRAD.:     5.321 HEAT:  32.17398
 CYCLE:   126 TIME:   0.008 TIME LEFT:  2.00D  GRAD.:     2.258 HEAT:  32.16156
 CYCLE:   127 TIME:   0.004 TIME LEFT:  2.00D  GRAD.:     4.064 HEAT:  32.15020
 CYCLE:   128 TIME:   0.008 TIME LEFT:  2.00D  GRAD.:     5.705 HEAT:  32.13635
 CYCLE:   129 TIME:   0.008 TIME LEFT:  2.00D  GRAD.:    12.963 HEAT:  32.13175
 CYCLE:   130 TIME:   0.012 TIME LEFT:  2.00D  GRAD.:    11.049 HEAT:  32.12516
 CYCLE:   131 TIME:   0.008 TIME LEFT:  2.00D  GRAD.:     1.719 HEAT:  32.05926
 CYCLE:   132 TIME:   0.004 TIME LEFT:  2.00D  GRAD.:     2.848 HEAT:  32.04134
 CYCLE:   133 TIME:   0.008 TIME LEFT:  2.00D  GRAD.:     4.106 HEAT:  32.01776
 CYCLE:   134 TIME:   0.004 TIME LEFT:  2.00D  GRAD.:     5.563 HEAT:  31.99105
 CYCLE:   135 TIME:   0.008 TIME LEFT:  2.00D  GRAD.:     5.770 HEAT:  31.95756
 CYCLE:   136 TIME:   0.004 TIME LEFT:  2.00D  GRAD.:     3.852 HEAT:  31.93053
 CYCLE:   137 TIME:   0.008 TIME LEFT:  2.00D  GRAD.:     4.406 HEAT:  31.89987
 CYCLE:   138 TIME:   0.023 TIME LEFT:  2.00D  GRAD.:     2.436 HEAT:  31.89006
 CYCLE:   139 TIME:   0.004 TIME LEFT:  2.00D  GRAD.:     2.000 HEAT:  31.87966
 CYCLE:   140 TIME:   0.008 TIME LEFT:  2.00D  GRAD.:     1.755 HEAT:  31.86435
 CYCLE:   141 TIME:   0.008 TIME LEFT:  2.00D  GRAD.:     1.667 HEAT:  31.84316
 CYCLE:   142 TIME:   0.004 TIME LEFT:  2.00D  GRAD.:     2.124 HEAT:  31.81638
 CYCLE:   143 TIME:   0.008 TIME LEFT:  2.00D  GRAD.:     5.222 HEAT:  31.78338
 CYCLE:   144 TIME:   0.008 TIME LEFT:  2.00D  GRAD.:     6.203 HEAT:  31.75562
 CYCLE:   145 TIME:   0.004 TIME LEFT:  2.00D  GRAD.:     4.535 HEAT:  31.71867
 CYCLE:   146 TIME:   0.008 TIME LEFT:  2.00D  GRAD.:     2.964 HEAT:  31.66638
 CYCLE:   147 TIME:   0.008 TIME LEFT:  2.00D  GRAD.:     4.272 HEAT:  31.63643
 CYCLE:   148 TIME:   0.020 TIME LEFT:  2.00D  GRAD.:     3.041 HEAT:  31.63104
 CYCLE:   149 TIME:   0.008 TIME LEFT:  2.00D  GRAD.:     1.853 HEAT:  31.62513
 CYCLE:   150 TIME:   0.004 TIME LEFT:  2.00D  GRAD.:     3.083 HEAT:  31.60337
 CYCLE:   151 TIME:   0.008 TIME LEFT:  2.00D  GRAD.:     6.601 HEAT:  31.60309
 CYCLE:   152 TIME:   0.008 TIME LEFT:  2.00D  GRAD.:     1.719 HEAT:  31.58363
 CYCLE:   153 TIME:   0.008 TIME LEFT:  2.00D  GRAD.:     1.762 HEAT:  31.57701
 CYCLE:   154 TIME:   0.004 TIME LEFT:  2.00D  GRAD.:     2.895 HEAT:  31.56964
 CYCLE:   155 TIME:   0.008 TIME LEFT:  2.00D  GRAD.:     0.961 HEAT:  31.56558
 CYCLE:   156 TIME:   0.008 TIME LEFT:  2.00D  GRAD.:     0.988 HEAT:  31.56292
 CYCLE:   157 TIME:   0.008 TIME LEFT:  2.00D  GRAD.:     0.841 HEAT:  31.56155
 CYCLE:   158 TIME:   0.008 TIME LEFT:  2.00D  GRAD.:     0.460 HEAT:  31.56097
 CYCLE:   159 TIME:   0.004 TIME LEFT:  2.00D  GRAD.:     0.296 HEAT:  31.56077
 CYCLE:   160 TIME:   0.008 TIME LEFT:  2.00D  GRAD.:     0.395 HEAT:  31.56070
 CYCLE:   161 TIME:   0.008 TIME LEFT:  2.00D  GRAD.:     0.209 HEAT:  31.56062
 CYCLE:   162 TIME:   0.008 TIME LEFT:  2.00D  GRAD.:     0.100 HEAT:  31.56058
 CYCLE:   163 TIME:   0.008 TIME LEFT:  2.00D  GRAD.:     0.097 HEAT:  31.56057
 CYCLE:   164 TIME:   0.008 TIME LEFT:  2.00D  GRAD.:     0.154 HEAT:  31.56056
 CYCLE:   165 TIME:   0.008 TIME LEFT:  2.00D  GRAD.:     0.096 HEAT:  31.56055
 CYCLE:   166 TIME:   0.008 TIME LEFT:  2.00D  GRAD.:     0.146 HEAT:  31.56058
 CYCLE:   167 TIME:   0.004 TIME LEFT:  2.00D  GRAD.:     0.065 HEAT:  31.56054
 CYCLE:   168 TIME:   0.047 TIME LEFT:  2.00D  GRAD.:     1.553 HEAT:  31.56132
 CYCLE:   169 TIME:   0.008 TIME LEFT:  2.00D  GRAD.:     0.024 HEAT:  31.56054

     GRADIENT =  0.02425 IS LESS THAN CUTOFF =  0.05000



 -------------------------------------------------------------------------------
 pm3  precise nosym THREADS=1
 InChI=1S/C9H12/c1-8(2)9-6-4-3-5-7-9/h4-7,9H,1,3H2,2H3



     GEOMETRY OPTIMISED USING EIGENVECTOR FOLLOWING (EF).     
     SCF FIELD WAS ACHIEVED                                   


                              PM3 CALCULATION
                                                       MOPAC v23.1.2 MacOS
                                                       Tue Jun  3 16:30:51 2025




          FINAL HEAT OF FORMATION =         31.56054 KCAL/MOL =     132.04930 KJ/MOL


          COSMO AREA              =        170.37 SQUARE ANGSTROMS
          COSMO VOLUME            =        173.03 CUBIC ANGSTROMS

          GRADIENT NORM           =          0.02425          =       0.00529 PER ATOM
          IONIZATION POTENTIAL    =          9.340229 EV
          HOMO LUMO ENERGIES (EV) =         -9.340  1.012
          NO. OF FILLED LEVELS    =         24
          MOLECULAR WEIGHT        =        120.1938         POINT GROUP:  C1  

          MOLECULAR DIMENSIONS (Angstroms)

            Atom       Atom       Distance
            H    21    H    12     7.10411
            H    18    H    17     4.43098
            H    15    H    20     3.85083


          SCF CALCULATIONS        =        193

          WALL-CLOCK TIME         =      1.336 SECONDS
          COMPUTATION TIME        =      0.816 SECONDS




   ATOM   CHEMICAL          X               Y               Z
  NUMBER   SYMBOL      (ANGSTROMS)     (ANGSTROMS)     (ANGSTROMS)

     1       C         -0.11220393  *  -0.52070881  *   0.61685227  *
     2       C          2.50782182  *   0.52303549  *  -0.26905089  *
     3       C         -1.85026137  *   0.53835901  *  -0.92010608  *
     4       C         -1.55929193  *  -0.36836943  *   0.22079113  *
     5       C          0.44351998  *   0.78880600  *   1.07815141  *
     6       C          0.67350699  *  -1.12876542  *  -0.50090896  *
     7       C          1.86077961  *  -0.66259309  *  -0.88832733  *
     8       C          1.63148090  *   1.24935881  *   0.68613795  *
     9       C         -2.52428284  *  -1.02033735  *   0.86928244  *
    10       H         -0.03693367  *  -1.22660097  *   1.48504556  *
    11       H          2.83688313  *   1.21947098  *  -1.06686893  *
    12       H          3.43066983  *   0.20108251  *   0.25630735  *
    13       H         -2.92217584  *   0.59480307  *  -1.14942874  *
    14       H         -1.32951237  *   0.19544061  *  -1.82492612  *
    15       H         -1.49847241  *   1.55598291  *  -0.70058837  *
    16       H          0.21927407  *  -1.99967234  *  -0.98665240  *
    17       H         -0.18315863  *   1.35537237  *   1.77603134  *
    18       H          2.41856362  *  -1.14848949  *  -1.69665681  *
    19       H          2.01660123  *   2.20327471  *   1.06343726  *
    20       H         -2.33086135  *  -1.68696480  *   1.70512826  *
    21       H         -3.57421676  *  -0.92943477  *   0.60538034  *

                             CARTESIAN COORDINATES

   1    C       -0.112203931    -0.520708809     0.616852271
   2    C        2.507821816     0.523035485    -0.269050891
   3    C       -1.850261365     0.538359011    -0.920106077
   4    C       -1.559291926    -0.368369429     0.220791129
   5    C        0.443519985     0.788805999     1.078151413
   6    C        0.673506988    -1.128765425    -0.500908957
   7    C        1.860779606    -0.662593089    -0.888327325
   8    C        1.631480896     1.249358808     0.686137950
   9    C       -2.524282836    -1.020337354     0.869282443
  10    H       -0.036933668    -1.226600966     1.485045560
  11    H        2.836883131     1.219470979    -1.066868928
  12    H        3.430669828     0.201082509     0.256307345
  13    H       -2.922175839     0.594803071    -1.149428743
  14    H       -1.329512374     0.195440613    -1.824926119
  15    H       -1.498472414     1.555982910    -0.700588367
  16    H        0.219274074    -1.999672338    -0.986652404
  17    H       -0.183158630     1.355372368     1.776031344
  18    H        2.418563624    -1.148489493    -1.696656814
  19    H        2.016601229     2.203274714     1.063437261
  20    H       -2.330861354    -1.686964801     1.705128261
  21    H       -3.574216758    -0.929434772     0.605380340


           Empirical Formula: C9 H12  =    21 atoms



      MOLECULAR POINT GROUP   :   C1  


                  EIGENVALUES  
 -40.63694 -35.18490 -29.90322 -28.91915 -26.94647 -22.83433 -20.71121 -18.78427
 -17.56304 -16.08289 -16.04579 -15.99532 -14.89755 -14.63746 -14.59132 -13.95268
 -13.24196 -12.91628 -12.72136 -12.26708 -11.70658 -10.39274  -9.90162  -9.34023
   1.01212   1.02045   1.21310   3.25720   3.39651   3.51168   3.51241   3.80051
   3.85871   3.91758   4.00463   4.31179   4.43885   4.45772   4.48068   4.54504
   4.65283   4.65883   5.31555   5.35292   5.56535   5.96148   6.00709   6.15715


              NET ATOMIC CHARGES AND DIPOLE CONTRIBUTIONS

  ATOM NO.   TYPE          CHARGE      No. of ELECS.   s-Pop       p-Pop       
    1          C           0.036033        3.9640     1.13952     2.82444
    2          C          -0.021994        4.0220     1.13147     2.89052
    3          C          -0.074768        4.0748     1.12603     2.94874
    4          C          -0.102113        4.1021     1.19912     2.90299
    5          C          -0.141746        4.1417     1.19492     2.94682
    6          C          -0.141744        4.1417     1.19493     2.94681
    7          C          -0.146571        4.1466     1.19324     2.95333
    8          C          -0.146564        4.1466     1.19325     2.95332
    9          C          -0.174295        4.1743     1.18309     2.99121
   10          H           0.075789        0.9242     0.92421
   11          H           0.059196        0.9408     0.94080
   12          H           0.062270        0.9377     0.93773
   13          H           0.042297        0.9577     0.95770
   14          H           0.050962        0.9490     0.94904
   15          H           0.050939        0.9491     0.94906
   16          H           0.103849        0.8962     0.89615
   17          H           0.103844        0.8962     0.89616
   18          H           0.098477        0.9015     0.90152
   19          H           0.098478        0.9015     0.90152
   20          H           0.083414        0.9166     0.91659
   21          H           0.084249        0.9158     0.91575
 DIPOLE           X         Y         Z       TOTAL
 POINT-CHG.     0.308     0.150    -0.136     0.369
 HYBRID        -0.000     0.009    -0.011     0.015
 SUM            0.308     0.159    -0.148     0.377


          ATOMIC ORBITAL ELECTRON POPULATIONS

     Atom    s        px        py        pz   
    1  C   1.13952   0.91378   0.94941   0.96125
    2  C   1.13147   0.96828   0.95213   0.97012
    3  C   1.12603   1.00500   0.98191   0.96184
    4  C   1.19912   0.94828   0.98003   0.97468
    5  C   1.19492   0.97008   0.97465   1.00209
    6  C   1.19493   0.96451   0.99628   0.98603
    7  C   1.19324   0.97329   0.98119   0.99884
    8  C   1.19325   0.96878   0.99226   0.99227
    9  C   1.18309   0.97981   1.00705   1.00435
   10  H   0.92421
   11  H   0.94080
   12  H   0.93773
   13  H   0.95770
   14  H   0.94904
   15  H   0.94906
   16  H   0.89615
   17  H   0.89616
   18  H   0.90152
   19  H   0.90152
   20  H   0.91659
   21  H   0.91575
 *******************************************************************************
 **                                                                           **
 **                              MOPAC v23.1.2                                **
 **                                                                           **
 *******************************************************************************
 **          Digital Object Identifier (DOI): 10.5281/zenodo.6511958          **
 **    Visit the DOI location for information on how to cite this program.    **
 *******************************************************************************

                              PM3 CALCULATION RESULTS

 *******************************************************************************
 *  CALCULATION DONE: (MAX THREADS = 1)              Tue Jun  3 16:30:51 2025  *
 *  PM3        - The PM3 Hamiltonian to be used
 *  OLDGEO     - PREVIOUS GEOMETRY TO BE USED
 *  PRECISE    - TIGHTER CRITERIA TO BE USED
 *  NOSYM      - POINT-GROUP SYMMETRY SET TO C1
 *  THREADS=1  - MULTI-THREADING NOT USED
 *  T=         - A TIME OF 172800.0 SECONDS REQUESTED
 *  DUMP=N     - RESTART FILE WRITTEN EVERY 7200.0 SECONDS REQUESTED
 *  THERMO     - THERMODYNAMIC QUANTITIES TO BE CALCULATED
 *******************************************************************************
oldgeo thermo nosym precise THREADS=1  pm3
 InChI=1S/C9H12/c1-8(2)9-6-4-3-5-7-9/h4-7,9H,1,3H2,2H3

   ATOM   CHEMICAL          X               Y               Z
  NUMBER   SYMBOL      (ANGSTROMS)     (ANGSTROMS)     (ANGSTROMS)

     1       C         -0.11220393  *  -0.52070881  *   0.61685227  *
     2       C          2.50782182  *   0.52303549  *  -0.26905089  *
     3       C         -1.85026137  *   0.53835901  *  -0.92010608  *
     4       C         -1.55929193  *  -0.36836943  *   0.22079113  *
     5       C          0.44351998  *   0.78880600  *   1.07815141  *
     6       C          0.67350699  *  -1.12876542  *  -0.50090896  *
     7       C          1.86077961  *  -0.66259309  *  -0.88832733  *
     8       C          1.63148090  *   1.24935881  *   0.68613795  *
     9       C         -2.52428284  *  -1.02033735  *   0.86928244  *
    10       H         -0.03693367  *  -1.22660097  *   1.48504556  *
    11       H          2.83688313  *   1.21947098  *  -1.06686893  *
    12       H          3.43066983  *   0.20108251  *   0.25630735  *
    13       H         -2.92217584  *   0.59480307  *  -1.14942874  *
    14       H         -1.32951237  *   0.19544061  *  -1.82492612  *
    15       H         -1.49847241  *   1.55598291  *  -0.70058837  *
    16       H          0.21927407  *  -1.99967234  *  -0.98665240  *
    17       H         -0.18315863  *   1.35537237  *   1.77603134  *
    18       H          2.41856362  *  -1.14848949  *  -1.69665681  *
    19       H          2.01660123  *   2.20327471  *   1.06343726  *
    20       H         -2.33086135  *  -1.68696480  *   1.70512826  *
    21       H         -3.57421676  *  -0.92943477  *   0.60538034  *



          CARTESIAN COORDINATES 

    NO.       ATOM           X           Y           Z

     1         C         -0.1122     -0.5207      0.6169
     2         C          2.5078      0.5230     -0.2691
     3         C         -1.8503      0.5384     -0.9201
     4         C         -1.5593     -0.3684      0.2208
     5         C          0.4435      0.7888      1.0782
     6         C          0.6735     -1.1288     -0.5009
     7         C          1.8608     -0.6626     -0.8883
     8         C          1.6315      1.2494      0.6861
     9         C         -2.5243     -1.0203      0.8693
    10         H         -0.0369     -1.2266      1.4850
    11         H          2.8369      1.2195     -1.0669
    12         H          3.4307      0.2011      0.2563
    13         H         -2.9222      0.5948     -1.1494
    14         H         -1.3295      0.1954     -1.8249
    15         H         -1.4985      1.5560     -0.7006
    16         H          0.2193     -1.9997     -0.9867
    17         H         -0.1832      1.3554      1.7760
    18         H          2.4186     -1.1485     -1.6967
    19         H          2.0166      2.2033      1.0634
    20         H         -2.3309     -1.6870      1.7051
    21         H         -3.5742     -0.9294      0.6054

  H: (PM3): J. J. P. STEWART, J. COMP. CHEM. 10, 209 (1989).
  C: (PM3): J. J. P. STEWART, J. COMP. CHEM. 10, 209 (1989).

           Empirical Formula: C9 H12  =    21 atoms



      MOLECULAR POINT GROUP   :   C1  


      RHF CALCULATION, NO. OF DOUBLY OCCUPIED LEVELS = 24



          HEAT OF FORMATION =      31.560540 KCALS/MOLE


          CARTESIAN COORDINATE DERIVATIVES

   NUMBER  ATOM         X            Y            Z

     1       C     -0.003200    -0.001432    -0.002533
     2       C      0.001769    -0.001429    -0.003283
     3       C      0.003815     0.000204     0.000400
     4       C     -0.003893     0.001953    -0.003103
     5       C     -0.000243    -0.004759     0.002065
     6       C     -0.006012     0.000415    -0.002396
     7       C     -0.002072     0.002363     0.001896
     8       C     -0.003069    -0.000904     0.002223
     9       C     -0.004247     0.002323     0.000713
    10       H      0.001210    -0.001996    -0.001282
    11       H      0.000325     0.000262    -0.001822
    12       H      0.000887     0.003246    -0.000174
    13       H      0.005247    -0.008316    -0.000509
    14       H     -0.000910    -0.005286     0.001167
    15       H     -0.001786     0.010433     0.005533
    16       H      0.002392    -0.000727     0.001620
    17       H      0.000674     0.002361    -0.000619
    18       H      0.000856    -0.000836     0.001392
    19       H      0.005399     0.000315     0.001654
    20       H      0.004715    -0.000940    -0.000530
    21       H     -0.001857     0.002749    -0.002411



          GRADIENT NORM =   0.02413

          MOLECULAR WEIGHT =  120.19



          ROTATIONAL CONSTANTS IN CM(-1)

          A =    0.10832023   B =    0.03853827   C =    0.03568548



           PRINCIPAL MOMENTS OF INERTIA IN UNITS OF 10**(-40)*GRAM-CM**2

          A =      258.4259   B =      726.3624   C =      784.4298


          ORIENTATION OF MOLECULE IN FORCE CALCULATION

    NO.       ATOM         X         Y         Z

     1          C      -0.5103   -0.5311    0.0004
     2          C       2.4458   -0.5311    0.0004
     3          C      -1.2162    1.9197    0.0004
     4          C      -1.6204    0.4896   -0.0004
     5          C       0.3063   -0.4134    1.2476
     6          C       0.3063   -0.4149   -1.2470
     7          C       1.6393   -0.4286   -1.2434
     8          C       1.6393   -0.4271    1.2440
     9          C      -2.9002    0.1169   -0.0019
    10          H      -0.9530   -1.5615    0.0010
    11          H       3.2225    0.2605   -0.0001
    12          H       2.9926   -1.4967    0.0009
    13          H      -2.0776    2.5999   -0.0030
    14          H      -0.6046    2.1458   -0.8841
    15          H      -0.6109    2.1466    0.8890
    16          H      -0.2582   -0.3271   -2.1821
    17          H      -0.2582   -0.3244    2.1826
    18          H       2.2044   -0.3644   -2.1800
    19          H       2.2044   -0.3619    2.1805
    20          H      -3.2146   -0.9231   -0.0025
    21          H      -3.7196    0.8303   -0.0027


    FIRST DERIVATIVES WILL BE USED IN THE CALCULATION OF SECOND DERIVATIVES

          ESTIMATED TIME TO COMPLETE CALCULATION =        1.97 SECONDS

    FOR POINT-GROUP C1   THERE ARE   1 UNIQUE SYMMETRY FUNCTIONS.

 STEP:   1 TIME =     0.02 SECS, INTEGRAL =      0.02 TIME LEFT: 172799.98
 STEP:   2 TIME =     0.02 SECS, INTEGRAL =      0.04 TIME LEFT: 172799.96
 STEP:   3 TIME =     0.02 SECS, INTEGRAL =      0.06 TIME LEFT: 172799.93
 STEP:   4 TIME =     0.02 SECS, INTEGRAL =      0.08 TIME LEFT: 172799.91
 STEP:   5 TIME =     0.02 SECS, INTEGRAL =      0.10 TIME LEFT: 172799.89
 STEP:   6 TIME =     0.02 SECS, INTEGRAL =      0.12 TIME LEFT: 172799.87
 STEP:   7 TIME =     0.02 SECS, INTEGRAL =      0.14 TIME LEFT: 172799.85
 STEP:   8 TIME =     0.02 SECS, INTEGRAL =      0.16 TIME LEFT: 172799.83
 STEP:   9 TIME =     0.02 SECS, INTEGRAL =      0.18 TIME LEFT: 172799.81
 STEP:  10 TIME =     0.02 SECS, INTEGRAL =      0.20 TIME LEFT: 172799.79
 STEP:  11 TIME =     0.02 SECS, INTEGRAL =      0.22 TIME LEFT: 172799.77
 STEP:  12 TIME =     0.02 SECS, INTEGRAL =      0.25 TIME LEFT: 172799.75
 STEP:  13 TIME =     0.02 SECS, INTEGRAL =      0.27 TIME LEFT: 172799.73
 STEP:  14 TIME =     0.02 SECS, INTEGRAL =      0.29 TIME LEFT: 172799.70
 STEP:  15 TIME =     0.02 SECS, INTEGRAL =      0.31 TIME LEFT: 172799.68
 STEP:  16 TIME =     0.02 SECS, INTEGRAL =      0.32 TIME LEFT: 172799.67
 STEP:  17 TIME =     0.02 SECS, INTEGRAL =      0.34 TIME LEFT: 172799.65
 STEP:  18 TIME =     0.02 SECS, INTEGRAL =      0.36 TIME LEFT: 172799.63
 STEP:  19 TIME =     0.02 SECS, INTEGRAL =      0.38 TIME LEFT: 172799.61
 STEP:  20 TIME =     0.02 SECS, INTEGRAL =      0.40 TIME LEFT: 172799.59
 STEP:  21 TIME =     0.02 SECS, INTEGRAL =      0.42 TIME LEFT: 172799.57
 STEP:  22 TIME =     0.02 SECS, INTEGRAL =      0.44 TIME LEFT: 172799.55
 STEP:  23 TIME =     0.02 SECS, INTEGRAL =      0.46 TIME LEFT: 172799.54
 STEP:  24 TIME =     0.02 SECS, INTEGRAL =      0.47 TIME LEFT: 172799.52
 STEP:  25 TIME =     0.02 SECS, INTEGRAL =      0.49 TIME LEFT: 172799.50
 STEP:  26 TIME =     0.02 SECS, INTEGRAL =      0.51 TIME LEFT: 172799.48
 STEP:  27 TIME =     0.02 SECS, INTEGRAL =      0.54 TIME LEFT: 172799.46
 STEP:  28 TIME =     0.02 SECS, INTEGRAL =      0.55 TIME LEFT: 172799.44
 STEP:  29 TIME =     0.02 SECS, INTEGRAL =      0.57 TIME LEFT: 172799.42
 STEP:  30 TIME =     0.02 SECS, INTEGRAL =      0.59 TIME LEFT: 172799.40
 STEP:  31 TIME =     0.02 SECS, INTEGRAL =      0.61 TIME LEFT: 172799.38
 STEP:  32 TIME =     0.02 SECS, INTEGRAL =      0.63 TIME LEFT: 172799.36
 STEP:  33 TIME =     0.02 SECS, INTEGRAL =      0.65 TIME LEFT: 172799.34
 STEP:  34 TIME =     0.02 SECS, INTEGRAL =      0.67 TIME LEFT: 172799.32
 STEP:  35 TIME =     0.02 SECS, INTEGRAL =      0.69 TIME LEFT: 172799.30
 STEP:  36 TIME =     0.02 SECS, INTEGRAL =      0.71 TIME LEFT: 172799.28
 STEP:  37 TIME =     0.02 SECS, INTEGRAL =      0.73 TIME LEFT: 172799.26
 STEP:  38 TIME =     0.02 SECS, INTEGRAL =      0.75 TIME LEFT: 172799.24
 STEP:  39 TIME =     0.02 SECS, INTEGRAL =      0.77 TIME LEFT: 172799.22
 STEP:  40 TIME =     0.02 SECS, INTEGRAL =      0.79 TIME LEFT: 172799.20
 STEP:  41 TIME =     0.02 SECS, INTEGRAL =      0.81 TIME LEFT: 172799.18
 STEP:  42 TIME =     0.02 SECS, INTEGRAL =      0.83 TIME LEFT: 172799.16
 STEP:  43 TIME =     0.02 SECS, INTEGRAL =      0.85 TIME LEFT: 172799.14
 STEP:  44 TIME =     0.02 SECS, INTEGRAL =      0.87 TIME LEFT: 172799.12
 STEP:  45 TIME =     0.02 SECS, INTEGRAL =      0.89 TIME LEFT: 172799.10
 STEP:  46 TIME =     0.02 SECS, INTEGRAL =      0.91 TIME LEFT: 172799.08
 STEP:  47 TIME =     0.02 SECS, INTEGRAL =      0.93 TIME LEFT: 172799.06
 STEP:  48 TIME =     0.02 SECS, INTEGRAL =      0.95 TIME LEFT: 172799.05
 STEP:  49 TIME =     0.02 SECS, INTEGRAL =      0.96 TIME LEFT: 172799.03
 STEP:  50 TIME =     0.02 SECS, INTEGRAL =      0.98 TIME LEFT: 172799.01
 STEP:  51 TIME =     0.02 SECS, INTEGRAL =      1.00 TIME LEFT: 172798.99
 STEP:  52 TIME =     0.02 SECS, INTEGRAL =      1.02 TIME LEFT: 172798.97
 STEP:  53 TIME =     0.02 SECS, INTEGRAL =      1.04 TIME LEFT: 172798.95
 STEP:  54 TIME =     0.02 SECS, INTEGRAL =      1.06 TIME LEFT: 172798.93
 STEP:  55 TIME =     0.02 SECS, INTEGRAL =      1.08 TIME LEFT: 172798.91
 STEP:  56 TIME =     0.02 SECS, INTEGRAL =      1.11 TIME LEFT: 172798.89
 STEP:  57 TIME =     0.02 SECS, INTEGRAL =      1.12 TIME LEFT: 172798.87
 STEP:  58 TIME =     0.02 SECS, INTEGRAL =      1.14 TIME LEFT: 172798.85
 STEP:  59 TIME =     0.02 SECS, INTEGRAL =      1.16 TIME LEFT: 172798.83
 STEP:  60 TIME =     0.02 SECS, INTEGRAL =      1.18 TIME LEFT: 172798.81
 STEP:  61 TIME =     0.02 SECS, INTEGRAL =      1.20 TIME LEFT: 172798.80
 STEP:  62 TIME =     0.02 SECS, INTEGRAL =      1.21 TIME LEFT: 172798.78
 STEP:  63 TIME =     0.02 SECS, INTEGRAL =      1.23 TIME LEFT: 172798.76

(To convert to Hartree/Bohr^2, multiply by (10^(-21) x N x a0^2)/(4.184 x 627.51) =  0.0642)


           FORCE MATRIX IN MILLIDYNES/ANGSTROM


                  C  1       C  2       C  3       C  4       C  5       C  6
 ------------------------------------------------------------------------------
     C    1  15.244446
     C    2   0.204852  15.125116
     C    3   0.569239   0.000940  14.711985
     C    4   4.275761   0.014997   5.015600  18.291297
     C    5   4.677709   0.848424   0.047158   0.713527  18.231346
     C    6   4.677531   0.848433   0.047080   0.713837   0.716144  18.231607
     C    7   0.822993   5.018109   0.005742   0.045525   0.057345  10.720486
     C    8   0.822969   5.017855   0.005743   0.045527  10.720325   0.057345
     C    9   0.793473   0.002652   0.843369  10.722189   0.040435   0.040403
     H   10   4.073391   0.013424   0.043473   0.451422   0.389673   0.389692
     H   11   0.015471   4.409185   0.000135   0.001470   0.041051   0.041054
     H   12   0.014774   4.375962   0.000401   0.003626   0.034309   0.034309
     H   13   0.044977   0.000140   4.741239   0.474613   0.003519   0.003509
     H   14   0.020262   0.000541   4.694914   0.450988   0.002200   0.010314
     H   15   0.020068   0.000537   4.694421   0.450880   0.010252   0.002194
     H   16   0.432471   0.127056   0.007135   0.025366   0.044136   4.827359
     H   17   0.432474   0.127051   0.007179   0.025316   4.827278   0.044144
     H   18   0.125226   0.425923   0.000904   0.016267   0.004691   0.444524
     H   19   0.125221   0.425919   0.000904   0.016262   0.444524   0.004690
     H   20   0.088240   0.000461   0.130524   0.475025   0.011584   0.011607
     H   21   0.124960   0.000454   0.090005   0.473277   0.018147   0.018164


                  C  7       C  8       C  9       H 10       H 11       H 12
 ------------------------------------------------------------------------------
     C    7  18.254247
     C    8   0.741181  18.253931
     C    9   0.007638   0.007645  18.060970
     H   10   0.032811   0.032813   0.067473   4.516699
     H   11   0.422596   0.422603   0.000404   0.002630   4.990434
     H   12   0.420565   0.420565   0.000350   0.002887   0.565391   4.962514
     H   13   0.000429   0.000426   0.049056   0.007443   0.000154   0.000103
     H   14   0.004790   0.000645   0.035778   0.001858   0.000277   0.000257
     H   15   0.000633   0.004771   0.035651   0.001842   0.000277   0.000257
     H   16   0.443331   0.003531   0.003952   0.019793   0.015580   0.017488
     H   17   0.003531   0.443338   0.003938   0.019789   0.015579   0.017487
     H   18   4.824273   0.045891   0.001843   0.016281   0.032647   0.021820
     H   19   0.045892   4.824129   0.001847   0.016278   0.032647   0.021816
     H   20   0.002520   0.002514   5.076599   0.028610   0.000222   0.000127
     H   21   0.002913   0.002913   5.081469   0.002213   0.000129   0.000312


                  H 13       H 14       H 15       H 16       H 17       H 18
 ------------------------------------------------------------------------------
     H   13   5.457643
     H   14   0.555528   5.404538
     H   15   0.555642   0.570586   5.404196
     H   16   0.000729   0.004368   0.000652   5.203914
     H   17   0.000724   0.000658   0.004429   0.006490   5.203839
     H   18   0.000165   0.000574   0.000215   0.070921   0.001074   5.200405
     H   19   0.000164   0.000218   0.000573   0.001075   0.070909   0.006706
     H   20   0.002586   0.018063   0.018095   0.001117   0.001116   0.000649
     H   21   0.029955   0.011540   0.011575   0.000872   0.000869   0.000950


                  H 19       H 20       H 21
 ------------------------------------------
     H   19   5.200265
     H   20   0.000648   5.471895
     H   21   0.000948   0.419027   5.475781


          HEAT OF FORMATION =      31.560540 KCALS/MOLE

          ZERO POINT ENERGY     113.499 KCAL/MOL


           NORMAL COORDINATE ANALYSIS (Total motion = 1 Angstrom)


   Root No.       1         2         3         4         5         6         7         8

                 1 A       2 A       3 A       4 A       5 A       6 A       7 A       8 A   

                  40.2      46.7     121.0     195.4     209.8     357.5     368.9     380.8
  
           1    0.0001   -0.0108   -0.0000   -0.0000   -0.0041    0.0056    0.0056    0.0000
           2    0.0001   -0.0236    0.0000   -0.0000   -0.0262   -0.0069    0.0197    0.0001
           3   -0.0175   -0.0001    0.0002    0.0412    0.0000   -0.0000   -0.0000   -0.0041
           4    0.0000   -0.0046   -0.0000   -0.0000   -0.0128   -0.0266   -0.0237   -0.0001
           5   -0.0004    0.0640    0.0000   -0.0000   -0.0186   -0.0062    0.0081    0.0000
           6    0.0136    0.0001    0.0039   -0.0154    0.0000    0.0000   -0.0000    0.0025
           7   -0.0002    0.0404    0.0000    0.0000    0.0434   -0.0053    0.0410    0.0001
           8    0.0001   -0.0090   -0.0000    0.0000   -0.0332    0.0373   -0.0092   -0.0000
           9   -0.0607   -0.0004    0.0029   -0.0387    0.0000    0.0000    0.0000    0.0081
          10   -0.0001    0.0100   -0.0000    0.0000    0.0011    0.0363    0.0023    0.0000
          11   -0.0000   -0.0005    0.0000   -0.0000   -0.0214    0.0240    0.0036    0.0000
          12   -0.0021   -0.0000   -0.0007    0.0103    0.0000    0.0000    0.0000   -0.0238
          13   -0.0129   -0.0108   -0.0013    0.0215   -0.0074   -0.0129   -0.0127   -0.0002
          14   -0.0242   -0.0371    0.0025   -0.0144    0.0096   -0.0247    0.0300    0.0506
          15   -0.0066    0.0010    0.0011    0.0282    0.0002    0.0097    0.0086   -0.0078
          16    0.0130   -0.0107    0.0013   -0.0215   -0.0074   -0.0129   -0.0126    0.0001
          17    0.0247   -0.0368   -0.0025    0.0144    0.0096   -0.0247    0.0301   -0.0505
          18   -0.0066   -0.0011    0.0011    0.0281   -0.0002   -0.0098   -0.0086   -0.0078
          19    0.0130   -0.0104    0.0013   -0.0221   -0.0073   -0.0141   -0.0147    0.0015
          20    0.0243    0.0046   -0.0033    0.0344    0.0382    0.0173   -0.0176    0.0425
          21    0.0072   -0.0008    0.0028    0.0024    0.0010   -0.0067   -0.0086    0.0042
          22   -0.0129   -0.0106   -0.0013    0.0221   -0.0074   -0.0142   -0.0148   -0.0015
          23   -0.0243    0.0043    0.0033   -0.0344    0.0383    0.0173   -0.0174   -0.0426
          24    0.0072    0.0009    0.0028    0.0025   -0.0010    0.0066    0.0086    0.0043
          25   -0.0001    0.0021    0.0000    0.0001   -0.0055    0.0518    0.0168    0.0000
          26   -0.0002    0.0267    0.0000   -0.0000    0.0045   -0.0262   -0.0406   -0.0001
          27    0.0681    0.0004   -0.0121   -0.0391   -0.0000    0.0001   -0.0000    0.0107
          28    0.0002   -0.0307   -0.0000   -0.0000    0.0070   -0.0202    0.0280    0.0000
          29    0.0001   -0.0148    0.0000    0.0000   -0.0294    0.0031    0.0096    0.0001
          30   -0.0430   -0.0003    0.0013    0.0487    0.0000   -0.0001   -0.0001    0.0528
          31    0.0005   -0.0639   -0.0001    0.0000    0.0540    0.0176   -0.0683   -0.0001
          32   -0.0008    0.1224    0.0001   -0.0000   -0.0852   -0.0510    0.0531    0.0001
          33    0.0372    0.0002    0.0025   -0.0049    0.0000    0.0000   -0.0001    0.0483
          34   -0.0005    0.0677    0.0001   -0.0001   -0.0946   -0.0820    0.0295    0.0000
          35   -0.0007    0.1050    0.0001   -0.0001   -0.0655   -0.0385    0.0392    0.0000
          36    0.0004   -0.0000    0.0073   -0.0558    0.0001    0.0001    0.0001   -0.0495
          37   -0.0004    0.0549   -0.0009    0.0000    0.0656   -0.0331    0.0639    0.0001
          38   -0.0001    0.0093    0.0002   -0.0001   -0.0057    0.0030    0.0177    0.0001
          39   -0.0584   -0.0005    0.2964   -0.0553    0.0000    0.0000   -0.0000    0.0248
          40   -0.0251    0.0452   -0.2502   -0.0093    0.0516   -0.0152    0.0512    0.0052
          41   -0.0283   -0.0222    0.0650   -0.0319   -0.0534    0.0626   -0.0324    0.0265
          42   -0.0853   -0.0004   -0.1535   -0.0538    0.0001    0.0001    0.0004    0.0191
          43    0.0248    0.0453    0.2514    0.0093    0.0516   -0.0152    0.0512   -0.0050
          44    0.0287   -0.0216   -0.0653    0.0320   -0.0532    0.0624   -0.0321   -0.0267
          45   -0.0851   -0.0005   -0.1516   -0.0538    0.0000   -0.0001   -0.0003    0.0191
          46    0.0230   -0.0125    0.0024   -0.0399   -0.0095   -0.0231   -0.0199    0.0013
          47    0.0433   -0.0805   -0.0034    0.0235    0.0316   -0.0533    0.0546   -0.1244
          48   -0.0110   -0.0042    0.0004    0.0398    0.0031   -0.0062   -0.0018   -0.0152
          49   -0.0229   -0.0128   -0.0024    0.0399   -0.0096   -0.0231   -0.0199   -0.0014
          50   -0.0421   -0.0810    0.0033   -0.0235    0.0316   -0.0534    0.0541    0.1245
          51   -0.0110    0.0041    0.0004    0.0398   -0.0032    0.0062    0.0018   -0.0154
          52    0.0229   -0.0132    0.0024   -0.0409   -0.0059   -0.0083   -0.0085    0.0050
          53    0.0424   -0.0034   -0.0058    0.0687    0.0925    0.0453   -0.0565    0.1060
          54    0.0144   -0.0031    0.0033   -0.0065    0.0057   -0.0009   -0.0073    0.0107
          55   -0.0227   -0.0135   -0.0024    0.0409   -0.0059   -0.0084   -0.0085   -0.0051
          56   -0.0423   -0.0039    0.0058   -0.0686    0.0925    0.0454   -0.0561   -0.1062
          57    0.0144    0.0033    0.0033   -0.0064   -0.0059    0.0008    0.0074    0.0108
          58   -0.0000   -0.0199    0.0000    0.0001   -0.0261    0.1037    0.0658    0.0002
          59   -0.0002    0.0334    0.0000   -0.0001    0.0110   -0.0428   -0.0563   -0.0002
          60    0.1138    0.0007   -0.0244   -0.0253   -0.0001    0.0001    0.0000    0.0183
          61   -0.0002    0.0173   -0.0000    0.0001    0.0102    0.0160   -0.0134   -0.0001
          62   -0.0003    0.0441    0.0000   -0.0001    0.0225   -0.0689   -0.0771   -0.0002
          63    0.0846    0.0005   -0.0094   -0.0980   -0.0000    0.0000   -0.0001    0.0386


   Root No.       9        10        11        12        13        14        15        16

                 9 A      10 A      11 A      12 A      13 A      14 A      15 A      16 A   

                 515.6     560.2     589.1     590.8     631.2     747.2     773.8     844.0
  
           1    0.0329   -0.0001    0.0250    0.0005   -0.0000    0.0080    0.0000    0.0165
           2   -0.0211   -0.0001    0.0430    0.0008   -0.0001    0.0047   -0.0000    0.0426
           3    0.0000   -0.0146   -0.0002    0.0390    0.0110   -0.0000    0.0010   -0.0000
           4   -0.0350    0.0001   -0.0233   -0.0004    0.0000   -0.0193   -0.0000    0.0196
           5    0.0023   -0.0000    0.0097    0.0002   -0.0000   -0.0197   -0.0000   -0.0319
           6    0.0000    0.0068    0.0002   -0.0413   -0.0064    0.0000   -0.0013    0.0000
           7   -0.0241    0.0000    0.0016    0.0000    0.0000    0.0011    0.0000   -0.0035
           8   -0.0156    0.0001   -0.0114   -0.0002    0.0000    0.0122    0.0000   -0.0180
           9   -0.0000   -0.0010   -0.0000    0.0035   -0.0092    0.0000   -0.0022   -0.0000
          10    0.0358   -0.0001   -0.0184   -0.0004    0.0001   -0.0201   -0.0000    0.0095
          11   -0.0319   -0.0000   -0.0019   -0.0000    0.0000    0.0123    0.0000   -0.0075
          12    0.0000    0.0876   -0.0000    0.0197   -0.0507    0.0000   -0.0070    0.0000
          13   -0.0025   -0.0031    0.0090   -0.0686    0.0019    0.0110    0.0010   -0.0138
          14    0.0142    0.0114   -0.0076    0.0105   -0.0047   -0.0198   -0.0256    0.0043
          15    0.0225   -0.0196    0.0232    0.0607    0.0212    0.0169    0.0059    0.0135
          16   -0.0025    0.0030    0.0083    0.0689   -0.0019    0.0110   -0.0010   -0.0138
          17    0.0142   -0.0114   -0.0075   -0.0107    0.0047   -0.0198    0.0256    0.0042
          18   -0.0225   -0.0194   -0.0238    0.0599    0.0213   -0.0169    0.0059   -0.0136
          19   -0.0055    0.0055    0.0082    0.0709   -0.0046    0.0123   -0.0025   -0.0153
          20   -0.0073    0.0053    0.0078    0.0059   -0.0037   -0.0057    0.0226    0.0018
          21   -0.0224    0.0008   -0.0227   -0.0702   -0.0002   -0.0237    0.0032    0.0278
          22   -0.0055   -0.0055    0.0089   -0.0706    0.0046    0.0123    0.0026   -0.0153
          23   -0.0073   -0.0054    0.0079   -0.0057    0.0036   -0.0057   -0.0226    0.0018
          24    0.0224    0.0007    0.0234   -0.0693   -0.0002    0.0237    0.0032   -0.0278
          25    0.0199    0.0001   -0.0212   -0.0004    0.0000   -0.0212   -0.0000    0.0125
          26    0.0316    0.0000   -0.0003    0.0000   -0.0000   -0.0021   -0.0000   -0.0029
          27    0.0000   -0.0103   -0.0000    0.0006    0.0031   -0.0000   -0.0005    0.0000
          28    0.0573   -0.0000    0.0394    0.0007   -0.0001   -0.0107   -0.0000    0.0290
          29   -0.0306   -0.0001    0.0358    0.0006   -0.0000    0.0138   -0.0000    0.0367
          30    0.0000   -0.0229   -0.0001    0.0082    0.0248    0.0000   -0.0514   -0.0000
          31   -0.0641   -0.0000    0.0379    0.0007   -0.0001   -0.0932   -0.0001   -0.0475
          32    0.0317    0.0001   -0.0531   -0.0010    0.0001    0.0556    0.0001    0.0377
          33   -0.0000    0.0211   -0.0001    0.0287   -0.0188   -0.0000    0.0312   -0.0000
          34   -0.0033    0.0002   -0.1014   -0.0019    0.0002    0.0677    0.0001    0.1134
          35    0.0213    0.0001   -0.0368   -0.0007    0.0001    0.0325   -0.0000    0.0226
          36   -0.0000   -0.0002    0.0001   -0.0088   -0.0021    0.0000   -0.0591   -0.0000
          37   -0.0654   -0.0000    0.0239    0.0004    0.0000    0.0274    0.0000   -0.0074
          38   -0.0648   -0.0003    0.0154    0.0002    0.0000    0.0443    0.0001   -0.0235
          39   -0.0001   -0.0715   -0.0001   -0.0053   -0.0050    0.0000    0.0052   -0.0000
          40   -0.0421   -0.0285    0.0107   -0.0056    0.0068    0.0117    0.0032   -0.0048
          41    0.0244   -0.1205   -0.0337   -0.0193    0.0164   -0.0101    0.0120   -0.0210
          42   -0.0013   -0.0543    0.0001   -0.0055   -0.0007    0.0010    0.0034   -0.0015
          43   -0.0421    0.0286    0.0108    0.0060   -0.0068    0.0117   -0.0032   -0.0049
          44    0.0241    0.1212   -0.0333    0.0181   -0.0165   -0.0098   -0.0121   -0.0211
          45    0.0011   -0.0542   -0.0002   -0.0055   -0.0007   -0.0010    0.0034    0.0015
          46   -0.0220    0.0129   -0.0047    0.0321   -0.0123    0.0057   -0.0065   -0.0076
          47    0.0550   -0.0489   -0.1234   -0.0324    0.0392    0.0655   -0.1676   -0.0939
          48   -0.0065   -0.0284   -0.0265    0.0794    0.0303   -0.0056   -0.0090   -0.0266
          49   -0.0220   -0.0129   -0.0044   -0.0322    0.0123    0.0057    0.0065   -0.0076
          50    0.0550    0.0493   -0.1236    0.0280   -0.0387    0.0653    0.1677   -0.0939
          51    0.0065   -0.0286    0.0258    0.0803    0.0302    0.0055   -0.0092    0.0267
          52    0.0129    0.0192    0.0282    0.0382   -0.0205    0.0358   -0.0067   -0.0182
          53   -0.0104    0.0047   -0.0648    0.0075    0.0066    0.1517   -0.1784    0.0849
          54   -0.0112    0.0088   -0.0156   -0.0888   -0.0087    0.0007   -0.0130    0.0322
          55    0.0128   -0.0193    0.0286   -0.0372    0.0204    0.0358    0.0067   -0.0182
          56   -0.0104   -0.0045   -0.0647   -0.0100   -0.0063    0.1515    0.1786    0.0848
          57    0.0112    0.0087    0.0166   -0.0882   -0.0087   -0.0009   -0.0132   -0.0323
          58   -0.0588    0.0003   -0.0300   -0.0006    0.0003    0.0065    0.0000   -0.0322
          59    0.0575    0.0000    0.0026    0.0001    0.0001   -0.0116   -0.0000    0.0122
          60   -0.0001   -0.2103   -0.0007    0.0101   -0.2742    0.0000   -0.0039   -0.0000
          61    0.0741   -0.0000   -0.0157   -0.0002   -0.0004   -0.0454   -0.0001    0.0496
          62    0.0963   -0.0000    0.0068    0.0002   -0.0001   -0.0299   -0.0000    0.0406
          63    0.0001    0.0619    0.0006   -0.0348    0.3557   -0.0001    0.0186    0.0000


   Root No.      17        18        19        20        21        22        23        24

                17 A      18 A      19 A      20 A      21 A      22 A      23 A      24 A   

                 920.9     942.7     958.3     965.4     973.1     992.6    1003.2    1007.4
  
           1    0.0128    0.0039    0.0008    0.0000    0.0000    0.0148    0.0104   -0.0000
           2    0.0271   -0.0266   -0.0314   -0.0000    0.0001   -0.0026   -0.0146   -0.0000
           3   -0.0000    0.0000    0.0000   -0.0050   -0.0026   -0.0000    0.0000    0.0193
           4    0.0268    0.0183    0.0082    0.0000   -0.0000    0.0295    0.0260    0.0001
           5    0.0416   -0.0045   -0.0100    0.0000    0.0000    0.0085   -0.0117    0.0000
           6   -0.0000   -0.0000   -0.0000   -0.0033   -0.0021   -0.0000    0.0000    0.0173
           7   -0.0050    0.0061    0.0087    0.0000   -0.0001    0.0192   -0.0346    0.0000
           8   -0.0044   -0.0037    0.0477    0.0000   -0.0002    0.0123    0.0046    0.0000
           9   -0.0000    0.0000    0.0002   -0.0048    0.0386   -0.0000   -0.0000   -0.0036
          10    0.0010   -0.0049   -0.0111   -0.0000    0.0001   -0.0066    0.0029   -0.0000
          11   -0.0002    0.0022   -0.0072   -0.0000    0.0000   -0.0075    0.0075   -0.0000
          12    0.0000   -0.0000   -0.0001    0.0017   -0.0214   -0.0000   -0.0000    0.0042
          13   -0.0117   -0.0072   -0.0033   -0.0005   -0.0004   -0.0077   -0.0071    0.0070
          14   -0.0238    0.0049    0.0049   -0.0223   -0.0024    0.0068   -0.0007   -0.0205
          15    0.0267    0.0381    0.0241    0.0092    0.0038   -0.0044    0.0052   -0.0192
          16   -0.0117   -0.0072   -0.0033    0.0005    0.0004   -0.0077   -0.0071   -0.0071
          17   -0.0239    0.0049    0.0049    0.0223    0.0024    0.0067   -0.0007    0.0205
          18   -0.0266   -0.0381   -0.0240    0.0091    0.0040    0.0044   -0.0052   -0.0193
          19   -0.0098   -0.0033   -0.0006   -0.0034   -0.0016   -0.0047   -0.0030    0.0055
          20   -0.0172    0.0049    0.0092   -0.0226   -0.0022   -0.0139    0.0098   -0.0008
          21    0.0149    0.0139    0.0084    0.0015    0.0022   -0.0197   -0.0146   -0.0191
          22   -0.0098   -0.0032   -0.0006    0.0034    0.0016   -0.0047   -0.0030   -0.0055
          23   -0.0172    0.0049    0.0092    0.0226    0.0021   -0.0139    0.0098    0.0007
          24   -0.0149   -0.0139   -0.0084    0.0014    0.0022    0.0198    0.0146   -0.0190
          25    0.0041   -0.0177   -0.0125   -0.0000    0.0001   -0.0160    0.0118   -0.0000
          26   -0.0072    0.0333   -0.0367   -0.0000    0.0002   -0.0025    0.0109   -0.0000
          27    0.0000   -0.0000   -0.0001    0.0015   -0.0383    0.0000    0.0000   -0.0097
          28   -0.0043    0.0560    0.0399    0.0001   -0.0000    0.0973    0.0234    0.0000
          29    0.0350   -0.0472   -0.0467   -0.0001    0.0001   -0.0382   -0.0204    0.0001
          30   -0.0000   -0.0001   -0.0000   -0.1182   -0.0217   -0.0002   -0.0000    0.2240
          31    0.1282    0.0194   -0.0071    0.0000    0.0001    0.0635    0.0191    0.0001
          32   -0.0596   -0.0034    0.0069   -0.0001   -0.0001   -0.0256   -0.0039   -0.0000
          33    0.0000   -0.0000   -0.0000   -0.0759   -0.0181   -0.0000   -0.0000    0.0651
          34   -0.0826    0.0331    0.0363   -0.0000   -0.0001    0.0099    0.0579    0.0001
          35   -0.0240    0.0027    0.0055    0.0000   -0.0000   -0.0033    0.0064    0.0001
          36    0.0000   -0.0000   -0.0001    0.0669   -0.0029   -0.0002    0.0000    0.1673
          37    0.0136   -0.0292    0.0452    0.0000   -0.0002   -0.0256    0.0793   -0.0001
          38    0.0180   -0.0467    0.0948    0.0001   -0.0009   -0.0409    0.1425   -0.0001
          39   -0.0000   -0.0000   -0.0001    0.0071   -0.0575    0.0000    0.0001    0.0058
          40    0.0022   -0.0078    0.0221    0.0060   -0.0504    0.0011    0.0105    0.0047
          41   -0.0251    0.0289    0.0479    0.0204   -0.1714    0.0760   -0.1212    0.0162
          42   -0.0006   -0.0005    0.0076    0.0052   -0.0444    0.0037   -0.0019    0.0041
          43    0.0022   -0.0079    0.0225   -0.0060    0.0504    0.0010    0.0107   -0.0047
          44   -0.0249    0.0287    0.0493   -0.0204    0.1717    0.0754   -0.1204   -0.0159
          45    0.0006    0.0005   -0.0078    0.0051   -0.0441   -0.0036    0.0020    0.0041
          46    0.0001    0.0199    0.0164    0.0009    0.0023   -0.0750   -0.0583   -0.0575
          47    0.1428   -0.0038   -0.0098   -0.1384   -0.0136   -0.0377    0.0028   -0.0500
          48   -0.0187   -0.0555   -0.0373   -0.0065    0.0011    0.0393    0.0244    0.0044
          49    0.0001    0.0199    0.0164   -0.0009   -0.0026   -0.0751   -0.0583    0.0573
          50    0.1428   -0.0037   -0.0098    0.1383    0.0135   -0.0380    0.0029    0.0498
          51    0.0186    0.0555    0.0374   -0.0067    0.0007   -0.0393   -0.0244    0.0043
          52   -0.0085    0.0323    0.0292   -0.0211   -0.0102   -0.0710   -0.0477    0.0548
          53    0.0294   -0.0357   -0.0487    0.1400    0.0126    0.0606   -0.0321    0.0164
          54    0.0190    0.0317    0.0217    0.0022   -0.0019   -0.0539   -0.0443    0.0118
          55   -0.0085    0.0323    0.0293    0.0210    0.0098   -0.0708   -0.0477   -0.0550
          56    0.0294   -0.0358   -0.0487   -0.1399   -0.0121    0.0609   -0.0321   -0.0162
          57   -0.0190   -0.0316   -0.0216    0.0024   -0.0016    0.0538    0.0444    0.0121
          58   -0.0377    0.1481   -0.1591   -0.0001    0.0004   -0.0191    0.0513   -0.0001
          59    0.0064   -0.0199    0.0086    0.0000   -0.0001   -0.0024   -0.0001   -0.0000
          60   -0.0000    0.0001    0.0005   -0.0116    0.2041   -0.0002    0.0000    0.0323
          61    0.0352   -0.1358    0.0706    0.0000   -0.0005   -0.0269    0.0037   -0.0001
          62    0.0296   -0.1057    0.0632    0.0000   -0.0003   -0.0136   -0.0008   -0.0000
          63    0.0000   -0.0002    0.0005   -0.0063    0.1487   -0.0002   -0.0000    0.0498


   Root No.      25        26        27        28        29        30        31        32

                25 A      26 A      27 A      28 A      29 A      30 A      31 A      32 A   

                1022.1    1033.5    1042.3    1062.7    1067.7    1146.7    1152.6    1216.1
  
           1   -0.0020   -0.0000    0.0472   -0.0000   -0.0000    0.0000   -0.0106   -0.0525
           2    0.0199   -0.0000    0.0153   -0.0000    0.0000   -0.0000    0.0063    0.0159
           3   -0.0000    0.0008    0.0000   -0.0052    0.0023   -0.0144   -0.0000    0.0001
           4    0.0176    0.0000   -0.0288    0.0000    0.0000   -0.0000   -0.0046    0.0110
           5   -0.0263   -0.0000   -0.0070    0.0000    0.0000    0.0000   -0.0033   -0.0023
           6    0.0000    0.0002    0.0000    0.0065    0.0207    0.0006    0.0000   -0.0001
           7    0.0163    0.0000    0.0007   -0.0000   -0.0000   -0.0000   -0.0009    0.0015
           8   -0.0113    0.0000    0.0131   -0.0000   -0.0000    0.0000    0.0005   -0.0104
           9    0.0000   -0.0309   -0.0000   -0.0003    0.0051   -0.0013    0.0000    0.0000
          10   -0.0009   -0.0001   -0.0060    0.0000    0.0000   -0.0000    0.0000   -0.0080
          11   -0.0000    0.0000   -0.0073    0.0000    0.0000   -0.0000   -0.0009    0.0200
          12   -0.0000    0.0482    0.0000    0.0006   -0.0110    0.0043   -0.0000   -0.0001
          13   -0.0043    0.0001    0.0046    0.0042    0.0128   -0.0001    0.0039   -0.0096
          14   -0.0204    0.0083   -0.0254    0.0183    0.0057   -0.0025   -0.0049   -0.0076
          15    0.0066   -0.0007   -0.0270    0.0036   -0.0006    0.0058   -0.0011   -0.0037
          16   -0.0043   -0.0001    0.0045   -0.0042   -0.0128    0.0001    0.0039   -0.0097
          17   -0.0204   -0.0083   -0.0254   -0.0183   -0.0057    0.0025   -0.0049   -0.0077
          18   -0.0065   -0.0007    0.0270    0.0036   -0.0006    0.0058    0.0011    0.0037
          19    0.0004    0.0003   -0.0075   -0.0028   -0.0050   -0.0037   -0.0038    0.0018
          20    0.0300   -0.0006    0.0132    0.0315   -0.0095   -0.0016    0.0025    0.0034
          21   -0.0133   -0.0000    0.0302   -0.0057   -0.0177    0.0008   -0.0057   -0.0207
          22    0.0004   -0.0003   -0.0075    0.0028    0.0050    0.0037   -0.0038    0.0019
          23    0.0300    0.0007    0.0131   -0.0316    0.0095    0.0016    0.0025    0.0034
          24    0.0133    0.0000   -0.0303   -0.0056   -0.0177    0.0007    0.0057    0.0206
          25   -0.0041    0.0001   -0.0143    0.0000    0.0000    0.0000    0.0033    0.0161
          26   -0.0059   -0.0000    0.0082   -0.0000   -0.0000    0.0000    0.0008   -0.0046
          27    0.0000   -0.0469   -0.0000   -0.0003    0.0066   -0.0017    0.0000    0.0000
          28   -0.0739   -0.0000    0.2275   -0.0002   -0.0001   -0.0000    0.0939    0.2120
          29    0.0504   -0.0001   -0.0614   -0.0000   -0.0001    0.0001   -0.0366   -0.0962
          30   -0.0000   -0.0843    0.0001   -0.1443   -0.1831    0.0709    0.0001   -0.0002
          31   -0.0214    0.0000   -0.0639    0.0000    0.0000    0.0000   -0.0199    0.0339
          32    0.0137    0.0000    0.0259   -0.0001    0.0002    0.0001    0.0079   -0.0204
          33   -0.0001    0.0318    0.0001   -0.1434    0.2956    0.1434    0.0000    0.0004
          34    0.0853    0.0001   -0.0212    0.0000    0.0000   -0.0000   -0.0085    0.0440
          35    0.0127   -0.0000   -0.0012    0.0002    0.0000    0.0000   -0.0031    0.0134
          36   -0.0000   -0.0383    0.0004    0.3266    0.0089    0.0798    0.0000    0.0003
          37   -0.0463    0.0000    0.0199   -0.0000   -0.0000    0.0000    0.0018   -0.0296
          38   -0.0879    0.0004    0.0375   -0.0000   -0.0001    0.0000    0.0040   -0.0505
          39   -0.0001    0.0412    0.0001   -0.0005   -0.0075    0.0016   -0.0000   -0.0001
          40   -0.0083    0.0385    0.0074    0.0002   -0.0064    0.0015   -0.0002   -0.0124
          41    0.0498    0.1287    0.0116    0.0009   -0.0211    0.0047   -0.0020   -0.0225
          42   -0.0006    0.0318    0.0034    0.0001   -0.0054    0.0011   -0.0001   -0.0104
          43   -0.0083   -0.0386    0.0074   -0.0002    0.0065   -0.0015   -0.0002   -0.0125
          44    0.0495   -0.1292    0.0115   -0.0009    0.0211   -0.0047   -0.0019   -0.0224
          45    0.0006    0.0317   -0.0033    0.0001   -0.0053    0.0011    0.0001    0.0103
          46   -0.0328    0.0004   -0.0276   -0.0399   -0.1144    0.1092    0.1826    0.0067
          47    0.0736    0.0192    0.0582    0.0329    0.0100    0.0005    0.0139    0.0115
          48    0.0182    0.0015    0.0561    0.0285    0.0596   -0.0600   -0.1040   -0.0050
          49   -0.0328   -0.0004   -0.0273    0.0400    0.1145   -0.1093    0.1826    0.0054
          50    0.0736   -0.0191    0.0581   -0.0329   -0.0100   -0.0006    0.0140    0.0115
          51   -0.0183    0.0016   -0.0560    0.0286    0.0596   -0.0600    0.1040    0.0043
          52   -0.0323    0.0031   -0.0090   -0.0355   -0.0026   -0.1709   -0.1534    0.1019
          53   -0.0926   -0.0022   -0.0460   -0.0564    0.0155    0.0052    0.0050   -0.0026
          54   -0.0417    0.0016    0.0278   -0.0304   -0.0122   -0.0975   -0.0955    0.0368
          55   -0.0322   -0.0031   -0.0091    0.0355    0.0026    0.1709   -0.1533    0.1010
          56   -0.0926    0.0021   -0.0460    0.0564   -0.0155   -0.0053    0.0051   -0.0026
          57    0.0418    0.0017   -0.0278   -0.0304   -0.0122   -0.0975    0.0955   -0.0363
          58   -0.0283   -0.0002    0.0194   -0.0000    0.0000   -0.0000    0.0115    0.0359
          59    0.0009   -0.0000   -0.0021    0.0000    0.0000   -0.0000   -0.0008   -0.0062
          60   -0.0001    0.1495    0.0001    0.0011   -0.0209    0.0060    0.0000   -0.0000
          61    0.0022   -0.0002   -0.0391    0.0000    0.0000   -0.0000    0.0120    0.0812
          62    0.0027    0.0000   -0.0198    0.0000    0.0000   -0.0000    0.0100    0.0671
          63   -0.0001    0.1865    0.0000   -0.0020   -0.0246    0.0023    0.0000    0.0001


   Root No.      33        34        35        36        37        38        39        40

                33 A      34 A      35 A      36 A      37 A      38 A      39 A      40 A   

                1219.1    1318.7    1329.3    1365.9    1370.1    1388.3    1390.6    1403.9
  
           1   -0.0002   -0.0024   -0.0136    0.0255    0.0001   -0.0001   -0.0154    0.0328
           2    0.0000   -0.0131   -0.0027   -0.0145   -0.0000   -0.0000   -0.0017   -0.0100
           3   -0.0289    0.0000   -0.0000   -0.0002    0.0984   -0.0018   -0.0000    0.0000
           4    0.0000    0.0008    0.0052   -0.0294   -0.0002   -0.0003   -0.0264    0.0227
           5    0.0000   -0.0001   -0.0010    0.0041    0.0001    0.0000    0.0030   -0.0022
           6    0.0208    0.0000   -0.0000   -0.0002    0.0636   -0.0017   -0.0000    0.0000
           7    0.0000    0.0098    0.0008    0.0149    0.0001    0.0000   -0.0243   -0.0072
           8   -0.0000    0.0074   -0.0075    0.0105    0.0000   -0.0002   -0.0100    0.0172
           9   -0.0015    0.0000   -0.0000    0.0001    0.0012   -0.0427    0.0000   -0.0001
          10   -0.0000   -0.0029   -0.0174   -0.0175   -0.0001   -0.0000   -0.0005   -0.0085
          11    0.0001    0.0396    0.0007    0.0157    0.0001    0.0002    0.0143    0.0089
          12    0.0064   -0.0000   -0.0000    0.0000   -0.0115   -0.0009    0.0000   -0.0000
          13   -0.0160    0.0079    0.0099    0.0040    0.0015    0.0001    0.0109   -0.0115
          14   -0.0024    0.0018    0.0010    0.0017   -0.0011    0.0001    0.0006    0.0003
          15   -0.0089    0.0111    0.0153   -0.0016   -0.0387    0.0008    0.0106   -0.0127
          16    0.0159    0.0079    0.0099    0.0040   -0.0014    0.0001    0.0109   -0.0115
          17    0.0024    0.0018    0.0010    0.0017    0.0010   -0.0000    0.0005    0.0003
          18   -0.0089   -0.0112   -0.0153    0.0018   -0.0388    0.0006   -0.0106    0.0127
          19    0.0144    0.0075    0.0116   -0.0021    0.0158   -0.0003    0.0099   -0.0129
          20   -0.0018   -0.0012   -0.0011   -0.0011    0.0008   -0.0000   -0.0012    0.0009
          21    0.0125    0.0110    0.0127    0.0059   -0.0146    0.0006    0.0124   -0.0120
          22   -0.0144    0.0075    0.0116   -0.0020   -0.0158    0.0005    0.0099   -0.0129
          23    0.0019   -0.0012   -0.0011   -0.0011   -0.0008   -0.0000   -0.0012    0.0009
          24    0.0127   -0.0110   -0.0127   -0.0059   -0.0147    0.0004   -0.0124    0.0120
          25    0.0001    0.0072   -0.0089   -0.0148   -0.0001    0.0001    0.0066   -0.0121
          26   -0.0000   -0.0067   -0.0047   -0.0077   -0.0000   -0.0000   -0.0005   -0.0041
          27   -0.0017    0.0000   -0.0000   -0.0000    0.0028   -0.0002    0.0000   -0.0000
          28    0.0008    0.0334   -0.0032   -0.0345   -0.0002    0.0002    0.0228   -0.0304
          29   -0.0003   -0.0267   -0.0074    0.0111   -0.0000   -0.0002   -0.0172    0.0167
          30    0.0733    0.0000   -0.0000    0.0003   -0.1104    0.0014    0.0000   -0.0001
          31    0.0001   -0.0513   -0.0823    0.1066    0.0006    0.0006    0.0544   -0.0361
          32   -0.0001    0.0441    0.0734   -0.1124   -0.0008   -0.0007   -0.0663    0.0482
          33   -0.0813   -0.0000   -0.0000    0.0003   -0.1049    0.0028    0.0001   -0.0001
          34    0.0002   -0.0614   -0.0976    0.1307    0.0008    0.0008    0.0710   -0.0497
          35    0.0000   -0.0297   -0.0500    0.0804    0.0004    0.0005    0.0494   -0.0367
          36   -0.0771    0.0000    0.0000    0.0002   -0.0909    0.0026   -0.0000   -0.0000
          37   -0.0001   -0.0767    0.0123   -0.0358   -0.0001   -0.0016   -0.0402   -0.0827
          38   -0.0002   -0.1101    0.0119   -0.0527   -0.0002    0.0001   -0.0468   -0.0980
          39    0.0015   -0.0003    0.0001   -0.0004    0.0067    0.4205   -0.0012    0.0001
          40    0.0017   -0.0320   -0.0011   -0.0536    0.0007    0.1662    0.1473    0.0964
          41    0.0047   -0.0972    0.0369   -0.0443   -0.0081   -0.1882    0.0171   -0.0496
          42    0.0010   -0.0458    0.0079   -0.0529    0.0001    0.0520    0.1139    0.0534
          43   -0.0018   -0.0322   -0.0011   -0.0538   -0.0013   -0.1654    0.1489    0.0964
          44   -0.0049   -0.0972    0.0368   -0.0445    0.0078    0.1887    0.0160   -0.0493
          45    0.0010    0.0456   -0.0080    0.0525    0.0006    0.0497   -0.1131   -0.0525
          46   -0.1495   -0.0373   -0.0545    0.0084    0.0383   -0.0016   -0.0365    0.0457
          47   -0.0068   -0.0030   -0.0018   -0.0032    0.0081    0.0008   -0.0005   -0.0009
          48    0.0881    0.0150    0.0222   -0.0002   -0.0634    0.0016    0.0176   -0.0210
          49    0.1495   -0.0373   -0.0546    0.0086   -0.0384    0.0009   -0.0364    0.0457
          50    0.0070   -0.0030   -0.0018   -0.0031   -0.0082   -0.0008   -0.0005   -0.0008
          51    0.0881   -0.0150   -0.0222    0.0005   -0.0634    0.0012   -0.0175    0.0210
          52   -0.1158   -0.0411   -0.0471   -0.0186   -0.0725    0.0010   -0.0413    0.0399
          53    0.0054    0.0005    0.0019   -0.0010    0.0092   -0.0002    0.0019   -0.0031
          54   -0.0641   -0.0176   -0.0221   -0.0025   -0.0695    0.0014   -0.0173    0.0190
          55    0.1166   -0.0410   -0.0471   -0.0190    0.0721   -0.0018   -0.0413    0.0399
          56   -0.0055    0.0005    0.0019   -0.0009   -0.0093    0.0003    0.0019   -0.0031
          57   -0.0644    0.0176    0.0221    0.0029   -0.0694    0.0018    0.0173   -0.0191
          58    0.0001   -0.1103    0.1535    0.0907    0.0005   -0.0003   -0.0282    0.0461
          59   -0.0000    0.0273   -0.0480   -0.0359   -0.0002    0.0001    0.0102   -0.0199
          60    0.0067   -0.0001    0.0002    0.0001   -0.0129   -0.0007   -0.0000    0.0000
          61    0.0003   -0.0276    0.1140    0.0786    0.0004    0.0000   -0.0031    0.0374
          62    0.0003   -0.0406    0.1282    0.0958    0.0005   -0.0001   -0.0103    0.0519
          63   -0.0018   -0.0000    0.0001    0.0001    0.0095    0.0009   -0.0000    0.0001


   Root No.      41        42        43        44        45        46        47        48

                41 A      42 A      43 A      44 A      45 A      46 A      47 A      48 A   

                1451.3    1459.1    1871.1    1873.2    1892.9    2827.0    2932.5    3010.6
  
           1    0.0487   -0.0001    0.0001   -0.0281   -0.0195   -0.0286    0.0001    0.0002
           2   -0.0343    0.0000   -0.0000    0.0070   -0.0022   -0.0667    0.0003    0.0001
           3   -0.0000   -0.0722    0.0257    0.0001    0.0000    0.0000   -0.0000   -0.0000
           4    0.0091   -0.0000   -0.0000    0.0076    0.0236   -0.0000   -0.0060    0.0384
           5   -0.0002    0.0001    0.0000   -0.0005   -0.0017   -0.0000   -0.0602   -0.0023
           6    0.0001    0.1235    0.0294    0.0001    0.0000    0.0000    0.0000    0.0000
           7   -0.0131    0.0000    0.0001   -0.0136    0.0036    0.0000    0.0000   -0.0000
           8   -0.0876    0.0001    0.0001   -0.0207    0.0056    0.0005   -0.0000    0.0000
           9   -0.0000   -0.0011   -0.0000   -0.0000    0.0000    0.0000    0.0000    0.0000
          10   -0.0275    0.0000   -0.0007    0.1803   -0.0495   -0.0002   -0.0000   -0.0000
          11    0.0989   -0.0001   -0.0002    0.0566   -0.0151   -0.0010   -0.0000    0.0000
          12    0.0000    0.0055    0.0030    0.0002   -0.0001   -0.0000   -0.0000   -0.0000
          13   -0.0060    0.0295   -0.1368    0.0333    0.1124   -0.0007   -0.0001   -0.0001
          14    0.0025    0.0022    0.0003    0.0014   -0.0006   -0.0000   -0.0003    0.0000
          15   -0.0080    0.0458   -0.0211    0.0037    0.0154   -0.0012   -0.0000    0.0000
          16   -0.0061   -0.0295    0.1364    0.0342    0.1125   -0.0007   -0.0001   -0.0001
          17    0.0025   -0.0021   -0.0003    0.0014   -0.0006   -0.0000   -0.0003    0.0000
          18    0.0081    0.0458   -0.0211   -0.0039   -0.0154    0.0012    0.0000   -0.0000
          19   -0.0108   -0.0219   -0.1371   -0.0351   -0.1124    0.0007    0.0004   -0.0021
          20   -0.0003    0.0041    0.0030    0.0008    0.0026   -0.0003   -0.0000   -0.0003
          21   -0.0049   -0.0624   -0.0236   -0.0056   -0.0164    0.0000   -0.0002    0.0041
          22   -0.0108    0.0220    0.1375   -0.0341   -0.1123    0.0007    0.0004   -0.0021
          23   -0.0003   -0.0041   -0.0031    0.0008    0.0026   -0.0003   -0.0000   -0.0003
          24    0.0048   -0.0624   -0.0237    0.0055    0.0164   -0.0000    0.0002   -0.0041
          25    0.0112    0.0000    0.0006   -0.1468    0.0394    0.0004    0.0000    0.0000
          26   -0.0108    0.0000    0.0002   -0.0430    0.0113   -0.0004    0.0000    0.0000
          27    0.0000   -0.0015    0.0000   -0.0002    0.0000    0.0000    0.0000    0.0000
          28    0.0036    0.0000   -0.0002    0.0393   -0.0098    0.3431   -0.0004   -0.0004
          29   -0.0125    0.0000    0.0001   -0.0167   -0.0006    0.8139   -0.0015   -0.0010
          30    0.0001    0.0532    0.0194    0.0001   -0.0000   -0.0005    0.0000    0.0000
          31   -0.0048    0.0000   -0.0000    0.0053    0.0164    0.0007    0.3137   -0.2876
          32    0.0116   -0.0001    0.0000    0.0002    0.0003    0.0002    0.3077   -0.3348
          33   -0.0001   -0.1256    0.0310    0.0001    0.0000   -0.0000   -0.0002    0.0002
          34   -0.0112    0.0000   -0.0000    0.0027    0.0089   -0.0015   -0.2436   -0.1720
          35   -0.0099   -0.0001    0.0000   -0.0014   -0.0043    0.0022    0.4203    0.3638
          36   -0.0001   -0.1124    0.0232    0.0001    0.0000   -0.0000   -0.0002   -0.0002
          37    0.0994   -0.0001   -0.0001    0.0296   -0.0080   -0.0017   -0.0000    0.0000
          38    0.0811   -0.0001   -0.0001    0.0325   -0.0086    0.0020    0.0000   -0.0000
          39    0.0001    0.0018    0.0002    0.0000   -0.0000   -0.0000   -0.0000    0.0000
          40   -0.0394    0.0016    0.0000   -0.0061    0.0016   -0.0006   -0.0000    0.0000
          41    0.1370    0.0006    0.0006   -0.0215    0.0057    0.0001    0.0000    0.0000
          42    0.0261    0.0002    0.0005   -0.0006    0.0004    0.0009    0.0000   -0.0000
          43   -0.0390   -0.0015    0.0000   -0.0061    0.0016   -0.0006   -0.0000    0.0000
          44    0.1366   -0.0010   -0.0004   -0.0214    0.0056    0.0001    0.0000    0.0000
          45   -0.0265    0.0003    0.0005    0.0006   -0.0004   -0.0009   -0.0000    0.0000
          46    0.0347    0.0663    0.0207   -0.0005    0.0070   -0.0052   -0.0000   -0.0017
          47   -0.0049   -0.0007   -0.0046   -0.0012   -0.0056   -0.0017   -0.0008    0.0002
          48   -0.0158   -0.0128    0.0755    0.0226    0.0705   -0.0051   -0.0002   -0.0019
          49    0.0345   -0.0664   -0.0207   -0.0007    0.0069   -0.0052   -0.0000   -0.0017
          50   -0.0049    0.0007    0.0047   -0.0012   -0.0057   -0.0017   -0.0008    0.0002
          51    0.0157   -0.0129    0.0758   -0.0221   -0.0704    0.0051    0.0002    0.0019
          52    0.0158    0.0505   -0.0187   -0.0002   -0.0050    0.0016   -0.0029    0.0285
          53   -0.0043    0.0021   -0.0049   -0.0019   -0.0059   -0.0009   -0.0019    0.0027
          54    0.0114   -0.0206    0.0737    0.0215    0.0695   -0.0023    0.0031   -0.0419
          55    0.0157   -0.0505    0.0187   -0.0000   -0.0050    0.0016   -0.0029    0.0285
          56   -0.0043   -0.0021    0.0050   -0.0019   -0.0060   -0.0009   -0.0019    0.0027
          57   -0.0115   -0.0206    0.0739   -0.0209   -0.0694    0.0023   -0.0031    0.0419
          58   -0.0747    0.0001   -0.0001    0.0126   -0.0026    0.0040    0.0000   -0.0000
          59    0.0174   -0.0000    0.0005   -0.1154    0.0305    0.0033    0.0000   -0.0001
          60   -0.0001    0.0074    0.0004   -0.0000    0.0000    0.0000    0.0000   -0.0000
          61    0.0265   -0.0000    0.0002   -0.0483    0.0141    0.0028   -0.0000   -0.0001
          62    0.0105   -0.0000   -0.0004    0.1050   -0.0278   -0.0022    0.0000    0.0000
          63    0.0000   -0.0063    0.0000   -0.0000    0.0000    0.0000   -0.0000   -0.0000


   Root No.      49        50        51        52        53        54        55        56

                49 A      50 A      51 A      52 A      53 A      54 A      55 A      56 A   

                3046.2    3047.6    3064.9    3065.6    3068.2    3076.8    3137.0    3140.4
  
           1    0.0000   -0.0001    0.0000    0.0000   -0.0006   -0.0000   -0.0005    0.0002
           2   -0.0000    0.0001    0.0000    0.0000   -0.0003   -0.0004    0.0002    0.0003
           3    0.0003    0.0000   -0.0001   -0.0001   -0.0000   -0.0000   -0.0000   -0.0000
           4   -0.0000    0.0023   -0.0000   -0.0000    0.0030    0.0000    0.0000    0.0000
           5   -0.0000    0.0001   -0.0000   -0.0000    0.0000   -0.0000    0.0000    0.0000
           6   -0.0002   -0.0000    0.0000    0.0000    0.0000   -0.0000    0.0000   -0.0000
           7    0.0000   -0.0001   -0.0000    0.0000    0.0002   -0.0481    0.0007    0.0014
           8   -0.0000    0.0000    0.0000   -0.0000   -0.0000    0.0137   -0.0005    0.0001
[...]
 REDUCED MASS        0.2793         C  2 -- H 11          +6.7% ( 28.2%)      8.2%
 EFFECTIVE MASS      3.6227
 FORCE CONSTANT      0.3182

 VIBRATION         40   40A           ATOM PAIR      ENERGY CONTRIBUTION    RADIAL
 FREQUENCY          1403.91         C  1 -- C  5          +8.7% ( 36.0%)     51.9%
 TRANSITION DIPOLE   0.1214         C  1 -- C  6          +8.7% ( 35.9%)     51.7%
 TRAVEL (Ang.)       0.3663         C  3 -- H 13          +8.2% ( 35.0%)      9.6%
 REDUCED MASS        0.3580         C  1 -- C  4          +7.9% ( 34.3%)     90.4%
 EFFECTIVE MASS      4.8563
 FORCE CONSTANT      0.4158

 VIBRATION         41   41A           ATOM PAIR      ENERGY CONTRIBUTION    RADIAL
 FREQUENCY          1451.32         C  3 -- C  4         +26.1% ( 75.6%)     88.1%
 TRANSITION DIPOLE   0.0702         C  1 -- C  4         +18.3% ( 63.3%)     90.9%
 TRAVEL (Ang.)       0.1303         C  4 -- C  9         +11.2% ( 49.5%)      0.3%
 REDUCED MASS        2.7377         C  3 -- H 14         +10.4% ( 47.6%)      2.7%
 EFFECTIVE MASS      9.6093         C  3 -- H 15         +10.3% ( 47.6%)      2.7%
 FORCE CONSTANT      3.3975

 VIBRATION         42   42A           ATOM PAIR      ENERGY CONTRIBUTION    RADIAL
 FREQUENCY          1459.14         C  2 -- C  8         +17.3% ( 65.6%)     80.3%
 TRANSITION DIPOLE   0.0491         C  2 -- C  7         +17.3% ( 65.6%)     80.3%
 TRAVEL (Ang.)       0.1365         C  2 -- H 11         +11.8% ( 54.1%)      0.0%
 REDUCED MASS        2.4806         C  2 -- H 12         +11.4% ( 53.3%)      0.0%
 EFFECTIVE MASS     10.8738
 FORCE CONSTANT      3.1117

 VIBRATION         43   43A           ATOM PAIR      ENERGY CONTRIBUTION    RADIAL
 FREQUENCY          1871.14         C  5 -- C  8         +22.3% ( 70.0%)    100.0%
 TRANSITION DIPOLE   0.0598         C  6 -- C  7         +22.2% ( 69.8%)    100.0%
 TRAVEL (Ang.)       0.1148         C  2 -- C  8          +7.3% ( 40.0%)     65.5%
 REDUCED MASS        2.7361         C  2 -- C  7          +7.3% ( 39.9%)     65.5%
 EFFECTIVE MASS     11.9051
 FORCE CONSTANT      5.6442

 VIBRATION         44   44A           ATOM PAIR      ENERGY CONTRIBUTION    RADIAL
 FREQUENCY          1873.18         C  4 -- C  9         +41.2% ( 94.9%)    100.0%
 TRANSITION DIPOLE   0.3126         C  3 -- C  4         +15.8% ( 58.7%)     37.1%
 TRAVEL (Ang.)       0.0873         C  1 -- C  4         +15.8% ( 58.7%)     31.3%
 REDUCED MASS        4.7246         C  9 -- H 21          +9.3% ( 45.0%)     11.7%
 EFFECTIVE MASS     11.8258
 FORCE CONSTANT      9.7673

 VIBRATION         45   45A           ATOM PAIR      ENERGY CONTRIBUTION    RADIAL
 FREQUENCY          1892.94         C  6 -- C  7         +20.6% ( 66.5%)    100.0%
 TRANSITION DIPOLE   0.2960         C  5 -- C  8         +20.6% ( 66.4%)    100.0%
 TRAVEL (Ang.)       0.1232         C  2 -- C  7          +6.7% ( 37.9%)     41.1%
 REDUCED MASS        2.3467         C  2 -- C  8          +6.7% ( 37.8%)     41.1%
 EFFECTIVE MASS     11.8578
 FORCE CONSTANT      4.9543

 VIBRATION         46   46A           ATOM PAIR      ENERGY CONTRIBUTION    RADIAL
 FREQUENCY          2827.04         C  1 -- H 10         +96.9% (100.0%)    100.0%
 TRANSITION DIPOLE   0.0901         C  1 -- C  5          +1.0% ( 10.3%)      7.2%
 TRAVEL (Ang.)       0.1602         C  1 -- C  6          +1.0% ( 10.3%)      7.2%
 REDUCED MASS        0.9294         C  1 -- C  4          +1.0% ( 10.3%)     10.8%
 EFFECTIVE MASS      1.4404
 FORCE CONSTANT      4.3764

 VIBRATION         47   47A           ATOM PAIR      ENERGY CONTRIBUTION    RADIAL
 FREQUENCY          2932.49         C  2 -- H 12         +53.4% ( 75.8%)     97.0%
 TRANSITION DIPOLE   0.0365         C  2 -- H 11         +44.4% ( 69.1%)     96.0%
 TRAVEL (Ang.)       0.2100         C  2 -- C  8          +1.1% ( 10.8%)      0.0%
 REDUCED MASS        0.5216         C  2 -- C  7          +1.1% ( 10.8%)      0.0%
 EFFECTIVE MASS      1.5347
 FORCE CONSTANT      2.6427

 VIBRATION         48   48A           ATOM PAIR      ENERGY CONTRIBUTION    RADIAL
 FREQUENCY          3010.62         C  2 -- H 11         +53.3% ( 72.0%)     98.2%
 TRANSITION DIPOLE   0.0886         C  2 -- H 12         +43.8% ( 65.3%)     97.1%
 TRAVEL (Ang.)       0.2174         C  8 -- H 19          +0.8% (  8.7%)     99.9%
 REDUCED MASS        0.4738         C  7 -- H 18          +0.8% (  8.7%)     99.9%
 EFFECTIVE MASS      1.2841
 FORCE CONSTANT      2.5301

 VIBRATION         49   49A           ATOM PAIR      ENERGY CONTRIBUTION    RADIAL
 FREQUENCY          3046.17         C  8 -- H 19         +26.7% ( 52.4%)    100.0%
 TRANSITION DIPOLE   0.0063         C  7 -- H 18         +25.4% ( 51.2%)    100.0%
 TRAVEL (Ang.)       0.3078         C  5 -- H 17         +23.3% ( 49.0%)    100.0%
 REDUCED MASS        0.2336         C  6 -- H 16         +22.2% ( 47.9%)    100.0%
 EFFECTIVE MASS      1.4460
 FORCE CONSTANT      1.2771

 VIBRATION         50   50A           ATOM PAIR      ENERGY CONTRIBUTION    RADIAL
 FREQUENCY          3047.60         C  7 -- H 18         +25.4% ( 51.1%)    100.0%
 TRANSITION DIPOLE   0.4048         C  6 -- H 16         +24.3% ( 50.0%)    100.0%
 TRAVEL (Ang.)       0.3105         C  8 -- H 19         +24.2% ( 49.9%)    100.0%
 REDUCED MASS        0.2295         C  5 -- H 17         +23.1% ( 48.8%)    100.0%
 EFFECTIVE MASS      1.4650
 FORCE CONSTANT      1.2557

 VIBRATION         51   51A           ATOM PAIR      ENERGY CONTRIBUTION    RADIAL
 FREQUENCY          3064.92         C  3 -- H 15         +44.9% ( 69.0%)     97.1%
 TRANSITION DIPOLE   0.1867         C  3 -- H 14         +44.5% ( 68.7%)     97.0%
 TRAVEL (Ang.)       0.2281         C  5 -- H 17          +2.2% ( 15.2%)     99.9%
 REDUCED MASS        0.4227         C  8 -- H 19          +2.2% ( 15.2%)     99.9%
 EFFECTIVE MASS      1.5102
 FORCE CONSTANT      2.3397

 VIBRATION         52   52A           ATOM PAIR      ENERGY CONTRIBUTION    RADIAL
 FREQUENCY          3065.64         C  5 -- H 17         +23.8% ( 49.6%)     99.9%
 TRANSITION DIPOLE   0.3787         C  6 -- H 16         +23.2% ( 48.9%)     99.9%
 TRAVEL (Ang.)       0.3336         C  8 -- H 19         +20.4% ( 46.0%)     99.9%
 REDUCED MASS        0.1977         C  7 -- H 18         +20.0% ( 45.4%)     99.9%
 EFFECTIVE MASS      1.5672
 FORCE CONSTANT      1.0945

 VIBRATION         53   53A           ATOM PAIR      ENERGY CONTRIBUTION    RADIAL
 FREQUENCY          3068.23         C  6 -- H 16         +25.1% ( 50.8%)     99.9%
 TRANSITION DIPOLE   0.0422         C  5 -- H 17         +24.5% ( 50.2%)     99.9%
 TRAVEL (Ang.)       0.3091         C  7 -- H 18         +23.3% ( 48.9%)     99.9%
 REDUCED MASS        0.2300         C  8 -- H 19         +22.7% ( 48.3%)     99.9%
 EFFECTIVE MASS      1.6050
 FORCE CONSTANT      1.2756

 VIBRATION         54   54A           ATOM PAIR      ENERGY CONTRIBUTION    RADIAL
 FREQUENCY          3076.84         C  3 -- H 13         +60.2% ( 80.0%)     98.7%
 TRANSITION DIPOLE   0.0540         C  3 -- H 14         +19.6% ( 45.7%)     86.4%
 TRAVEL (Ang.)       0.2162         C  3 -- H 15         +19.1% ( 45.1%)     86.0%
 REDUCED MASS        0.4689         C  3 -- C  4          +1.1% ( 10.6%)      0.0%
 EFFECTIVE MASS      1.5137
 FORCE CONSTANT      2.6153

 VIBRATION         55   55A           ATOM PAIR      ENERGY CONTRIBUTION    RADIAL
 FREQUENCY          3136.96         C  9 -- H 20         +61.3% ( 80.3%)     98.2%
 TRANSITION DIPOLE   0.1840         C  9 -- H 21         +37.3% ( 62.6%)     95.2%
 TRAVEL (Ang.)       0.1959         C  4 -- C  9          +1.3% ( 11.7%)      1.3%
 REDUCED MASS        0.5600
 EFFECTIVE MASS      1.6009
 FORCE CONSTANT      3.2467

 VIBRATION         56   56A           ATOM PAIR      ENERGY CONTRIBUTION    RADIAL
 FREQUENCY          3140.35         C  9 -- H 21         +61.8% ( 78.6%)     97.2%
 TRANSITION DIPOLE   0.3199         C  9 -- H 20         +36.6% ( 60.5%)     92.1%
 TRAVEL (Ang.)       0.2045         C  4 -- C  9          +1.5% ( 12.3%)     97.6%
 REDUCED MASS        0.5135
 EFFECTIVE MASS      1.3920
 FORCE CONSTANT      2.9836

 VIBRATION         57   57A           ATOM PAIR      ENERGY CONTRIBUTION    RADIAL
 FREQUENCY          3163.77         C  3 -- H 13         +38.7% ( 60.0%)     97.8%
 TRANSITION DIPOLE   0.0637         C  3 -- H 14         +30.5% ( 53.2%)     96.5%
 TRAVEL (Ang.)       0.2541         C  3 -- H 15         +30.4% ( 53.1%)     96.5%
 REDUCED MASS        0.3302         C  3 -- C  4          +0.3% (  5.3%)     99.2%
 EFFECTIVE MASS      1.1392
 FORCE CONSTANT      1.9472

      SYMMETRY NUMBER FOR POINT-GROUP C1  =  1


          SYSTEM IS A GROUND STATE



 InChI=1S/C9H12/c1-8(2)9-6-4-3-5-7-9/h4-7,9H,1,3H2,2H3


          MOLECULE IS NOT LINEAR

          THERE ARE 57 GENUINE VIBRATIONS IN THIS SYSTEM
          THIS THERMODYNAMICS CALCULATION IS LIMITED TO
          MOLECULES WHICH HAVE NO INTERNAL ROTATIONS




                    CALCULATED THERMODYNAMIC PROPERTIES
                                          *
   TEMP. (K)   PARTITION FUNCTION   H.O.F.    ENTHALPY  HEAT CAPACITY ENTROPY
                                   KCAL/MOL   CAL/MOLE    CAL/K/MOL  CAL/K/MOL


 298.00  VIB.     0.4795D+03                  3937.1546    28.4554    25.4785
         ROT.     0.4329D+06                   888.2803     2.9808    28.7711
         INT.     0.2076D+09                  4825.4349    31.4363    54.2497
         TRA.     0.1274D+28                  1480.4672     4.9680    40.2640
         TOT.                       31.561    6305.9021    36.4043    94.5137

 200.00  VIB.     0.5642D+02                  1709.8660    17.2817    16.5634
         ROT.     0.2380D+06                   596.1613     2.9808    27.5825
         INT.     0.1343D+08                  2306.0272    20.2625    44.1459
         TRA.     0.7004D+27                   993.6021     4.9680    38.2829
         TOT.                       28.554    3299.6294    25.2305    82.4288

 210.00  VIB.     0.6997D+02                  1887.8803    18.3263    17.4318
         ROT.     0.2561D+06                   625.9693     2.9808    27.7279
         INT.     0.1792D+08                  2513.8497    21.3071    45.1597
         TRA.     0.7536D+27                  1043.2822     4.9680    38.5253
         TOT.                       28.812    3557.1319    26.2751    83.6850

 220.00  VIB.     0.8681D+02                  2076.4890    19.4002    18.3090
         ROT.     0.2746D+06                   655.7774     2.9808    27.8666
         INT.     0.2384D+08                  2732.2664    22.3810    46.1755
         TRA.     0.8081D+27                  1092.9623     4.9680    38.7564
         TOT.                       29.080    3825.2287    27.3490    84.9320

 230.00  VIB.     0.1078D+03                  2275.9735    20.5010    19.1955
         ROT.     0.2935D+06                   685.5855     2.9808    27.9991
         INT.     0.3163D+08                  2961.5590    23.4818    47.1946
         TRA.     0.8638D+27                  1142.6424     4.9680    38.9773
         TOT.                       29.359    4104.2014    28.4498    86.1719

 240.00  VIB.     0.1339D+03                  2486.5893    21.6259    20.0917
         ROT.     0.3129D+06                   715.3935     2.9808    28.1259
         INT.     0.4188D+08                  3201.9828    24.6067    48.2177
         TRA.     0.9207D+27                  1192.3226     4.9680    39.1887
         TOT.                       29.649    4394.3053    29.5747    87.4064

 250.00  VIB.     0.1664D+03                  2708.5615    22.7717    20.9977
         ROT.     0.3326D+06                   745.2016     2.9808    28.2476
         INT.     0.5535D+08                  3453.7631    25.7525    49.2453
         TRA.     0.9789D+27                  1242.0027     4.9680    39.3915
         TOT.                       29.950    4695.7657    30.7206    88.6368

 260.00  VIB.     0.2071D+03                  2942.0826    23.9351    21.9135
         ROT.     0.3528D+06                   775.0097     2.9808    28.3645
         INT.     0.7304D+08                  3717.0923    26.9159    50.2780
         TRA.     0.1038D+28                  1291.6828     4.9680    39.5863
         TOT.                       30.263    5008.7750    31.8839    89.8643

 270.00  VIB.     0.2579D+03                  3187.3110    25.1126    22.8388
         ROT.     0.3733D+06                   804.8177     2.9808    28.4770
         INT.     0.9627D+08                  3992.1287    28.0934    51.3158
         TRA.     0.1099D+28                  1341.3629     4.9680    39.7738
         TOT.                       30.588    5333.4916    33.0614    91.0897

 280.00  VIB.     0.3215D+03                  3444.3702    26.3007    23.7735
         ROT.     0.3943D+06                   834.6258     2.9808    28.5854
         INT.     0.1268D+09                  4278.9959    29.2815    52.3590
         TRA.     0.1160D+28                  1391.0430     4.9680    39.9545
         TOT.                       30.925    5670.0389    34.2495    92.3135

 290.00  VIB.     0.4013D+03                  3713.3496    27.4961    24.7173
         ROT.     0.4156D+06                   864.4339     2.9808    28.6900
         INT.     0.1668D+09                  4577.7834    30.4769    53.4073
         TRA.     0.1223D+28                  1440.7231     4.9680    40.1289
         TOT.                       31.273    6018.5065    35.4449    93.5362

 300.00  VIB.     0.5014D+03                  3994.3056    28.6955    25.6697
         ROT.     0.4372D+06                   894.2419     2.9808    28.7911
         INT.     0.2192D+09                  4888.5475    31.6763    54.4608
         TRA.     0.1287D+28                  1490.4032     4.9680    40.2973
         TOT.                       31.634    6378.9507    36.6443    94.7580

 310.00  VIB.     0.6273D+03                  4287.2628    29.8959    26.6302
         ROT.     0.4593D+06                   924.0500     2.9808    28.8888
         INT.     0.2881D+09                  5211.3128    32.8767    55.5190
         TRA.     0.1352D+28                  1540.0833     4.9680    40.4602
         TOT.                       32.006    6751.3961    37.8447    95.9792

 320.00  VIB.     0.7856D+03                  4592.2166    31.0944    27.5983
         ROT.     0.4817D+06                   953.8580     2.9808    28.9835
         INT.     0.3784D+09                  5546.0746    34.0752    56.5817
         TRA.     0.1418D+28                  1589.7634     4.9680    40.6179
         TOT.                       32.390    7135.8380    39.0432    97.1996

 330.00  VIB.     0.9851D+03                  4909.1349    32.2884    28.5734
         ROT.     0.5044D+06                   983.6661     2.9808    29.0752
         INT.     0.4969D+09                  5892.8010    35.2692    57.6486
         TRA.     0.1485D+28                  1639.4435     4.9680    40.7708
         TOT.                       32.787    7532.2446    40.2372    98.4193

 340.00  VIB.     0.1237D+04                  5237.9610    33.4755    29.5549
         ROT.     0.5275D+06                  1013.4742     2.9808    29.1642
         INT.     0.6524D+09                  6251.4352    36.4563    58.7191
         TRA.     0.1553D+28                  1689.1236     4.9680    40.9191
         TOT.                       33.195    7940.5588    41.4243    99.6382

 350.00  VIB.     0.1554D+04                  5578.6157    34.6538    30.5423
         ROT.     0.5510D+06                  1043.2822     2.9808    29.2506
         INT.     0.8563D+09                  6621.8979    37.6346    59.7929
         TRA.     0.1622D+28                  1738.8037     4.9680    41.0631
         TOT.                       33.615    8360.7017    42.6026   100.8560

 360.00  VIB.     0.1956D+04                  5931.0001    35.8212    31.5349
         ROT.     0.5748D+06                  1073.0903     2.9808    29.3346
         INT.     0.1124D+10                  7004.0904    38.8020    60.8695
         TRA.     0.1692D+28                  1788.4838     4.9680    41.2031
         TOT.                       34.047    8792.5742    43.7700   102.0726

 370.00  VIB.     0.2463D+04                  6294.9978    36.9762    32.5322
         ROT.     0.5989D+06                  1102.8984     2.9808    29.4162
         INT.     0.1475D+10                  7397.8962    39.9570    61.9484
         TRA.     0.1762D+28                  1838.1639     4.9680    41.3392
         TOT.                       34.491    9236.0601    44.9250   103.2876

 380.00  VIB.     0.3106D+04                  6670.4776    38.1174    33.5335
         ROT.     0.6233D+06                  1132.7064     2.9808    29.4957
         INT.     0.1936D+10                  7803.1840    41.0982    63.0292
         TRA.     0.1834D+28                  1887.8440     4.9680    41.4717
         TOT.                       34.946    9691.0280    46.0662   104.5008

 390.00  VIB.     0.3921D+04                  7057.2953    39.2436    34.5382
         ROT.     0.6481D+06                  1162.5145     2.9808    29.5731
         INT.     0.2541D+10                  8219.8098    42.2244    64.1113
         TRA.     0.1907D+28                  1937.5242     4.9680    41.6007
         TOT.                       35.412   10157.3339    47.1924   105.7120

 400.00  VIB.     0.4955D+04                  7455.2962    40.3539    35.5458
         ROT.     0.6732D+06                  1192.3226     2.9808    29.6486
         INT.     0.3336D+10                  8647.6187    43.3347    65.1944
         TRA.     0.1981D+28                  1987.2043     4.9680    41.7265
         TOT.                       35.889   10634.8230    48.3027   106.9209

   *: NOTE: HEATS OF FORMATION ARE RELATIVE TO THE
            ELEMENTS IN THEIR STANDARD STATE AT 298K
              (=  Standard Enthalpy of Formation).

            Hvib:  Zero-point energy is not included.
                   frequencies of less than zero cm-1 are not included.
            Hrot = (3/2)RT
            Htra = (3/2)RT + pV = (5/2)RT

            Heat capacity is Cp, not Cv

          For more information, see: HTTP://OpenMOPAC.net/Manual/thermochemistry.html


           FORCE CONSTANT IN CARTESIAN COORDINATES (Millidynes/A)

    ATOM   CHEMICAL       X               Y               Z
   NUMBER   SYMBOL  FORCE CONSTANT  FORCE CONSTANT  FORCE CONSTANT

      1       C        9.257287        8.024916        9.067187
      2       C        9.058699        7.662533        9.380493
      3       C        8.523408        8.971556        7.956457
      4       C       14.896399        9.854886        3.016893
      5       C       15.436293        2.479763        9.330895
      6       C       15.436670        2.478232        9.332175
      7       C       15.349828        2.402521        9.549823
      8       C       15.349597        2.403856        9.548337
      9       C       14.916814        9.715148        1.937469
     10       H        1.265441        3.862326        0.618598
     11       H        2.611900        2.913998        0.689832
     12       H        1.563045        3.940940        0.648024
     13       H        3.681109        2.440329        0.649211
     14       H        2.071978        0.831341        3.732342
     15       H        2.042011        0.832275        3.760781
     16       H        1.897712        0.376882        3.970210
     17       H        1.897740        0.377746        3.969257
     18       H        1.905133        0.366263        3.976366
     19       H        1.905170        0.366906        3.975620
     20       H        1.095241        5.030214        0.330182
     21       H        3.373430        2.758563        0.333269

 **********************
 *                    *
 * JOB ENDED NORMALLY *
 *                    *
 **********************



 TOTAL JOB TIME:             4.05 SECONDS

 == MOPAC DONE ==
