 *******************************************************************************
 **                                                                           **
 **                              MOPAC v23.1.2                                **
 **                                                                           **
 *******************************************************************************
 **          Digital Object Identifier (DOI): 10.5281/zenodo.6511958          **
 **    Visit the DOI location for information on how to cite this program.    **
 *******************************************************************************

                              PM3 CALCULATION RESULTS

 *******************************************************************************
 *  CALCULATION DONE: (MAX THREADS = 1)              Tue Jun  3 16:30:43 2025  *
 *  PM3        - The PM3 Hamiltonian to be used
 *  PRECISE    - TIGHTER CRITERIA TO BE USED
 *  NOSYM      - POINT-GROUP SYMMETRY SET TO C1
 *  THREADS=1  - MULTI-THREADING NOT USED
 *  T=         - A TIME OF 172800.0 SECONDS REQUESTED
 *  DUMP=N     - RESTART FILE WRITTEN EVERY 7200.0 SECONDS REQUESTED
 *******************************************************************************
pm3  precise nosym THREADS=1
 InChI=1S/C8H8/c1-2-4-8-6-5-7(8)3-1/h1-5,8H,6H2

   ATOM   CHEMICAL          X               Y               Z
  NUMBER   SYMBOL      (ANGSTROMS)     (ANGSTROMS)     (ANGSTROMS)

     1       C         -0.73570000  *  -0.59760000  *  -0.40040000  *
     2       C         -1.88880000  *  -0.22020000  *   0.36520000  *
     3       C         -0.31660000  *   0.81960000  *  -0.42360000  *
     4       C         -1.49740000  *   1.21520000  *   0.18550000  *
     5       C          0.37590000  *  -1.38140000  *   0.26970000  *
     6       C          1.03820000  *   1.31770000  *  -0.57770000  *
     7       C          1.65480000  *  -0.93510000  *   0.23510000  *
     8       C          2.00100000  *   0.43320000  *  -0.27390000  *
     9       H         -0.97300000  *  -0.97410000  *  -1.42070000  *
    10       H         -1.84550000  *  -0.52960000  *   1.43370000  *
    11       H         -2.85170000  *  -0.45400000  *  -0.13920000  *
    12       H          0.16340000  *  -2.36660000  *   0.66470000  *
    13       H         -1.86540000  *   2.14800000  *   0.59080000  *
    14       H          2.44560000  *  -1.56080000  *   0.62820000  *
    15       H          3.03890000  *   0.73690000  *  -0.31480000  *
    16       H          1.25610000  *   2.34880000  *  -0.82250000  *



          CARTESIAN COORDINATES 

    NO.       ATOM           X           Y           Z

     1         C         -0.7357     -0.5976     -0.4004
     2         C         -1.8888     -0.2202      0.3652
     3         C         -0.3166      0.8196     -0.4236
     4         C         -1.4974      1.2152      0.1855
     5         C          0.3759     -1.3814      0.2697
     6         C          1.0382      1.3177     -0.5777
     7         C          1.6548     -0.9351      0.2351
     8         C          2.0010      0.4332     -0.2739
     9         H         -0.9730     -0.9741     -1.4207
    10         H         -1.8455     -0.5296      1.4337
    11         H         -2.8517     -0.4540     -0.1392
    12         H          0.1634     -2.3666      0.6647
    13         H         -1.8654      2.1480      0.5908
    14         H          2.4456     -1.5608      0.6282
    15         H          3.0389      0.7369     -0.3148
    16         H          1.2561      2.3488     -0.8225

  H: (PM3): J. J. P. STEWART, J. COMP. CHEM. 10, 209 (1989).
  C: (PM3): J. J. P. STEWART, J. COMP. CHEM. 10, 209 (1989).

           Empirical Formula: C8 H8  =    16 atoms



      MOLECULAR POINT GROUP   :   C1  


      RHF CALCULATION, NO. OF DOUBLY OCCUPIED LEVELS = 20


          Geometry optimization using EF

          DIAGONAL MATRIX USED AS START HESSIAN

 CYCLE:     1 TIME:   0.008 TIME LEFT:  2.00D  GRAD.:   232.680 HEAT:  91.67202
 CYCLE:     2 TIME:   0.004 TIME LEFT:  2.00D  GRAD.:   205.358 HEAT:  90.25320
 CYCLE:     3 TIME:   0.012 TIME LEFT:  2.00D  GRAD.:    96.605 HEAT:  80.91158
 CYCLE:     4 TIME:   0.008 TIME LEFT:  2.00D  GRAD.:    67.760 HEAT:  79.14687
 CYCLE:     5 TIME:   0.004 TIME LEFT:  2.00D  GRAD.:    64.273 HEAT:  78.39159
 CYCLE:     6 TIME:   0.008 TIME LEFT:  2.00D  GRAD.:    36.749 HEAT:  77.55397
 CYCLE:     7 TIME:   0.008 TIME LEFT:  2.00D  GRAD.:    23.811 HEAT:  77.23900
 CYCLE:     8 TIME:   0.004 TIME LEFT:  2.00D  GRAD.:    26.436 HEAT:  77.02819
 CYCLE:     9 TIME:   0.004 TIME LEFT:  2.00D  GRAD.:    31.665 HEAT:  76.85168
 CYCLE:    10 TIME:   0.008 TIME LEFT:  2.00D  GRAD.:    33.069 HEAT:  76.78557
 CYCLE:    11 TIME:   0.008 TIME LEFT:  2.00D  GRAD.:    19.524 HEAT:  76.56047
 CYCLE:    12 TIME:   0.008 TIME LEFT:  2.00D  GRAD.:    10.452 HEAT:  76.47822
 CYCLE:    13 TIME:   0.004 TIME LEFT:  2.00D  GRAD.:    11.931 HEAT:  76.44457
 CYCLE:    14 TIME:   0.004 TIME LEFT:  2.00D  GRAD.:    12.252 HEAT:  76.39256
 CYCLE:    15 TIME:   0.008 TIME LEFT:  2.00D  GRAD.:    11.723 HEAT:  76.35467
 CYCLE:    16 TIME:   0.004 TIME LEFT:  2.00D  GRAD.:     4.599 HEAT:  76.30288
 CYCLE:    17 TIME:   0.008 TIME LEFT:  2.00D  GRAD.:     7.981 HEAT:  76.29508
 CYCLE:    18 TIME:   0.004 TIME LEFT:  2.00D  GRAD.:     4.872 HEAT:  76.27558
 CYCLE:    19 TIME:   0.004 TIME LEFT:  2.00D  GRAD.:     5.644 HEAT:  76.25874
 CYCLE:    20 TIME:   0.004 TIME LEFT:  2.00D  GRAD.:     4.354 HEAT:  76.23721
 CYCLE:    21 TIME:   0.008 TIME LEFT:  2.00D  GRAD.:     4.363 HEAT:  76.22017
 CYCLE:    22 TIME:   0.004 TIME LEFT:  2.00D  GRAD.:     2.626 HEAT:  76.21266
 CYCLE:    23 TIME:   0.004 TIME LEFT:  2.00D  GRAD.:     2.367 HEAT:  76.20674
 CYCLE:    24 TIME:   0.008 TIME LEFT:  2.00D  GRAD.:     2.530 HEAT:  76.19648
 CYCLE:    25 TIME:   0.004 TIME LEFT:  2.00D  GRAD.:     2.443 HEAT:  76.18410
 CYCLE:    26 TIME:   0.008 TIME LEFT:  2.00D  GRAD.:     1.909 HEAT:  76.18018
 CYCLE:    27 TIME:   0.004 TIME LEFT:  2.00D  GRAD.:     1.386 HEAT:  76.17679
 CYCLE:    28 TIME:   0.008 TIME LEFT:  2.00D  GRAD.:     1.306 HEAT:  76.17355
 CYCLE:    29 TIME:   0.004 TIME LEFT:  2.00D  GRAD.:     0.942 HEAT:  76.17144
 CYCLE:    30 TIME:   0.004 TIME LEFT:  2.00D  GRAD.:     0.579 HEAT:  76.17061
 CYCLE:    31 TIME:   0.004 TIME LEFT:  2.00D  GRAD.:     0.534 HEAT:  76.17019
 CYCLE:    32 TIME:   0.008 TIME LEFT:  2.00D  GRAD.:     0.438 HEAT:  76.16987
 CYCLE:    33 TIME:   0.004 TIME LEFT:  2.00D  GRAD.:     0.303 HEAT:  76.16961
 CYCLE:    34 TIME:   0.004 TIME LEFT:  2.00D  GRAD.:     0.262 HEAT:  76.16943
 CYCLE:    35 TIME:   0.008 TIME LEFT:  2.00D  GRAD.:     0.251 HEAT:  76.16931
 CYCLE:    36 TIME:   0.004 TIME LEFT:  2.00D  GRAD.:     0.193 HEAT:  76.16920
 CYCLE:    37 TIME:   0.008 TIME LEFT:  2.00D  GRAD.:     0.134 HEAT:  76.16914
 CYCLE:    38 TIME:   0.004 TIME LEFT:  2.00D  GRAD.:     0.108 HEAT:  76.16910
 CYCLE:    39 TIME:   0.004 TIME LEFT:  2.00D  GRAD.:     0.098 HEAT:  76.16906
 CYCLE:    40 TIME:   0.008 TIME LEFT:  2.00D  GRAD.:     0.079 HEAT:  76.16904
 CYCLE:    41 TIME:   0.004 TIME LEFT:  2.00D  GRAD.:     0.071 HEAT:  76.16903
 CYCLE:    42 TIME:   0.004 TIME LEFT:  2.00D  GRAD.:     0.057 HEAT:  76.16902
 CYCLE:    43 TIME:   0.008 TIME LEFT:  2.00D  GRAD.:     0.046 HEAT:  76.16901

     GRADIENT =  0.04612 IS LESS THAN CUTOFF =  0.05000



 -------------------------------------------------------------------------------
 pm3  precise nosym THREADS=1
 InChI=1S/C8H8/c1-2-4-8-6-5-7(8)3-1/h1-5,8H,6H2



     GEOMETRY OPTIMISED USING EIGENVECTOR FOLLOWING (EF).     
     SCF FIELD WAS ACHIEVED                                   


                              PM3 CALCULATION
                                                       MOPAC v23.1.2 MacOS
                                                       Tue Jun  3 16:30:43 2025




          FINAL HEAT OF FORMATION =         76.16901 KCAL/MOL =     318.69115 KJ/MOL


          COSMO AREA              =        145.68 SQUARE ANGSTROMS
          COSMO VOLUME            =        139.88 CUBIC ANGSTROMS

          GRADIENT NORM           =          0.04612          =       0.01153 PER ATOM
          IONIZATION POTENTIAL    =          8.685252 EV
          HOMO LUMO ENERGIES (EV) =         -8.685 -0.212
          NO. OF FILLED LEVELS    =         20
          MOLECULAR WEIGHT        =        104.1512         POINT GROUP:  C1  

          MOLECULAR DIMENSIONS (Angstroms)

            Atom       Atom       Distance
            H    15    H    11     6.07869
            H    12    H    13     4.87160
            H    10    H     9     2.79427


          SCF CALCULATIONS        =         51

          WALL-CLOCK TIME         =      0.262 SECONDS
          COMPUTATION TIME        =      0.145 SECONDS




   ATOM   CHEMICAL          X               Y               Z
  NUMBER   SYMBOL      (ANGSTROMS)     (ANGSTROMS)     (ANGSTROMS)

     1       C         -0.66838181  *  -0.61952380  *  -0.40311693  *
     2       C         -1.96828477  *  -0.19665038  *   0.37375809  *
     3       C         -0.31743149  *   0.86519174  *  -0.36785445  *
     4       C         -1.47410526  *   1.23710262  *   0.22391608  *
     5       C          0.41547933  *  -1.40984909  *   0.22439268  *
     6       C          1.03255173  *   1.30832415  *  -0.57786834  *
     7       C          1.66467763  *  -0.91207112  *   0.24389819  *
     8       C          1.99374544  *   0.41229223  *  -0.27176543  *
     9       H         -0.88997717  *  -1.03114390  *  -1.41062809  *
    10       H         -2.01949124  *  -0.55115715  *   1.41304029  *
    11       H         -2.91895434  *  -0.43599575  *  -0.12223646  *
    12       H          0.17146686  *  -2.40024574  *   0.61911372  *
    13       H         -1.92051658  *   2.16756347  *   0.54556510  *
    14       H          2.49294602  *  -1.49680706  *   0.65820549  *
    15       H          3.05489853  *   0.65824624  *  -0.37962273  *
    16       H          1.23629522  *   2.32278399  *  -0.92921006  *

                             CARTESIAN COORDINATES

   1    C       -0.668381813    -0.619523805    -0.403116931
   2    C       -1.968284766    -0.196650384     0.373758092
   3    C       -0.317431487     0.865191743    -0.367854455
   4    C       -1.474105263     1.237102616     0.223916078
   5    C        0.415479331    -1.409849092     0.224392678
   6    C        1.032551731     1.308324148    -0.577868338
   7    C        1.664677630    -0.912071116     0.243898190
   8    C        1.993745436     0.412292235    -0.271765434
   9    H       -0.889977172    -1.031143903    -1.410628093
  10    H       -2.019491245    -0.551157151     1.413040289
  11    H       -2.918954339    -0.435995748    -0.122236457
  12    H        0.171466855    -2.400245739     0.619113719
  13    H       -1.920516582     2.167563472     0.545565102
  14    H        2.492946021    -1.496807059     0.658205488
  15    H        3.054898534     0.658246242    -0.379622732
  16    H        1.236295215     2.322783986    -0.929210060


           Empirical Formula: C8 H8  =    16 atoms



      MOLECULAR POINT GROUP   :   C1  


                  EIGENVALUES  
 -41.10486 -33.93982 -30.03587 -24.84811 -23.85286 -20.95688 -18.94920 -17.67581
 -17.24590 -16.26998 -14.96796 -14.40644 -13.91787 -13.51832 -12.78090 -12.46459
 -11.86546 -11.35417 -10.10271  -8.68525  -0.21179   1.14077   2.12718   3.06296
   3.21873   3.29223   3.37228   3.59557   3.85828   4.01962   4.08302   4.31148
   4.35089   4.75706   4.98539   5.04721   5.38354   5.68738   6.10263   6.35617


              NET ATOMIC CHARGES AND DIPOLE CONTRIBUTIONS

  ATOM NO.   TYPE          CHARGE      No. of ELECS.   s-Pop       p-Pop       
    1          C          -0.049136        4.0491     1.17606     2.87307
    2          C          -0.060702        4.0607     1.16899     2.89172
    3          C          -0.120162        4.1202     1.20620     2.91396
    4          C          -0.135332        4.1353     1.21488     2.92046
    5          C          -0.114542        4.1145     1.19238     2.92217
    6          C          -0.058704        4.0587     1.16806     2.89064
    7          C          -0.113794        4.1138     1.18131     2.93249
    8          C          -0.099948        4.0999     1.18299     2.91696
    9          H           0.087915        0.9121     0.91208
   10          H           0.067647        0.9324     0.93235
   11          H           0.057706        0.9423     0.94229
   12          H           0.103372        0.8966     0.89663
   13          H           0.126597        0.8734     0.87340
   14          H           0.099481        0.9005     0.90052
   15          H           0.100452        0.8995     0.89955
   16          H           0.109150        0.8909     0.89085
 DIPOLE           X         Y         Z       TOTAL
 POINT-CHG.    -0.124    -0.182     0.202     0.299
 HYBRID         0.023    -0.012    -0.005     0.026
 SUM           -0.101    -0.193     0.198     0.294


          ATOMIC ORBITAL ELECTRON POPULATIONS

     Atom    s        px        py        pz   
    1  C   1.17606   0.94389   0.93988   0.98930
    2  C   1.16899   0.95692   0.93900   0.99580
    3  C   1.20620   0.94916   0.95993   1.00486
    4  C   1.21488   0.97306   0.96826   0.97914
    5  C   1.19238   0.94823   0.98502   0.98891
    6  C   1.16806   0.91624   0.97794   0.99646
    7  C   1.18131   0.96559   0.95958   1.00732
    8  C   1.18299   0.97760   0.94448   0.99488
    9  H   0.91208
   10  H   0.93235
   11  H   0.94229
   12  H   0.89663
   13  H   0.87340
   14  H   0.90052
   15  H   0.89955
   16  H   0.89085
 *******************************************************************************
 **                                                                           **
 **                              MOPAC v23.1.2                                **
 **                                                                           **
 *******************************************************************************
 **          Digital Object Identifier (DOI): 10.5281/zenodo.6511958          **
 **    Visit the DOI location for information on how to cite this program.    **
 *******************************************************************************

                              PM3 CALCULATION RESULTS

 *******************************************************************************
 *  CALCULATION DONE: (MAX THREADS = 1)              Tue Jun  3 16:30:43 2025  *
 *  PM3        - The PM3 Hamiltonian to be used
 *  OLDGEO     - PREVIOUS GEOMETRY TO BE USED
 *  PRECISE    - TIGHTER CRITERIA TO BE USED
 *  NOSYM      - POINT-GROUP SYMMETRY SET TO C1
 *  THREADS=1  - MULTI-THREADING NOT USED
 *  T=         - A TIME OF 172800.0 SECONDS REQUESTED
 *  DUMP=N     - RESTART FILE WRITTEN EVERY 7200.0 SECONDS REQUESTED
 *  THERMO     - THERMODYNAMIC QUANTITIES TO BE CALCULATED
 *******************************************************************************
oldgeo thermo nosym precise THREADS=1  pm3
 InChI=1S/C8H8/c1-2-4-8-6-5-7(8)3-1/h1-5,8H,6H2

   ATOM   CHEMICAL          X               Y               Z
  NUMBER   SYMBOL      (ANGSTROMS)     (ANGSTROMS)     (ANGSTROMS)

     1       C         -0.66838181  *  -0.61952380  *  -0.40311693  *
     2       C         -1.96828477  *  -0.19665038  *   0.37375809  *
     3       C         -0.31743149  *   0.86519174  *  -0.36785445  *
     4       C         -1.47410526  *   1.23710262  *   0.22391608  *
     5       C          0.41547933  *  -1.40984909  *   0.22439268  *
     6       C          1.03255173  *   1.30832415  *  -0.57786834  *
     7       C          1.66467763  *  -0.91207112  *   0.24389819  *
     8       C          1.99374544  *   0.41229223  *  -0.27176543  *
     9       H         -0.88997717  *  -1.03114390  *  -1.41062809  *
    10       H         -2.01949124  *  -0.55115715  *   1.41304029  *
    11       H         -2.91895434  *  -0.43599575  *  -0.12223646  *
    12       H          0.17146686  *  -2.40024574  *   0.61911372  *
    13       H         -1.92051658  *   2.16756347  *   0.54556510  *
    14       H          2.49294602  *  -1.49680706  *   0.65820549  *
    15       H          3.05489853  *   0.65824624  *  -0.37962273  *
    16       H          1.23629522  *   2.32278399  *  -0.92921006  *



          CARTESIAN COORDINATES 

    NO.       ATOM           X           Y           Z

     1         C         -0.6684     -0.6195     -0.4031
     2         C         -1.9683     -0.1967      0.3738
     3         C         -0.3174      0.8652     -0.3679
     4         C         -1.4741      1.2371      0.2239
     5         C          0.4155     -1.4098      0.2244
     6         C          1.0326      1.3083     -0.5779
     7         C          1.6647     -0.9121      0.2439
     8         C          1.9937      0.4123     -0.2718
     9         H         -0.8900     -1.0311     -1.4106
    10         H         -2.0195     -0.5512      1.4130
    11         H         -2.9190     -0.4360     -0.1222
    12         H          0.1715     -2.4002      0.6191
    13         H         -1.9205      2.1676      0.5456
    14         H          2.4929     -1.4968      0.6582
    15         H          3.0549      0.6582     -0.3796
    16         H          1.2363      2.3228     -0.9292

  H: (PM3): J. J. P. STEWART, J. COMP. CHEM. 10, 209 (1989).
  C: (PM3): J. J. P. STEWART, J. COMP. CHEM. 10, 209 (1989).

           Empirical Formula: C8 H8  =    16 atoms



      MOLECULAR POINT GROUP   :   C1  


      RHF CALCULATION, NO. OF DOUBLY OCCUPIED LEVELS = 20



          HEAT OF FORMATION =      76.169013 KCALS/MOLE


          CARTESIAN COORDINATE DERIVATIVES

   NUMBER  ATOM         X            Y            Z

     1       C      0.004114     0.001325    -0.002408
     2       C     -0.006498    -0.004093     0.003823
     3       C     -0.002771     0.000414    -0.000623
     4       C     -0.001704    -0.002680     0.001381
     5       C      0.017806    -0.009259     0.011312
     6       C     -0.007166    -0.004274    -0.005895
     7       C      0.001830    -0.013707     0.005058
     8       C     -0.004340     0.008112    -0.006182
     9       H     -0.013938     0.005778    -0.005387
    10       H      0.004062     0.010818    -0.002610
    11       H     -0.001560    -0.000132    -0.009111
    12       H     -0.003885    -0.004013    -0.003092
    13       H      0.016255     0.000685     0.004625
    14       H      0.003437     0.000803     0.006750
    15       H     -0.006163     0.013656     0.004582
    16       H      0.000518    -0.003432    -0.002222



          GRADIENT NORM =   0.04715

          MOLECULAR WEIGHT =  104.15



          ROTATIONAL CONSTANTS IN CM(-1)

          A =    0.13712213   B =    0.07496125   C =    0.05214758



           PRINCIPAL MOMENTS OF INERTIA IN UNITS OF 10**(-40)*GRAM-CM**2

          A =      204.1447   B =      373.4296   C =      536.7987


          ORIENTATION OF MOLECULE IN FORCE CALCULATION

    NO.       ATOM         X         Y         Z

     1          C       0.2556   -0.8744    0.5579
     2          C       1.8279   -0.8744    0.5579
     3          C       0.3822    0.6463    0.5579
     4          C       1.7309    0.6440    0.6438
     5          C      -0.5430   -1.3149   -0.6089
     6          C      -0.7185    1.4773    0.1567
     7          C      -1.4323   -0.4661   -1.1543
     8          C      -1.6029    0.9050   -0.6864
     9          H      -0.1697   -1.3154    1.4843
    10          H       2.2884   -1.2466   -0.3683
    11          H       2.3044   -1.3787    1.4098
    12          H      -0.4126   -2.3398   -0.9677
    13          H       2.5091    1.3920    0.7007
    14          H      -2.0696   -0.7832   -1.9867
    15          H      -2.4674    1.4595   -1.0652
    16          H      -0.7877    2.5123    0.5002


    FIRST DERIVATIVES WILL BE USED IN THE CALCULATION OF SECOND DERIVATIVES

          ESTIMATED TIME TO COMPLETE CALCULATION =        0.75 SECONDS

    FOR POINT-GROUP C1   THERE ARE   1 UNIQUE SYMMETRY FUNCTIONS.

 STEP:   1 TIME =     0.01 SECS, INTEGRAL =      0.01 TIME LEFT: 172799.99
 STEP:   2 TIME =     0.01 SECS, INTEGRAL =      0.02 TIME LEFT: 172799.98
 STEP:   3 TIME =     0.02 SECS, INTEGRAL =      0.04 TIME LEFT: 172799.96
 STEP:   4 TIME =     0.01 SECS, INTEGRAL =      0.05 TIME LEFT: 172799.95
 STEP:   5 TIME =     0.01 SECS, INTEGRAL =      0.06 TIME LEFT: 172799.94
 STEP:   6 TIME =     0.01 SECS, INTEGRAL =      0.07 TIME LEFT: 172799.93
 STEP:   7 TIME =     0.02 SECS, INTEGRAL =      0.09 TIME LEFT: 172799.91
 STEP:   8 TIME =     0.02 SECS, INTEGRAL =      0.11 TIME LEFT: 172799.89
 STEP:   9 TIME =     0.02 SECS, INTEGRAL =      0.12 TIME LEFT: 172799.88
 STEP:  10 TIME =     0.01 SECS, INTEGRAL =      0.13 TIME LEFT: 172799.87
 STEP:  11 TIME =     0.01 SECS, INTEGRAL =      0.14 TIME LEFT: 172799.86
 STEP:  12 TIME =     0.01 SECS, INTEGRAL =      0.16 TIME LEFT: 172799.84
 STEP:  13 TIME =     0.01 SECS, INTEGRAL =      0.17 TIME LEFT: 172799.83
 STEP:  14 TIME =     0.02 SECS, INTEGRAL =      0.18 TIME LEFT: 172799.82
 STEP:  15 TIME =     0.02 SECS, INTEGRAL =      0.20 TIME LEFT: 172799.80
 STEP:  16 TIME =     0.01 SECS, INTEGRAL =      0.21 TIME LEFT: 172799.79
 STEP:  17 TIME =     0.01 SECS, INTEGRAL =      0.22 TIME LEFT: 172799.78
 STEP:  18 TIME =     0.01 SECS, INTEGRAL =      0.23 TIME LEFT: 172799.77
 STEP:  19 TIME =     0.02 SECS, INTEGRAL =      0.25 TIME LEFT: 172799.75
 STEP:  20 TIME =     0.01 SECS, INTEGRAL =      0.26 TIME LEFT: 172799.74
 STEP:  21 TIME =     0.01 SECS, INTEGRAL =      0.27 TIME LEFT: 172799.73
 STEP:  22 TIME =     0.02 SECS, INTEGRAL =      0.29 TIME LEFT: 172799.71
 STEP:  23 TIME =     0.02 SECS, INTEGRAL =      0.30 TIME LEFT: 172799.70
 STEP:  24 TIME =     0.01 SECS, INTEGRAL =      0.32 TIME LEFT: 172799.68
 STEP:  25 TIME =     0.01 SECS, INTEGRAL =      0.33 TIME LEFT: 172799.67
 STEP:  26 TIME =     0.01 SECS, INTEGRAL =      0.34 TIME LEFT: 172799.66
 STEP:  27 TIME =     0.01 SECS, INTEGRAL =      0.35 TIME LEFT: 172799.65
 STEP:  28 TIME =     0.02 SECS, INTEGRAL =      0.37 TIME LEFT: 172799.63
 STEP:  29 TIME =     0.01 SECS, INTEGRAL =      0.38 TIME LEFT: 172799.62
 STEP:  30 TIME =     0.02 SECS, INTEGRAL =      0.39 TIME LEFT: 172799.61
 STEP:  31 TIME =     0.01 SECS, INTEGRAL =      0.41 TIME LEFT: 172799.59
 STEP:  32 TIME =     0.01 SECS, INTEGRAL =      0.42 TIME LEFT: 172799.58
 STEP:  33 TIME =     0.02 SECS, INTEGRAL =      0.43 TIME LEFT: 172799.57
 STEP:  34 TIME =     0.02 SECS, INTEGRAL =      0.45 TIME LEFT: 172799.55
 STEP:  35 TIME =     0.02 SECS, INTEGRAL =      0.46 TIME LEFT: 172799.54
 STEP:  36 TIME =     0.02 SECS, INTEGRAL =      0.48 TIME LEFT: 172799.52
 STEP:  37 TIME =     0.01 SECS, INTEGRAL =      0.49 TIME LEFT: 172799.51
 STEP:  38 TIME =     0.01 SECS, INTEGRAL =      0.50 TIME LEFT: 172799.50
 STEP:  39 TIME =     0.02 SECS, INTEGRAL =      0.52 TIME LEFT: 172799.48
 STEP:  40 TIME =     0.01 SECS, INTEGRAL =      0.53 TIME LEFT: 172799.47
 STEP:  41 TIME =     0.01 SECS, INTEGRAL =      0.54 TIME LEFT: 172799.46
 STEP:  42 TIME =     0.02 SECS, INTEGRAL =      0.56 TIME LEFT: 172799.44
 STEP:  43 TIME =     0.01 SECS, INTEGRAL =      0.57 TIME LEFT: 172799.43
 STEP:  44 TIME =     0.01 SECS, INTEGRAL =      0.58 TIME LEFT: 172799.42
 STEP:  45 TIME =     0.02 SECS, INTEGRAL =      0.60 TIME LEFT: 172799.40
 STEP:  46 TIME =     0.02 SECS, INTEGRAL =      0.61 TIME LEFT: 172799.39
 STEP:  47 TIME =     0.01 SECS, INTEGRAL =      0.62 TIME LEFT: 172799.38
 STEP:  48 TIME =     0.02 SECS, INTEGRAL =      0.64 TIME LEFT: 172799.36

(To convert to Hartree/Bohr^2, multiply by (10^(-21) x N x a0^2)/(4.184 x 627.51) =  0.0642)


           FORCE MATRIX IN MILLIDYNES/ANGSTROM


                  C  1       C  2       C  3       C  4       C  5       C  6
 ------------------------------------------------------------------------------
     C    1  14.784046
     C    2   2.870485  14.108581
     C    3   3.799109   2.280394  19.637574
     C    4   2.204897   3.929694   9.798923  18.073547
     C    5   5.106198   0.441605   0.743952   0.053659  17.822539
     C    6   0.542406   0.131338   6.146045   0.675915   0.175982  18.149777
     C    7   0.946651   0.047184   0.190848   0.047844   9.974098   1.093721
     C    8   0.145094   0.025486   1.339268   0.130942   1.070375   9.702622
     H    9   4.381918   0.423925   0.418297   0.044968   0.401407   0.013773
     H   10   0.440844   4.705731   0.049330   0.429871   0.013497   0.021008
     H   11   0.406156   4.723079   0.037295   0.428840   0.031836   0.020067
     H   12   0.429045   0.010077   0.046181   0.006781   4.884809   0.017709
     H   13   0.121949   0.332902   0.428255   5.295035   0.025240   0.042829
     H   14   0.124749   0.014693   0.004183   0.001628   0.441119   0.047834
     H   15   0.005206   0.008849   0.125690   0.012651   0.047337   0.438784
     H   16   0.030932   0.009571   0.446456   0.019483   0.014418   4.912563


                  C  7       C  8       H  9       H 10       H 11       H 12
 ------------------------------------------------------------------------------
     C    7  17.978485
     C    8   5.284624  17.905866
     H    9   0.036355   0.019338   4.885626
     H   10   0.009640   0.008973   0.023745   5.314973
     H   11   0.012021   0.009572   0.028565   0.527922   5.338449
     H   12   0.445613   0.124669   0.013662   0.003925   0.001918   5.262942
     H   13   0.014482   0.017756   0.014707   0.006684   0.005731   0.004587
     H   14   4.841903   0.433122   0.016233   0.000882   0.001729   0.066446
     H   15   0.432479   4.864385   0.001005   0.001581   0.001140   0.007731
     H   16   0.123361   0.448500   0.004714   0.001244   0.001863   0.011100


                  H 13       H 14       H 15       H 16
 ------------------------------------------------------
     H   13   5.677407
     H   14   0.001066   5.203265
     H   15   0.002644   0.033182   5.227837
     H   16   0.005282   0.007578   0.060830   5.292485


          HEAT OF FORMATION =      76.169013 KCALS/MOLE

          ZERO POINT ENERGY      83.746 KCAL/MOL


           NORMAL COORDINATE ANALYSIS (Total motion = 1 Angstrom)


   Root No.       1         2         3         4         5         6         7         8

                 1 A       2 A       3 A       4 A       5 A       6 A       7 A       8 A   

                 192.9     202.3     363.8     412.3     488.0     554.4     594.7     718.3
  
           1   -0.0098    0.0119    0.0201   -0.0118   -0.0073    0.0248   -0.0189    0.0311
           2   -0.0097   -0.0068   -0.0329   -0.0133    0.0362    0.0023    0.0127    0.0062
           3    0.0390   -0.0146   -0.0145    0.0295   -0.0128    0.0485   -0.0060   -0.0274
           4   -0.0087    0.0143    0.0290   -0.0188   -0.0239    0.0393   -0.0014    0.0121
           5    0.0036    0.0174    0.0138   -0.0049   -0.0117   -0.0199    0.0270   -0.0269
           6   -0.0361   -0.0417    0.0359   -0.0178   -0.0042    0.0039    0.0063   -0.0052
           7   -0.0207   -0.0076   -0.0177   -0.0279    0.0169    0.0176    0.0180   -0.0153
           8   -0.0077   -0.0064   -0.0317   -0.0089    0.0316   -0.0135    0.0030    0.0276
           9    0.0377    0.0212    0.0091    0.0444    0.0261    0.0112    0.0752    0.0444
          10   -0.0156   -0.0088   -0.0171   -0.0238    0.0222    0.0262    0.0233   -0.0050
          11    0.0026    0.0096    0.0123   -0.0077   -0.0042   -0.0197    0.0261   -0.0264
          12   -0.0442    0.0565   -0.0287   -0.0098   -0.0061    0.0124   -0.0034    0.0044
          13   -0.0074   -0.0262   -0.0071    0.0522    0.0234    0.0025   -0.0430    0.0104
          14   -0.0061   -0.0147    0.0025    0.0168    0.0104    0.0859    0.0089    0.0049
          15    0.0352    0.0171   -0.0153   -0.0232   -0.0216    0.0268   -0.0120    0.0033
          16   -0.0182    0.0139    0.0025    0.0243   -0.0208   -0.0250    0.0409   -0.0213
          17   -0.0050    0.0014   -0.0069    0.0221   -0.0115   -0.0634   -0.0303    0.0294
          18    0.0338   -0.0167    0.0108   -0.0349    0.0343   -0.0279   -0.0102   -0.0174
          19    0.0443   -0.0223   -0.0258   -0.0038   -0.0329   -0.0366   -0.0322    0.0213
          20    0.0107   -0.0116    0.0093   -0.0078   -0.0308    0.0195   -0.0121    0.0078
          21   -0.0216    0.0155    0.0196    0.0330    0.0121   -0.0204   -0.0591   -0.0034
          22    0.0318    0.0220    0.0132   -0.0054    0.0323   -0.0601    0.0125   -0.0193
          23    0.0120    0.0079    0.0272   -0.0008   -0.0101    0.0126   -0.0411    0.0007
          24   -0.0292   -0.0301   -0.0208    0.0121   -0.0271   -0.0461    0.0244   -0.0045
          25    0.0239    0.0484    0.0208   -0.0153   -0.0449    0.0477   -0.0131    0.0474
          26   -0.0259   -0.0251   -0.0737   -0.0551    0.0387   -0.0161   -0.0338   -0.0526
          27    0.0450   -0.0053   -0.0332    0.0056   -0.0279    0.0486   -0.0256   -0.0462
          28   -0.0542   -0.0018    0.0892   -0.0592   -0.0297   -0.0068    0.0154    0.0717
          29    0.0005    0.0956   -0.0281    0.0082   -0.0372   -0.0030    0.0116   -0.0416
          30   -0.0578   -0.0818    0.0848   -0.0446    0.0031   -0.0270    0.0228    0.0312
          31    0.0392    0.0435   -0.0000    0.0237   -0.0496    0.0816   -0.0241   -0.0386
          32    0.0132   -0.0389    0.0823   -0.0126   -0.0238   -0.0392    0.0419   -0.0273
          33   -0.0577   -0.0922    0.0945   -0.0471    0.0036   -0.0324    0.0284    0.0268
          34   -0.0312   -0.0646   -0.0432    0.1495    0.0622    0.0508   -0.0457   -0.1145
          35   -0.0191   -0.0297    0.0015    0.0592    0.0114    0.1042   -0.0039   -0.0484
          36    0.0627    0.0454   -0.0261   -0.1088   -0.0101   -0.0103    0.0233    0.1085
          37   -0.0182   -0.0221   -0.0443   -0.0255    0.0543    0.0321    0.0249    0.0275
          38    0.0103    0.0186    0.0449   -0.0014   -0.0361   -0.0239    0.0348   -0.0535
          39   -0.1098    0.1187   -0.0849   -0.0703   -0.0241   -0.0044   -0.1295   -0.0779
          40    0.0811   -0.0557   -0.0766   -0.0040   -0.1131    0.0056   -0.0062   -0.0286
          41    0.0158   -0.0278   -0.0059   -0.0136   -0.0734   -0.0400    0.0319   -0.0363
          42   -0.0518    0.0470    0.0637    0.0353    0.0902   -0.0300   -0.0956    0.0514
          43    0.0541    0.0550    0.0572    0.0125    0.0862   -0.0411    0.0010   -0.0754
          44    0.0181    0.0311    0.0628    0.0049    0.0257    0.0449   -0.0138   -0.0592
          45   -0.0707   -0.0721   -0.0690   -0.0201   -0.0995   -0.0421    0.0899    0.0334
          46   -0.0429    0.0314    0.0324    0.0985   -0.0827   -0.0341    0.0572   -0.0558
          47   -0.0173    0.0125   -0.0066    0.0637   -0.0227   -0.0717   -0.0007    0.0412
          48    0.0654   -0.0460    0.0157   -0.1457    0.0565   -0.0025   -0.0947   -0.0578


   Root No.       9        10        11        12        13        14        15        16

                 9 A      10 A      11 A      12 A      13 A      14 A      15 A      16 A   

                 748.8     817.0     829.9     863.9     914.2     952.0     964.4     988.9
  
           1   -0.0094   -0.0034   -0.0005   -0.0063   -0.0137   -0.0259   -0.0016    0.0191
           2   -0.0092    0.0035    0.0043    0.0082   -0.0242    0.0359    0.0142   -0.0011
           3    0.0166    0.0119   -0.0044    0.0176    0.0166   -0.0112   -0.0057   -0.0098
           4   -0.0119   -0.0032   -0.0196    0.0519    0.0071    0.0436    0.0119   -0.0088
           5    0.0080    0.0016    0.0034   -0.0122    0.0210   -0.0049   -0.0077   -0.0097
           6    0.0097   -0.0171    0.0082    0.0255    0.0228   -0.0059    0.0034    0.0267
           7    0.0012   -0.0084    0.0087   -0.0158    0.0149   -0.0061   -0.0063   -0.0006
           8   -0.0119   -0.0092   -0.0102    0.0035    0.0205   -0.0108   -0.0043    0.0014
           9   -0.0096    0.0055   -0.0141   -0.0261    0.0172    0.0326    0.0115   -0.0002
          10   -0.0052   -0.0073    0.0073   -0.0205    0.0282   -0.0009   -0.0080    0.0013
          11    0.0079    0.0002    0.0144   -0.0313   -0.0048   -0.0146   -0.0037    0.0120
          12    0.0093   -0.0317    0.0074    0.0010   -0.0133   -0.0029   -0.0049   -0.0199
          13    0.0163    0.0136    0.0212   -0.0051   -0.0065   -0.0054    0.0234    0.0089
          14    0.0102    0.0255    0.0022    0.0176   -0.0310   -0.0379    0.0096    0.0085
          15   -0.0130   -0.0006   -0.0123   -0.0105   -0.0277   -0.0109   -0.0192   -0.0040
          16    0.0210    0.0063   -0.0085   -0.0150   -0.0136   -0.0030    0.0196   -0.0167
          17   -0.0020   -0.0066   -0.0348    0.0405    0.0078   -0.0224    0.0056   -0.0075
          18   -0.0166    0.0062    0.0160    0.0264   -0.0076    0.0014   -0.0243    0.0266
          19    0.0061    0.0056    0.0259   -0.0192    0.0046    0.0161   -0.0211   -0.0246
          20    0.0037    0.0026    0.0161   -0.0141    0.0084    0.0071   -0.0111   -0.0112
          21   -0.0085   -0.0214    0.0005   -0.0424    0.0066    0.0107    0.0210    0.0215
          22    0.0148    0.0084   -0.0281    0.0240   -0.0170   -0.0129   -0.0091    0.0269
          23    0.0057   -0.0109    0.0004   -0.0246    0.0065    0.0288   -0.0051    0.0119
          24   -0.0113    0.0062    0.0152    0.0236   -0.0048   -0.0233    0.0140   -0.0331
          25   -0.0323    0.0043   -0.0516   -0.0183   -0.0196   -0.1186   -0.0576   -0.0181
          26   -0.0213   -0.0117    0.0333    0.0632   -0.0676    0.2266    0.0304   -0.0250
          27   -0.0009    0.0081   -0.0134    0.0361   -0.0106    0.0374   -0.0246   -0.0385
          28   -0.0592   -0.0188   -0.0501   -0.0057   -0.0982    0.0250   -0.0511   -0.0758
          29    0.0572   -0.1186    0.0437    0.0694    0.0175   -0.0365   -0.0467    0.0385
          30   -0.0359    0.0265   -0.0250   -0.0399   -0.0313   -0.0016   -0.0131   -0.0299
          31    0.0332   -0.0001   -0.0141    0.1559    0.1470    0.0645    0.0531    0.0216
          32   -0.0278    0.1026   -0.0492   -0.0428    0.0728    0.0294    0.0095   -0.0923
          33   -0.0402    0.0440   -0.0288   -0.0553   -0.0277    0.0012   -0.0110   -0.0425
          34   -0.0593   -0.0483   -0.1227   -0.0090   -0.0812    0.0533   -0.0969   -0.0446
          35   -0.0217   -0.0104   -0.0561    0.0014   -0.0276   -0.0243   -0.0533   -0.0099
          36    0.0505    0.0799    0.1019    0.0357   -0.0665   -0.0281    0.1167    0.0288
          37   -0.0165   -0.0335    0.0066   -0.0424    0.1081   -0.0519   -0.0574   -0.0154
          38    0.0262    0.0031    0.0209   -0.0046   -0.0920    0.0385    0.0449    0.0238
          39   -0.0795    0.2719   -0.0691   -0.0518    0.0767   -0.0009    0.0239    0.0504
          40   -0.1213   -0.0819   -0.0316   -0.0823   -0.0231   -0.0255    0.1109    0.0992
          41   -0.0560   -0.0491   -0.0186   -0.0096    0.0412    0.0079    0.0520    0.0334
          42    0.1119    0.0656    0.0584    0.0030    0.0139    0.0427   -0.1039   -0.0903
          43   -0.0867   -0.0070    0.0616    0.0623   -0.0105   -0.0809    0.0544   -0.0937
          44   -0.0485   -0.0115    0.0589   -0.0049   -0.0060   -0.0063    0.0411   -0.0610
          45    0.1428    0.0415   -0.1032   -0.0347   -0.0423    0.0788   -0.0629    0.1359
          46   -0.0499    0.0466    0.1236    0.0108   -0.0715    0.0686   -0.0613    0.0611
          47   -0.0557    0.0142    0.0179    0.0758    0.0120   -0.0120   -0.0494    0.0422
          48    0.1303   -0.0493   -0.1181   -0.0729   -0.0298   -0.0162    0.1248   -0.1073


   Root No.      17        18        19        20        21        22        23        24

                17 A      18 A      19 A      20 A      21 A      22 A      23 A      24 A   

                1002.0    1014.5    1044.1    1078.3    1082.5    1113.9    1128.9    1155.5
  
           1   -0.0247   -0.0145    0.0088    0.0450   -0.0269   -0.0113    0.0177    0.0265
           2    0.0048   -0.0004    0.0162   -0.0080   -0.0141    0.0241   -0.0356   -0.0285
           3    0.0043    0.0061   -0.0230    0.0032    0.0449   -0.0056    0.0023    0.0086
           4    0.0040   -0.0040   -0.0017   -0.0274    0.0169    0.0020   -0.0077   -0.0020
           5    0.0227    0.0262    0.0015   -0.0055   -0.0092    0.0055   -0.0120   -0.0114
           6    0.0089   -0.0267    0.0228    0.0124   -0.0169    0.0060   -0.0091   -0.0086
           7   -0.0071   -0.0030   -0.0059   -0.0161    0.0191   -0.0046    0.0058   -0.0012
           8   -0.0057   -0.0047    0.0002    0.0064    0.0081    0.0013    0.0069   -0.0125
           9    0.0107   -0.0216    0.0067    0.0127   -0.0008   -0.0115    0.0006    0.0039
          10   -0.0019   -0.0061    0.0002   -0.0193    0.0288   -0.0094   -0.0008    0.0012
          11   -0.0245   -0.0230   -0.0010    0.0101    0.0155   -0.0176    0.0143    0.0327
          12   -0.0414    0.0336   -0.0083   -0.0084    0.0060    0.0001    0.0020    0.0019
          13    0.0104    0.0185   -0.0092    0.0088    0.0143    0.0051    0.0016   -0.0025
          14    0.0057    0.0090   -0.0167   -0.0135   -0.0263   -0.0099   -0.0037    0.0006
          15    0.0001   -0.0086    0.0132   -0.0185   -0.0346    0.0001    0.0098    0.0047
          16    0.0085   -0.0059    0.0042    0.0053   -0.0144    0.0005    0.0007   -0.0062
          17   -0.0044   -0.0015    0.0109   -0.0032    0.0239   -0.0281    0.0071    0.0119
          18   -0.0055    0.0170    0.0015   -0.0074    0.0093   -0.0068    0.0008   -0.0039
          19   -0.0007   -0.0175    0.0022   -0.0117   -0.0178    0.0075   -0.0026   -0.0080
          20   -0.0040   -0.0155   -0.0157   -0.0098   -0.0219    0.0125   -0.0093   -0.0002
          21    0.0048    0.0065   -0.0247   -0.0161   -0.0156    0.0121   -0.0131   -0.0099
          22   -0.0057    0.0072   -0.0235   -0.0043   -0.0194    0.0089   -0.0057   -0.0025
          23    0.0036    0.0120    0.0229    0.0042    0.0293   -0.0034    0.0139    0.0022
          24    0.0022   -0.0126    0.0047    0.0016   -0.0076   -0.0014    0.0051   -0.0004
          25   -0.0448    0.0024    0.0336    0.1920    0.0915    0.0955   -0.1691   -0.1568
          26   -0.0052   -0.0136   -0.1022    0.2026   -0.0677   -0.0875    0.0572    0.0522
          27   -0.0092    0.0069   -0.0693    0.1769    0.0742   -0.0104   -0.0397   -0.0367
          28    0.1973    0.0350   -0.1032   -0.0268    0.0727   -0.0162    0.0373    0.0163
          29    0.2694   -0.0341   -0.0167    0.0194   -0.0420    0.0039    0.0179   -0.0159
          30    0.0057    0.0203   -0.0231    0.0016    0.0266   -0.0024    0.0005    0.0017
          31   -0.0858    0.0373    0.0582   -0.0012   -0.1057    0.0116    0.0212   -0.0125
          32   -0.0893    0.1857   -0.0184   -0.0140   -0.0855    0.0034    0.0349   -0.0104
          33   -0.0088    0.0472   -0.0247   -0.0055    0.0100   -0.0007    0.0020   -0.0024
          34    0.0113   -0.0067    0.1531   -0.0441    0.0066    0.1065    0.0233    0.1354
          35   -0.0170   -0.0308   -0.0218   -0.0171   -0.0680   -0.0321   -0.0045   -0.0269
          36    0.0650    0.0941    0.0804   -0.0289    0.0738    0.1012    0.0139    0.1320
          37    0.0730    0.1067    0.0183    0.0772   -0.0623   -0.0267    0.0063    0.0828
          38   -0.1139   -0.1312   -0.0220   -0.0940    0.1138   -0.0004    0.0075   -0.0516
          39    0.0998   -0.0927    0.0166    0.0140    0.0095   -0.0091    0.0032    0.0090
          40    0.0261    0.0624    0.0033   -0.0391   -0.0165   -0.0724    0.0500   -0.1056
          41   -0.0214   -0.0157   -0.0960    0.0535    0.0087    0.1823   -0.1318    0.1993
          42   -0.0082   -0.0544    0.0052   -0.0213   -0.0308    0.0108   -0.0057   -0.0130
          43    0.0073   -0.0296    0.0057    0.0322   -0.0220    0.0482    0.0657   -0.0348
          44    0.0202    0.0022    0.0696    0.1003    0.0460    0.1235    0.2114   -0.0900
          45   -0.0024    0.0578    0.0055    0.0588    0.0160    0.0951    0.1315   -0.0666
          46    0.0194    0.0942    0.1269    0.0444    0.0283   -0.1327   -0.1424    0.0125
          47   -0.0211    0.0123   -0.0100   -0.0189    0.0319   -0.0079    0.0279    0.0056
          48    0.0464   -0.0034    0.0942    0.0498    0.0019   -0.1000   -0.0854    0.0193


   Root No.      25        26        27        28        29        30        31        32

                25 A      26 A      27 A      28 A      29 A      30 A      31 A      32 A   

                1189.7    1197.8    1258.1    1347.6    1384.8    1398.9    1462.5    1786.7
  
           1   -0.0024    0.0123   -0.0336   -0.0127    0.0436    0.0106    0.0724   -0.0004
           2    0.0152    0.0035    0.0212   -0.0563    0.0163    0.0024    0.0646   -0.0069
           3    0.0161    0.0103    0.0014   -0.0067    0.0399    0.0184    0.0643   -0.0003
           4    0.0325   -0.0253    0.0043    0.0121   -0.0052    0.0430   -0.0309    0.0010
           5    0.0056   -0.0310   -0.0695    0.0195    0.0197   -0.0433    0.0100   -0.0028
           6   -0.0070   -0.0050    0.0001    0.0025   -0.0056   -0.0053   -0.0079   -0.0001
           7   -0.0145    0.0098   -0.0036    0.0069   -0.0012    0.0021   -0.0213   -0.0422
           8    0.0072    0.0380   -0.0002    0.0652    0.0502    0.0246   -0.0557    0.0076
           9   -0.0070    0.0001   -0.0058    0.0010   -0.0149   -0.0032   -0.0025   -0.0001
          10   -0.0156   -0.0015   -0.0248   -0.0135   -0.0492   -0.0219    0.0343    0.0466
          11    0.0168   -0.0103    0.0727   -0.0101   -0.0219    0.0095   -0.0154   -0.0034
          12    0.0026    0.0000    0.0013   -0.0017   -0.0017    0.0000    0.0043    0.0034
          13    0.0055    0.0045   -0.0087   -0.0205   -0.0061   -0.0122   -0.0427   -0.0283
          14   -0.0041   -0.0050   -0.0024    0.0107   -0.0276   -0.0098   -0.0315    0.0295
          15    0.0094    0.0088   -0.0177   -0.0213   -0.0161   -0.0188   -0.0579   -0.0176
          16   -0.0091   -0.0093    0.0114   -0.0140    0.0506    0.0031   -0.0358   -0.1303
          17   -0.0025   -0.0065   -0.0150   -0.0171   -0.0448   -0.0117    0.0219   -0.0691
          18   -0.0072   -0.0043    0.0003   -0.0127    0.0180   -0.0018   -0.0182   -0.1159
          19    0.0063    0.0034    0.0021    0.0012   -0.0159   -0.0043   -0.0109    0.0253
          20   -0.0091   -0.0098    0.0166    0.0432   -0.0020    0.0173    0.0605   -0.0667
          21    0.0004   -0.0030    0.0122    0.0236   -0.0178    0.0040    0.0153   -0.0027
          22    0.0036   -0.0037    0.0087    0.0167   -0.0018    0.0061    0.0179    0.1160
          23   -0.0134   -0.0081   -0.0006   -0.0381    0.0452   -0.0038   -0.0440    0.1250
          24   -0.0037   -0.0079    0.0057   -0.0062    0.0178    0.0024   -0.0047    0.1329
          25   -0.0738   -0.0406    0.0761   -0.0028   -0.0613   -0.0063   -0.0598   -0.0000
          26   -0.0628   -0.0543   -0.0578    0.0425   -0.0460   -0.0224   -0.0406    0.0082
          27   -0.0565   -0.0434    0.0142    0.0444   -0.0420   -0.0030   -0.0479    0.0057
          28   -0.0166    0.0981    0.1324    0.0076    0.0426   -0.1853    0.0598    0.0009
          29   -0.0951    0.0905   -0.0043   -0.0793   -0.0640    0.1721    0.0048    0.0030
          30    0.0085    0.0069    0.0362    0.0349    0.0459   -0.1851    0.0358   -0.0036
          31   -0.0673    0.0983    0.1582    0.0093   -0.0010   -0.1991    0.0068    0.0050
          32   -0.1037    0.1047    0.0041   -0.0763   -0.0621    0.1370    0.0074    0.0076
          33   -0.0145    0.0067   -0.0404   -0.0471   -0.0495    0.2156   -0.0250    0.0052
          34   -0.0896   -0.0424    0.0216    0.1026    0.0007    0.0260    0.0525   -0.0089
          35    0.0213    0.0108   -0.0149   -0.0198   -0.0287   -0.0195   -0.0510    0.0294
          36   -0.0955   -0.0527    0.0292    0.1099   -0.0207    0.0192    0.0277    0.0084
          37    0.0785   -0.0858    0.1132   -0.0320   -0.0415    0.0057    0.0007    0.0217
          38   -0.0804    0.0761   -0.0701    0.0097   -0.0387   -0.0213    0.0203    0.0379
          39   -0.0021    0.0064    0.0066   -0.0009   -0.0001    0.0024    0.0048    0.0062
          40   -0.0259   -0.0496    0.0507    0.0535    0.0025    0.0237    0.0696    0.0141
          41    0.0553    0.0979   -0.0830   -0.0606   -0.0443   -0.0411   -0.1009   -0.0324
          42    0.0006   -0.0044    0.0150    0.0276   -0.0205    0.0051    0.0164    0.0025
          43    0.0408    0.0136   -0.0021    0.0373   -0.0529    0.0032    0.0441    0.0695
          44    0.0931    0.0427   -0.0335    0.0138   -0.1041   -0.0157    0.0254   -0.0930
          45    0.0704    0.0268   -0.0139    0.0329   -0.0874   -0.0051    0.0474    0.0054
          46    0.0771    0.1266   -0.0238    0.1104   -0.0659    0.0159    0.0288    0.0439
          47   -0.0145   -0.0202   -0.0131   -0.0325   -0.0303   -0.0136    0.0106   -0.1177
          48    0.0462    0.0661   -0.0177    0.0541   -0.0583    0.0029    0.0276   -0.0243


   Root No.      33        34        35        36        37        38        39        40

                33 A      34 A      35 A      36 A      37 A      38 A      39 A      40 A   

                1822.2    1911.7    2945.1    3050.0    3052.8    3064.1    3080.7    3091.0
  
           1   -0.0239    0.0015    0.0265    0.0010    0.0002    0.0001    0.0001   -0.0002
           2   -0.0080    0.0213    0.0284    0.0009   -0.0001    0.0001   -0.0004    0.0004
           3   -0.0236   -0.0018   -0.0569   -0.0021    0.0003   -0.0000    0.0007   -0.0003
           4    0.0017   -0.0086    0.0011    0.0011   -0.0000   -0.0000   -0.0000   -0.0000
           5   -0.0059    0.0213    0.0002    0.0029    0.0000    0.0001   -0.0001    0.0001
           6   -0.0011    0.0014    0.0037   -0.0589    0.0005   -0.0000   -0.0002   -0.0000
           7   -0.0391    0.2376    0.0010    0.0002   -0.0002    0.0002    0.0001   -0.0014
           8    0.0087   -0.0672    0.0006   -0.0000   -0.0001   -0.0000    0.0004    0.0004
           9   -0.0022    0.0408   -0.0002   -0.0004   -0.0001    0.0001    0.0002   -0.0006
          10    0.0347   -0.1554   -0.0008   -0.0001    0.0001   -0.0001   -0.0001    0.0002
          11    0.0021   -0.0019   -0.0003    0.0000   -0.0000   -0.0000   -0.0000   -0.0001
          12    0.0023   -0.0123   -0.0004   -0.0003    0.0000   -0.0000   -0.0000   -0.0000
          13    0.1347    0.0184   -0.0005    0.0003   -0.0005   -0.0012    0.0081   -0.0014
          14   -0.0962   -0.0183   -0.0004    0.0001    0.0131    0.0109   -0.0442    0.0070
          15    0.0999    0.0119   -0.0009    0.0001    0.0058    0.0041   -0.0128    0.0019
          16   -0.0271   -0.0897   -0.0001   -0.0000   -0.0008    0.0023    0.0005    0.0007
          17   -0.0168    0.0288    0.0000    0.0001    0.0031   -0.0134   -0.0101   -0.0459
          18   -0.0264   -0.0464   -0.0002   -0.0001    0.0006   -0.0034   -0.0035   -0.0169
          19   -0.1212   -0.0192    0.0005   -0.0002   -0.0251   -0.0075   -0.0139    0.0045
          20    0.1371    0.0199   -0.0005   -0.0001   -0.0110   -0.0040   -0.0026    0.0019
          21   -0.0626   -0.0105   -0.0001   -0.0003   -0.0320   -0.0099   -0.0160    0.0056
          22    0.0388    0.0211   -0.0000    0.0002    0.0145   -0.0309   -0.0027    0.0174
          23   -0.0006    0.0117    0.0002   -0.0001   -0.0084    0.0188    0.0027   -0.0075
          24    0.0281    0.0202    0.0002    0.0001    0.0067   -0.0140   -0.0009    0.0091
          25   -0.0024    0.0190   -0.3292   -0.0157    0.0006   -0.0003    0.0020   -0.0008
          26   -0.0057   -0.0086   -0.3429   -0.0114    0.0008   -0.0001    0.0010   -0.0006
          27   -0.0053   -0.0147    0.6989    0.0232   -0.0005    0.0010   -0.0049    0.0018
          28    0.0039   -0.0123    0.0089   -0.2041    0.0017    0.0001   -0.0004    0.0005
          29    0.0040   -0.0159   -0.0105    0.1655   -0.0013   -0.0000    0.0002   -0.0004
          30   -0.0051    0.0201   -0.0252    0.3928   -0.0032   -0.0002    0.0006   -0.0011
          31    0.0047   -0.0087   -0.0077    0.1906   -0.0013    0.0004   -0.0001    0.0006
          32    0.0048   -0.0113    0.0140   -0.1995    0.0014   -0.0004   -0.0001   -0.0006
          33    0.0034   -0.0267   -0.0221    0.3199   -0.0022    0.0008    0.0001    0.0012
          34   -0.0183   -0.0083   -0.0004    0.0005    0.0193    0.0164   -0.0623    0.0096
          35   -0.0866   -0.0180    0.0079   -0.0019   -0.1678   -0.1343    0.4895   -0.0740
          36   -0.0681   -0.0174    0.0007   -0.0008   -0.0612   -0.0479    0.1721   -0.0260
          37    0.0219   -0.1015   -0.0049   -0.0006    0.0001   -0.0001    0.0003    0.0002
          38    0.0295   -0.1281   -0.0048   -0.0006    0.0001   -0.0001    0.0003    0.0000
          39   -0.0045    0.0040   -0.0008   -0.0010   -0.0000    0.0001   -0.0000    0.0001
          40   -0.0339   -0.0024    0.0033    0.0026    0.2831    0.0867    0.1278   -0.0435
          41   -0.0817   -0.0207    0.0014    0.0013    0.1417    0.0474    0.0613   -0.0228
          42   -0.0820   -0.0138    0.0028    0.0034    0.3699    0.1155    0.1658   -0.0575
          43    0.0205    0.0195   -0.0002   -0.0021   -0.1642    0.3520    0.0338   -0.1674
          44   -0.0727   -0.0052    0.0001    0.0013    0.1031   -0.2282   -0.0236    0.1056
          45   -0.0151    0.0066   -0.0000   -0.0009   -0.0729    0.1527    0.0138   -0.0741
          46    0.0204    0.0269    0.0003    0.0001    0.0035   -0.0131   -0.0080   -0.0339
          47   -0.0327    0.0214   -0.0018   -0.0008   -0.0374    0.1684    0.1183    0.5132
          48    0.0035    0.0035   -0.0007   -0.0002   -0.0118    0.0545    0.0391    0.1706


   Root No.      41        42

                41 A      42 A   

                3104.3    3208.2
  
           1   -0.0010    0.0018
           2    0.0004    0.0021
           3   -0.0001   -0.0002
           4   -0.0312   -0.0009
           5    0.0296    0.0012
           6   -0.0008   -0.0001
           7    0.0015    0.0084
           8   -0.0010   -0.0017
           9    0.0001    0.0008
          10   -0.0008   -0.0626
          11    0.0008   -0.0536
          12   -0.0000   -0.0047
          13    0.0001   -0.0000
          14   -0.0001   -0.0000
          15    0.0000   -0.0000
          16   -0.0002   -0.0003
          17    0.0003    0.0003
          18    0.0000   -0.0001
          19    0.0000   -0.0000
          20    0.0000    0.0001
          21    0.0000    0.0000
          22   -0.0000   -0.0002
          23   -0.0000   -0.0001
          24   -0.0000   -0.0001
          25   -0.0012   -0.0016
          26   -0.0001   -0.0020
          27    0.0009    0.0039
          28    0.1747   -0.0007
          29   -0.1380   -0.0002
          30   -0.3886   -0.0002
          31    0.2042   -0.0002
          32   -0.2173   -0.0008
          33    0.3987    0.0011
          34   -0.0004    0.0000
          35    0.0011   -0.0007
          36    0.0004   -0.0003
          37   -0.0013    0.6448
          38   -0.0012    0.6192
          39   -0.0001    0.0485
          40   -0.0002   -0.0002
          41   -0.0001   -0.0001
          42   -0.0002   -0.0003
          43    0.0000   -0.0000
          44    0.0000    0.0002
          45    0.0000   -0.0001
          46    0.0001   -0.0000
          47   -0.0019    0.0005
          48   -0.0007   -0.0002


           MASS-WEIGHTED COORDINATE ANALYSIS (NORMAL COORDINATES)


   Root No.       1         2         3         4         5         6         7         8

                 1 A       2 A       3 A       4 A       5 A       6 A       7 A       8 A   

                 192.9     202.3     363.8     412.3     488.0     554.4     594.7     718.3
  
           1   -0.0706    0.0922    0.1588   -0.0830   -0.0546    0.1386   -0.1185    0.2495
           2   -0.0695   -0.0531   -0.2605   -0.0933    0.2707    0.0130    0.0801    0.0496
           3    0.2807   -0.1133   -0.1147    0.2070   -0.0960    0.2710   -0.0377   -0.2193
           4   -0.0628    0.1112    0.2295   -0.1321   -0.1792    0.2194   -0.0087    0.0966
           5    0.0261    0.1355    0.1094   -0.0344   -0.0878   -0.1111    0.1699   -0.2157
           6   -0.2596   -0.3246    0.2840   -0.1246   -0.0312    0.0218    0.0393   -0.0415
           7   -0.1487   -0.0589   -0.1403   -0.1954    0.1263    0.0982    0.1129   -0.1227
           8   -0.0552   -0.0495   -0.2511   -0.0627    0.2363   -0.0755    0.0190    0.2214
           9    0.2708    0.1646    0.0718    0.3111    0.1953    0.0626    0.4730    0.3553
          10   -0.1121   -0.0683   -0.1355   -0.1670    0.1665    0.1461    0.1464   -0.0402
          11    0.0184    0.0746    0.0971   -0.0540   -0.0315   -0.1099    0.1641   -0.2112
          12   -0.3176    0.4395   -0.2268   -0.0691   -0.0457    0.0694   -0.0214    0.0353
          13   -0.0535   -0.2037   -0.0560    0.3658    0.1753    0.0142   -0.2704    0.0830
          14   -0.0439   -0.1140    0.0199    0.1180    0.0781    0.4797    0.0557    0.0390
          15    0.2530    0.1332   -0.1209   -0.1625   -0.1615    0.1494   -0.0755    0.0263
          16   -0.1309    0.1077    0.0200    0.1701   -0.1559   -0.1398    0.2573   -0.1704
          17   -0.0361    0.0112   -0.0546    0.1551   -0.0858   -0.3543   -0.1903    0.2354
          18    0.2433   -0.1298    0.0856   -0.2450    0.2567   -0.1558   -0.0644   -0.1393
          19    0.3185   -0.1737   -0.2043   -0.0268   -0.2465   -0.2045   -0.2025    0.1703
          20    0.0768   -0.0900    0.0733   -0.0547   -0.2303    0.1088   -0.0760    0.0624
          21   -0.1556    0.1206    0.1550    0.2311    0.0906   -0.1140   -0.3715   -0.0275
          22    0.2289    0.1712    0.1041   -0.0377    0.2418   -0.3358    0.0786   -0.1544
          23    0.0860    0.0616    0.2152   -0.0054   -0.0758    0.0703   -0.2583    0.0057
          24   -0.2097   -0.2338   -0.1642    0.0848   -0.2031   -0.2574    0.1537   -0.0358
          25    0.0497    0.1090    0.0477   -0.0310   -0.0974    0.0772   -0.0239    0.1100
          26   -0.0540   -0.0564   -0.1688   -0.1119    0.0838   -0.0261   -0.0616   -0.1219
          27    0.0937   -0.0120   -0.0760    0.0113   -0.0605    0.0786   -0.0466   -0.1072
          28   -0.1130   -0.0041    0.2045   -0.1202   -0.0644   -0.0110    0.0281    0.1663
          29    0.0011    0.2154   -0.0644    0.0167   -0.0808   -0.0048    0.0210   -0.0964
          30   -0.1205   -0.1842    0.1944   -0.0906    0.0066   -0.0437    0.0415    0.0723
          31    0.0817    0.0980   -0.0000    0.0482   -0.1075    0.1320   -0.0439   -0.0895
          32    0.0274   -0.0876    0.1885   -0.0255   -0.0517   -0.0635    0.0764   -0.0634
          33   -0.1201   -0.2076    0.2165   -0.0957    0.0077   -0.0524    0.0517    0.0621
          34   -0.0650   -0.1456   -0.0990    0.3037    0.1348    0.0822   -0.0832   -0.2656
          35   -0.0397   -0.0668    0.0033    0.1203    0.0247    0.1686   -0.0072   -0.1124
          36    0.1307    0.1022   -0.0597   -0.2211   -0.0219   -0.0166    0.0423    0.2517
          37   -0.0378   -0.0498   -0.1015   -0.0519    0.1177    0.0519    0.0452    0.0638
          38    0.0214    0.0420    0.1029   -0.0029   -0.0782   -0.0387    0.0634   -0.1240
          39   -0.2287    0.2675   -0.1947   -0.1429   -0.0522   -0.0071   -0.2359   -0.1806
          40    0.1689   -0.1255   -0.1756   -0.0082   -0.2453    0.0091   -0.0112   -0.0663
          41    0.0328   -0.0627   -0.0136   -0.0277   -0.1592   -0.0646    0.0581   -0.0843
          42   -0.1079    0.1059    0.1460    0.0717    0.1956   -0.0485   -0.1741    0.1192
          43    0.1126    0.1240    0.1312    0.0254    0.1869   -0.0665    0.0018   -0.1748
          44    0.0378    0.0701    0.1440    0.0100    0.0557    0.0726   -0.0252   -0.1374
          45   -0.1473   -0.1625   -0.1581   -0.0408   -0.2157   -0.0681    0.1637    0.0774
          46   -0.0894    0.0708    0.0742    0.2000   -0.1792   -0.0551    0.1042   -0.1294
          47   -0.0360    0.0282   -0.0151    0.1294   -0.0492   -0.1160   -0.0012    0.0956
          48    0.1363   -0.1037    0.0360   -0.2959    0.1226   -0.0040   -0.1724   -0.1340


   Root No.       9        10        11        12        13        14        15        16

                 9 A      10 A      11 A      12 A      13 A      14 A      15 A      16 A   

                 748.8     817.0     829.9     863.9     914.2     952.0     964.4     988.9
  
           1   -0.0852   -0.0283   -0.0042   -0.0457   -0.1146   -0.1920   -0.0143    0.1602
           2   -0.0830    0.0292    0.0368    0.0589   -0.2025    0.2662    0.1270   -0.0090
           3    0.1502    0.0993   -0.0376    0.1270    0.1392   -0.0832   -0.0511   -0.0821
           4   -0.1079   -0.0263   -0.1679    0.3739    0.0598    0.3236    0.1064   -0.0737
           5    0.0723    0.0134    0.0293   -0.0881    0.1754   -0.0367   -0.0686   -0.0817
           6    0.0883   -0.1422    0.0708    0.1834    0.1907   -0.0439    0.0308    0.2239
           7    0.0110   -0.0697    0.0750   -0.1136    0.1244   -0.0455   -0.0563   -0.0054
           8   -0.1082   -0.0768   -0.0876    0.0249    0.1715   -0.0799   -0.0382    0.0114
           9   -0.0871    0.0459   -0.1211   -0.1879    0.1443    0.2420    0.1030   -0.0014
          10   -0.0473   -0.0603    0.0629   -0.1477    0.2364   -0.0068   -0.0711    0.0109
          11    0.0719    0.0020    0.1238   -0.2253   -0.0403   -0.1082   -0.0326    0.1005
          12    0.0845   -0.2640    0.0640    0.0075   -0.1114   -0.0218   -0.0436   -0.1671
          13    0.1480    0.1132    0.1822   -0.0366   -0.0545   -0.0398    0.2090    0.0745
          14    0.0927    0.2121    0.0189    0.1271   -0.2593   -0.2811    0.0859    0.0715
          15   -0.1180   -0.0047   -0.1060   -0.0757   -0.2317   -0.0810   -0.1715   -0.0338
          16    0.1902    0.0523   -0.0726   -0.1081   -0.1138   -0.0220    0.1751   -0.1400
          17   -0.0181   -0.0549   -0.2992    0.2921    0.0654   -0.1662    0.0501   -0.0633
          18   -0.1506    0.0518    0.1372    0.1902   -0.0640    0.0105   -0.2174    0.2234
          19    0.0555    0.0464    0.2221   -0.1384    0.0388    0.1192   -0.1884   -0.2060
          20    0.0332    0.0220    0.1380   -0.1014    0.0706    0.0529   -0.0996   -0.0936
          21   -0.0774   -0.1781    0.0046   -0.3057    0.0555    0.0797    0.1872    0.1807
          22    0.1342    0.0696   -0.2410    0.1731   -0.1420   -0.0958   -0.0811    0.2258
          23    0.0515   -0.0903    0.0034   -0.1775    0.0543    0.2139   -0.0453    0.0997
          24   -0.1023    0.0513    0.1305    0.1700   -0.0400   -0.1729    0.1251   -0.2777
          25   -0.0848    0.0103   -0.1283   -0.0381   -0.0474   -0.2551   -0.1492   -0.0441
          26   -0.0559   -0.0281    0.0829    0.1320   -0.1640    0.4872    0.0786   -0.0608
          27   -0.0024    0.0195   -0.0334    0.0754   -0.0258    0.0804   -0.0637   -0.0935
          28   -0.1556   -0.0453   -0.1246   -0.0119   -0.2382    0.0539   -0.1323   -0.1844
          29    0.1503   -0.2856    0.1087    0.1447    0.0424   -0.0784   -0.1209    0.0936
          30   -0.0944    0.0637   -0.0622   -0.0833   -0.0758   -0.0034   -0.0338   -0.0728
          31    0.0872   -0.0002   -0.0352    0.3253    0.3563    0.1387    0.1375    0.0524
          32   -0.0731    0.2473   -0.1224   -0.0893    0.1764    0.0632    0.0247   -0.2244
          33   -0.1055    0.1059   -0.0718   -0.1155   -0.0671    0.0027   -0.0284   -0.1034
          34   -0.1558   -0.1163   -0.3052   -0.0187   -0.1969    0.1147   -0.2508   -0.1085
          35   -0.0571   -0.0251   -0.1395    0.0029   -0.0670   -0.0523   -0.1380   -0.0241
          36    0.1327    0.1925    0.2535    0.0745   -0.1611   -0.0603    0.3020    0.0700
          37   -0.0434   -0.0807    0.0163   -0.0885    0.2622   -0.1116   -0.1486   -0.0373
          38    0.0689    0.0076    0.0519   -0.0097   -0.2231    0.0827    0.1161    0.0577
          39   -0.2089    0.6550   -0.1719   -0.1081    0.1859   -0.0019    0.0618    0.1225
          40   -0.3186   -0.1972   -0.0787   -0.1717   -0.0561   -0.0549    0.2872    0.2411
          41   -0.1472   -0.1182   -0.0464   -0.0201    0.0999    0.0169    0.1346    0.0813
          42    0.2939    0.1580    0.1452    0.0062    0.0337    0.0919   -0.2689   -0.2196
          43   -0.2279   -0.0168    0.1534    0.1299   -0.0254   -0.1739    0.1409   -0.2278
          44   -0.1274   -0.0278    0.1467   -0.0102   -0.0146   -0.0135    0.1065   -0.1483
          45    0.3752    0.1001   -0.2569   -0.0725   -0.1025    0.1694   -0.1627    0.3303
          46   -0.1310    0.1123    0.3077    0.0225   -0.1734    0.1475   -0.1588    0.1485
          47   -0.1462    0.0343    0.0446    0.1581    0.0290   -0.0258   -0.1279    0.1026
          48    0.3423   -0.1188   -0.2939   -0.1521   -0.0723   -0.0349    0.3231   -0.2608


   Root No.      17        18        19        20        21        22        23        24

                17 A      18 A      19 A      20 A      21 A      22 A      23 A      24 A   

                1002.0    1014.5    1044.1    1078.3    1082.5    1113.9    1128.9    1155.5
  
           1   -0.1838   -0.1199    0.0781    0.3348   -0.2066   -0.0954    0.1415    0.2144
           2    0.0359   -0.0030    0.1433   -0.0598   -0.1086    0.2035   -0.2851   -0.2306
           3    0.0323    0.0506   -0.2036    0.0237    0.3452   -0.0477    0.0187    0.0699
           4    0.0301   -0.0327   -0.0154   -0.2037    0.1298    0.0172   -0.0613   -0.0164
           5    0.1685    0.2156    0.0131   -0.0411   -0.0706    0.0463   -0.0964   -0.0920
           6    0.0664   -0.2201    0.2014    0.0921   -0.1295    0.0507   -0.0731   -0.0693
           7   -0.0524   -0.0246   -0.0520   -0.1198    0.1470   -0.0387    0.0462   -0.0097
           8   -0.0426   -0.0389    0.0018    0.0473    0.0619    0.0110    0.0554   -0.1011
           9    0.0796   -0.1781    0.0588    0.0943   -0.0062   -0.0974    0.0049    0.0317
          10   -0.0140   -0.0503    0.0021   -0.1433    0.2209   -0.0793   -0.0061    0.0094
          11   -0.1817   -0.1895   -0.0091    0.0753    0.1192   -0.1487    0.1145    0.2645
          12   -0.3078    0.2765   -0.0729   -0.0624    0.0463    0.0005    0.0158    0.0152
          13    0.0769    0.1522   -0.0817    0.0651    0.1098    0.0431    0.0128   -0.0199
          14    0.0421    0.0742   -0.1477   -0.1001   -0.2020   -0.0837   -0.0299    0.0046
          15    0.0009   -0.0712    0.1168   -0.1377   -0.2654    0.0011    0.0781    0.0383
          16    0.0632   -0.0484    0.0373    0.0397   -0.1105    0.0043    0.0058   -0.0502
          17   -0.0330   -0.0124    0.0961   -0.0239    0.1837   -0.2373    0.0569    0.0961
          18   -0.0411    0.1398    0.0136   -0.0550    0.0712   -0.0573    0.0062   -0.0317
          19   -0.0050   -0.1439    0.0195   -0.0869   -0.1364    0.0637   -0.0209   -0.0647
          20   -0.0295   -0.1278   -0.1389   -0.0731   -0.1684    0.1058   -0.0747   -0.0013
          21    0.0360    0.0538   -0.2182   -0.1197   -0.1197    0.1021   -0.1049   -0.0804
          22   -0.0422    0.0590   -0.2072   -0.0322   -0.1493    0.0754   -0.0456   -0.0204
          23    0.0268    0.0993    0.2025    0.0309    0.2252   -0.0284    0.1112    0.0175
          24    0.0163   -0.1038    0.0413    0.0116   -0.0587   -0.0119    0.0407   -0.0029
          25   -0.0963    0.0056    0.0859    0.4134    0.2036    0.2339   -0.3918   -0.3676
          26   -0.0112   -0.0325   -0.2614    0.4364   -0.1505   -0.2145    0.1326    0.1224
          27   -0.0199    0.0164   -0.1773    0.3810    0.1650   -0.0254   -0.0921   -0.0862
          28    0.4247    0.0836   -0.2641   -0.0576    0.1617   -0.0397    0.0864    0.0382
          29    0.5798   -0.0814   -0.0428    0.0417   -0.0934    0.0096    0.0414   -0.0374
          30    0.0122    0.0485   -0.0591    0.0035    0.0593   -0.0058    0.0012    0.0040
          31   -0.1847    0.0891    0.1490   -0.0027   -0.2351    0.0285    0.0490   -0.0294
          32   -0.1923    0.4433   -0.0470   -0.0302   -0.1903    0.0082    0.0809   -0.0245
          33   -0.0190    0.1128   -0.0632   -0.0118    0.0223   -0.0016    0.0047   -0.0056
          34    0.0243   -0.0160    0.3918   -0.0950    0.0148    0.2609    0.0541    0.3175
          35   -0.0366   -0.0734   -0.0557   -0.0368   -0.1512   -0.0786   -0.0104   -0.0631
          36    0.1399    0.2246    0.2056   -0.0623    0.1643    0.2479    0.0322    0.3096
          37    0.1572    0.2547    0.0468    0.1663   -0.1386   -0.0655    0.0146    0.1942
          38   -0.2451   -0.3132   -0.0562   -0.2024    0.2532   -0.0010    0.0173   -0.1210
          39    0.2147   -0.2213    0.0425    0.0302    0.0212   -0.0224    0.0073    0.0210
          40    0.0563    0.1490    0.0084   -0.0843   -0.0367   -0.1775    0.1159   -0.2476
          41   -0.0461   -0.0374   -0.2458    0.1151    0.0193    0.4465   -0.3054    0.4674
          42   -0.0176   -0.1298    0.0134   -0.0459   -0.0685    0.0265   -0.0133   -0.0305
          43    0.0157   -0.0706    0.0146    0.0694   -0.0489    0.1181    0.1523   -0.0817
          44    0.0435    0.0052    0.1781    0.2161    0.1023    0.3027    0.4900   -0.2111
          45   -0.0051    0.1380    0.0140    0.1267    0.0355    0.2329    0.3047   -0.1563
          46    0.0418    0.2248    0.3246    0.0956    0.0629   -0.3251   -0.3301    0.0294
          47   -0.0454    0.0293   -0.0255   -0.0408    0.0710   -0.0193    0.0646    0.0132
          48    0.0999   -0.0080    0.2409    0.1072    0.0041   -0.2450   -0.1979    0.0452


   Root No.      25        26        27        28        29        30        31        32

                25 A      26 A      27 A      28 A      29 A      30 A      31 A      32 A   

                1189.7    1197.8    1258.1    1347.6    1384.8    1398.9    1462.5    1786.7
  
           1   -0.0228    0.1107   -0.2326   -0.0896    0.2833    0.0681    0.3731   -0.0014
           2    0.1446    0.0311    0.1470   -0.3966    0.1062    0.0155    0.3329   -0.0222
           3    0.1534    0.0924    0.0100   -0.0471    0.2593    0.1184    0.3311   -0.0009
           4    0.3094   -0.2279    0.0299    0.0849   -0.0335    0.2772   -0.1593    0.0032
           5    0.0529   -0.2794   -0.4806    0.1370    0.1277   -0.2793    0.0513   -0.0092
           6   -0.0663   -0.0452    0.0007    0.0177   -0.0366   -0.0341   -0.0405   -0.0002
           7   -0.1376    0.0884   -0.0247    0.0486   -0.0077    0.0137   -0.1096   -0.1361
           8    0.0685    0.3424   -0.0013    0.4588    0.3265    0.1584   -0.2869    0.0244
           9   -0.0664    0.0008   -0.0404    0.0073   -0.0968   -0.0207   -0.0129   -0.0005
          10   -0.1479   -0.0137   -0.1712   -0.0953   -0.3200   -0.1410    0.1767    0.1504
          11    0.1601   -0.0925    0.5028   -0.0713   -0.1425    0.0611   -0.0791   -0.0108
          12    0.0244    0.0001    0.0092   -0.0122   -0.0107    0.0000    0.0221    0.0109
          13    0.0520    0.0406   -0.0599   -0.1446   -0.0398   -0.0784   -0.2197   -0.0913
          14   -0.0391   -0.0448   -0.0165    0.0756   -0.1793   -0.0632   -0.1620    0.0951
          15    0.0891    0.0794   -0.1227   -0.1498   -0.1048   -0.1214   -0.2980   -0.0569
          16   -0.0861   -0.0840    0.0785   -0.0988    0.3288    0.0199   -0.1846   -0.4207
          17   -0.0237   -0.0581   -0.1037   -0.1203   -0.2911   -0.0753    0.1128   -0.2231
          18   -0.0683   -0.0388    0.0024   -0.0895    0.1167   -0.0118   -0.0939   -0.3741
          19    0.0598    0.0302    0.0145    0.0085   -0.1031   -0.0280   -0.0564    0.0818
          20   -0.0867   -0.0884    0.1151    0.3044   -0.0133    0.1118    0.3115   -0.2153
          21    0.0039   -0.0267    0.0847    0.1660   -0.1159    0.0258    0.0788   -0.0088
          22    0.0346   -0.0336    0.0600    0.1175   -0.0116    0.0396    0.0923    0.3744
          23   -0.1274   -0.0732   -0.0045   -0.2680    0.2940   -0.0242   -0.2268    0.4035
          24   -0.0355   -0.0713    0.0392   -0.0434    0.1157    0.0157   -0.0244    0.4290
          25   -0.2035   -0.1059    0.1526   -0.0057   -0.1153   -0.0117   -0.0893   -0.0000
          26   -0.1730   -0.1417   -0.1157    0.0866   -0.0865   -0.0418   -0.0606    0.0077
          27   -0.1557   -0.1132    0.0284    0.0906   -0.0792   -0.0056   -0.0714    0.0054
          28   -0.0458    0.2559    0.2653    0.0154    0.0802   -0.3463    0.0892    0.0008
          29   -0.2621    0.2360   -0.0086   -0.1616   -0.1206    0.3215    0.0072    0.0028
          30    0.0233    0.0181    0.0724    0.0712    0.0863   -0.3459    0.0535   -0.0034
          31   -0.1855    0.2562    0.3169    0.0189   -0.0020   -0.3721    0.0101    0.0047
          32   -0.2856    0.2729    0.0083   -0.1555   -0.1168    0.2560    0.0111    0.0071
          33   -0.0400    0.0176   -0.0808   -0.0961   -0.0932    0.4028   -0.0373    0.0049
          34   -0.2468   -0.1105    0.0433    0.2092    0.0013    0.0485    0.0783   -0.0083
          35    0.0588    0.0281   -0.0299   -0.0405   -0.0539   -0.0365   -0.0761    0.0275
          36   -0.2632   -0.1374    0.0585    0.2241   -0.0389    0.0359    0.0413    0.0079
          37    0.2164   -0.2238    0.2268   -0.0653   -0.0782    0.0107    0.0010    0.0203
          38   -0.2215    0.1984   -0.1405    0.0198   -0.0729   -0.0399    0.0303    0.0355
          39   -0.0057    0.0166    0.0133   -0.0018   -0.0003    0.0045    0.0071    0.0058
          40   -0.0714   -0.1293    0.1016    0.1090    0.0047    0.0442    0.1038    0.0132
          41    0.1525    0.2551   -0.1664   -0.1236   -0.0834   -0.0768   -0.1506   -0.0303
          42    0.0016   -0.0114    0.0301    0.0562   -0.0386    0.0095    0.0245    0.0023
          43    0.1125    0.0356   -0.0041    0.0761   -0.0996    0.0059    0.0659    0.0650
          44    0.2564    0.1113   -0.0671    0.0282   -0.1960   -0.0293    0.0379   -0.0869
          45    0.1940    0.0700   -0.0278    0.0670   -0.1645   -0.0096    0.0707    0.0051
          46    0.2124    0.3301   -0.0477    0.2251   -0.1241    0.0297    0.0430    0.0410
          47   -0.0400   -0.0527   -0.0263   -0.0662   -0.0570   -0.0253    0.0158   -0.1100
          48    0.1273    0.1723   -0.0355    0.1104   -0.1097    0.0054    0.0412   -0.0227


   Root No.      33        34        35        36        37        38        39        40

                33 A      34 A      35 A      36 A      37 A      38 A      39 A      40 A   

                1822.2    1911.7    2945.1    3050.0    3052.8    3064.1    3080.7    3091.0
  
           1   -0.0815    0.0046    0.1041    0.0053    0.0011    0.0004    0.0007   -0.0012
           2   -0.0273    0.0661    0.1114    0.0048   -0.0005    0.0007   -0.0023    0.0021
           3   -0.0805   -0.0057   -0.2234   -0.0108    0.0017   -0.0003    0.0039   -0.0019
           4    0.0057   -0.0266    0.0041    0.0056   -0.0003   -0.0002   -0.0000   -0.0003
           5   -0.0201    0.0659    0.0008    0.0151    0.0001    0.0004   -0.0003    0.0003
           6   -0.0036    0.0044    0.0145   -0.3049    0.0028   -0.0003   -0.0009   -0.0001
           7   -0.1335    0.7355    0.0040    0.0009   -0.0014    0.0014    0.0008   -0.0080
           8    0.0296   -0.2080    0.0024   -0.0000   -0.0005   -0.0000    0.0022    0.0020
           9   -0.0074    0.1262   -0.0008   -0.0020   -0.0007    0.0008    0.0011   -0.0033
          10    0.1185   -0.4812   -0.0030   -0.0003    0.0004   -0.0006   -0.0003    0.0012
          11    0.0070   -0.0060   -0.0013    0.0000   -0.0000   -0.0001   -0.0001   -0.0003
          12    0.0079   -0.0382   -0.0016   -0.0017    0.0001   -0.0002   -0.0001   -0.0001
          13    0.4597    0.0571   -0.0020    0.0013   -0.0030   -0.0074    0.0461   -0.0076
          14   -0.3283   -0.0567   -0.0015    0.0007    0.0774    0.0688   -0.2506    0.0392
          15    0.3409    0.0370   -0.0035    0.0005    0.0342    0.0257   -0.0724    0.0106
          16   -0.0924   -0.2777   -0.0004   -0.0003   -0.0045    0.0146    0.0026    0.0039
          17   -0.0573    0.0890    0.0001    0.0003    0.0182   -0.0848   -0.0571   -0.2551
          18   -0.0900   -0.1437   -0.0007   -0.0003    0.0034   -0.0217   -0.0198   -0.0940
          19   -0.4137   -0.0593    0.0018   -0.0011   -0.1484   -0.0473   -0.0787    0.0248
          20    0.4677    0.0616   -0.0020   -0.0006   -0.0652   -0.0254   -0.0145    0.0106
          21   -0.2137   -0.0324   -0.0005   -0.0015   -0.1893   -0.0623   -0.0908    0.0312
          22    0.1324    0.0653   -0.0000    0.0011    0.0854   -0.1953   -0.0154    0.0967
          23   -0.0022    0.0364    0.0008   -0.0003   -0.0496    0.1185    0.0151   -0.0417
          24    0.0960    0.0624    0.0007    0.0006    0.0396   -0.0884   -0.0050    0.0507
          25   -0.0023    0.0170   -0.3745   -0.0236    0.0010   -0.0006    0.0033   -0.0014
          26   -0.0056   -0.0077   -0.3901   -0.0171    0.0014   -0.0002    0.0017   -0.0010
          27   -0.0052   -0.0132    0.7949    0.0349   -0.0009    0.0018   -0.0080    0.0029
          28    0.0038   -0.0110    0.0102   -0.3062    0.0029    0.0002   -0.0007    0.0009
          29    0.0040   -0.0142   -0.0119    0.2482   -0.0022   -0.0001    0.0003   -0.0007
          30   -0.0050    0.0181   -0.0287    0.5893   -0.0055   -0.0003    0.0011   -0.0018
          31    0.0047   -0.0078   -0.0088    0.2860   -0.0022    0.0008   -0.0002    0.0010
          32    0.0048   -0.0101    0.0159   -0.2994    0.0024   -0.0008   -0.0002   -0.0009
          33    0.0034   -0.0240   -0.0251    0.4800   -0.0038    0.0015    0.0002    0.0019
          34   -0.0181   -0.0074   -0.0004    0.0007    0.0330    0.0300   -0.1022    0.0154
          35   -0.0856   -0.0162    0.0090   -0.0028   -0.2871   -0.2458    0.8034   -0.1192
          36   -0.0674   -0.0156    0.0008   -0.0012   -0.1048   -0.0877    0.2825   -0.0420
          37    0.0217   -0.0911   -0.0056   -0.0009    0.0001   -0.0002    0.0005    0.0002
          38    0.0291   -0.1149   -0.0054   -0.0009    0.0002   -0.0003    0.0005    0.0000
          39   -0.0045    0.0036   -0.0009   -0.0014   -0.0000    0.0002   -0.0000    0.0001
          40   -0.0335   -0.0022    0.0038    0.0039    0.4844    0.1588    0.2098   -0.0701
          41   -0.0807   -0.0186    0.0016    0.0019    0.2425    0.0868    0.1006   -0.0367
          42   -0.0811   -0.0124    0.0032    0.0052    0.6331    0.2115    0.2721   -0.0926
          43    0.0203    0.0174   -0.0002   -0.0032   -0.2810    0.6444    0.0555   -0.2696
          44   -0.0718   -0.0047    0.0001    0.0020    0.1764   -0.4177   -0.0387    0.1701
          45   -0.0150    0.0059   -0.0000   -0.0014   -0.1248    0.2796    0.0227   -0.1193
          46    0.0201    0.0241    0.0004    0.0001    0.0061   -0.0240   -0.0132   -0.0546
          47   -0.0324    0.0192   -0.0021   -0.0013   -0.0640    0.3082    0.1942    0.8268
          48    0.0035    0.0031   -0.0007   -0.0004   -0.0202    0.0998    0.0642    0.2748


   Root No.      41        42

                41 A      42 A   

                3104.3    3208.2
  
           1   -0.0049    0.0066
           2    0.0021    0.0077
           3   -0.0007   -0.0006
           4   -0.1568   -0.0034
           5    0.1490    0.0044
           6   -0.0042   -0.0003
           7    0.0073    0.0307
           8   -0.0052   -0.0061
           9    0.0005    0.0029
          10   -0.0040   -0.2299
          11    0.0039   -0.1967
          12   -0.0002   -0.0172
          13    0.0004   -0.0002
          14   -0.0005   -0.0001
          15    0.0001   -0.0001
          16   -0.0008   -0.0011
          17    0.0014    0.0012
          18    0.0001   -0.0003
          19    0.0000   -0.0001
          20    0.0001    0.0002
          21    0.0001    0.0000
          22   -0.0000   -0.0006
          23   -0.0000   -0.0004
          24   -0.0000   -0.0005
          25   -0.0017   -0.0017
          26   -0.0001   -0.0021
          27    0.0013    0.0041
          28    0.2547   -0.0007
          29   -0.2012   -0.0002
          30   -0.5664   -0.0003
          31    0.2977   -0.0003
          32   -0.3168   -0.0009
          33    0.5812    0.0011
          34   -0.0006    0.0000
          35    0.0016   -0.0007
          36    0.0005   -0.0003
          37   -0.0019    0.6859
          38   -0.0017    0.6587
          39   -0.0002    0.0516
          40   -0.0002   -0.0002
          41   -0.0002   -0.0001
          42   -0.0003   -0.0003
          43    0.0000   -0.0000
          44    0.0001    0.0002
          45    0.0000   -0.0001
          46    0.0002   -0.0000
          47   -0.0027    0.0005
          48   -0.0010   -0.0002


          DESCRIPTION OF VIBRATIONS


 VIBRATION          1    1A           ATOM PAIR      ENERGY CONTRIBUTION    RADIAL
 FREQUENCY           192.88         C  1 -- C  2         +12.8% (239.4%)      0.0%
 TRANSITION DIPOLE   0.1264         C  1 -- C  4          +9.5% (206.1%)      0.0%
 TRAVEL (Ang.)       0.6219         C  1 -- C  3          +8.0% (189.0%)      0.9%
 REDUCED MASS        0.9040         C  2 -- C  3          +7.9% (188.2%)      0.0%
 EFFECTIVE MASS     53.4933
 FORCE CONSTANT      0.0198

 VIBRATION          2    2A           ATOM PAIR      ENERGY CONTRIBUTION    RADIAL
 FREQUENCY           202.32         C  2 -- C  4         +18.3% (248.1%)      0.0%
 TRANSITION DIPOLE   0.0576         C  2 -- C  3         +11.7% (197.9%)      0.1%
 TRAVEL (Ang.)       0.5896         C  1 -- C  2         +11.3% (194.4%)      0.4%
 REDUCED MASS        0.9587         C  2 -- H 10         +10.9% (191.0%)     95.2%
 EFFECTIVE MASS     49.8683         C  2 -- H 11         +10.6% (188.3%)     55.2%
 FORCE CONSTANT      0.0231

 VIBRATION          3    3A           ATOM PAIR      ENERGY CONTRIBUTION    RADIAL
 FREQUENCY           363.77         C  1 -- C  2         +10.9% (132.1%)      1.7%
 TRANSITION DIPOLE   0.0457         C  2 -- C  3         +10.9% (132.1%)      0.0%
 TRAVEL (Ang.)       0.5025         C  2 -- C  4         +10.3% (128.7%)      0.1%
 REDUCED MASS        0.7342         C  2 -- H 10          +7.9% (112.6%)     39.5%
 EFFECTIVE MASS     20.8701
 FORCE CONSTANT      0.0572

 VIBRATION          4    4A           ATOM PAIR      ENERGY CONTRIBUTION    RADIAL
 FREQUENCY           412.29         C  1 -- C  5         +10.6% ( 99.2%)      0.0%
 TRANSITION DIPOLE   0.3783         C  3 -- C  6         +10.3% ( 97.7%)      0.0%
 TRAVEL (Ang.)       0.4248         C  1 -- C  4          +8.5% ( 88.6%)      2.0%
 REDUCED MASS        0.9063         C  1 -- C  3          +8.2% ( 87.3%)      1.8%
 EFFECTIVE MASS     16.3800
 FORCE CONSTANT      0.0908

 VIBRATION          5    5A           ATOM PAIR      ENERGY CONTRIBUTION    RADIAL
 FREQUENCY           488.02         C  1 -- C  3          +8.4% ( 78.2%)      0.3%
 TRANSITION DIPOLE   0.1146         C  1 -- C  4          +7.9% ( 75.9%)      2.6%
 TRAVEL (Ang.)       0.4249         C  3 -- C  6          +7.9% ( 75.8%)      0.1%
 REDUCED MASS        0.7652         C  7 -- C  8          +7.9% ( 75.8%)      0.0%
 EFFECTIVE MASS     13.9533
 FORCE CONSTANT      0.1074

 VIBRATION          6    6A           ATOM PAIR      ENERGY CONTRIBUTION    RADIAL
[...]
 TRANSITION DIPOLE   0.0510         C  1 -- H  9         +16.0% ( 50.1%)      0.5%
 TRAVEL (Ang.)       0.4083         C  5 -- H 12         +11.7% ( 42.8%)      0.1%
 REDUCED MASS        0.3500         C  1 -- C  4          +8.9% ( 37.3%)     15.2%
 EFFECTIVE MASS      3.4145
 FORCE CONSTANT      0.2753

 VIBRATION         25   25A           ATOM PAIR      ENERGY CONTRIBUTION    RADIAL
 FREQUENCY          1189.70         C  2 -- H 11         +11.1% ( 43.4%)      0.4%
 TRANSITION DIPOLE   0.0530         C  5 -- H 12          +8.7% ( 38.4%)      0.1%
 TRAVEL (Ang.)       0.4564         C  4 -- H 13          +8.4% ( 37.9%)      0.0%
 REDUCED MASS        0.2721         C  8 -- H 15          +8.0% ( 37.0%)      1.4%
 EFFECTIVE MASS      3.3781
 FORCE CONSTANT      0.2269

 VIBRATION         26   26A           ATOM PAIR      ENERGY CONTRIBUTION    RADIAL
 FREQUENCY          1197.75         C  2 -- H 11         +14.0% ( 48.6%)      0.0%
 TRANSITION DIPOLE   0.0704         C  2 -- H 10         +12.3% ( 45.6%)      0.1%
 TRAVEL (Ang.)       0.3416         C  2 -- C  3          +9.9% ( 40.9%)     11.1%
 REDUCED MASS        0.4825         C  6 -- H 16          +8.6% ( 38.1%)      0.9%
 EFFECTIVE MASS      3.8474
 FORCE CONSTANT      0.4078

 VIBRATION         27   27A           ATOM PAIR      ENERGY CONTRIBUTION    RADIAL
 FREQUENCY          1258.05         C  2 -- C  4         +21.2% ( 72.5%)     97.9%
 TRANSITION DIPOLE   0.1628         C  4 -- H 13         +10.9% ( 52.0%)      4.4%
 TRAVEL (Ang.)       0.1770         C  1 -- C  4          +9.9% ( 49.6%)     68.0%
 REDUCED MASS        1.7102         C  2 -- H 11          +9.6% ( 48.9%)      8.1%
 EFFECTIVE MASS      8.2065
 FORCE CONSTANT      1.5947

 VIBRATION         28   28A           ATOM PAIR      ENERGY CONTRIBUTION    RADIAL
 FREQUENCY          1347.55         C  1 -- C  3         +15.2% ( 60.2%)     99.0%
 TRANSITION DIPOLE   0.0894         C  7 -- C  8         +10.1% ( 49.2%)     99.6%
 TRAVEL (Ang.)       0.2028         C  3 -- C  6          +7.7% ( 42.8%)     10.4%
 REDUCED MASS        1.2168         C  3 -- C  4          +7.1% ( 41.2%)      6.9%
 EFFECTIVE MASS      8.6520
 FORCE CONSTANT      1.3018

 VIBRATION         29   29A           ATOM PAIR      ENERGY CONTRIBUTION    RADIAL
 FREQUENCY          1384.77         C  3 -- C  6         +12.5% ( 58.4%)     84.3%
 TRANSITION DIPOLE   0.2415         C  1 -- C  4         +10.7% ( 54.1%)     74.4%
 TRAVEL (Ang.)       0.1919         C  6 -- C  8          +8.7% ( 48.8%)      0.1%
 REDUCED MASS        1.3219         C  3 -- C  4          +8.2% ( 47.3%)     28.7%
 EFFECTIVE MASS      9.9775
 FORCE CONSTANT      1.4935

 VIBRATION         30   30A           ATOM PAIR      ENERGY CONTRIBUTION    RADIAL
 FREQUENCY          1398.89         C  2 -- H 11         +26.1% ( 61.4%)      4.0%
 TRANSITION DIPOLE   0.0456         C  2 -- H 10         +24.6% ( 59.6%)      4.8%
 TRAVEL (Ang.)       0.2894         C  2 -- C  4         +10.2% ( 38.3%)     46.3%
 REDUCED MASS        0.5755         C  2 -- C  3          +9.8% ( 37.7%)     95.2%
 EFFECTIVE MASS      3.8276
 FORCE CONSTANT      0.6635

 VIBRATION         31   31A           ATOM PAIR      ENERGY CONTRIBUTION    RADIAL
 FREQUENCY          1462.51         C  1 -- C  5         +17.9% ( 70.9%)     93.4%
 TRANSITION DIPOLE   0.0974         C  1 -- C  3         +12.4% ( 58.9%)     58.8%
 TRAVEL (Ang.)       0.1439         C  1 -- C  2         +10.0% ( 52.9%)     56.6%
 REDUCED MASS        2.2276         C  1 -- H  9          +9.7% ( 52.2%)      0.0%
 EFFECTIVE MASS     11.0033
 FORCE CONSTANT      2.8072

 VIBRATION         32   32A           ATOM PAIR      ENERGY CONTRIBUTION    RADIAL
 FREQUENCY          1786.66         C  6 -- C  8         +39.3% ( 93.9%)     99.5%
 TRANSITION DIPOLE   0.2015         C  7 -- C  8         +16.6% ( 61.0%)     71.7%
 TRAVEL (Ang.)       0.0914         C  8 -- H 15         +13.6% ( 55.1%)      3.9%
 REDUCED MASS        4.5140         C  3 -- C  6         +10.1% ( 47.6%)     11.4%
 EFFECTIVE MASS     11.9272
 FORCE CONSTANT      8.4898

 VIBRATION         33   33A           ATOM PAIR      ENERGY CONTRIBUTION    RADIAL
 FREQUENCY          1822.18         C  5 -- C  7         +40.1% ( 94.1%)     99.9%
 TRANSITION DIPOLE   0.4032         C  7 -- C  8         +13.3% ( 54.2%)     26.8%
 TRAVEL (Ang.)       0.0899         C  1 -- C  5         +13.1% ( 53.9%)     50.9%
 REDUCED MASS        4.5783         C  7 -- H 14         +12.0% ( 51.5%)      5.8%
 EFFECTIVE MASS     11.8391         C  5 -- H 12         +11.8% ( 51.1%)      5.0%
 FORCE CONSTANT      8.9564

 VIBRATION         34   34A           ATOM PAIR      ENERGY CONTRIBUTION    RADIAL
 FREQUENCY          1911.74         C  3 -- C  4         +29.3% ( 90.3%)     96.9%
 TRANSITION DIPOLE   0.3173         C  3 -- C  6         +20.1% ( 74.8%)     88.2%
 TRAVEL (Ang.)       0.0830         C  2 -- C  3         +15.1% ( 64.8%)     78.1%
 REDUCED MASS        5.1175         C  1 -- C  3         +14.9% ( 64.5%)      7.2%
 EFFECTIVE MASS     11.9360
 FORCE CONSTANT     11.0195

 VIBRATION         35   35A           ATOM PAIR      ENERGY CONTRIBUTION    RADIAL
 FREQUENCY          2945.07         C  1 -- H  9         +95.8% ( 99.9%)    100.0%
 TRANSITION DIPOLE   0.1646         C  1 -- C  2          +1.0% ( 10.2%)     12.7%
 TRAVEL (Ang.)       0.1573         C  1 -- C  4          +1.0% ( 10.2%)     29.2%
 REDUCED MASS        0.9254         C  1 -- C  3          +1.0% ( 10.1%)     19.1%
 EFFECTIVE MASS      1.4337
 FORCE CONSTANT      4.7293

 VIBRATION         36   36A           ATOM PAIR      ENERGY CONTRIBUTION    RADIAL
 FREQUENCY          3049.98         C  2 -- H 10         +53.2% ( 75.9%)     97.5%
 TRANSITION DIPOLE   0.0878         C  2 -- H 11         +43.3% ( 68.4%)     96.4%
 TRAVEL (Ang.)       0.2059         C  2 -- C  3          +1.1% ( 10.9%)      0.1%
 REDUCED MASS        0.5217         C  2 -- C  4          +1.1% ( 10.9%)      0.0%
 EFFECTIVE MASS      1.5407
 FORCE CONSTANT      2.8596

 VIBRATION         37   37A           ATOM PAIR      ENERGY CONTRIBUTION    RADIAL
 FREQUENCY          3052.77         C  7 -- H 14         +73.5% ( 87.1%)    100.0%
 TRANSITION DIPOLE   0.1514         C  8 -- H 15         +13.4% ( 37.2%)    100.0%
 TRAVEL (Ang.)       0.1987         C  5 -- H 12         +10.0% ( 32.1%)     99.8%
 REDUCED MASS        0.5592         C  7 -- C  8          +1.3% ( 11.4%)      3.4%
 EFFECTIVE MASS      1.4915
 FORCE CONSTANT      3.0704

 VIBRATION         38   38A           ATOM PAIR      ENERGY CONTRIBUTION    RADIAL
 FREQUENCY          3064.10         C  8 -- H 15         +70.8% ( 85.4%)    100.0%
 TRANSITION DIPOLE   0.3981         C  6 -- H 16         +11.2% ( 33.9%)     99.9%
 TRAVEL (Ang.)       0.2064         C  7 -- H 14          +8.1% ( 29.0%)     99.9%
 REDUCED MASS        0.5165         C  5 -- H 12          +7.3% ( 27.4%)    100.0%
 EFFECTIVE MASS      1.4801
 FORCE CONSTANT      2.8573

 VIBRATION         39   39A           ATOM PAIR      ENERGY CONTRIBUTION    RADIAL
 FREQUENCY          3080.68         C  5 -- H 12         +78.0% ( 89.6%)    100.0%
 TRANSITION DIPOLE   0.4164         C  7 -- H 14         +13.6% ( 37.5%)     99.7%
 TRAVEL (Ang.)       0.1870         C  6 -- H 16          +4.4% ( 21.4%)    100.0%
 REDUCED MASS        0.6257         C  5 -- C  7          +1.8% ( 13.5%)     79.7%
 EFFECTIVE MASS      1.5635
 FORCE CONSTANT      3.4989

 VIBRATION         40   40A           ATOM PAIR      ENERGY CONTRIBUTION    RADIAL
 FREQUENCY          3090.98         C  6 -- H 16         +80.8% ( 91.3%)    100.0%
 TRANSITION DIPOLE   0.3256         C  8 -- H 15         +12.3% ( 35.6%)     99.7%
 TRAVEL (Ang.)       0.1808         C  6 -- C  8          +1.9% ( 13.9%)     77.8%
 REDUCED MASS        0.6672         C  5 -- H 12          +1.7% ( 13.3%)     99.9%
 EFFECTIVE MASS      1.5823
 FORCE CONSTANT      3.7557

 VIBRATION         41   41A           ATOM PAIR      ENERGY CONTRIBUTION    RADIAL
 FREQUENCY          3104.26         C  2 -- H 11         +54.4% ( 73.3%)     97.6%
 TRANSITION DIPOLE   0.1199         C  2 -- H 10         +43.5% ( 65.5%)     96.2%
 TRAVEL (Ang.)       0.2107         C  2 -- C  3          +0.7% (  8.4%)     99.6%
 REDUCED MASS        0.4891         C  1 -- C  2          +0.7% (  8.3%)     51.6%
 EFFECTIVE MASS      1.2818
 FORCE CONSTANT      2.7771

 VIBRATION         42   42A           ATOM PAIR      ENERGY CONTRIBUTION    RADIAL
 FREQUENCY          3208.22         C  4 -- H 13         +94.2% ( 99.9%)    100.0%
 TRANSITION DIPOLE   0.5029         C  3 -- C  4          +2.0% ( 14.7%)     65.1%
 TRAVEL (Ang.)       0.1503         C  1 -- C  4          +1.9% ( 14.0%)     99.2%
 REDUCED MASS        0.9305         C  2 -- C  4          +1.8% ( 14.0%)     38.0%
 EFFECTIVE MASS      1.6004
 FORCE CONSTANT      5.6426

      SYMMETRY NUMBER FOR POINT-GROUP C1  =  1


          SYSTEM IS A GROUND STATE



 InChI=1S/C8H8/c1-2-4-8-6-5-7(8)3-1/h1-5,8H,6H2


          MOLECULE IS NOT LINEAR

          THERE ARE 42 GENUINE VIBRATIONS IN THIS SYSTEM
          THIS THERMODYNAMICS CALCULATION IS LIMITED TO
          MOLECULES WHICH HAVE NO INTERNAL ROTATIONS




                    CALCULATED THERMODYNAMIC PROPERTIES
                                          *
   TEMP. (K)   PARTITION FUNCTION   H.O.F.    ENTHALPY  HEAT CAPACITY ENTROPY
                                   KCAL/MOL   CAL/MOLE    CAL/K/MOL  CAL/K/MOL


 298.00  VIB.     0.5761D+01                  2031.3043    18.6509    10.2962
         ROT.     0.2282D+06                   888.2803     2.9808    27.4989
         INT.     0.1315D+07                  2919.5846    21.6317    37.7951
         TRA.     0.1028D+28                  1480.4672     4.9680    39.8370
         TOT.                       76.169    4400.0518    26.5997    77.6321

 200.00  VIB.     0.2162D+01                   666.5889     9.4618     4.8648
         ROT.     0.1255D+06                   596.1613     2.9808    26.3102
         INT.     0.2712D+06                  1262.7502    12.4426    31.1751
         TRA.     0.5650D+27                   993.6021     4.9680    37.8559
         TOT.                       74.025    2256.3523    17.4107    69.0309

 210.00  VIB.     0.2355D+01                   765.4157    10.3086     5.3468
         ROT.     0.1350D+06                   625.9693     2.9808    26.4557
         INT.     0.3179D+06                  1391.3851    13.2894    31.8025
         TRA.     0.6079D+27                  1043.2822     4.9680    38.0983
         TOT.                       74.204    2434.6673    18.2574    69.9008

 220.00  VIB.     0.2574D+01                   872.8573    11.1843     5.8465
         ROT.     0.1448D+06                   655.7774     2.9808    26.5943
         INT.     0.3726D+06                  1528.6347    14.1652    32.4408
         TRA.     0.6518D+27                  1092.9623     4.9680    38.3294
         TOT.                       74.391    2621.5971    19.1332    70.7702

 230.00  VIB.     0.2823D+01                   989.1899    12.0863     6.3635
         ROT.     0.1547D+06                   685.5855     2.9808    26.7268
         INT.     0.4369D+06                  1674.7753    15.0671    33.0903
         TRA.     0.6968D+27                  1142.6424     4.9680    38.5502
         TOT.                       74.586    2817.4178    20.0351    71.6405

 240.00  VIB.     0.3107D+01                  1114.6589    13.0111     6.8973
         ROT.     0.1649D+06                   715.3935     2.9808    26.8537
         INT.     0.5125D+06                  1830.0525    15.9919    33.7510
         TRA.     0.7427D+27                  1192.3226     4.9680    38.7617
         TOT.                       74.791    3022.3750    20.9599    72.5127

 250.00  VIB.     0.3431D+01                  1249.4769    13.9555     7.4476
         ROT.     0.1753D+06                   745.2016     2.9808    26.9754
         INT.     0.6015D+06                  1994.6785    16.9363    34.4229
         TRA.     0.7896D+27                  1242.0027     4.9680    38.9645
         TOT.                       75.006    3236.6812    21.9043    73.3874

 260.00  VIB.     0.3800D+01                  1393.8213    14.9158     8.0136
         ROT.     0.1860D+06                   775.0097     2.9808    27.0923
         INT.     0.7066D+06                  2168.8310    17.8966    35.1059
         TRA.     0.8374D+27                  1291.6828     4.9680    39.1593
         TOT.                       75.229    3460.5137    22.8646    74.2652

 270.00  VIB.     0.4222D+01                  1547.8347    15.8887     8.5947
         ROT.     0.1968D+06                   804.8177     2.9808    27.2048
         INT.     0.8308D+06                  2352.6525    18.8695    35.7995
         TRA.     0.8862D+27                  1341.3629     4.9680    39.3468
         TOT.                       75.463    3694.0153    23.8375    75.1463

 280.00  VIB.     0.4705D+01                  1711.6252    16.8707     9.1903
         ROT.     0.2078D+06                   834.6258     2.9808    27.3132
         INT.     0.9778D+06                  2546.2510    19.8515    36.5034
         TRA.     0.9359D+27                  1391.0430     4.9680    39.5275
         TOT.                       75.706    3937.2940    24.8195    76.0309

 290.00  VIB.     0.5259D+01                  1885.2673    17.8585     9.7995
         ROT.     0.2191D+06                   864.4339     2.9808    27.4178
         INT.     0.1152D+07                  2749.7012    20.8393    37.2173
         TRA.     0.9865D+27                  1440.7231     4.9680    39.7018
         TOT.                       75.959    4190.4243    25.8073    76.9191

 300.00  VIB.     0.5895D+01                  2068.8044    18.8491    10.4216
         ROT.     0.2305D+06                   894.2419     2.9808    27.5188
         INT.     0.1359D+07                  2963.0463    21.8300    37.9405
         TRA.     0.1038D+28                  1490.4032     4.9680    39.8702
         TOT.                       76.222    4453.4495    26.7980    77.8107

 310.00  VIB.     0.6627D+01                  2262.2501    19.8398    11.0558
         ROT.     0.2421D+06                   924.0500     2.9808    27.6166
         INT.     0.1605D+07                  3186.3001    22.8206    38.6724
         TRA.     0.1090D+28                  1540.0833     4.9680    40.0331
         TOT.                       76.495    4726.3834    27.7886    78.7056

 320.00  VIB.     0.7471D+01                  2465.5913    20.8278    11.7013
         ROT.     0.2539D+06                   953.8580     2.9808    27.7112
         INT.     0.1897D+07                  3419.4493    23.8086    39.4126
         TRA.     0.1143D+28                  1589.7634     4.9680    40.1909
         TOT.                       76.778    5009.2127    28.7766    79.6034

 330.00  VIB.     0.8445D+01                  2678.7901    21.8109    12.3573
         ROT.     0.2659D+06                   983.6661     2.9808    27.8029
         INT.     0.2246D+07                  3662.4562    24.7917    40.1602
         TRA.     0.1197D+28                  1639.4435     4.9680    40.3437
         TOT.                       77.071    5301.8997    29.7598    80.5040

 340.00  VIB.     0.9570D+01                  2901.7867    22.7871    13.0229
         ROT.     0.2781D+06                  1013.4742     2.9808    27.8919
         INT.     0.2661D+07                  3915.2609    25.7679    40.9149
         TRA.     0.1252D+28                  1689.1236     4.9680    40.4921
         TOT.                       77.373    5604.3845    30.7359    81.4069

 350.00  VIB.     0.1087D+02                  3134.5021    23.7544    13.6975
         ROT.     0.2905D+06                  1043.2822     2.9808    27.9783
         INT.     0.3158D+07                  4177.7843    26.7352    41.6758
         TRA.     0.1308D+28                  1738.8037     4.9680    40.6361
         TOT.                       77.686    5916.5881    31.7032    82.3119

 360.00  VIB.     0.1238D+02                  3376.8399    24.7113    14.3801
         ROT.     0.3030D+06                  1073.0903     2.9808    28.0623
         INT.     0.3751D+07                  4449.9302    27.6921    42.4424
         TRA.     0.1364D+28                  1788.4838     4.9680    40.7760
         TOT.                       78.007    6238.4141    32.6601    83.2184

 370.00  VIB.     0.1413D+02                  3628.6894    25.6565    15.0701
         ROT.     0.3157D+06                  1102.8984     2.9808    28.1440
         INT.     0.4461D+07                  4731.5877    28.6373    43.2140
         TRA.     0.1422D+28                  1838.1639     4.9680    40.9121
         TOT.                       78.339    6569.7517    33.6053    84.1262

 380.00  VIB.     0.1616D+02                  3889.9270    26.5888    15.7667
         ROT.     0.3286D+06                  1132.7064     2.9808    28.2235
         INT.     0.5312D+07                  5022.6334    29.5696    43.9902
         TRA.     0.1480D+28                  1887.8440     4.9680    41.0446
         TOT.                       78.679    6910.4775    34.5376    85.0348

 390.00  VIB.     0.1853D+02                  4160.4191    27.5072    16.4692
         ROT.     0.3417D+06                  1162.5145     2.9808    28.3009
         INT.     0.6331D+07                  5322.9336    30.4880    44.7701
         TRA.     0.1538D+28                  1937.5242     4.9680    41.1737
         TOT.                       79.029    7260.4577    35.4561    85.9438

 400.00  VIB.     0.2129D+02                  4440.0232    28.4111    17.1771
         ROT.     0.3549D+06                  1192.3226     2.9808    28.3764
         INT.     0.7554D+07                  5632.3457    31.3919    45.5535
         TRA.     0.1598D+28                  1987.2043     4.9680    41.2995
         TOT.                       79.389    7619.5500    36.3599    86.8529

   *: NOTE: HEATS OF FORMATION ARE RELATIVE TO THE
            ELEMENTS IN THEIR STANDARD STATE AT 298K
              (=  Standard Enthalpy of Formation).

            Hvib:  Zero-point energy is not included.
                   frequencies of less than zero cm-1 are not included.
            Hrot = (3/2)RT
            Htra = (3/2)RT + pV = (5/2)RT

            Heat capacity is Cp, not Cv

          For more information, see: HTTP://OpenMOPAC.net/Manual/thermochemistry.html


           FORCE CONSTANT IN CARTESIAN COORDINATES (Millidynes/A)

    ATOM   CHEMICAL       X               Y               Z
   NUMBER   SYMBOL  FORCE CONSTANT  FORCE CONSTANT  FORCE CONSTANT

      1       C        8.171872        8.204807        8.643654
      2       C        7.286045        8.059432        8.350759
      3       C       16.224693        9.031189        3.191779
      4       C       14.866650        8.920906        2.222315
      5       C        8.106195       11.431319        7.450245
      6       C        9.793358       11.026954        6.698659
      7       C        8.493219       10.958648        7.623736
      8       C        9.970018        9.823269        7.177966
      9       H        1.304941        1.283821        3.490465
     10       H        1.445001        1.135562        3.951073
     11       H        1.525010        1.585565        3.472941
     12       H        0.588901        4.611674        1.066593
     13       H        3.225059        3.018145        0.337158
     14       H        2.038808        1.090090        3.110188
     15       H        3.377400        1.848114        1.035218
     16       H        0.625634        4.735934        0.920777

 **********************
 *                    *
 * JOB ENDED NORMALLY *
 *                    *
 **********************



 TOTAL JOB TIME:             1.27 SECONDS

 == MOPAC DONE ==
