 *******************************************************************************
 **                                                                           **
 **                              MOPAC v23.1.2                                **
 **                                                                           **
 *******************************************************************************
 **          Digital Object Identifier (DOI): 10.5281/zenodo.6511958          **
 **    Visit the DOI location for information on how to cite this program.    **
 *******************************************************************************

                              PM3 CALCULATION RESULTS

 *******************************************************************************
 *  CALCULATION DONE: (MAX THREADS = 1)              Tue Jun  3 16:27:08 2025  *
 *  PM3        - The PM3 Hamiltonian to be used
 *  PRECISE    - TIGHTER CRITERIA TO BE USED
 *  NOSYM      - POINT-GROUP SYMMETRY SET TO C1
 *  THREADS=1  - MULTI-THREADING NOT USED
 *  T=         - A TIME OF 172800.0 SECONDS REQUESTED
 *  DUMP=N     - RESTART FILE WRITTEN EVERY 7200.0 SECONDS REQUESTED
 *******************************************************************************
pm3  precise nosym THREADS=1
 InChI=1S/C10H12/c1-8-6-9-4-2-3-5-10(9)7-8/h2-4,10H,1,5-7H2

   ATOM   CHEMICAL          X               Y               Z
  NUMBER   SYMBOL      (ANGSTROMS)     (ANGSTROMS)     (ANGSTROMS)

     1       C          0.29030000  *   0.74990000  *  -0.34800000  *
     2       C         -1.02540000  *   0.57920000  *  -1.11690000  *
     3       C          1.55410000  *   0.35150000  *  -1.13520000  *
     4       C         -1.25120000  *  -0.57770000  *   1.09640000  *
     5       C          0.13960000  *  -0.11750000  *   0.86460000  *
     6       C         -1.93170000  *  -0.13360000  *  -0.15570000  *
     7       C          2.73090000  *   0.22790000  *  -0.19310000  *
     8       C          1.20320000  *  -0.53000000  *   1.56390000  *
     9       C          2.55900000  *  -0.22520000  *   1.05910000  *
    10       C         -3.22350000  *  -0.36810000  *  -0.40660000  *
    11       H          0.39210000  *   1.80580000  *  -0.00990000  *
    12       H          1.77260000  *   1.11340000  *  -1.91340000  *
    13       H         -1.44790000  *   1.57080000  *  -1.38920000  *
    14       H         -0.89800000  *  -0.03730000  *  -2.03330000  *
    15       H          1.40160000  *  -0.63110000  *  -1.63280000  *
    16       H         -1.68670000  *  -0.08250000  *   1.99010000  *
    17       H         -1.29180000  *  -1.68480000  *   1.18640000  *
    18       H          3.72780000  *   0.44860000  *  -0.55280000  *
    19       H          1.08120000  *  -1.14240000  *   2.44830000  *
    20       H          3.41710000  *  -0.38740000  *   1.69840000  *
    21       H         -3.83900000  *  -0.89550000  *   0.31560000  *
    22       H         -3.67410000  *  -0.03400000  *  -1.33600000  *



          CARTESIAN COORDINATES 

    NO.       ATOM           X           Y           Z

     1         C          0.2903      0.7499     -0.3480
     2         C         -1.0254      0.5792     -1.1169
     3         C          1.5541      0.3515     -1.1352
     4         C         -1.2512     -0.5777      1.0964
     5         C          0.1396     -0.1175      0.8646
     6         C         -1.9317     -0.1336     -0.1557
     7         C          2.7309      0.2279     -0.1931
     8         C          1.2032     -0.5300      1.5639
     9         C          2.5590     -0.2252      1.0591
    10         C         -3.2235     -0.3681     -0.4066
    11         H          0.3921      1.8058     -0.0099
    12         H          1.7726      1.1134     -1.9134
    13         H         -1.4479      1.5708     -1.3892
    14         H         -0.8980     -0.0373     -2.0333
    15         H          1.4016     -0.6311     -1.6328
    16         H         -1.6867     -0.0825      1.9901
    17         H         -1.2918     -1.6848      1.1864
    18         H          3.7278      0.4486     -0.5528
    19         H          1.0812     -1.1424      2.4483
    20         H          3.4171     -0.3874      1.6984
    21         H         -3.8390     -0.8955      0.3156
    22         H         -3.6741     -0.0340     -1.3360

  H: (PM3): J. J. P. STEWART, J. COMP. CHEM. 10, 209 (1989).
  C: (PM3): J. J. P. STEWART, J. COMP. CHEM. 10, 209 (1989).

           Empirical Formula: C10 H12  =    22 atoms



      MOLECULAR POINT GROUP   :   C1  


      RHF CALCULATION, NO. OF DOUBLY OCCUPIED LEVELS = 26


          Geometry optimization using EF

          DIAGONAL MATRIX USED AS START HESSIAN

 CYCLE:     1 TIME:   0.008 TIME LEFT:  2.00D  GRAD.:    72.906 HEAT:  34.37041
 CYCLE:     2 TIME:   0.016 TIME LEFT:  2.00D  GRAD.:    56.570 HEAT:  33.16275
 CYCLE:     3 TIME:   0.008 TIME LEFT:  2.00D  GRAD.:    56.166 HEAT:  32.64627
 CYCLE:     4 TIME:   0.008 TIME LEFT:  2.00D  GRAD.:    65.631 HEAT:  32.46796
 CYCLE:     5 TIME:   0.012 TIME LEFT:  2.00D  GRAD.:    28.096 HEAT:  31.84713
 CYCLE:     6 TIME:   0.008 TIME LEFT:  2.00D  GRAD.:    21.397 HEAT:  31.69901
 CYCLE:     7 TIME:   0.008 TIME LEFT:  2.00D  GRAD.:    28.908 HEAT:  31.66770
 CYCLE:     8 TIME:   0.008 TIME LEFT:  2.00D  GRAD.:    12.977 HEAT:  31.48458
 CYCLE:     9 TIME:   0.008 TIME LEFT:  2.00D  GRAD.:    20.772 HEAT:  31.43274
 CYCLE:    10 TIME:   0.008 TIME LEFT:  2.00D  GRAD.:    17.641 HEAT:  31.31109
 CYCLE:    11 TIME:   0.012 TIME LEFT:  2.00D  GRAD.:    12.590 HEAT:  31.24557
 CYCLE:    12 TIME:   0.008 TIME LEFT:  2.00D  GRAD.:    13.431 HEAT:  31.19758
 CYCLE:    13 TIME:   0.008 TIME LEFT:  2.00D  GRAD.:    16.600 HEAT:  31.17796
 CYCLE:    14 TIME:   0.004 TIME LEFT:  2.00D  GRAD.:    19.603 HEAT:  31.15462
 CYCLE:    15 TIME:   0.008 TIME LEFT:  2.00D  GRAD.:    19.058 HEAT:  31.14352
 CYCLE:    16 TIME:   0.008 TIME LEFT:  2.00D  GRAD.:    23.360 HEAT:  31.13477
 CYCLE:    17 TIME:   0.012 TIME LEFT:  2.00D  GRAD.:     7.908 HEAT:  31.02699
 CYCLE:    18 TIME:   0.012 TIME LEFT:  2.00D  GRAD.:     5.106 HEAT:  31.00465
 CYCLE:    19 TIME:   0.008 TIME LEFT:  2.00D  GRAD.:     6.920 HEAT:  30.99001
 CYCLE:    20 TIME:   0.004 TIME LEFT:  2.00D  GRAD.:     9.882 HEAT:  30.97468
 CYCLE:    21 TIME:   0.008 TIME LEFT:  2.00D  GRAD.:     7.198 HEAT:  30.94488
 CYCLE:    22 TIME:   0.008 TIME LEFT:  2.00D  GRAD.:     8.897 HEAT:  30.92816
 CYCLE:    23 TIME:   0.008 TIME LEFT:  2.00D  GRAD.:     5.081 HEAT:  30.89556
 CYCLE:    24 TIME:   0.008 TIME LEFT:  2.00D  GRAD.:     5.398 HEAT:  30.88360
 CYCLE:    25 TIME:   0.004 TIME LEFT:  2.00D  GRAD.:     5.302 HEAT:  30.86813
 CYCLE:    26 TIME:   0.008 TIME LEFT:  2.00D  GRAD.:     5.316 HEAT:  30.85081
 CYCLE:    27 TIME:   0.012 TIME LEFT:  2.00D  GRAD.:     4.977 HEAT:  30.83138
 CYCLE:    28 TIME:   0.004 TIME LEFT:  2.00D  GRAD.:     3.808 HEAT:  30.81981
 CYCLE:    29 TIME:   0.008 TIME LEFT:  2.00D  GRAD.:     4.135 HEAT:  30.80846
 CYCLE:    30 TIME:   0.008 TIME LEFT:  2.00D  GRAD.:     3.096 HEAT:  30.79481
 CYCLE:    31 TIME:   0.008 TIME LEFT:  2.00D  GRAD.:     5.645 HEAT:  30.76111
 CYCLE:    32 TIME:   0.008 TIME LEFT:  2.00D  GRAD.:     7.673 HEAT:  30.74097
 CYCLE:    33 TIME:   0.008 TIME LEFT:  2.00D  GRAD.:     5.283 HEAT:  30.70773
 CYCLE:    34 TIME:   0.008 TIME LEFT:  2.00D  GRAD.:     6.291 HEAT:  30.68256
 CYCLE:    35 TIME:   0.004 TIME LEFT:  2.00D  GRAD.:     4.019 HEAT:  30.66708
 CYCLE:    36 TIME:   0.008 TIME LEFT:  2.00D  GRAD.:     3.631 HEAT:  30.65948
 CYCLE:    37 TIME:   0.008 TIME LEFT:  2.00D  GRAD.:     2.679 HEAT:  30.65107
 CYCLE:    38 TIME:   0.008 TIME LEFT:  2.00D  GRAD.:     3.557 HEAT:  30.63953
 CYCLE:    39 TIME:   0.008 TIME LEFT:  2.00D  GRAD.:     2.082 HEAT:  30.63309
 CYCLE:    40 TIME:   0.008 TIME LEFT:  2.00D  GRAD.:     1.520 HEAT:  30.62851
 CYCLE:    41 TIME:   0.004 TIME LEFT:  2.00D  GRAD.:     1.660 HEAT:  30.62338
 CYCLE:    42 TIME:   0.008 TIME LEFT:  2.00D  GRAD.:     1.500 HEAT:  30.62005
 CYCLE:    43 TIME:   0.008 TIME LEFT:  2.00D  GRAD.:     1.020 HEAT:  30.61658
 CYCLE:    44 TIME:   0.008 TIME LEFT:  2.00D  GRAD.:     0.973 HEAT:  30.61415
 CYCLE:    45 TIME:   0.008 TIME LEFT:  2.00D  GRAD.:     0.895 HEAT:  30.61227
 CYCLE:    46 TIME:   0.008 TIME LEFT:  2.00D  GRAD.:     0.768 HEAT:  30.61092
 CYCLE:    47 TIME:   0.008 TIME LEFT:  2.00D  GRAD.:     0.665 HEAT:  30.60969
 CYCLE:    48 TIME:   0.008 TIME LEFT:  2.00D  GRAD.:     0.776 HEAT:  30.60836
 CYCLE:    49 TIME:   0.004 TIME LEFT:  2.00D  GRAD.:     0.786 HEAT:  30.60706
 CYCLE:    50 TIME:   0.008 TIME LEFT:  2.00D  GRAD.:     0.658 HEAT:  30.60597
 CYCLE:    51 TIME:   0.008 TIME LEFT:  2.00D  GRAD.:     0.505 HEAT:  30.60524
 CYCLE:    52 TIME:   0.008 TIME LEFT:  2.00D  GRAD.:     0.466 HEAT:  30.60473
 CYCLE:    53 TIME:   0.008 TIME LEFT:  2.00D  GRAD.:     0.449 HEAT:  30.60431
 CYCLE:    54 TIME:   0.008 TIME LEFT:  2.00D  GRAD.:     0.395 HEAT:  30.60391
 CYCLE:    55 TIME:   0.004 TIME LEFT:  2.00D  GRAD.:     0.356 HEAT:  30.60351
 CYCLE:    56 TIME:   0.008 TIME LEFT:  2.00D  GRAD.:     0.334 HEAT:  30.60318
 CYCLE:    57 TIME:   0.008 TIME LEFT:  2.00D  GRAD.:     0.281 HEAT:  30.60294
 CYCLE:    58 TIME:   0.008 TIME LEFT:  2.00D  GRAD.:     0.218 HEAT:  30.60279
 CYCLE:    59 TIME:   0.008 TIME LEFT:  2.00D  GRAD.:     0.190 HEAT:  30.60268
 CYCLE:    60 TIME:   0.008 TIME LEFT:  2.00D  GRAD.:     0.186 HEAT:  30.60259
 CYCLE:    61 TIME:   0.004 TIME LEFT:  2.00D  GRAD.:     0.172 HEAT:  30.60251
 CYCLE:    62 TIME:   0.008 TIME LEFT:  2.00D  GRAD.:     0.201 HEAT:  30.60243
 CYCLE:    63 TIME:   0.008 TIME LEFT:  2.00D  GRAD.:     0.213 HEAT:  30.60235
 CYCLE:    64 TIME:   0.008 TIME LEFT:  2.00D  GRAD.:     0.220 HEAT:  30.60221
 CYCLE:    65 TIME:   0.008 TIME LEFT:  2.00D  GRAD.:     0.334 HEAT:  30.60203
 CYCLE:    66 TIME:   0.004 TIME LEFT:  2.00D  GRAD.:     0.294 HEAT:  30.60191
 CYCLE:    67 TIME:   0.008 TIME LEFT:  2.00D  GRAD.:     0.421 HEAT:  30.60152
 CYCLE:    68 TIME:   0.008 TIME LEFT:  2.00D  GRAD.:     0.293 HEAT:  30.60126
 CYCLE:    69 TIME:   0.008 TIME LEFT:  2.00D  GRAD.:     0.433 HEAT:  30.60114
 CYCLE:    70 TIME:   0.008 TIME LEFT:  2.00D  GRAD.:     0.268 HEAT:  30.60086
 CYCLE:    71 TIME:   0.008 TIME LEFT:  2.00D  GRAD.:     0.206 HEAT:  30.60132
 CYCLE:    72 TIME:   0.004 TIME LEFT:  2.00D  GRAD.:     0.161 HEAT:  30.60070
 CYCLE:    73 TIME:   0.012 TIME LEFT:  2.00D  GRAD.:     0.224 HEAT:  30.60058
 CYCLE:    74 TIME:   0.004 TIME LEFT:  2.00D  GRAD.:     0.229 HEAT:  30.60040
 CYCLE:    75 TIME:   0.008 TIME LEFT:  2.00D  GRAD.:     0.317 HEAT:  30.60045
 CYCLE:    76 TIME:   0.008 TIME LEFT:  2.00D  GRAD.:     0.209 HEAT:  30.60004
 CYCLE:    77 TIME:   0.008 TIME LEFT:  2.00D  GRAD.:     0.133 HEAT:  30.59999
 CYCLE:    78 TIME:   0.008 TIME LEFT:  2.00D  GRAD.:     0.132 HEAT:  30.59991
 CYCLE:    79 TIME:   0.008 TIME LEFT:  2.00D  GRAD.:     0.221 HEAT:  30.59982
 CYCLE:    80 TIME:   0.008 TIME LEFT:  2.00D  GRAD.:     0.110 HEAT:  30.59970
 CYCLE:    81 TIME:   0.008 TIME LEFT:  2.00D  GRAD.:     0.141 HEAT:  30.59985
 CYCLE:    82 TIME:   0.008 TIME LEFT:  2.00D  GRAD.:     0.068 HEAT:  30.59968
 CYCLE:    83 TIME:   0.008 TIME LEFT:  2.00D  GRAD.:     0.139 HEAT:  30.59976
 CYCLE:    84 TIME:   0.008 TIME LEFT:  2.00D  GRAD.:     0.071 HEAT:  30.59967
 CYCLE:    85 TIME:   0.059 TIME LEFT:  2.00D  GRAD.:     2.777 HEAT:  30.60073
 CYCLE:    86 TIME:   0.008 TIME LEFT:  2.00D  GRAD.:     0.071 HEAT:  30.59966
 CYCLE:    87 TIME:   0.008 TIME LEFT:  2.00D  GRAD.:     0.060 HEAT:  30.59966
 CYCLE:    88 TIME:   0.004 TIME LEFT:  2.00D  GRAD.:     0.046 HEAT:  30.59964

     GRADIENT =  0.04575 IS LESS THAN CUTOFF =  0.05000



 -------------------------------------------------------------------------------
 pm3  precise nosym THREADS=1
 InChI=1S/C10H12/c1-8-6-9-4-2-3-5-10(9)7-8/h2-4,10H,1,5-7H2



     GEOMETRY OPTIMISED USING EIGENVECTOR FOLLOWING (EF).     
     SCF FIELD WAS ACHIEVED                                   


                              PM3 CALCULATION
                                                       MOPAC v23.1.2 MacOS
                                                       Tue Jun  3 16:27:09 2025




          FINAL HEAT OF FORMATION =         30.59964 KCAL/MOL =     128.02889 KJ/MOL


          COSMO AREA              =        178.10 SQUARE ANGSTROMS
          COSMO VOLUME            =        180.59 CUBIC ANGSTROMS

          GRADIENT NORM           =          0.04575          =       0.00975 PER ATOM
          IONIZATION POTENTIAL    =          8.842379 EV
          HOMO LUMO ENERGIES (EV) =         -8.842  0.241
          NO. OF FILLED LEVELS    =         26
          MOLECULAR WEIGHT        =        132.2048         POINT GROUP:  C1  

          MOLECULAR DIMENSIONS (Angstroms)

            Atom       Atom       Distance
            H    21    H    18     7.80731
            H    19    H    13     5.18939
            H    15    H    11     2.89916


          SCF CALCULATIONS        =        100

          WALL-CLOCK TIME         =      0.738 SECONDS
          COMPUTATION TIME        =      0.459 SECONDS




   ATOM   CHEMICAL          X               Y               Z
  NUMBER   SYMBOL      (ANGSTROMS)     (ANGSTROMS)     (ANGSTROMS)

     1       C          0.28425321  *   0.71685977  *  -0.34323848  *
     2       C         -1.00216226  *   0.46003555  *  -1.14167538  *
     3       C          1.57620721  *   0.46164829  *  -1.10954050  *
     4       C         -1.26312562  *  -0.51997581  *   1.10487306  *
     5       C          0.16652740  *  -0.16910998  *   0.86550616  *
     6       C         -1.96774253  *  -0.14377477  *  -0.16581263  *
     7       C          2.72728641  *   0.24096033  *  -0.18719484  *
     8       C          1.24124858  *  -0.59336781  *   1.54263117  *
     9       C          2.56447537  *  -0.24342267  *   1.05244693  *
    10       C         -3.26436339  *  -0.32207480  *  -0.39384491  *
    11       H          0.28853578  *   1.77363957  *   0.02119147  *
    12       H          1.78454248  *   1.31408235  *  -1.78450840  *
    13       H         -1.40195722  *   1.38769507  *  -1.58993157  *
    14       H         -0.82866296  *  -0.23888142  *  -1.98309694  *
    15       H          1.48412499  *  -0.42800341  *  -1.76691587  *
    16       H         -1.67288467  *   0.03764407  *   1.96906579  *
    17       H         -1.38866148  *  -1.59430371  *   1.33728324  *
    18       H          3.72342698  *   0.46647813  *  -0.58143289  *
    19       H          1.16133450  *  -1.22203370  *   2.43417646  *
    20       H          3.41516547  *  -0.41469423  *   1.71926950  *
    21       H         -3.93046682  *  -0.76987361  *   0.33692284  *
    22       H         -3.73933315  *  -0.03126078  *  -1.32560902  *

                             CARTESIAN COORDINATES

   1    C        0.284253208     0.716859775    -0.343238485
   2    C       -1.002162260     0.460035549    -1.141675385
   3    C        1.576207208     0.461648287    -1.109540504
   4    C       -1.263125618    -0.519975810     1.104873055
   5    C        0.166527396    -0.169109976     0.865506161
   6    C       -1.967742532    -0.143774774    -0.165812635
   7    C        2.727286413     0.240960326    -0.187194838
   8    C        1.241248584    -0.593367814     1.542631166
   9    C        2.564475366    -0.243422668     1.052446933
  10    C       -3.264363391    -0.322074802    -0.393844907
  11    H        0.288535782     1.773639571     0.021191469
  12    H        1.784542476     1.314082347    -1.784508401
  13    H       -1.401957217     1.387695073    -1.589931573
  14    H       -0.828662962    -0.238881423    -1.983096943
  15    H        1.484124995    -0.428003414    -1.766915870
  16    H       -1.672884668     0.037644066     1.969065793
  17    H       -1.388661479    -1.594303708     1.337283244
  18    H        3.723426983     0.466478127    -0.581432892
  19    H        1.161334502    -1.222033698     2.434176463
  20    H        3.415165468    -0.414694232     1.719269496
  21    H       -3.930466817    -0.769873613     0.336922842
  22    H       -3.739333150    -0.031260778    -1.325609021


           Empirical Formula: C10 H12  =    22 atoms



      MOLECULAR POINT GROUP   :   C1  


                  EIGENVALUES  
 -41.88358 -35.75274 -31.43301 -29.71937 -26.37892 -24.65698 -21.49840 -20.03041
 -18.70746 -17.37240 -17.14659 -16.00768 -15.72808 -14.89161 -14.54853 -14.46223
 -13.84789 -13.77273 -13.17239 -12.68794 -12.40440 -12.03126 -11.72068 -11.16810
  -9.85032  -8.84238   0.24117   1.07402   2.01970   3.16798   3.21841   3.37194
   3.55869   3.59923   3.67724   3.80093   3.88310   3.94615   4.10720   4.18878
   4.32993   4.42984   4.51102   4.57840   4.81948   4.92852   5.03949   5.53265
   5.55137   5.91752   6.02523   6.24061


              NET ATOMIC CHARGES AND DIPOLE CONTRIBUTIONS

  ATOM NO.   TYPE          CHARGE      No. of ELECS.   s-Pop       p-Pop       
    1          C          -0.041982        4.0420     1.16757     2.87441
    2          C          -0.053121        4.0531     1.15277     2.90035
    3          C          -0.052648        4.0526     1.14710     2.90554
    4          C          -0.009950        4.0099     1.13377     2.87618
    5          C          -0.113510        4.1135     1.20583     2.90768
    6          C          -0.112916        4.1129     1.20478     2.90814
    7          C          -0.141886        4.1419     1.19740     2.94449
    8          C          -0.114678        4.1147     1.17376     2.94092
    9          C          -0.106329        4.1063     1.17875     2.92758
   10          C          -0.176339        4.1763     1.17688     2.99945
   11          H           0.073731        0.9263     0.92627
   12          H           0.054474        0.9455     0.94553
   13          H           0.058844        0.9412     0.94116
   14          H           0.063210        0.9368     0.93679
   15          H           0.060195        0.9398     0.93980
   16          H           0.067782        0.9322     0.93222
   17          H           0.066852        0.9331     0.93315
   18          H           0.099055        0.9009     0.90095
   19          H           0.107293        0.8927     0.89271
   20          H           0.101332        0.8987     0.89867
   21          H           0.085205        0.9148     0.91480
   22          H           0.085385        0.9146     0.91461
 DIPOLE           X         Y         Z       TOTAL
 POINT-CHG.    -0.001     0.107    -0.262     0.283
 HYBRID        -0.020    -0.026     0.004     0.033
 SUM           -0.021     0.081    -0.258     0.271


          ATOMIC ORBITAL ELECTRON POPULATIONS

     Atom    s        px        py        pz   
    1  C   1.16757   0.94160   0.99158   0.94124
    2  C   1.15277   0.93851   0.99973   0.96211
    3  C   1.14710   0.93172   1.01017   0.96366
    4  C   1.13377   0.91955   1.00309   0.95354
    5  C   1.20583   0.95448   0.98504   0.96816
    6  C   1.20478   0.95748   0.98694   0.96372
    7  C   1.19740   0.98050   1.00109   0.96290
    8  C   1.17376   0.93013   1.01568   0.99511
    9  C   1.17875   0.96123   1.00088   0.96546
   10  C   1.17688   0.94992   1.03340   1.01614
   11  H   0.92627
   12  H   0.94553
   13  H   0.94116
   14  H   0.93679
   15  H   0.93980
   16  H   0.93222
   17  H   0.93315
   18  H   0.90095
   19  H   0.89271
   20  H   0.89867
   21  H   0.91480
   22  H   0.91461
 *******************************************************************************
 **                                                                           **
 **                              MOPAC v23.1.2                                **
 **                                                                           **
 *******************************************************************************
 **          Digital Object Identifier (DOI): 10.5281/zenodo.6511958          **
 **    Visit the DOI location for information on how to cite this program.    **
 *******************************************************************************

                              PM3 CALCULATION RESULTS

 *******************************************************************************
 *  CALCULATION DONE: (MAX THREADS = 1)              Tue Jun  3 16:27:09 2025  *
 *  PM3        - The PM3 Hamiltonian to be used
 *  OLDGEO     - PREVIOUS GEOMETRY TO BE USED
 *  PRECISE    - TIGHTER CRITERIA TO BE USED
 *  NOSYM      - POINT-GROUP SYMMETRY SET TO C1
 *  THREADS=1  - MULTI-THREADING NOT USED
 *  T=         - A TIME OF 172800.0 SECONDS REQUESTED
 *  DUMP=N     - RESTART FILE WRITTEN EVERY 7200.0 SECONDS REQUESTED
 *  THERMO     - THERMODYNAMIC QUANTITIES TO BE CALCULATED
 *******************************************************************************
oldgeo thermo nosym precise THREADS=1  pm3
 InChI=1S/C10H12/c1-8-6-9-4-2-3-5-10(9)7-8/h2-4,10H,1,5-7H2

   ATOM   CHEMICAL          X               Y               Z
  NUMBER   SYMBOL      (ANGSTROMS)     (ANGSTROMS)     (ANGSTROMS)

     1       C          0.28425321  *   0.71685977  *  -0.34323848  *
     2       C         -1.00216226  *   0.46003555  *  -1.14167538  *
     3       C          1.57620721  *   0.46164829  *  -1.10954050  *
     4       C         -1.26312562  *  -0.51997581  *   1.10487306  *
     5       C          0.16652740  *  -0.16910998  *   0.86550616  *
     6       C         -1.96774253  *  -0.14377477  *  -0.16581263  *
     7       C          2.72728641  *   0.24096033  *  -0.18719484  *
     8       C          1.24124858  *  -0.59336781  *   1.54263117  *
     9       C          2.56447537  *  -0.24342267  *   1.05244693  *
    10       C         -3.26436339  *  -0.32207480  *  -0.39384491  *
    11       H          0.28853578  *   1.77363957  *   0.02119147  *
    12       H          1.78454248  *   1.31408235  *  -1.78450840  *
    13       H         -1.40195722  *   1.38769507  *  -1.58993157  *
    14       H         -0.82866296  *  -0.23888142  *  -1.98309694  *
    15       H          1.48412499  *  -0.42800341  *  -1.76691587  *
    16       H         -1.67288467  *   0.03764407  *   1.96906579  *
    17       H         -1.38866148  *  -1.59430371  *   1.33728324  *
    18       H          3.72342698  *   0.46647813  *  -0.58143289  *
    19       H          1.16133450  *  -1.22203370  *   2.43417646  *
    20       H          3.41516547  *  -0.41469423  *   1.71926950  *
    21       H         -3.93046682  *  -0.76987361  *   0.33692284  *
    22       H         -3.73933315  *  -0.03126078  *  -1.32560902  *



          CARTESIAN COORDINATES 

    NO.       ATOM           X           Y           Z

     1         C          0.2843      0.7169     -0.3432
     2         C         -1.0022      0.4600     -1.1417
     3         C          1.5762      0.4616     -1.1095
     4         C         -1.2631     -0.5200      1.1049
     5         C          0.1665     -0.1691      0.8655
     6         C         -1.9677     -0.1438     -0.1658
     7         C          2.7273      0.2410     -0.1872
     8         C          1.2412     -0.5934      1.5426
     9         C          2.5645     -0.2434      1.0524
    10         C         -3.2644     -0.3221     -0.3938
    11         H          0.2885      1.7736      0.0212
    12         H          1.7845      1.3141     -1.7845
    13         H         -1.4020      1.3877     -1.5899
    14         H         -0.8287     -0.2389     -1.9831
    15         H          1.4841     -0.4280     -1.7669
    16         H         -1.6729      0.0376      1.9691
    17         H         -1.3887     -1.5943      1.3373
    18         H          3.7234      0.4665     -0.5814
    19         H          1.1613     -1.2220      2.4342
    20         H          3.4152     -0.4147      1.7193
    21         H         -3.9305     -0.7699      0.3369
    22         H         -3.7393     -0.0313     -1.3256

  H: (PM3): J. J. P. STEWART, J. COMP. CHEM. 10, 209 (1989).
  C: (PM3): J. J. P. STEWART, J. COMP. CHEM. 10, 209 (1989).

           Empirical Formula: C10 H12  =    22 atoms



      MOLECULAR POINT GROUP   :   C1  


      RHF CALCULATION, NO. OF DOUBLY OCCUPIED LEVELS = 26



          HEAT OF FORMATION =      30.599638 KCALS/MOLE


          CARTESIAN COORDINATE DERIVATIVES

   NUMBER  ATOM         X            Y            Z

     1       C     -0.002480     0.001418    -0.002108
     2       C      0.000774     0.005949    -0.005049
     3       C     -0.001317    -0.002222     0.003092
     4       C     -0.003135     0.004425     0.000806
     5       C      0.003477     0.001392    -0.001889
     6       C     -0.003693     0.014831     0.008542
     7       C     -0.003840    -0.010172     0.007616
     8       C     -0.005880     0.004079     0.007546
     9       C      0.007750     0.007923    -0.006768
    10       C     -0.000643    -0.011331    -0.008691
    11       H      0.005824    -0.002552     0.003681
    12       H      0.006522    -0.000025     0.000314
    13       H      0.002674     0.001784     0.004366
    14       H      0.000398    -0.007515    -0.000469
    15       H      0.002398    -0.005065    -0.001322
    16       H      0.004660    -0.010950    -0.005566
    17       H     -0.000245     0.002498     0.000967
    18       H     -0.006081     0.000463    -0.001537
    19       H     -0.013140     0.002504    -0.006138
    20       H      0.005570    -0.003761     0.005262
    21       H     -0.002074     0.006927     0.006353
    22       H      0.002480    -0.000601    -0.009008



          GRADIENT NORM =   0.04480

          MOLECULAR WEIGHT =  132.20



          ROTATIONAL CONSTANTS IN CM(-1)

          A =    0.10825978   B =    0.03300773   C =    0.02620052



           PRINCIPAL MOMENTS OF INERTIA IN UNITS OF 10**(-40)*GRAM-CM**2

          A =      258.5702   B =      848.0666   C =     1068.4045


          ORIENTATION OF MOLECULE IN FORCE CALCULATION

    NO.       ATOM         X         Y         Z

     1          C      -0.0541    0.2712   -0.8281
     2          C       1.4816    0.2712   -0.8281
     3          C      -0.6952    1.6534   -0.8281
     4          C       0.6961   -1.4016    0.8029
     5          C      -0.4357   -0.5224    0.3903
     6          C       1.8841   -0.8742    0.0525
     7          C      -2.1021    1.6061   -0.3353
     8          C      -1.6171   -0.3629    1.0005
     9          C      -2.5292    0.6580    0.5112
    10          C       3.1186   -1.3541    0.1553
    11          H      -0.4239   -0.2935   -1.7191
    12          H      -0.6614    2.0807   -1.8488
    13          H       1.8944    0.1663   -1.8478
    14          H       1.8906    1.2187   -0.4261
    15          H      -0.1275    2.3594   -0.1867
    16          H       0.4968   -2.4592    0.5430
    17          H       0.8601   -1.3734    1.8966
    18          H      -2.7693    2.4047   -0.6755
    19          H      -1.9086   -0.9510    1.8756
    20          H      -3.5599    0.6370    0.8785
    21          H       3.3715   -2.1819    0.8103
    22          H       3.9523   -0.9485   -0.4094


    FIRST DERIVATIVES WILL BE USED IN THE CALCULATION OF SECOND DERIVATIVES

          ESTIMATED TIME TO COMPLETE CALCULATION =        2.06 SECONDS

    FOR POINT-GROUP C1   THERE ARE   1 UNIQUE SYMMETRY FUNCTIONS.

 STEP:   1 TIME =     0.02 SECS, INTEGRAL =      0.02 TIME LEFT: 172799.97
 STEP:   2 TIME =     0.02 SECS, INTEGRAL =      0.04 TIME LEFT: 172799.95
 STEP:   3 TIME =     0.02 SECS, INTEGRAL =      0.06 TIME LEFT: 172799.93
 STEP:   4 TIME =     0.02 SECS, INTEGRAL =      0.08 TIME LEFT: 172799.91
 STEP:   5 TIME =     0.02 SECS, INTEGRAL =      0.10 TIME LEFT: 172799.89
 STEP:   6 TIME =     0.02 SECS, INTEGRAL =      0.12 TIME LEFT: 172799.87
 STEP:   7 TIME =     0.02 SECS, INTEGRAL =      0.14 TIME LEFT: 172799.85
 STEP:   8 TIME =     0.02 SECS, INTEGRAL =      0.16 TIME LEFT: 172799.83
 STEP:   9 TIME =     0.02 SECS, INTEGRAL =      0.19 TIME LEFT: 172799.80
 STEP:  10 TIME =     0.02 SECS, INTEGRAL =      0.21 TIME LEFT: 172799.79
 STEP:  11 TIME =     0.02 SECS, INTEGRAL =      0.23 TIME LEFT: 172799.77
 STEP:  12 TIME =     0.02 SECS, INTEGRAL =      0.25 TIME LEFT: 172799.74
 STEP:  13 TIME =     0.02 SECS, INTEGRAL =      0.27 TIME LEFT: 172799.72
 STEP:  14 TIME =     0.02 SECS, INTEGRAL =      0.30 TIME LEFT: 172799.70
 STEP:  15 TIME =     0.02 SECS, INTEGRAL =      0.32 TIME LEFT: 172799.67
 STEP:  16 TIME =     0.02 SECS, INTEGRAL =      0.34 TIME LEFT: 172799.65
 STEP:  17 TIME =     0.02 SECS, INTEGRAL =      0.37 TIME LEFT: 172799.62
 STEP:  18 TIME =     0.02 SECS, INTEGRAL =      0.39 TIME LEFT: 172799.61
 STEP:  19 TIME =     0.02 SECS, INTEGRAL =      0.41 TIME LEFT: 172799.59
 STEP:  20 TIME =     0.02 SECS, INTEGRAL =      0.43 TIME LEFT: 172799.57
 STEP:  21 TIME =     0.02 SECS, INTEGRAL =      0.45 TIME LEFT: 172799.54
 STEP:  22 TIME =     0.02 SECS, INTEGRAL =      0.47 TIME LEFT: 172799.52
 STEP:  23 TIME =     0.02 SECS, INTEGRAL =      0.50 TIME LEFT: 172799.50
 STEP:  24 TIME =     0.02 SECS, INTEGRAL =      0.52 TIME LEFT: 172799.47
 STEP:  25 TIME =     0.02 SECS, INTEGRAL =      0.54 TIME LEFT: 172799.45
 STEP:  26 TIME =     0.02 SECS, INTEGRAL =      0.56 TIME LEFT: 172799.43
 STEP:  27 TIME =     0.02 SECS, INTEGRAL =      0.59 TIME LEFT: 172799.41
 STEP:  28 TIME =     0.02 SECS, INTEGRAL =      0.61 TIME LEFT: 172799.38
 STEP:  29 TIME =     0.02 SECS, INTEGRAL =      0.63 TIME LEFT: 172799.36
 STEP:  30 TIME =     0.02 SECS, INTEGRAL =      0.66 TIME LEFT: 172799.34
 STEP:  31 TIME =     0.02 SECS, INTEGRAL =      0.68 TIME LEFT: 172799.31
 STEP:  32 TIME =     0.02 SECS, INTEGRAL =      0.70 TIME LEFT: 172799.29
 STEP:  33 TIME =     0.02 SECS, INTEGRAL =      0.72 TIME LEFT: 172799.27
 STEP:  34 TIME =     0.02 SECS, INTEGRAL =      0.74 TIME LEFT: 172799.25
 STEP:  35 TIME =     0.02 SECS, INTEGRAL =      0.77 TIME LEFT: 172799.23
 STEP:  36 TIME =     0.02 SECS, INTEGRAL =      0.79 TIME LEFT: 172799.21
 STEP:  37 TIME =     0.02 SECS, INTEGRAL =      0.81 TIME LEFT: 172799.18
 STEP:  38 TIME =     0.02 SECS, INTEGRAL =      0.83 TIME LEFT: 172799.16
 STEP:  39 TIME =     0.02 SECS, INTEGRAL =      0.86 TIME LEFT: 172799.14
 STEP:  40 TIME =     0.02 SECS, INTEGRAL =      0.88 TIME LEFT: 172799.12
 STEP:  41 TIME =     0.02 SECS, INTEGRAL =      0.89 TIME LEFT: 172799.10
 STEP:  42 TIME =     0.02 SECS, INTEGRAL =      0.91 TIME LEFT: 172799.08
 STEP:  43 TIME =     0.02 SECS, INTEGRAL =      0.93 TIME LEFT: 172799.06
 STEP:  44 TIME =     0.02 SECS, INTEGRAL =      0.95 TIME LEFT: 172799.04
 STEP:  45 TIME =     0.02 SECS, INTEGRAL =      0.97 TIME LEFT: 172799.02
 STEP:  46 TIME =     0.02 SECS, INTEGRAL =      1.00 TIME LEFT: 172799.00
 STEP:  47 TIME =     0.02 SECS, INTEGRAL =      1.02 TIME LEFT: 172798.98
 STEP:  48 TIME =     0.02 SECS, INTEGRAL =      1.04 TIME LEFT: 172798.95
 STEP:  49 TIME =     0.02 SECS, INTEGRAL =      1.06 TIME LEFT: 172798.93
 STEP:  50 TIME =     0.03 SECS, INTEGRAL =      1.09 TIME LEFT: 172798.90
 STEP:  51 TIME =     0.02 SECS, INTEGRAL =      1.11 TIME LEFT: 172798.88
 STEP:  52 TIME =     0.02 SECS, INTEGRAL =      1.13 TIME LEFT: 172798.86
 STEP:  53 TIME =     0.02 SECS, INTEGRAL =      1.16 TIME LEFT: 172798.84
 STEP:  54 TIME =     0.02 SECS, INTEGRAL =      1.18 TIME LEFT: 172798.81
 STEP:  55 TIME =     0.02 SECS, INTEGRAL =      1.20 TIME LEFT: 172798.79
 STEP:  56 TIME =     0.02 SECS, INTEGRAL =      1.22 TIME LEFT: 172798.77
 STEP:  57 TIME =     0.02 SECS, INTEGRAL =      1.25 TIME LEFT: 172798.75
 STEP:  58 TIME =     0.02 SECS, INTEGRAL =      1.27 TIME LEFT: 172798.73
 STEP:  59 TIME =     0.02 SECS, INTEGRAL =      1.29 TIME LEFT: 172798.70
 STEP:  60 TIME =     0.02 SECS, INTEGRAL =      1.31 TIME LEFT: 172798.68
 STEP:  61 TIME =     0.02 SECS, INTEGRAL =      1.33 TIME LEFT: 172798.66
 STEP:  62 TIME =     0.02 SECS, INTEGRAL =      1.35 TIME LEFT: 172798.64
 STEP:  63 TIME =     0.02 SECS, INTEGRAL =      1.38 TIME LEFT: 172798.62
 STEP:  64 TIME =     0.02 SECS, INTEGRAL =      1.39 TIME LEFT: 172798.60
 STEP:  65 TIME =     0.02 SECS, INTEGRAL =      1.42 TIME LEFT: 172798.57
 STEP:  66 TIME =     0.02 SECS, INTEGRAL =      1.44 TIME LEFT: 172798.55

(To convert to Hartree/Bohr^2, multiply by (10^(-21) x N x a0^2)/(4.184 x 627.51) =  0.0642)


           FORCE MATRIX IN MILLIDYNES/ANGSTROM


                  C  1       C  2       C  3       C  4       C  5       C  6
 ------------------------------------------------------------------------------
     C    1  14.790854
     C    2   3.713182  14.597539
     C    3   4.059668   0.539148  14.649158
     C    4   0.751143   0.727547   0.042478  15.003085
     C    5   4.384141   0.870150   0.649076   4.776099  19.061477
     C    6   0.845006   4.534924   0.043422   4.504202   0.990863  18.967446
     C    7   0.680797   0.049901   4.827398   0.016729   0.157439   0.007459
     C    8   0.781552   0.049630   0.114881   0.673716  10.154359   0.050514
     C    9   0.118477   0.009325   0.841289   0.136387   1.185049   0.010606
     C   10   0.051444   0.737348   0.008560   0.733472   0.056295  10.893213
     H   11   4.201646   0.427080   0.426628   0.017215   0.396970   0.015500
     H   12   0.437558   0.010113   4.483651   0.007994   0.048830   0.001289
     H   13   0.433336   4.543262   0.016386   0.030925   0.041433   0.443061
     H   14   0.454306   4.460438   0.042598   0.021456   0.012566   0.427161
     H   15   0.453147   0.035698   4.375288   0.004734   0.014762   0.002005
     H   16   0.020615   0.026812   0.002253   4.459022   0.427857   0.435483
     H   17   0.033126   0.025878   0.004784   4.491827   0.441777   0.434841
     H   18   0.043958   0.007590   0.426766   0.008771   0.015429   0.001859
     H   19   0.113799   0.010960   0.008766   0.066797   0.461076   0.003529
     H   20   0.005295   0.000926   0.121624   0.009093   0.047831   0.001634
     H   21   0.007814   0.125044   0.001348   0.087742   0.002334   0.479321
     H   22   0.003583   0.087917   0.000917   0.125342   0.006892   0.479292


                  C  7       C  8       C  9       C 10       H 11       H 12
 ------------------------------------------------------------------------------
     C    7  17.870280
     C    8   1.122269  18.394071
     C    9  10.197037   5.527850  18.257987
     C   10   0.002679   0.011313   0.001865  18.099195
     H   11   0.013900   0.030304   0.017715   0.001945   4.650064
     H   12   0.439895   0.009948   0.047927   0.000678   0.035520   5.074985
     H   13   0.002753   0.006064   0.001093   0.023745   0.032555   0.001198
     H   14   0.002951   0.002689   0.001716   0.023058   0.036257   0.001343
     H   15   0.407599   0.019210   0.033687   0.000680   0.044767   0.569307
     H   16   0.002172   0.023371   0.016673   0.021663   0.002466   0.000437
     H   17   0.001666   0.020844   0.012107   0.022444   0.001268   0.001386
     H   18   4.855633   0.123455   0.444037   0.001038   0.004144   0.034970
     H   19   0.046621   4.883354   0.434665   0.001570   0.014952   0.001184
     H   20   0.445015   0.431745   4.867607   0.000746   0.000809   0.012774
     H   21   0.000480   0.001401   0.000334   5.111105   0.000478   0.000098
     H   22   0.000460   0.001828   0.000409   5.109425   0.000395   0.000138


                  H 13       H 14       H 15       H 16       H 17       H 18
 ------------------------------------------------------------------------------
     H   13   5.147051
     H   14   0.565568   5.065148
     H   15   0.001367   0.026920   4.978478
     H   16   0.003253   0.001046   0.000357   5.054846
     H   17   0.001126   0.002864   0.000596   0.558701   5.087615
     H   18   0.000550   0.000562   0.015208   0.001103   0.000959   5.229353
     H   19   0.001404   0.000495   0.000780   0.009221   0.008730   0.007941
     H   20   0.000115   0.000213   0.017000   0.001036   0.000933   0.066132
     H   21   0.010505   0.014657   0.000111   0.011011   0.010487   0.000199
     H   22   0.010946   0.011621   0.000177   0.013398   0.012258   0.000192


                  H 19       H 20       H 21       H 22
 ------------------------------------------------------
     H   19   5.256120
     H   20   0.028353   5.235457
     H   21   0.000381   0.000166   5.491613
     H   22   0.000291   0.000150   0.410506   5.490417


          HEAT OF FORMATION =      30.599638 KCALS/MOLE

          ZERO POINT ENERGY     118.698 KCAL/MOL


           NORMAL COORDINATE ANALYSIS (Total motion = 1 Angstrom)


   Root No.       1         2         3         4         5         6         7         8

                 1 A       2 A       3 A       4 A       5 A       6 A       7 A       8 A   

                  62.0     111.1     192.1     275.7     334.1     426.5     436.3     447.9
  
           1   -0.0107   -0.0063   -0.0004   -0.0107    0.0068    0.0167    0.0003    0.0087
           2   -0.0115    0.0027   -0.0096   -0.0255    0.0224    0.0214   -0.0064    0.0051
           3   -0.0163    0.0030   -0.0108    0.0167    0.0404    0.0034    0.0130   -0.0164
           4   -0.0103   -0.0073   -0.0001   -0.0182    0.0050    0.0182   -0.0016    0.0113
           5   -0.0243   -0.0299    0.0018   -0.0046   -0.0126   -0.0225    0.0152   -0.0158
           6   -0.0313   -0.0415    0.0016    0.0237   -0.0096    0.0049   -0.0127    0.0026
           7    0.0050    0.0201   -0.0037    0.0238   -0.0112   -0.0148    0.0127   -0.0061
           8   -0.0038    0.0150   -0.0104   -0.0125    0.0134    0.0096   -0.0099    0.0034
           9   -0.0022    0.0453   -0.0256    0.0036   -0.0209    0.0021    0.0016   -0.0019
          10   -0.0123    0.0083    0.0070   -0.0031    0.0041   -0.0093    0.0055   -0.0172
          11   -0.0285    0.0232    0.0252   -0.0231   -0.0127   -0.0018    0.0038   -0.0042
          12   -0.0344    0.0236    0.0282    0.0116   -0.0077    0.0080   -0.0073    0.0064
          13   -0.0072    0.0002   -0.0074   -0.0127    0.0146   -0.0012   -0.0054    0.0009
          14   -0.0141    0.0029   -0.0141   -0.0218    0.0275    0.0058   -0.0050    0.0058
          15   -0.0172    0.0055   -0.0171    0.0200    0.0443   -0.0146    0.0137   -0.0193
          16   -0.0047   -0.0004    0.0019   -0.0074    0.0063    0.0028    0.0059    0.0014
          17    0.0006    0.0004    0.0096   -0.0073   -0.0119   -0.0306    0.0464    0.0210
          18   -0.0015   -0.0058    0.0099    0.0102   -0.0068    0.0070    0.0194    0.0598
          19    0.0131    0.0047    0.0205    0.0208   -0.0023   -0.0263    0.0074   -0.0029
          20    0.0150    0.0030    0.0270    0.0152    0.0101   -0.0129   -0.0158    0.0015
          21    0.0223    0.0031    0.0437   -0.0143    0.0062   -0.0200   -0.0224    0.0164
          22    0.0041   -0.0108   -0.0220   -0.0201   -0.0161   -0.0081   -0.0189    0.0146
          23   -0.0011   -0.0096   -0.0390    0.0040   -0.0116   -0.0074   -0.0217    0.0124
          24    0.0012   -0.0116   -0.0387    0.0010   -0.0045   -0.0216   -0.0050    0.0019
          25    0.0121   -0.0114    0.0028    0.0025   -0.0082   -0.0014    0.0119   -0.0082
          26    0.0163   -0.0157    0.0040    0.0188   -0.0099    0.0244    0.0191   -0.0156
          27    0.0230   -0.0255    0.0088   -0.0195   -0.0187    0.0347    0.0201   -0.0060
          28    0.0097    0.0017   -0.0013    0.0180    0.0106    0.0208   -0.0147   -0.0005
          29    0.0500    0.0069   -0.0018    0.0467   -0.0010    0.0087   -0.0099   -0.0011
          30    0.0562    0.0007   -0.0040   -0.0449   -0.0004   -0.0075   -0.0057   -0.0209
          31   -0.0255   -0.0450    0.0118   -0.0111   -0.0147    0.0211   -0.0075    0.0161
          32   -0.0024    0.0246   -0.0157   -0.0292   -0.0078    0.0307   -0.0184    0.0178
          33   -0.0158    0.0052   -0.0120    0.0194    0.0659   -0.0054    0.0232   -0.0272
          34   -0.0077    0.0571   -0.0592    0.0512   -0.0536    0.0050    0.0501   -0.0348
          35   -0.0024    0.0617   -0.0517   -0.0162   -0.0569    0.0255    0.0028    0.0016
          36   -0.0021    0.0664   -0.0454    0.0029   -0.0528    0.0099    0.0085   -0.0038
          37   -0.0228   -0.0414    0.0092   -0.0090   -0.0376    0.0106   -0.0241    0.0128
          38   -0.0616   -0.0857    0.0009    0.0200   -0.0475   -0.0454   -0.0400   -0.1096
          39   -0.0327   -0.0498    0.0054    0.0248   -0.0238    0.0036   -0.0171    0.0115
          40    0.0020    0.0256   -0.0101   -0.0332    0.0456    0.0488    0.0033    0.0290
          41   -0.0140   -0.0200    0.0065   -0.0054   -0.0151   -0.0321    0.0400    0.0085
          42   -0.0683   -0.0990    0.0011    0.0432   -0.0475   -0.0058   -0.0779   -0.0766
          43    0.0249    0.0121    0.0331    0.0310   -0.0057   -0.0496   -0.0063    0.0043
          44   -0.0117   -0.0248    0.0157   -0.0242    0.0701    0.0131   -0.0199    0.0085
          45   -0.0111    0.0960   -0.0868    0.0110   -0.0902    0.0290    0.0308   -0.0177
          46   -0.0082    0.0112    0.0311    0.0024   -0.0302   -0.0198    0.0328   -0.0060
          47   -0.0182    0.0122    0.0057   -0.0212    0.0073   -0.0089    0.0142    0.0100
          48   -0.0803    0.0665    0.0913    0.0002   -0.0660    0.0483   -0.0746   -0.0650
          49   -0.0266    0.0193    0.0014    0.0003    0.0233   -0.0172   -0.0104   -0.0760
          50   -0.0730    0.0661    0.0944   -0.0335   -0.0803    0.0388   -0.0583   -0.0674
          51   -0.0313    0.0210    0.0277    0.0109   -0.0097    0.0087   -0.0042    0.0158
          52    0.0203    0.0094    0.0452    0.0369   -0.0016   -0.0401    0.0058   -0.0027
          53    0.0284    0.0038    0.0787    0.0252    0.0219   -0.0364   -0.0288    0.0087
          54    0.0395   -0.0035    0.1149   -0.0221    0.0312   -0.0479   -0.0495    0.0327
          55    0.0092   -0.0182   -0.0362   -0.0479   -0.0542   -0.0168   -0.0505    0.0472
          56   -0.0025   -0.0099   -0.0690    0.0183   -0.0465   -0.0563   -0.0620    0.0363
          57    0.0019   -0.0144   -0.0634    0.0013   -0.0408   -0.0570   -0.0426    0.0289
          58    0.0179   -0.0219    0.0115   -0.0030   -0.0148    0.0210    0.0248   -0.0143
          59    0.0306   -0.0340    0.0336    0.0340   -0.0175    0.0635    0.0713   -0.0459
          60    0.0403   -0.0566    0.0353   -0.0339   -0.0370    0.1003    0.0599   -0.0255
          61    0.0153    0.0090    0.0001    0.0971    0.0173    0.0775   -0.0564    0.0421
          62    0.0709    0.0295    0.0013    0.0474    0.0043    0.0214   -0.0346   -0.0219
          63    0.0804    0.0264   -0.0006   -0.0761    0.0037   -0.0146   -0.0201   -0.0651
          64    0.0169   -0.0036   -0.0057   -0.0318    0.0088   -0.0107    0.0009   -0.0403
          65    0.0730   -0.0098   -0.0155    0.1078    0.0055    0.0496   -0.0537    0.0048
          66    0.0833   -0.0193   -0.0204   -0.0764    0.0015   -0.0266   -0.0129   -0.0772


   Root No.       9        10        11        12        13        14        15        16

                 9 A      10 A      11 A      12 A      13 A      14 A      15 A      16 A   

                 470.9     527.4     594.3     614.6     636.0     753.3     802.3     851.3
  
           1   -0.0048    0.0312    0.0146    0.0131    0.0320    0.0019    0.0034    0.0080
           2   -0.0300   -0.0178    0.0046   -0.0115    0.0056    0.0099   -0.0098   -0.0001
           3   -0.0015   -0.0194    0.0194   -0.0075    0.0272    0.0105    0.0003   -0.0273
           4    0.0096    0.0342    0.0177    0.0058    0.0281    0.0051    0.0253    0.0279
           5   -0.0064    0.0052    0.0077    0.0118    0.0176    0.0027    0.0064   -0.0090
           6    0.0019   -0.0105   -0.0048   -0.0111   -0.0132    0.0043    0.0004   -0.0258
           7   -0.0286    0.0218    0.0047   -0.0154   -0.0031   -0.0065   -0.0248   -0.0057
           8   -0.0335   -0.0408   -0.0050   -0.0242   -0.0146    0.0023   -0.0157    0.0288
           9    0.0228    0.0061    0.0034    0.0085    0.0126   -0.0155   -0.0080   -0.0197
          10    0.0298   -0.0285   -0.0031    0.0040    0.0004   -0.0037   -0.0183    0.0196
          11    0.0030    0.0301   -0.0007   -0.0261   -0.0204    0.0062    0.0149   -0.0088
          12   -0.0163   -0.0133   -0.0100    0.0258    0.0055   -0.0038   -0.0182    0.0312
          13   -0.0028   -0.0101   -0.0215    0.0447   -0.0049   -0.0097   -0.0167   -0.0110
          14   -0.0086    0.0543   -0.0220    0.0136   -0.0352   -0.0041    0.0002   -0.0184
          15    0.0041    0.0148   -0.0092    0.0168   -0.0085    0.0026    0.0048    0.0176
          16    0.0502   -0.0098    0.0010   -0.0313   -0.0197    0.0001    0.0009   -0.0049
          17    0.0061   -0.0081    0.0042    0.0014    0.0075   -0.0037   -0.0024    0.0017
          18    0.0026   -0.0162   -0.0078   -0.0024   -0.0131   -0.0039   -0.0000   -0.0030
          19   -0.0394    0.0218    0.0043   -0.0197   -0.0078   -0.0028   -0.0201   -0.0038
          20    0.0357   -0.0308   -0.0047    0.0169    0.0046   -0.0127    0.0402    0.0065
          21    0.0073    0.0208    0.0032   -0.0020    0.0010   -0.0218   -0.0036    0.0057
          22   -0.0171   -0.0254   -0.0102    0.0261    0.0024   -0.0059   -0.0012   -0.0253
          23    0.0339    0.0048    0.0078    0.0097    0.0138   -0.0116   -0.0218   -0.0168
          24   -0.0224    0.0072    0.0130   -0.0312   -0.0039    0.0124    0.0384    0.0151
          25   -0.0457   -0.0385   -0.0132    0.0068   -0.0109    0.0049    0.0502   -0.0071
          26    0.0282   -0.0093    0.0019    0.0029    0.0068   -0.0211    0.0030    0.0057
          27   -0.0073    0.0154    0.0012   -0.0075   -0.0013   -0.0244   -0.0090    0.0055
          28    0.0440   -0.0041   -0.0001   -0.0345   -0.0240    0.0016    0.0018   -0.0057
          29   -0.0240    0.0127    0.0024    0.0117    0.0116   -0.0006   -0.0023    0.0031
          30    0.0044   -0.0057   -0.0020   -0.0008   -0.0035   -0.0000    0.0014   -0.0017
          31    0.0095    0.0525    0.0299    0.0145    0.0580    0.0136    0.0503    0.0242
          32   -0.0341   -0.0502    0.0107   -0.0384    0.0090    0.0128   -0.0476    0.0286
          33   -0.0038   -0.0069    0.0081    0.0095    0.0129    0.0037    0.0056   -0.0491
          34   -0.0045    0.0101   -0.0174    0.0161   -0.0214    0.0630    0.0315   -0.0179
          35   -0.0124   -0.0119   -0.0432    0.0073   -0.0631    0.0514    0.0340    0.0934
          36    0.0334    0.0184   -0.0145    0.0243   -0.0094    0.0087    0.0175    0.0071
          37    0.0066    0.0629   -0.0189    0.0193    0.0060   -0.0174    0.0204    0.1072
          38    0.0019    0.0417   -0.0509   -0.0059    0.0069   -0.0171   -0.0233    0.0465
          39    0.0002   -0.0023   -0.0156   -0.0043   -0.0224   -0.0036    0.0003    0.0010
          40   -0.0158    0.0224    0.0532    0.0073    0.0675    0.0308    0.0438    0.0000
          41    0.0063   -0.0065    0.0181    0.0151    0.0061   -0.0004    0.0093   -0.0268
          42   -0.0030    0.0316   -0.0698   -0.0214   -0.0264   -0.0168   -0.0281    0.0493
          43   -0.0239    0.0308    0.0067   -0.0248   -0.0104   -0.0637   -0.0271   -0.0060
          44   -0.0617   -0.0619    0.0269   -0.0545    0.0264   -0.0192   -0.0748   -0.0000
          45    0.0507    0.0229   -0.0350    0.0520   -0.0277    0.0621    0.0608    0.0130
          46    0.0430   -0.0835    0.0194   -0.0217    0.0427   -0.0126   -0.0257    0.0494
          47    0.0102    0.0489   -0.0209   -0.0223   -0.0330    0.0087    0.0098    0.0014
          48   -0.0575   -0.0496    0.0617    0.0291    0.0242   -0.0076    0.0124   -0.0437
          49    0.0252   -0.0140    0.0115    0.0322    0.0026    0.0016   -0.0244    0.0517
          50   -0.0345   -0.0129    0.0746   -0.0370    0.0009    0.0019    0.0541   -0.1015
          51   -0.0159   -0.0155   -0.0127    0.0225    0.0050   -0.0046   -0.0180    0.0282
          52    0.0005    0.0557    0.0079    0.0012    0.0034    0.0611   -0.0502   -0.0376
          53    0.0766   -0.0021   -0.0102    0.0517    0.0077    0.1339    0.0183   -0.0275
          54    0.0259    0.0214   -0.0176    0.0401   -0.0138    0.1962    0.0040   -0.0107
          55   -0.0227   -0.0114    0.0002    0.0092    0.0086    0.0361   -0.0626   -0.0408
          56    0.0606   -0.0254    0.0405   -0.0229    0.0489    0.0899   -0.0719    0.0497
          57   -0.0056   -0.0085    0.0387   -0.0587    0.0222    0.0947   -0.0152    0.0563
          58   -0.0389   -0.0417   -0.0221    0.0243   -0.0124    0.0585    0.0197   -0.0205
          59    0.0226    0.0155   -0.0031   -0.0056   -0.0065    0.1164   -0.0790    0.0157
          60    0.0116    0.0061   -0.0240    0.0405   -0.0063    0.1346   -0.1002   -0.0285
          61    0.0149    0.0213   -0.0366   -0.0521   -0.0034    0.0083    0.0334   -0.0179
          62   -0.0317    0.0319   -0.1018   -0.0528    0.1235    0.0080    0.0125   -0.0152
          63    0.0077    0.0075   -0.1198   -0.0766    0.1294    0.0081    0.0069   -0.0203
          64    0.0636   -0.0176    0.0349   -0.0208   -0.0515   -0.0010   -0.0174    0.0032
          65   -0.0573    0.0292    0.1049    0.0910   -0.0963    0.0008    0.0064    0.0223
          66    0.0096   -0.0149    0.1235    0.0778   -0.1207   -0.0031   -0.0222    0.0257


   Root No.      17        18        19        20        21        22        23        24

                17 A      18 A      19 A      20 A      21 A      22 A      23 A      24 A   

                 865.5     905.8     924.8     942.0     945.6     959.5     991.4    1004.1
  
           1    0.0023   -0.0038   -0.0082   -0.0015   -0.0035   -0.0042   -0.0007   -0.0010
           2   -0.0058    0.0020   -0.0014   -0.0084   -0.0033   -0.0033   -0.0015   -0.0064
           3    0.0140   -0.0031   -0.0018   -0.0103   -0.0131   -0.0188    0.0113    0.0001
           4    0.0031   -0.0087    0.0018    0.0099    0.0007   -0.0017    0.0041    0.0081
           5   -0.0096    0.0168    0.0253    0.0065   -0.0234    0.0294   -0.0038   -0.0026
           6   -0.0106    0.0290   -0.0129   -0.0092    0.0329    0.0001   -0.0004   -0.0012
           7   -0.0010   -0.0031    0.0011    0.0007    0.0014   -0.0016    0.0039    0.0049
           8   -0.0106   -0.0039    0.0044    0.0078   -0.0018   -0.0002    0.0071    0.0078
           9    0.0294   -0.0179   -0.0048    0.0110    0.0155    0.0183   -0.0181    0.0041
          10   -0.0054    0.0047    0.0139   -0.0179    0.0267   -0.0055   -0.0012   -0.0026
          11    0.0360    0.0015   -0.0022   -0.0270    0.0153   -0.0020    0.0062   -0.0052
          12    0.0107    0.0081   -0.0174   -0.0130   -0.0270    0.0249    0.0011   -0.0102
          13   -0.0023    0.0038    0.0058    0.0055    0.0003   -0.0056   -0.0027    0.0040
          14   -0.0038    0.0051    0.0003    0.0144    0.0053   -0.0086   -0.0049    0.0077
          15   -0.0088    0.0014    0.0074    0.0156    0.0062   -0.0016   -0.0046    0.0057
          16   -0.0026   -0.0021   -0.0010    0.0065   -0.0134    0.0049   -0.0007    0.0013
          17   -0.0042   -0.0110   -0.0037    0.0071    0.0030   -0.0108    0.0009    0.0083
          18   -0.0048   -0.0115    0.0068    0.0092   -0.0020   -0.0082   -0.0005    0.0097
          19   -0.0106    0.0081    0.0050   -0.0037   -0.0051    0.0027   -0.0006   -0.0065
          20    0.0160    0.0067   -0.0001    0.0124    0.0057   -0.0023    0.0142   -0.0026
          21   -0.0046    0.0139    0.0059    0.0069   -0.0021   -0.0043    0.0211   -0.0073
          22   -0.0006   -0.0092   -0.0045   -0.0090    0.0006    0.0035    0.0079   -0.0043
          23   -0.0223   -0.0176   -0.0049   -0.0141    0.0003    0.0115    0.0135   -0.0084
          24   -0.0157   -0.0216   -0.0076   -0.0016    0.0105    0.0192    0.0044   -0.0061
          25    0.0239   -0.0006   -0.0080    0.0032   -0.0001    0.0037   -0.0127    0.0006
          26   -0.0004    0.0053    0.0004   -0.0101   -0.0059   -0.0075   -0.0195    0.0061
          27   -0.0085    0.0090    0.0005   -0.0161   -0.0142   -0.0159   -0.0178    0.0093
          28   -0.0041    0.0023   -0.0147    0.0124   -0.0239    0.0106   -0.0039   -0.0085
          29   -0.0024   -0.0007   -0.0360    0.0099    0.0065   -0.0173   -0.0051   -0.0236
          30    0.0013   -0.0079    0.0365    0.0006   -0.0018   -0.0072   -0.0091   -0.0315
          31   -0.0144    0.0517   -0.0279   -0.0214    0.0308    0.0312    0.0045   -0.0586
          32    0.0087   -0.0200   -0.0240   -0.0270    0.0361    0.0486   -0.0733   -0.0263
          33    0.0109   -0.0126    0.0212    0.0113   -0.0515   -0.0662    0.0548    0.0377
          34   -0.0268    0.0214    0.0017   -0.0444   -0.0533   -0.0770    0.0354    0.0211
          35   -0.0965    0.0517    0.0192   -0.0020   -0.0239   -0.0165    0.0474   -0.0205
          36   -0.0083    0.0073    0.0014    0.0052    0.0036    0.0079    0.0010   -0.0074
          37    0.0045   -0.0721   -0.0132    0.0572    0.0489   -0.0269   -0.0331    0.0923
          38    0.0502   -0.0865    0.0307    0.0027   -0.1162   -0.0153    0.0253   -0.0346
          39   -0.0149    0.0115   -0.0197    0.0104    0.0621   -0.0077   -0.0181    0.0371
          40   -0.0064    0.0547   -0.0192   -0.0395    0.0309   -0.0048    0.0449   -0.0679
          41   -0.0278    0.0308    0.0461    0.0327   -0.0307    0.0640   -0.0327    0.0369
          42    0.0446   -0.0756   -0.0398   -0.0182    0.0143   -0.0799    0.0260   -0.0149
          43    0.0102    0.0131    0.0131    0.0401    0.0402    0.0307    0.0493   -0.0155
          44    0.0413   -0.0577   -0.0103    0.0069    0.0080    0.0177   -0.0535    0.0349
          45   -0.0411    0.0294    0.0017   -0.0240   -0.0317   -0.0316    0.0105   -0.0081
          46   -0.0438   -0.0526    0.0346   -0.0661    0.0623   -0.0547    0.0862    0.0410
          47    0.0664    0.0164   -0.0134   -0.0425    0.0096    0.0142   -0.0036   -0.0191
          48   -0.0915   -0.0113    0.0145    0.0941   -0.0265   -0.0103   -0.0268    0.0163
          49   -0.0339    0.0456    0.0563    0.0033    0.1245   -0.0116   -0.0874   -0.0355
          50   -0.0584   -0.0346    0.0303    0.0625    0.0289   -0.0600    0.0072    0.0353
          51    0.0149    0.0025   -0.0238   -0.0163   -0.0425    0.0271    0.0135   -0.0057
          52   -0.0282   -0.0218   -0.0050   -0.0425   -0.0073    0.0056   -0.0554    0.0023
          53   -0.0219   -0.0507   -0.0229   -0.0478   -0.0063   -0.0006   -0.0648    0.0204
          54   -0.0584   -0.0613   -0.0280   -0.0590   -0.0272   -0.0068   -0.0555    0.0292
          55    0.0624    0.0636    0.0136    0.0077   -0.0330   -0.0730   -0.0042    0.0269
          56    0.0780    0.0864    0.0394    0.0548   -0.0215   -0.0558   -0.0329    0.0247
          57    0.0725    0.0725    0.0282    0.0507   -0.0154   -0.0512   -0.0310    0.0267
          58    0.0418   -0.0122   -0.0051    0.0351    0.0229    0.0227    0.0305   -0.0108
          59    0.0130   -0.0165    0.0193    0.0666    0.0528    0.0626    0.0373   -0.0317
          60    0.0409   -0.0247    0.0105    0.0784    0.0538    0.0405    0.1085   -0.0241
          61    0.0149   -0.0151    0.2199   -0.0304   -0.0305    0.0519   -0.0016    0.0202
          62   -0.0127    0.0352   -0.0161   -0.0172    0.0197    0.0402    0.0244    0.1080
          63   -0.0202    0.0452   -0.0342   -0.0155    0.0147    0.0510    0.0270    0.1236
          64   -0.0122    0.0259   -0.1636    0.0291   -0.0414    0.0255    0.0092    0.0322
          65    0.0447   -0.0051    0.1144   -0.0718    0.0239    0.0350    0.0353    0.0965
          66    0.0225    0.0248   -0.0819   -0.0335   -0.0125    0.0502    0.0398    0.1150


   Root No.      25        26        27        28        29        30        31        32

                25 A      26 A      27 A      28 A      29 A      30 A      31 A      32 A   

                1032.5    1048.4    1065.0    1077.6    1088.8    1101.7    1131.1    1155.4
  
           1    0.0039   -0.0078   -0.0019   -0.0039    0.0172    0.0251   -0.0132   -0.0008
           2    0.0155   -0.0041    0.0094   -0.0073   -0.0082   -0.0111   -0.0251   -0.0008
           3   -0.0040   -0.0092   -0.0114   -0.0058   -0.0027    0.0059   -0.0324   -0.0180
           4   -0.0116    0.0048   -0.0060    0.0061   -0.0205   -0.0225    0.0123   -0.0008
           5   -0.0060    0.0084    0.0051    0.0139   -0.0075   -0.0146    0.0103    0.0030
           6   -0.0043    0.0054   -0.0042    0.0127   -0.0015   -0.0051    0.0093    0.0020
           7   -0.0237    0.0137    0.0125   -0.0004    0.0143   -0.0002    0.0037    0.0013
           8   -0.0224    0.0113   -0.0105    0.0061    0.0055    0.0229    0.0166    0.0101
           9    0.0081    0.0135   -0.0043    0.0053    0.0000    0.0095    0.0162    0.0026
          10    0.0007   -0.0003    0.0027    0.0027   -0.0032    0.0019    0.0006   -0.0016
          11   -0.0088   -0.0042   -0.0152    0.0081   -0.0005   -0.0002   -0.0068   -0.0000
          12   -0.0056    0.0015    0.0047    0.0091   -0.0058    0.0001    0.0009    0.0005
          13    0.0084    0.0020    0.0020    0.0021    0.0020   -0.0060    0.0010   -0.0041
          14    0.0172    0.0085    0.0195    0.0054    0.0087    0.0019    0.0104   -0.0018
          15    0.0086    0.0064    0.0053    0.0014    0.0137   -0.0073   -0.0028    0.0017
          16    0.0006   -0.0008    0.0006   -0.0084    0.0013    0.0007    0.0001   -0.0002
          17    0.0018   -0.0031   -0.0006   -0.0283    0.0002    0.0013    0.0029   -0.0002
          18    0.0055   -0.0032    0.0021   -0.0299   -0.0027    0.0021    0.0061    0.0025
          19    0.0237   -0.0225   -0.0213    0.0026   -0.0076   -0.0026    0.0016    0.0022
          20   -0.0060   -0.0109    0.0243    0.0003   -0.0015    0.0050   -0.0018    0.0041
          21    0.0042   -0.0289   -0.0029    0.0011    0.0042   -0.0087    0.0030   -0.0020
          22   -0.0051   -0.0059   -0.0027   -0.0009   -0.0088    0.0017   -0.0032   -0.0012
          23   -0.0069   -0.0096   -0.0271   -0.0024    0.0077   -0.0080   -0.0004   -0.0068
          24   -0.0021   -0.0036    0.0235    0.0008   -0.0110    0.0103    0.0009    0.0053
          25    0.0135    0.0041   -0.0213   -0.0009    0.0101   -0.0076    0.0025   -0.0039
          26    0.0045    0.0104   -0.0004    0.0004   -0.0045    0.0055   -0.0002   -0.0018
          27   -0.0071    0.0122   -0.0002   -0.0002    0.0055   -0.0043    0.0007    0.0017
          28   -0.0007    0.0014    0.0025    0.0051   -0.0000   -0.0019   -0.0006    0.0015
          29   -0.0044    0.0022   -0.0027    0.0139   -0.0020   -0.0016    0.0001   -0.0003
          30   -0.0043    0.0024    0.0004    0.0149    0.0021    0.0001   -0.0022   -0.0006
          31    0.0309    0.0032    0.0306   -0.0375    0.1492    0.2019   -0.0230    0.0114
          32    0.0419   -0.0501    0.1124   -0.0440    0.0289   -0.1570   -0.0947   -0.0944
          33   -0.0328    0.0162   -0.0918    0.0322   -0.0819    0.0250    0.0134    0.0359
          34   -0.1074   -0.1025    0.1386    0.0173    0.0655   -0.0698    0.0679   -0.0534
          35    0.0216    0.0354   -0.0859   -0.0213   -0.0331    0.0428   -0.0793    0.0326
          36    0.0247    0.0194   -0.0342   -0.0056   -0.0144    0.0170   -0.0214    0.0089
          37   -0.0461   -0.0543   -0.0333    0.0849   -0.0402   -0.0292   -0.0942   -0.0248
          38    0.0294    0.0139    0.0242   -0.0898    0.0141    0.0196    0.0232    0.0013
          39   -0.0216   -0.0196   -0.0179    0.0546   -0.0129   -0.0125   -0.0359   -0.0079
          40    0.0224    0.0852    0.0190   -0.0585   -0.0634   -0.1024    0.1479    0.0397
          41   -0.0362   -0.0274   -0.0071    0.0766    0.0181    0.0258   -0.0569   -0.0183
          42    0.0315    0.0070    0.0000   -0.0710   -0.0173   -0.0180    0.0225    0.0077
          43   -0.0604    0.1915    0.0284   -0.0497   -0.0134   -0.0223   -0.1113   -0.0845
          44   -0.0186   -0.0618   -0.0027    0.0459    0.0371    0.0471    0.1196    0.0708
          45    0.0353   -0.0630   -0.0264    0.0045   -0.0097    0.0032    0.0003    0.0110
          46    0.1137    0.0720    0.0676    0.1356    0.0475   -0.0020    0.0183    0.0055
          47   -0.0332   -0.0174   -0.0323   -0.0044   -0.0106    0.0013   -0.0135   -0.0016
          48    0.0091   -0.0012    0.0225   -0.0460   -0.0013   -0.0023    0.0132    0.0008
          49   -0.0914   -0.0615   -0.0311   -0.1306   -0.0405    0.0357    0.0250    0.0134
          50    0.0319    0.0064   -0.0044   -0.0102    0.0234   -0.0062   -0.0078   -0.0038
          51    0.0079    0.0108    0.0108    0.0289   -0.0011   -0.0052   -0.0022   -0.0016
          52    0.0444   -0.0076    0.0514    0.0041   -0.0786    0.0089   -0.0613    0.1934
          53   -0.0084    0.0479    0.0568    0.0001   -0.0389    0.0214   -0.0339    0.1036
          54   -0.0434    0.0787   -0.0734   -0.0031    0.0606    0.0008    0.0521   -0.1480
          55   -0.0259    0.0143    0.1211    0.0143   -0.1148    0.1424   -0.0103   -0.0642
          56    0.0477    0.0183   -0.0806   -0.0042    0.0824   -0.0888    0.0018    0.0288
          57    0.0273    0.0224    0.0306    0.0047    0.0045    0.0026   -0.0003    0.0103
          58   -0.0057   -0.0038   -0.0156   -0.0054    0.0292   -0.0225   -0.0160    0.0452
          59    0.0823   -0.0543    0.0004    0.0186   -0.0974    0.0758    0.0649   -0.1813
          60   -0.0614   -0.0120    0.0186   -0.0122    0.0569   -0.0437   -0.0475    0.1298
          61    0.0020   -0.0018    0.0100   -0.0135    0.0082   -0.0003   -0.0045    0.0023
          62    0.0094   -0.0085   -0.0009   -0.0428   -0.0037    0.0000    0.0052    0.0004
          63    0.0122   -0.0098    0.0005   -0.0494   -0.0033    0.0015    0.0058    0.0005
          64    0.0065    0.0003    0.0054   -0.0082   -0.0057   -0.0053    0.0029    0.0056
          65    0.0163   -0.0080   -0.0012   -0.0479    0.0038    0.0074    0.0012   -0.0033
          66    0.0214   -0.0066    0.0053   -0.0494   -0.0022    0.0021    0.0041    0.0031


   Root No.      33        34        35        36        37        38        39        40

                33 A      34 A      35 A      36 A      37 A      38 A      39 A      40 A   

                1185.1    1190.7    1218.2    1259.0    1296.0    1330.3    1345.7    1370.3
  
           1    0.0168    0.0056   -0.0391    0.0368    0.0196   -0.0082   -0.0153   -0.0254
           2    0.0114    0.0408    0.0105    0.0137   -0.0163    0.0204    0.0060   -0.0042
           3   -0.0043   -0.0108    0.0110   -0.0158    0.0022   -0.0103    0.0012    0.0224
           4    0.0006   -0.0196   -0.0090   -0.0354   -0.0167   -0.0086    0.0303   -0.0095
           5    0.0014    0.0026    0.0111    0.0097    0.0098    0.0108   -0.0232    0.0014
           6    0.0012   -0.0087   -0.0187   -0.0010   -0.0040   -0.0116    0.0154   -0.0039
           7    0.0036   -0.0057   -0.0121    0.0230    0.0077    0.0090   -0.0023    0.0413
           8   -0.0163   -0.0054   -0.0007   -0.0185    0.0027   -0.0070    0.0022   -0.0183
           9    0.0023    0.0084    0.0079   -0.0023   -0.0061    0.0012    0.0016   -0.0110
          10   -0.0172    0.0062   -0.0096    0.0200   -0.0310    0.0249    0.0336   -0.0055
          11   -0.0046   -0.0044   -0.0053   -0.0084    0.0090   -0.0037   -0.0004    0.0187
          12    0.0108    0.0075    0.0058    0.0024   -0.0002   -0.0042   -0.0078   -0.0126
          13   -0.0237    0.0003   -0.0101   -0.0059    0.0122    0.0068   -0.0031    0.0093
          14    0.0206    0.0083    0.0027   -0.0022   -0.0131   -0.0130    0.0096    0.0086
          15   -0.0146   -0.0272    0.0067   -0.0020    0.0122    0.0078   -0.0109   -0.0157
          16   -0.0052   -0.0025    0.0015    0.0071   -0.0142   -0.0191   -0.0163   -0.0041
          17   -0.0104   -0.0043    0.0105    0.0170    0.0046   -0.0346    0.0110   -0.0107
          18    0.0090    0.0059   -0.0061   -0.0159   -0.0003    0.0359   -0.0060    0.0108
          19    0.0061   -0.0124    0.0208   -0.0020   -0.0155    0.0116    0.0089   -0.0134
          20    0.0039   -0.0039   -0.0086    0.0128    0.0020    0.0048    0.0000    0.0108
          21   -0.0018    0.0048   -0.0023   -0.0048    0.0042   -0.0070   -0.0035   -0.0023
          22   -0.0152    0.0072   -0.0094   -0.0105    0.0144    0.0001   -0.0035    0.0215
          23    0.0086   -0.0092    0.0157   -0.0056   -0.0039   -0.0073   -0.0028   -0.0164
          24    0.0002    0.0101   -0.0127    0.0139   -0.0051    0.0079    0.0053    0.0043
          25    0.0143    0.0020    0.0102   -0.0075   -0.0025   -0.0150   -0.0039   -0.0145
          26   -0.0004   -0.0084    0.0016    0.0090   -0.0055    0.0140    0.0056    0.0025
          27   -0.0078    0.0062   -0.0047   -0.0069    0.0061   -0.0061   -0.0032    0.0030
          28    0.0072    0.0038    0.0068   -0.0018   -0.0041    0.0001   -0.0285    0.0037
          29    0.0011   -0.0016   -0.0057   -0.0064    0.0023    0.0072    0.0103    0.0009
          30   -0.0025   -0.0000    0.0024    0.0058   -0.0011   -0.0065   -0.0017   -0.0018
          31   -0.0797    0.0306    0.1157   -0.0658   -0.0228    0.0158    0.0119    0.0361
          32    0.0035   -0.1153   -0.0313   -0.0120    0.0285   -0.0243   -0.0123    0.0091
          33    0.0400    0.0764   -0.0267    0.0420   -0.0083    0.0077    0.0018   -0.0120
          34   -0.0355    0.0918    0.0183   -0.0609    0.0016   -0.0327   -0.0173   -0.0769
          35   -0.0109   -0.0829   -0.0447    0.0057    0.0524   -0.0438   -0.0398    0.0533
          36    0.0049   -0.0203   -0.0081    0.0067    0.0117   -0.0123   -0.0132    0.0154
          37   -0.0416    0.0418    0.1362    0.0228    0.0097    0.0386   -0.0557    0.0796
          38    0.0330   -0.0229   -0.0539   -0.0926   -0.0388    0.0780    0.0313    0.0688
          39   -0.0191    0.0194    0.0463    0.0358    0.0133   -0.0041   -0.0244    0.0192
          40   -0.0460   -0.0192    0.0871    0.0378    0.0305    0.0352   -0.0623    0.0629
          41    0.0340   -0.0075   -0.0569   -0.0549   -0.0278    0.0186    0.0316    0.0035
          42   -0.0252    0.0155    0.0414    0.0703    0.0329   -0.0627   -0.0197   -0.0670
          43   -0.0157    0.0754    0.0029   -0.0507   -0.0019   -0.0245   -0.0048   -0.0635
          44   -0.0167   -0.0505   -0.0155    0.0130    0.0291   -0.0174   -0.0260    0.0404
          45    0.0182   -0.0120    0.0103    0.0247   -0.0236    0.0368    0.0304    0.0153
          46    0.1377    0.0081    0.0228   -0.0692    0.0456   -0.0338   -0.0448    0.0332
          47   -0.0316   -0.0065   -0.0158   -0.0018    0.0145    0.0483   -0.0101   -0.0257
          48   -0.0021    0.0096    0.0197    0.0381   -0.0648   -0.1341    0.0721    0.1022
          49    0.1598    0.0457    0.0206   -0.0747    0.0552   -0.0020   -0.0617    0.0131
          50   -0.0528   -0.0362   -0.0243   -0.0216    0.0573    0.1486   -0.0618   -0.1152
          51   -0.0135    0.0032    0.0030    0.0184   -0.0184   -0.0128    0.0127   -0.0036
          52   -0.0510    0.0334   -0.0058   -0.0766    0.0168   -0.0472   -0.0111   -0.0347
          53   -0.0302    0.0232   -0.0233   -0.0285    0.0199   -0.0263   -0.0107    0.0000
          54    0.0334   -0.0209    0.0213    0.0435   -0.0210    0.0359    0.0119    0.0094
          55    0.0500   -0.1374    0.0802    0.0199   -0.0157    0.0097   -0.0092   -0.0552
          56   -0.0224    0.0694   -0.0304   -0.0222    0.0133   -0.0138   -0.0011    0.0245
          57    0.0005    0.0154   -0.0155    0.0151   -0.0039    0.0083    0.0050    0.0063
          58    0.0340   -0.0193    0.0256    0.0057   -0.0183   -0.0027    0.0041   -0.0211
          59   -0.0633    0.0718   -0.0538   -0.0385    0.0502   -0.0360   -0.0241    0.0202
          60    0.0414   -0.0480    0.0315    0.0306   -0.0340    0.0295    0.0182   -0.0090
          61    0.0083    0.0129    0.0645    0.0391    0.1544   -0.0150    0.1612   -0.0183
          62   -0.0003   -0.0025   -0.0036   -0.0043    0.0078    0.0048    0.0191   -0.0007
          63   -0.0020   -0.0028   -0.0141   -0.0070   -0.0462   -0.0006   -0.0566    0.0048
          64    0.0312    0.0162    0.0298   -0.0111    0.1044    0.0396    0.0905    0.0035
          65   -0.0252   -0.0123   -0.0247    0.0056   -0.1086   -0.0360   -0.1144    0.0010
          66    0.0130    0.0097    0.0178   -0.0011    0.0687    0.0219    0.0760   -0.0012


   Root No.      41        42        43        44        45        46        47        48

                41 A      42 A      43 A      44 A      45 A      46 A      47 A      48 A   

                1382.5    1396.9    1401.9    1424.4    1445.3    1839.0    1891.4    1920.8
  
           1   -0.0128   -0.0325    0.0124    0.0046   -0.0243   -0.0010   -0.0114    0.0046
           2    0.0032    0.0106   -0.0019   -0.0461    0.0555   -0.0022   -0.0013    0.0090
           3    0.0003    0.0110   -0.0091    0.0351   -0.0336    0.0006    0.0090   -0.0132
           4    0.0157    0.0301    0.0026   -0.0059    0.0189    0.0013   -0.0111   -0.0082
           5   -0.0015    0.0128    0.0322    0.0328   -0.0055    0.0013    0.0089    0.0155
           6    0.0016   -0.0137   -0.0245   -0.0252    0.0023   -0.0008   -0.0047   -0.0116
           7    0.0245    0.0132   -0.0186    0.0172    0.0578    0.0263    0.0060   -0.0033
           8    0.0256   -0.0297    0.0119    0.0231   -0.0284    0.0085    0.0005   -0.0021
           9   -0.0122    0.0027    0.0042   -0.0136   -0.0105   -0.0152   -0.0037    0.0030
          10   -0.0319   -0.0005    0.0011    0.0486    0.0040    0.0055   -0.0350   -0.0007
          11   -0.0020   -0.0144    0.0402   -0.0179    0.0093   -0.0031    0.0091   -0.0119
          12    0.0110    0.0135   -0.0346    0.0012   -0.0104    0.0013    0.0033    0.0083
          13    0.0130    0.0035    0.0116   -0.0271   -0.0121   -0.0332    0.1250   -0.1255
          14   -0.0074    0.0118   -0.0257    0.0412   -0.0362    0.0102   -0.0216    0.0181
          15    0.0029   -0.0167    0.0229   -0.0333    0.0477    0.0108   -0.0567    0.0577
          16    0.0095    0.0004   -0.0161   -0.0119   -0.0029   -0.0073    0.1187    0.1521
          17    0.0139   -0.0008   -0.0369   -0.0242   -0.0040    0.0026   -0.0453   -0.0589
          18   -0.0150    0.0003    0.0361    0.0235    0.0048   -0.0006    0.0097    0.0130
          19   -0.0018    0.0031    0.0144   -0.0255   -0.0503   -0.1022   -0.0146    0.0099
          20    0.0045    0.0062   -0.0023   -0.0038   -0.0028   -0.1478   -0.0164    0.0104
          21   -0.0037   -0.0051   -0.0041    0.0110    0.0206    0.1431    0.0176   -0.0116
          22    0.0172    0.0091    0.0040   -0.0211   -0.0273    0.0436   -0.1092    0.1027
          23   -0.0134   -0.0121   -0.0025    0.0189    0.0417   -0.0352    0.0250   -0.0236
          24    0.0029    0.0072    0.0000   -0.0062   -0.0267    0.0070    0.0439   -0.0412
          25   -0.0160   -0.0107   -0.0101    0.0281    0.0405    0.0340    0.0161   -0.0129
          26    0.0050    0.0079    0.0106   -0.0273   -0.0378    0.1790    0.0119   -0.0060
          27    0.0022   -0.0030   -0.0039    0.0110    0.0155   -0.1464   -0.0153    0.0097
          28    0.0048    0.0012    0.0059   -0.0024    0.0011    0.0064   -0.0940   -0.1143
          29   -0.0037    0.0000    0.0053    0.0038    0.0010   -0.0025    0.0366    0.0442
          30    0.0022   -0.0002   -0.0061   -0.0027   -0.0012    0.0006   -0.0080   -0.0095
          31    0.0189    0.0454   -0.0014   -0.0034    0.0303    0.0007    0.0084   -0.0067
          32    0.0018   -0.0162    0.0038    0.0548   -0.0517    0.0033   -0.0051    0.0017
          33   -0.0116   -0.0048   -0.0061   -0.0262    0.0121   -0.0018   -0.0014   -0.0011
          34   -0.1233    0.0127    0.0223   -0.0627   -0.0388    0.0458   -0.0001    0.0019
          35   -0.1686    0.1007   -0.0309   -0.0315    0.0030   -0.0015    0.0055   -0.0065
          36   -0.0803    0.0489   -0.0116   -0.0310   -0.0006   -0.0154   -0.0015    0.0009
          37   -0.0447   -0.0771   -0.0707    0.0038   -0.0436   -0.0001    0.0129    0.0171
          38   -0.0624   -0.1245   -0.1079   -0.0708   -0.0042   -0.0010   -0.0063   -0.0111
          39   -0.0110   -0.0301   -0.0282   -0.0044   -0.0208   -0.0014    0.0086    0.0001
          40   -0.0507   -0.0990   -0.0614    0.0053   -0.0530   -0.0001    0.0102    0.0100
          41   -0.0030   -0.0054   -0.0117   -0.0202    0.0192    0.0012   -0.0042   -0.0007
          42    0.0582    0.1273    0.1142    0.0717    0.0113    0.0014   -0.0016    0.0027
          43   -0.0427   -0.0187    0.0242   -0.0152   -0.0489    0.0064   -0.0002   -0.0002
          44   -0.1194    0.0800   -0.0237   -0.0417    0.0318   -0.0027   -0.0001    0.0002
          45    0.1760   -0.0746    0.0047    0.0724    0.0151    0.0024    0.0022   -0.0023
          46    0.0253   -0.0010    0.0248   -0.0275   -0.0135   -0.0027    0.0185    0.0062
          47    0.0017    0.0093   -0.0170    0.0054    0.0025   -0.0005   -0.0002   -0.0080
          48   -0.0362   -0.0620    0.1286   -0.0245    0.0206    0.0013   -0.0048    0.0043
          49    0.0353    0.0218   -0.0159   -0.0159   -0.0290   -0.0046    0.0298    0.0000
          50    0.0271    0.0558   -0.1258    0.0283   -0.0073    0.0003   -0.0072   -0.0004
          51   -0.0025    0.0036   -0.0159    0.0070   -0.0023    0.0027   -0.0066    0.0065
          52   -0.0114   -0.0353   -0.0059    0.0524    0.0327    0.1169    0.0179   -0.0127
          53    0.0017   -0.0146   -0.0125    0.0378    0.0404   -0.0669   -0.0045    0.0022
          54    0.0043    0.0214    0.0127   -0.0461   -0.0398    0.0175   -0.0024    0.0028
          55   -0.0270   -0.0306    0.0175   -0.0071    0.0901    0.0325    0.0132   -0.0073
          56    0.0108    0.0094   -0.0115    0.0111   -0.0187   -0.0251   -0.0532    0.0479
          57    0.0051    0.0091   -0.0008   -0.0091   -0.0318    0.0021    0.0581   -0.0558
          58   -0.0174   -0.0067   -0.0031    0.0140    0.0123    0.1227    0.0284   -0.0214
          59    0.0045   -0.0103   -0.0188    0.0343    0.0731   -0.0340   -0.0245    0.0211
          60    0.0037    0.0103    0.0158   -0.0311   -0.0662   -0.0117    0.0086   -0.0085
          61   -0.0079   -0.0081   -0.0372   -0.0127   -0.0051   -0.0013    0.0113    0.0097
          62   -0.0037   -0.0003    0.0020    0.0026    0.0007   -0.0037    0.0560    0.0686
          63    0.0054    0.0026    0.0080    0.0015    0.0009    0.0036   -0.0510   -0.0613
          64   -0.0195   -0.0038    0.0223    0.0138    0.0037    0.0021   -0.0365   -0.0479
          65    0.0227    0.0050   -0.0140   -0.0155   -0.0019    0.0033   -0.0455   -0.0537
          66   -0.0151   -0.0037    0.0064    0.0093    0.0007   -0.0034    0.0487    0.0587


   Root No.      49        50        51        52        53        54        55        56

                49 A      50 A      51 A      52 A      53 A      54 A      55 A      56 A   

                2868.5    2942.6    2963.3    2968.8    3026.7    3038.8    3049.2    3057.0
  
           1   -0.0209   -0.0014    0.0000   -0.0010   -0.0003    0.0003    0.0006   -0.0002
           2   -0.0317   -0.0022   -0.0002   -0.0014    0.0005   -0.0003   -0.0001    0.0001
           3   -0.0502   -0.0034    0.0000   -0.0021   -0.0003    0.0003   -0.0004    0.0001
           4   -0.0007   -0.0004    0.0003   -0.0035    0.0006    0.0013    0.0243    0.0001
           5    0.0026   -0.0016    0.0036   -0.0344    0.0001    0.0010    0.0194    0.0001
           6    0.0033   -0.0011    0.0041   -0.0388   -0.0015   -0.0013   -0.0257   -0.0000
           7    0.0021   -0.0194   -0.0001    0.0002    0.0144   -0.0001   -0.0006   -0.0005
           8    0.0006   -0.0145   -0.0001    0.0001    0.0313   -0.0002   -0.0011   -0.0018
           9    0.0053   -0.0501   -0.0004    0.0021   -0.0206    0.0001    0.0000    0.0018
          10    0.0000    0.0000   -0.0113   -0.0011   -0.0000    0.0002   -0.0000    0.0000
          11    0.0000    0.0001   -0.0355   -0.0036    0.0001    0.0292   -0.0021    0.0001
          12    0.0002    0.0002   -0.0406   -0.0040   -0.0001   -0.0283    0.0020   -0.0001
          13    0.0006   -0.0000    0.0003   -0.0001    0.0001   -0.0004   -0.0005   -0.0001
          14    0.0005   -0.0002   -0.0002   -0.0001   -0.0003    0.0003   -0.0001   -0.0001
          15   -0.0009    0.0001   -0.0002   -0.0000    0.0001   -0.0001    0.0003    0.0001
          16    0.0002    0.0000   -0.0001    0.0002   -0.0000    0.0005   -0.0002    0.0000
          17   -0.0001   -0.0000   -0.0001   -0.0003   -0.0000    0.0003    0.0004   -0.0000
          18   -0.0000    0.0000   -0.0001    0.0001   -0.0000   -0.0003   -0.0004    0.0000
          19    0.0000    0.0000    0.0000   -0.0000    0.0034   -0.0001   -0.0002    0.0208
          20    0.0000   -0.0009   -0.0000    0.0001   -0.0037    0.0001    0.0002   -0.0251
          21   -0.0002    0.0006    0.0000   -0.0000    0.0014   -0.0000   -0.0001    0.0107
          22   -0.0006    0.0001   -0.0002   -0.0000   -0.0001    0.0001    0.0001    0.0022
          23    0.0001   -0.0000    0.0001   -0.0000    0.0001   -0.0001   -0.0001    0.0036
          24    0.0000    0.0000   -0.0001   -0.0000   -0.0000    0.0001    0.0000   -0.0056
          25    0.0001   -0.0002   -0.0000    0.0000   -0.0001    0.0000    0.0001   -0.0301
          26   -0.0001    0.0002   -0.0001   -0.0000   -0.0001    0.0001   -0.0000   -0.0002
          27    0.0002   -0.0003   -0.0000    0.0000    0.0001   -0.0000   -0.0000    0.0104
          28   -0.0000   -0.0000    0.0000   -0.0001   -0.0000   -0.0001    0.0001    0.0000
          29    0.0000   -0.0000   -0.0001   -0.0000    0.0000    0.0000   -0.0000   -0.0000
          30    0.0000   -0.0000   -0.0001   -0.0001   -0.0000   -0.0000   -0.0000    0.0000
          31    0.2544    0.0142   -0.0005    0.0141    0.0017   -0.0001    0.0030   -0.0002
          32    0.3872    0.0283   -0.0001    0.0147    0.0035   -0.0003    0.0030   -0.0005
          33    0.6122    0.0383   -0.0003    0.0237    0.0034   -0.0003    0.0038   -0.0005
          34    0.0033   -0.0168   -0.0001    0.0006    0.0008   -0.0000   -0.0001    0.0028
          35    0.0117   -0.1415   -0.0014    0.0078   -0.1720    0.0011    0.0035    0.0120
          36   -0.0364    0.3113    0.0032   -0.0192    0.4726   -0.0032   -0.0106   -0.0338
          37    0.0070   -0.0028    0.0138   -0.1277   -0.0078   -0.0107   -0.1729   -0.0004
          38   -0.0025   -0.0000   -0.0023    0.0217    0.0027    0.0042    0.0709    0.0002
          39   -0.0293    0.0051   -0.0328    0.3008    0.0198    0.0290    0.4628    0.0011
          40   -0.0087    0.0099   -0.0186    0.1732   -0.0016   -0.0075   -0.1207   -0.0004
          41   -0.0287    0.0177   -0.0425    0.3930   -0.0017   -0.0192   -0.3035   -0.0011
          42   -0.0121    0.0079   -0.0179    0.1659   -0.0018   -0.0096   -0.1555   -0.0006
          43   -0.0264    0.2534    0.0018   -0.0077   -0.1731    0.0015    0.0091    0.0086
          44   -0.0273    0.3197    0.0021   -0.0071   -0.2077    0.0017    0.0097    0.0088
          45   -0.0281    0.2893    0.0019   -0.0065   -0.2274    0.0019    0.0101    0.0109
          46   -0.0004   -0.0004    0.0803    0.0077   -0.0004   -0.0777    0.0045   -0.0002
[...]
 EFFECTIVE MASS      5.2588
 FORCE CONSTANT      0.5281

 VIBRATION         43   43A           ATOM PAIR      ENERGY CONTRIBUTION    RADIAL
 FREQUENCY          1401.91         C  4 -- C  6         +15.6% ( 54.5%)     51.5%
 TRANSITION DIPOLE   0.1773         C  2 -- C  6         +12.9% ( 49.6%)     78.9%
 TRAVEL (Ang.)       0.2195         C  4 -- C  5         +11.6% ( 47.0%)     50.7%
 REDUCED MASS        0.9982         C  4 -- H 16          +9.5% ( 42.5%)      8.7%
 EFFECTIVE MASS      7.7454
 FORCE CONSTANT      1.1559

 VIBRATION         44   44A           ATOM PAIR      ENERGY CONTRIBUTION    RADIAL
 FREQUENCY          1424.42         C  1 -- C  5         +12.5% ( 54.1%)     65.7%
 TRANSITION DIPOLE   0.0860         C  4 -- C  5         +11.8% ( 52.4%)     99.6%
 TRAVEL (Ang.)       0.1986         C  1 -- C  2          +7.6% ( 42.0%)      1.1%
 REDUCED MASS        1.1998         C  1 -- C  3          +6.8% ( 39.9%)     45.0%
 EFFECTIVE MASS     10.1342
 FORCE CONSTANT      1.4343

 VIBRATION         45   45A           ATOM PAIR      ENERGY CONTRIBUTION    RADIAL
 FREQUENCY          1445.34         C  1 -- C  5         +11.8% ( 52.8%)     81.5%
 TRANSITION DIPOLE   0.1851         C  8 -- C  9         +11.4% ( 51.9%)     99.8%
 TRAVEL (Ang.)       0.1770         C  1 -- C  3         +11.1% ( 51.3%)     85.5%
 REDUCED MASS        1.4886         C  3 -- C  7         +10.6% ( 50.0%)     93.3%
 EFFECTIVE MASS     10.5569
 FORCE CONSTANT      1.8321

 VIBRATION         46   46A           ATOM PAIR      ENERGY CONTRIBUTION    RADIAL
 FREQUENCY          1839.01         C  7 -- C  9         +42.8% ( 96.8%)    100.0%
 TRANSITION DIPOLE   0.2510         C  8 -- C  9         +14.9% ( 57.1%)     62.3%
 TRAVEL (Ang.)       0.0845         C  3 -- C  7         +13.6% ( 54.5%)     48.3%
 REDUCED MASS        5.1316         C  9 -- H 20         +12.9% ( 53.1%)      4.5%
 EFFECTIVE MASS     11.8848         C  7 -- H 18         +12.5% ( 52.3%)      5.3%
 FORCE CONSTANT     10.2251

 VIBRATION         47   47A           ATOM PAIR      ENERGY CONTRIBUTION    RADIAL
 FREQUENCY          1891.36         C  5 -- C  8         +23.4% ( 72.3%)     99.1%
 TRANSITION DIPOLE   0.6228         C  6 -- C 10         +19.1% ( 65.4%)    100.0%
 TRAVEL (Ang.)       0.1152         C  4 -- C  5          +9.8% ( 46.7%)     50.1%
 REDUCED MASS        2.6849         C  1 -- C  5          +8.9% ( 44.7%)     25.5%
 EFFECTIVE MASS     11.8732
 FORCE CONSTANT      5.6588

 VIBRATION         48   48A           ATOM PAIR      ENERGY CONTRIBUTION    RADIAL
 FREQUENCY          1920.81         C  6 -- C 10         +25.3% ( 74.1%)    100.0%
 TRANSITION DIPOLE   0.0886         C  5 -- C  8         +18.7% ( 63.6%)     99.3%
 TRAVEL (Ang.)       0.1090         C  2 -- C  6         +10.6% ( 48.0%)     41.0%
 REDUCED MASS        2.9534         C  4 -- C  6         +10.3% ( 47.2%)     40.7%
 EFFECTIVE MASS     11.9093
 FORCE CONSTANT      6.4202

 VIBRATION         49   49A           ATOM PAIR      ENERGY CONTRIBUTION    RADIAL
 FREQUENCY          2868.50         C  1 -- H 11         +95.9% ( 99.5%)    100.0%
 TRANSITION DIPOLE   0.0832         C  1 -- C  3          +1.0% ( 10.2%)      8.2%
 TRAVEL (Ang.)       0.1606         C  1 -- C  2          +1.0% ( 10.2%)      9.2%
 REDUCED MASS        0.9118         C  1 -- C  5          +1.0% ( 10.1%)      7.8%
 EFFECTIVE MASS      1.4405
 FORCE CONSTANT      4.4206

 VIBRATION         50   50A           ATOM PAIR      ENERGY CONTRIBUTION    RADIAL
 FREQUENCY          2942.59         C  3 -- H 15         +64.7% ( 83.3%)     97.9%
 TRANSITION DIPOLE   0.0398         C  3 -- H 12         +32.4% ( 58.9%)     94.0%
 TRAVEL (Ang.)       0.2021         C  3 -- C  7          +1.1% ( 10.9%)      0.1%
 REDUCED MASS        0.5612         C  1 -- C  3          +1.1% ( 10.8%)      0.5%
 EFFECTIVE MASS      1.5290
 FORCE CONSTANT      2.8630

 VIBRATION         51   51A           ATOM PAIR      ENERGY CONTRIBUTION    RADIAL
 FREQUENCY          2963.28         C  4 -- H 16         +54.1% ( 76.3%)     97.2%
 TRANSITION DIPOLE   0.0747         C  4 -- H 17         +42.7% ( 67.7%)     95.9%
 TRAVEL (Ang.)       0.2105         C  4 -- C  6          +1.1% ( 10.7%)      0.0%
 REDUCED MASS        0.5136         C  4 -- C  5          +1.1% ( 10.7%)      0.0%
 EFFECTIVE MASS      1.5338
 FORCE CONSTANT      2.6571

 VIBRATION         52   52A           ATOM PAIR      ENERGY CONTRIBUTION    RADIAL
 FREQUENCY          2968.77         C  2 -- H 14         +62.7% ( 82.0%)     98.0%
 TRANSITION DIPOLE   0.0665         C  2 -- H 13         +33.6% ( 60.1%)     94.3%
 TRAVEL (Ang.)       0.2042         C  2 -- C  6          +1.1% ( 10.8%)      0.2%
 REDUCED MASS        0.5446         C  1 -- C  2          +1.1% ( 10.8%)      0.2%
 EFFECTIVE MASS      1.5326
 FORCE CONSTANT      2.8281

 VIBRATION         53   53A           ATOM PAIR      ENERGY CONTRIBUTION    RADIAL
 FREQUENCY          3026.71         C  3 -- H 12         +66.2% ( 80.4%)     99.1%
 TRANSITION DIPOLE   0.0718         C  3 -- H 15         +31.3% ( 55.2%)     94.4%
 TRAVEL (Ang.)       0.2059         C  7 -- H 18          +1.0% (  9.7%)    100.0%
 REDUCED MASS        0.5257         C  3 -- C  7          +0.7% (  8.1%)     19.2%
 EFFECTIVE MASS      1.2891
 FORCE CONSTANT      2.8375

 VIBRATION         54   54A           ATOM PAIR      ENERGY CONTRIBUTION    RADIAL
 FREQUENCY          3038.81         C  4 -- H 17         +55.5% ( 73.5%)     98.2%
 TRANSITION DIPOLE   0.1362         C  4 -- H 16         +42.7% ( 64.5%)     96.7%
 TRAVEL (Ang.)       0.2134         C  4 -- C  5          +0.7% (  8.3%)     36.4%
 REDUCED MASS        0.4874         C  4 -- C  6          +0.7% (  8.3%)     35.2%
 EFFECTIVE MASS      1.2839
 FORCE CONSTANT      2.6520

 VIBRATION         55   55A           ATOM PAIR      ENERGY CONTRIBUTION    RADIAL
 FREQUENCY          3049.25         C  2 -- H 13         +65.2% ( 79.7%)     99.0%
 TRANSITION DIPOLE   0.0783         C  2 -- H 14         +33.0% ( 56.7%)     94.6%
 TRAVEL (Ang.)       0.2055         C  2 -- C  6          +0.7% (  8.2%)     32.5%
 REDUCED MASS        0.5235         C  1 -- C  2          +0.7% (  8.2%)     35.5%
 EFFECTIVE MASS      1.2898
 FORCE CONSTANT      2.8676

 VIBRATION         56   56A           ATOM PAIR      ENERGY CONTRIBUTION    RADIAL
 FREQUENCY          3057.03         C  7 -- H 18         +51.0% ( 72.5%)    100.0%
 TRANSITION DIPOLE   0.2663         C  9 -- H 20         +44.1% ( 67.4%)    100.0%
 TRAVEL (Ang.)       0.2227         C  8 -- H 19          +2.0% ( 14.3%)     99.9%
 REDUCED MASS        0.4446         C  7 -- C  9          +1.1% ( 10.6%)      0.1%
 EFFECTIVE MASS      1.4647
 FORCE CONSTANT      2.4481

 VIBRATION         57   57A           ATOM PAIR      ENERGY CONTRIBUTION    RADIAL
 FREQUENCY          3071.67         C  8 -- H 19         +51.1% ( 72.7%)    100.0%
 TRANSITION DIPOLE   0.2933         C  7 -- H 18         +27.6% ( 53.4%)     99.9%
 TRAVEL (Ang.)       0.2448         C  9 -- H 20         +17.7% ( 42.7%)     99.8%
 REDUCED MASS        0.3664         C  8 -- C  9          +1.1% ( 10.7%)      2.0%
 EFFECTIVE MASS      1.5442
 FORCE CONSTANT      2.0366

 VIBRATION         58   58A           ATOM PAIR      ENERGY CONTRIBUTION    RADIAL
 FREQUENCY          3081.06         C  8 -- H 19         +43.7% ( 67.1%)    100.0%
 TRANSITION DIPOLE   0.4220         C  9 -- H 20         +35.2% ( 60.2%)    100.0%
 TRAVEL (Ang.)       0.2519         C  7 -- H 18         +17.4% ( 42.3%)     99.8%
 REDUCED MASS        0.3450         C  8 -- C  9          +1.3% ( 11.6%)     93.1%
 EFFECTIVE MASS      1.5820
 FORCE CONSTANT      1.9294

 VIBRATION         59   59A           ATOM PAIR      ENERGY CONTRIBUTION    RADIAL
 FREQUENCY          3143.94         C 10 -- H 22         +57.3% ( 75.7%)     96.5%
 TRANSITION DIPOLE   0.3376         C 10 -- H 21         +41.1% ( 64.1%)     93.4%
 TRAVEL (Ang.)       0.2076         C  6 -- C 10          +1.5% ( 12.4%)     99.1%
 REDUCED MASS        0.4976
 EFFECTIVE MASS      1.3898
 FORCE CONSTANT      2.8981

 VIBRATION         60   60A           ATOM PAIR      ENERGY CONTRIBUTION    RADIAL
 FREQUENCY          3146.51         C 10 -- H 21         +57.1% ( 77.4%)     97.9%
 TRANSITION DIPOLE   0.1995         C 10 -- H 22         +41.6% ( 66.1%)     96.0%
 TRAVEL (Ang.)       0.1981         C  6 -- C 10          +1.3% ( 11.7%)      0.5%
 REDUCED MASS        0.5458
 EFFECTIVE MASS      1.6046
 FORCE CONSTANT      3.1839

      SYMMETRY NUMBER FOR POINT-GROUP C1  =  1


          SYSTEM IS A GROUND STATE



 InChI=1S/C10H12/c1-8-6-9-4-2-3-5-10(9)7-8/h2-4,10H,1,5-7H2


          MOLECULE IS NOT LINEAR

          THERE ARE 60 GENUINE VIBRATIONS IN THIS SYSTEM
          THIS THERMODYNAMICS CALCULATION IS LIMITED TO
          MOLECULES WHICH HAVE NO INTERNAL ROTATIONS




                    CALCULATED THERMODYNAMIC PROPERTIES
                                          *
   TEMP. (K)   PARTITION FUNCTION   H.O.F.    ENTHALPY  HEAT CAPACITY ENTROPY
                                   KCAL/MOL   CAL/MOLE    CAL/K/MOL  CAL/K/MOL


 298.00  VIB.     0.6792D+02                  3523.6011    28.4952    20.2068
         ROT.     0.5460D+06                   888.2803     2.9808    29.2326
         INT.     0.3709D+08                  4411.8814    31.4760    49.4394
         TRA.     0.1470D+28                  1480.4672     4.9680    40.5480
         TOT.                       30.600    5892.3486    36.4440    89.9874

 200.00  VIB.     0.1103D+02                  1356.8325    16.0210    11.5552
         ROT.     0.3002D+06                   596.1613     2.9808    28.0439
         INT.     0.3312D+07                  1952.9938    19.0018    39.5991
         TRA.     0.8080D+27                   993.6021     4.9680    38.5668
         TOT.                       27.654    2946.5959    23.9698    78.1660

 210.00  VIB.     0.1311D+02                  1522.8752    17.1929    12.3651
         ROT.     0.3230D+06                   625.9693     2.9808    28.1894
         INT.     0.4234D+07                  2148.8445    20.1738    40.5545
         TRA.     0.8694D+27                  1043.2822     4.9680    38.8092
         TOT.                       27.899    3192.1268    25.1418    79.3637

 220.00  VIB.     0.1562D+02                  1700.7953    18.3961    13.1926
         ROT.     0.3464D+06                   655.7774     2.9808    28.3280
         INT.     0.5409D+07                  2356.5727    21.3769    41.5206
         TRA.     0.9322D+27                  1092.9623     4.9680    39.0403
         TOT.                       28.157    3449.5350    26.3449    80.5609

 230.00  VIB.     0.1867D+02                  1890.8915    19.6277    14.0374
         ROT.     0.3702D+06                   685.5855     2.9808    28.4605
         INT.     0.6911D+07                  2576.4769    22.6085    42.4979
         TRA.     0.9965D+27                  1142.6424     4.9680    39.2612
         TOT.                       28.426    3719.1194    27.5765    81.7591

 240.00  VIB.     0.2238D+02                  2093.4339    20.8848    14.8992
         ROT.     0.3946D+06                   715.3935     2.9808    28.5874
         INT.     0.8832D+07                  2808.8275    23.8656    43.4866
         TRA.     0.1062D+28                  1192.3226     4.9680    39.4726
         TOT.                       28.708    4001.1500    28.8336    82.9592

 250.00  VIB.     0.2691D+02                  2308.6606    22.1639    15.7776
         ROT.     0.4196D+06                   745.2016     2.9808    28.7091
         INT.     0.1129D+08                  3053.8622    25.1448    44.4867
         TRA.     0.1129D+28                  1242.0027     4.9680    39.6754
         TOT.                       29.003    4295.8649    30.1128    84.1621

 260.00  VIB.     0.3246D+02                  2536.7744    23.4616    16.6721
         ROT.     0.4450D+06                   775.0097     2.9808    28.8260
         INT.     0.1444D+08                  3311.7840    26.4424    45.4981
         TRA.     0.1198D+28                  1291.6828     4.9680    39.8703
         TOT.                       29.311    4603.4668    31.4104    85.3684

 270.00  VIB.     0.3926D+02                  2777.9411    24.7739    17.5821
         ROT.     0.4709D+06                   804.8177     2.9808    28.9385
         INT.     0.1849D+08                  3582.7588    27.7547    46.5206
         TRA.     0.1267D+28                  1341.3629     4.9680    40.0578
         TOT.                       29.631    4924.1217    32.7227    86.5784

 280.00  VIB.     0.4763D+02                  3032.2891    26.0972    18.5070
         ROT.     0.4973D+06                   834.6258     2.9808    29.0469
         INT.     0.2369D+08                  3866.9149    29.0780    47.5539
         TRA.     0.1338D+28                  1391.0430     4.9680    40.2384
         TOT.                       29.965    5257.9579    34.0460    87.7923

 290.00  VIB.     0.5794D+02                  3299.9099    27.4278    19.4460
         ROT.     0.5242D+06                   864.4339     2.9808    29.1515
         INT.     0.3037D+08                  4164.3438    30.4086    48.5975
         TRA.     0.1411D+28                  1440.7231     4.9680    40.4128
         TOT.                       30.312    5605.0668    35.3767    89.0102

 300.00  VIB.     0.7069D+02                  3580.8585    28.7622    20.3983
         ROT.     0.5515D+06                   894.2419     2.9808    29.2525
         INT.     0.3899D+08                  4475.1004    31.7430    49.6509
         TRA.     0.1484D+28                  1490.4032     4.9680    40.5812
         TOT.                       30.673    5965.5036    36.7110    90.2321

 310.00  VIB.     0.8648D+02                  3875.1555    30.0970    21.3632
         ROT.     0.5793D+06                   924.0500     2.9808    29.3503
         INT.     0.5010D+08                  4799.2055    33.0778    50.7135
         TRA.     0.1559D+28                  1540.0833     4.9680    40.7441
         TOT.                       31.047    6339.2888    38.0458    91.4576

 320.00  VIB.     0.1061D+03                  4182.7891    31.4290    22.3398
         ROT.     0.6076D+06                   953.8580     2.9808    29.4449
         INT.     0.6445D+08                  5136.6471    34.4098    51.7847
         TRA.     0.1635D+28                  1589.7634     4.9680    40.9018
         TOT.                       31.434    6726.4105    39.3778    92.6865

 330.00  VIB.     0.1304D+03                  4503.7174    32.7555    23.3272
         ROT.     0.6363D+06                   983.6661     2.9808    29.5367
         INT.     0.8300D+08                  5487.3835    35.7363    52.8639
         TRA.     0.1713D+28                  1639.4435     4.9680    41.0547
         TOT.                       31.834    7126.8270    40.7043    93.9186

 340.00  VIB.     0.1608D+03                  4837.8712    34.0737    24.3247
         ROT.     0.6654D+06                  1013.4742     2.9808    29.6256
         INT.     0.1070D+09                  5851.3454    37.0545    53.9503
         TRA.     0.1791D+28                  1689.1236     4.9680    41.2030
         TOT.                       32.248    7540.4690    42.0225    95.1533

 350.00  VIB.     0.1988D+03                  5185.1566    35.3814    25.3313
         ROT.     0.6950D+06                  1043.2822     2.9808    29.7120
         INT.     0.1381D+09                  6228.4389    38.3622    55.0433
         TRA.     0.1871D+28                  1738.8037     4.9680    41.3470
         TOT.                       32.675    7967.2426    43.3302    96.3903

 360.00  VIB.     0.2462D+03                  5545.4577    36.6765    26.3462
         ROT.     0.7250D+06                  1073.0903     2.9808    29.7960
         INT.     0.1785D+09                  6618.5480    39.6573    56.1422
         TRA.     0.1951D+28                  1788.4838     4.9680    41.4870
         TOT.                       33.114    8407.0318    44.6253    97.6292

 370.00  VIB.     0.3057D+03                  5918.6392    37.9572    27.3686
         ROT.     0.7554D+06                  1102.8984     2.9808    29.8777
         INT.     0.2310D+09                  7021.5375    40.9380    57.2463
         TRA.     0.2033D+28                  1838.1639     4.9680    41.6231
         TOT.                       33.567    8859.7015    45.9061    98.8694

 380.00  VIB.     0.3805D+03                  6304.5493    39.2220    28.3977
         ROT.     0.7863D+06                  1132.7064     2.9808    29.9572
         INT.     0.2991D+09                  7437.2557    42.2028    58.3548
         TRA.     0.2116D+28                  1887.8440     4.9680    41.7556
         TOT.                       34.032    9325.0997    47.1708   100.1104

 390.00  VIB.     0.4744D+03                  6703.0219    40.4695    29.4326
         ROT.     0.8175D+06                  1162.5145     2.9808    30.0346
         INT.     0.3879D+09                  7865.5363    43.4503    59.4673
         TRA.     0.2200D+28                  1937.5242     4.9680    41.8846
         TOT.                       34.510    9803.0605    48.4184   101.3519

 400.00  VIB.     0.5928D+03                  7113.8789    41.6987    30.4728
         ROT.     0.8491D+06                  1192.3226     2.9808    30.1101
         INT.     0.5034D+09                  8306.2015    44.6796    60.5829
         TRA.     0.2285D+28                  1987.2043     4.9680    42.0104
         TOT.                       35.001   10293.4058    49.6476   102.5933

   *: NOTE: HEATS OF FORMATION ARE RELATIVE TO THE
            ELEMENTS IN THEIR STANDARD STATE AT 298K
              (=  Standard Enthalpy of Formation).

            Hvib:  Zero-point energy is not included.
                   frequencies of less than zero cm-1 are not included.
            Hrot = (3/2)RT
            Htra = (3/2)RT + pV = (5/2)RT

            Heat capacity is Cp, not Cv

          For more information, see: HTTP://OpenMOPAC.net/Manual/thermochemistry.html


           FORCE CONSTANT IN CARTESIAN COORDINATES (Millidynes/A)

    ATOM   CHEMICAL       X               Y               Z
   NUMBER   SYMBOL  FORCE CONSTANT  FORCE CONSTANT  FORCE CONSTANT

      1       C        8.481579        8.603785        8.473182
      2       C        8.069512        8.517866        8.612554
      3       C        8.630588        8.301901        8.397798
      4       C        8.447564        8.750774        8.694892
      5       C       14.394809        6.045853        7.887236
      6       C       15.425617        7.180479        5.399221
      7       C        9.300095       10.239081        7.273306
      8       C       12.444899        6.781608        8.422468
      9       C       10.454970        9.662300        7.363468
     10       C       14.363893        6.995152        5.244327
     11       H        1.116054        1.662452        3.123469
     12       H        0.671304        1.283193        4.404436
     13       H        1.280559        0.716400        4.425631
     14       H        1.281050        3.775575        1.279084
     15       H        1.733184        2.324385        2.165743
     16       H        0.785015        4.545185        0.918114
     17       H        0.763490        0.650276        4.893766
     18       H        2.384906        2.951903        0.927034
     19       H        0.981429        1.842542        3.443947
     20       H        4.650023        0.609896        1.009612
     21       H        0.911406        3.307161        2.227538
     22       H        3.455528        1.207571        1.782968

 **********************
 *                    *
 * JOB ENDED NORMALLY *
 *                    *
 **********************



 TOTAL JOB TIME:             3.06 SECONDS

 == MOPAC DONE ==
