 *******************************************************************************
 **                                                                           **
 **                              MOPAC v23.1.2                                **
 **                                                                           **
 *******************************************************************************
 **          Digital Object Identifier (DOI): 10.5281/zenodo.6511958          **
 **    Visit the DOI location for information on how to cite this program.    **
 *******************************************************************************

                              PM3 CALCULATION RESULTS

 *******************************************************************************
 *  CALCULATION DONE: (MAX THREADS = 1)              Tue Jun  3 16:30:44 2025  *
 *  PM3        - The PM3 Hamiltonian to be used
 *  PRECISE    - TIGHTER CRITERIA TO BE USED
 *  NOSYM      - POINT-GROUP SYMMETRY SET TO C1
 *  THREADS=1  - MULTI-THREADING NOT USED
 *  T=         - A TIME OF 172800.0 SECONDS REQUESTED
 *  DUMP=N     - RESTART FILE WRITTEN EVERY 7200.0 SECONDS REQUESTED
 *******************************************************************************
pm3  precise nosym THREADS=1
 InChI=1S/C9H10/c1-7-6-8-4-2-3-5-9(7)8/h2-5,7H,6H2,1H3

   ATOM   CHEMICAL          X               Y               Z
  NUMBER   SYMBOL      (ANGSTROMS)     (ANGSTROMS)     (ANGSTROMS)

     1       C         -1.45020000  *  -0.19660000  *  -0.40350000  *
     2       C         -1.27050000  *  -0.73140000  *   0.94120000  *
     3       C         -2.15960000  *   1.15950000  *  -0.45770000  *
     4       C          0.03090000  *  -0.06730000  *  -0.52990000  *
     5       C          0.20560000  *  -0.59450000  *   0.77620000  *
     6       C          1.44680000  *  -0.77060000  *   1.35420000  *
     7       C          1.08750000  *   0.31300000  *  -1.33310000  *
     8       C          2.55080000  *  -0.38750000  *   0.55240000  *
     9       C          2.37470000  *   0.14390000  *  -0.76490000  *
    10       H         -1.86720000  *  -0.93750000  *  -1.12130000  *
    11       H         -1.65270000  *  -0.08500000  *   1.76260000  *
    12       H         -1.57460000  *  -1.79730000  *   1.03000000  *
    13       H         -1.68840000  *   1.89200000  *   0.23400000  *
    14       H         -3.22660000  *   1.03330000  *  -0.17740000  *
    15       H         -2.11040000  *   1.56290000  *  -1.49110000  *
    16       H          3.55220000  *  -0.49970000  *   0.94690000  *
    17       H          1.56570000  *  -1.17270000  *   2.35130000  *
    18       H          3.24610000  *   0.42340000  *  -1.34240000  *
    19       H          0.93990000  *   0.71240000  *  -2.32740000  *



          CARTESIAN COORDINATES 

    NO.       ATOM           X           Y           Z

     1         C         -1.4502     -0.1966     -0.4035
     2         C         -1.2705     -0.7314      0.9412
     3         C         -2.1596      1.1595     -0.4577
     4         C          0.0309     -0.0673     -0.5299
     5         C          0.2056     -0.5945      0.7762
     6         C          1.4468     -0.7706      1.3542
     7         C          1.0875      0.3130     -1.3331
     8         C          2.5508     -0.3875      0.5524
     9         C          2.3747      0.1439     -0.7649
    10         H         -1.8672     -0.9375     -1.1213
    11         H         -1.6527     -0.0850      1.7626
    12         H         -1.5746     -1.7973      1.0300
    13         H         -1.6884      1.8920      0.2340
    14         H         -3.2266      1.0333     -0.1774
    15         H         -2.1104      1.5629     -1.4911
    16         H          3.5522     -0.4997      0.9469
    17         H          1.5657     -1.1727      2.3513
    18         H          3.2461      0.4234     -1.3424
    19         H          0.9399      0.7124     -2.3274

  H: (PM3): J. J. P. STEWART, J. COMP. CHEM. 10, 209 (1989).
  C: (PM3): J. J. P. STEWART, J. COMP. CHEM. 10, 209 (1989).

           Empirical Formula: C9 H10  =    19 atoms



      MOLECULAR POINT GROUP   :   C1  


      RHF CALCULATION, NO. OF DOUBLY OCCUPIED LEVELS = 23


          Geometry optimization using EF

          DIAGONAL MATRIX USED AS START HESSIAN

 CYCLE:     1 TIME:   0.008 TIME LEFT:  2.00D  GRAD.:   193.231 HEAT:  52.09157
 CYCLE:     2 TIME:   0.012 TIME LEFT:  2.00D  GRAD.:    60.687 HEAT:  44.51243
 CYCLE:     3 TIME:   0.012 TIME LEFT:  2.00D  GRAD.:    51.465 HEAT:  43.53035
 CYCLE:     4 TIME:   0.008 TIME LEFT:  2.00D  GRAD.:    49.011 HEAT:  43.16147
 CYCLE:     5 TIME:   0.008 TIME LEFT:  2.00D  GRAD.:    31.830 HEAT:  42.61922
 CYCLE:     6 TIME:   0.008 TIME LEFT:  2.00D  GRAD.:    50.182 HEAT:  42.58001
 CYCLE:     7 TIME:   0.008 TIME LEFT:  2.00D  GRAD.:    50.309 HEAT:  42.38083
 CYCLE:     8 TIME:   0.008 TIME LEFT:  2.00D  GRAD.:    19.967 HEAT:  41.88254
 CYCLE:     9 TIME:   0.008 TIME LEFT:  2.00D  GRAD.:    21.681 HEAT:  41.85705
 CYCLE:    10 TIME:   0.008 TIME LEFT:  2.00D  GRAD.:    23.030 HEAT:  41.82154
 CYCLE:    11 TIME:   0.008 TIME LEFT:  2.00D  GRAD.:    20.912 HEAT:  41.78071
 CYCLE:    12 TIME:   0.004 TIME LEFT:  2.00D  GRAD.:    17.844 HEAT:  41.75670
 CYCLE:    13 TIME:   0.008 TIME LEFT:  2.00D  GRAD.:     8.616 HEAT:  41.68454
 CYCLE:    14 TIME:   0.012 TIME LEFT:  2.00D  GRAD.:     6.217 HEAT:  41.66946
 CYCLE:    15 TIME:   0.004 TIME LEFT:  2.00D  GRAD.:     6.143 HEAT:  41.65837
 CYCLE:    16 TIME:   0.004 TIME LEFT:  2.00D  GRAD.:     7.053 HEAT:  41.64506
 CYCLE:    17 TIME:   0.008 TIME LEFT:  2.00D  GRAD.:    10.684 HEAT:  41.64307
 CYCLE:    18 TIME:   0.004 TIME LEFT:  2.00D  GRAD.:     6.072 HEAT:  41.61775
 CYCLE:    19 TIME:   0.008 TIME LEFT:  2.00D  GRAD.:     7.799 HEAT:  41.61683
 CYCLE:    20 TIME:   0.004 TIME LEFT:  2.00D  GRAD.:     3.457 HEAT:  41.60492
 CYCLE:    21 TIME:   0.004 TIME LEFT:  2.00D  GRAD.:     4.602 HEAT:  41.60526
 CYCLE:    22 TIME:   0.008 TIME LEFT:  2.00D  GRAD.:     1.473 HEAT:  41.59905
 CYCLE:    23 TIME:   0.004 TIME LEFT:  2.00D  GRAD.:     1.981 HEAT:  41.59788
 CYCLE:    24 TIME:   0.008 TIME LEFT:  2.00D  GRAD.:     1.813 HEAT:  41.59527
 CYCLE:    25 TIME:   0.004 TIME LEFT:  2.00D  GRAD.:     1.418 HEAT:  41.59123
 CYCLE:    26 TIME:   0.008 TIME LEFT:  2.00D  GRAD.:     1.618 HEAT:  41.58763
 CYCLE:    27 TIME:   0.004 TIME LEFT:  2.00D  GRAD.:     1.904 HEAT:  41.58347
 CYCLE:    28 TIME:   0.008 TIME LEFT:  2.00D  GRAD.:     1.794 HEAT:  41.57981
 CYCLE:    29 TIME:   0.004 TIME LEFT:  2.00D  GRAD.:     2.411 HEAT:  41.57653
 CYCLE:    30 TIME:   0.004 TIME LEFT:  2.00D  GRAD.:     1.181 HEAT:  41.57271
 CYCLE:    31 TIME:   0.008 TIME LEFT:  2.00D  GRAD.:     1.411 HEAT:  41.56891
 CYCLE:    32 TIME:   0.008 TIME LEFT:  2.00D  GRAD.:     1.900 HEAT:  41.56461
 CYCLE:    33 TIME:   0.004 TIME LEFT:  2.00D  GRAD.:     1.480 HEAT:  41.56167
 CYCLE:    34 TIME:   0.004 TIME LEFT:  2.00D  GRAD.:     1.003 HEAT:  41.55915
 CYCLE:    35 TIME:   0.008 TIME LEFT:  2.00D  GRAD.:     1.084 HEAT:  41.55643
 CYCLE:    36 TIME:   0.004 TIME LEFT:  2.00D  GRAD.:     0.855 HEAT:  41.55489
 CYCLE:    37 TIME:   0.008 TIME LEFT:  2.00D  GRAD.:     0.569 HEAT:  41.55354
 CYCLE:    38 TIME:   0.004 TIME LEFT:  2.00D  GRAD.:     0.497 HEAT:  41.55293
 CYCLE:    39 TIME:   0.004 TIME LEFT:  2.00D  GRAD.:     0.405 HEAT:  41.55256
 CYCLE:    40 TIME:   0.008 TIME LEFT:  2.00D  GRAD.:     0.297 HEAT:  41.55233
 CYCLE:    41 TIME:   0.008 TIME LEFT:  2.00D  GRAD.:     0.253 HEAT:  41.55212
 CYCLE:    42 TIME:   0.004 TIME LEFT:  2.00D  GRAD.:     0.286 HEAT:  41.55195
 CYCLE:    43 TIME:   0.008 TIME LEFT:  2.00D  GRAD.:     0.299 HEAT:  41.55181
 CYCLE:    44 TIME:   0.004 TIME LEFT:  2.00D  GRAD.:     0.240 HEAT:  41.55169
 CYCLE:    45 TIME:   0.004 TIME LEFT:  2.00D  GRAD.:     0.171 HEAT:  41.55162
 CYCLE:    46 TIME:   0.008 TIME LEFT:  2.00D  GRAD.:     0.141 HEAT:  41.55157
 CYCLE:    47 TIME:   0.004 TIME LEFT:  2.00D  GRAD.:     0.122 HEAT:  41.55154
 CYCLE:    48 TIME:   0.008 TIME LEFT:  2.00D  GRAD.:     0.132 HEAT:  41.55150
 CYCLE:    49 TIME:   0.004 TIME LEFT:  2.00D  GRAD.:     0.136 HEAT:  41.55145
 CYCLE:    50 TIME:   0.004 TIME LEFT:  2.00D  GRAD.:     0.141 HEAT:  41.55139
 CYCLE:    51 TIME:   0.008 TIME LEFT:  2.00D  GRAD.:     0.119 HEAT:  41.55135
 CYCLE:    52 TIME:   0.004 TIME LEFT:  2.00D  GRAD.:     0.138 HEAT:  41.55130
 CYCLE:    53 TIME:   0.004 TIME LEFT:  2.00D  GRAD.:     0.142 HEAT:  41.55125
 CYCLE:    54 TIME:   0.008 TIME LEFT:  2.00D  GRAD.:     0.144 HEAT:  41.55116
 CYCLE:    55 TIME:   0.008 TIME LEFT:  2.00D  GRAD.:     0.201 HEAT:  41.55110
 CYCLE:    56 TIME:   0.004 TIME LEFT:  2.00D  GRAD.:     0.169 HEAT:  41.55104
 CYCLE:    57 TIME:   0.004 TIME LEFT:  2.00D  GRAD.:     0.182 HEAT:  41.55094
 CYCLE:    58 TIME:   0.008 TIME LEFT:  2.00D  GRAD.:     0.127 HEAT:  41.55084
 CYCLE:    59 TIME:   0.004 TIME LEFT:  2.00D  GRAD.:     0.107 HEAT:  41.55079
 CYCLE:    60 TIME:   0.008 TIME LEFT:  2.00D  GRAD.:     0.085 HEAT:  41.55077
 CYCLE:    61 TIME:   0.004 TIME LEFT:  2.00D  GRAD.:     0.334 HEAT:  41.55085
 CYCLE:    62 TIME:   0.008 TIME LEFT:  2.00D  GRAD.:     0.086 HEAT:  41.55071
 CYCLE:    63 TIME:   0.004 TIME LEFT:  2.00D  GRAD.:     0.064 HEAT:  41.55070
 CYCLE:    64 TIME:   0.004 TIME LEFT:  2.00D  GRAD.:     0.074 HEAT:  41.55068
 CYCLE:    65 TIME:   0.008 TIME LEFT:  2.00D  GRAD.:     0.043 HEAT:  41.55067

     GRADIENT =  0.04290 IS LESS THAN CUTOFF =  0.05000



 -------------------------------------------------------------------------------
 pm3  precise nosym THREADS=1
 InChI=1S/C9H10/c1-7-6-8-4-2-3-5-9(7)8/h2-5,7H,6H2,1H3



     GEOMETRY OPTIMISED USING EIGENVECTOR FOLLOWING (EF).     
     SCF FIELD WAS ACHIEVED                                   


                              PM3 CALCULATION
                                                       MOPAC v23.1.2 MacOS
                                                       Tue Jun  3 16:30:45 2025




          FINAL HEAT OF FORMATION =         41.55067 KCAL/MOL =     173.84801 KJ/MOL


          COSMO AREA              =        163.77 SQUARE ANGSTROMS
          COSMO VOLUME            =        160.86 CUBIC ANGSTROMS

          GRADIENT NORM           =          0.04290          =       0.00984 PER ATOM
          IONIZATION POTENTIAL    =          9.358045 EV
          HOMO LUMO ENERGIES (EV) =         -9.358  0.390
          NO. OF FILLED LEVELS    =         23
          MOLECULAR WEIGHT        =        118.1780         POINT GROUP:  C1  

          MOLECULAR DIMENSIONS (Angstroms)

            Atom       Atom       Distance
            H    16    H    14     7.10993
            H    19    H    12     4.80558
            H    10    H    13     3.01883


          SCF CALCULATIONS        =         73

          WALL-CLOCK TIME         =      0.414 SECONDS
          COMPUTATION TIME        =      0.267 SECONDS




   ATOM   CHEMICAL          X               Y               Z
  NUMBER   SYMBOL      (ANGSTROMS)     (ANGSTROMS)     (ANGSTROMS)

     1       C         -1.46294242  *  -0.15217219  *  -0.44432238  *
     2       C         -1.25596321  *  -0.74504032  *   1.01520813  *
     3       C         -2.20783791  *   1.15219723  *  -0.50496619  *
     4       C          0.04820403  *  -0.05301248  *  -0.51769464  *
     5       C          0.22567906  *  -0.59528862  *   0.78148743  *
     6       C          1.46537388  *  -0.78422654  *   1.32865384  *
     7       C          1.10405552  *   0.32079412  *  -1.30281971  *
     8       C          2.55757681  *  -0.40252010  *   0.52430695  *
     9       C          2.38363909  *   0.13111293  *  -0.74361827  *
    10       H         -1.88703070  *  -0.88916810  *  -1.15698928  *
    11       H         -1.66655275  *  -0.12637548  *   1.82641048  *
    12       H         -1.60940425  *  -1.77658678  *   1.15106012  *
    13       H         -1.80389375  *   1.88967852  *   0.20115319  *
    14       H         -3.26848557  *   1.00913122  *  -0.26152308  *
    15       H         -2.15133895  *   1.59238695  *  -1.50870453  *
    16       H          3.57133190  *  -0.53278378  *   0.91766287  *
    17       H          1.61486055  *  -1.20296498  *   2.32700744  *
    18       H          3.26256725  *   0.41494352  *  -1.33208964  *
    19       H          0.97770160  *   0.74199505  *  -2.30339667  *

                             CARTESIAN COORDINATES

   1    C       -1.462942417    -0.152172188    -0.444322376
   2    C       -1.255963208    -0.745040320     1.015208128
   3    C       -2.207837914     1.152197230    -0.504966194
   4    C        0.048204033    -0.053012475    -0.517694641
   5    C        0.225679056    -0.595288620     0.781487432
   6    C        1.465373881    -0.784226544     1.328653841
   7    C        1.104055522     0.320794122    -1.302819709
   8    C        2.557576810    -0.402520103     0.524306945
   9    C        2.383639091     0.131112929    -0.743618266
  10    H       -1.887030698    -0.889168096    -1.156989284
  11    H       -1.666552753    -0.126375479     1.826410481
  12    H       -1.609404246    -1.776586781     1.151060125
  13    H       -1.803893747     1.889678516     0.201153190
  14    H       -3.268485570     1.009131216    -0.261523076
  15    H       -2.151338945     1.592386949    -1.508704527
  16    H        3.571331896    -0.532783777     0.917662872
  17    H        1.614860547    -1.202964982     2.327007435
  18    H        3.262567251     0.414943524    -1.332089636
  19    H        0.977701600     0.741995049    -2.303396669


           Empirical Formula: C9 H10  =    19 atoms



      MOLECULAR POINT GROUP   :   C1  


                  EIGENVALUES  
 -41.41016 -35.32038 -30.22589 -28.55942 -25.20326 -22.48240 -20.61401 -19.19040
 -17.85236 -16.72682 -15.93468 -15.03973 -14.69498 -14.18040 -14.05574 -13.36665
 -12.76254 -12.68855 -12.27010 -11.93473 -11.53762  -9.65634  -9.35805   0.39025
   0.49044   2.82829   2.87106   3.13739   3.18062   3.49212   3.63607   3.82748
   3.83615   3.94518   4.06468   4.28260   4.38389   4.54467   4.69010   4.98447
   5.02301   5.05143   5.50133   5.54702   6.13737   6.52548


              NET ATOMIC CHARGES AND DIPOLE CONTRIBUTIONS

  ATOM NO.   TYPE          CHARGE      No. of ELECS.   s-Pop       p-Pop       
    1          C          -0.020170        4.0202     1.17885     2.84132
    2          C          -0.041318        4.0413     1.16552     2.87580
    3          C          -0.102200        4.1022     1.13459     2.96761
    4          C          -0.124573        4.1246     1.20793     2.91664
    5          C          -0.119960        4.1200     1.20458     2.91538
    6          C          -0.065264        4.0653     1.16623     2.89903
    7          C          -0.060398        4.0604     1.16600     2.89440
    8          C          -0.104592        4.1046     1.18089     2.92370
    9          C          -0.107621        4.1076     1.18103     2.92659
   10          H           0.074896        0.9251     0.92510
   11          H           0.065388        0.9346     0.93461
   12          H           0.061896        0.9381     0.93810
   13          H           0.046206        0.9538     0.95379
   14          H           0.040559        0.9594     0.95944
   15          H           0.042914        0.9571     0.95709
   16          H           0.099442        0.9006     0.90056
   17          H           0.107583        0.8924     0.89242
   18          H           0.099664        0.9003     0.90034
   19          H           0.107550        0.8925     0.89245
 DIPOLE           X         Y         Z       TOTAL
 POINT-CHG.    -0.535     0.021     0.027     0.536
 HYBRID         0.108     0.013     0.003     0.109
 SUM           -0.427     0.034     0.030     0.429


          ATOMIC ORBITAL ELECTRON POPULATIONS

     Atom    s        px        py        pz   
    1  C   1.17885   0.90954   0.97152   0.96027
    2  C   1.16552   0.91234   1.00306   0.96041
    3  C   1.13459   0.99064   0.96275   1.01422
    4  C   1.20793   0.95695   0.99639   0.96330
    5  C   1.20458   0.95196   0.99500   0.96842
    6  C   1.16623   0.92102   0.99824   0.97977
    7  C   1.16600   0.92349   0.99399   0.97692
    8  C   1.18089   0.97426   0.99645   0.95300
    9  C   1.18103   0.96460   1.00098   0.96101
   10  H   0.92510
   11  H   0.93461
   12  H   0.93810
   13  H   0.95379
   14  H   0.95944
   15  H   0.95709
   16  H   0.90056
   17  H   0.89242
   18  H   0.90034
   19  H   0.89245
 *******************************************************************************
 **                                                                           **
 **                              MOPAC v23.1.2                                **
 **                                                                           **
 *******************************************************************************
 **          Digital Object Identifier (DOI): 10.5281/zenodo.6511958          **
 **    Visit the DOI location for information on how to cite this program.    **
 *******************************************************************************

                              PM3 CALCULATION RESULTS

 *******************************************************************************
 *  CALCULATION DONE: (MAX THREADS = 1)              Tue Jun  3 16:30:45 2025  *
 *  PM3        - The PM3 Hamiltonian to be used
 *  OLDGEO     - PREVIOUS GEOMETRY TO BE USED
 *  PRECISE    - TIGHTER CRITERIA TO BE USED
 *  NOSYM      - POINT-GROUP SYMMETRY SET TO C1
 *  THREADS=1  - MULTI-THREADING NOT USED
 *  T=         - A TIME OF 172800.0 SECONDS REQUESTED
 *  DUMP=N     - RESTART FILE WRITTEN EVERY 7200.0 SECONDS REQUESTED
 *  THERMO     - THERMODYNAMIC QUANTITIES TO BE CALCULATED
 *******************************************************************************
oldgeo thermo nosym precise THREADS=1  pm3
 InChI=1S/C9H10/c1-7-6-8-4-2-3-5-9(7)8/h2-5,7H,6H2,1H3

   ATOM   CHEMICAL          X               Y               Z
  NUMBER   SYMBOL      (ANGSTROMS)     (ANGSTROMS)     (ANGSTROMS)

     1       C         -1.46294242  *  -0.15217219  *  -0.44432238  *
     2       C         -1.25596321  *  -0.74504032  *   1.01520813  *
     3       C         -2.20783791  *   1.15219723  *  -0.50496619  *
     4       C          0.04820403  *  -0.05301248  *  -0.51769464  *
     5       C          0.22567906  *  -0.59528862  *   0.78148743  *
     6       C          1.46537388  *  -0.78422654  *   1.32865384  *
     7       C          1.10405552  *   0.32079412  *  -1.30281971  *
     8       C          2.55757681  *  -0.40252010  *   0.52430695  *
     9       C          2.38363909  *   0.13111293  *  -0.74361827  *
    10       H         -1.88703070  *  -0.88916810  *  -1.15698928  *
    11       H         -1.66655275  *  -0.12637548  *   1.82641048  *
    12       H         -1.60940425  *  -1.77658678  *   1.15106012  *
    13       H         -1.80389375  *   1.88967852  *   0.20115319  *
    14       H         -3.26848557  *   1.00913122  *  -0.26152308  *
    15       H         -2.15133895  *   1.59238695  *  -1.50870453  *
    16       H          3.57133190  *  -0.53278378  *   0.91766287  *
    17       H          1.61486055  *  -1.20296498  *   2.32700744  *
    18       H          3.26256725  *   0.41494352  *  -1.33208964  *
    19       H          0.97770160  *   0.74199505  *  -2.30339667  *



          CARTESIAN COORDINATES 

    NO.       ATOM           X           Y           Z

     1         C         -1.4629     -0.1522     -0.4443
     2         C         -1.2560     -0.7450      1.0152
     3         C         -2.2078      1.1522     -0.5050
     4         C          0.0482     -0.0530     -0.5177
     5         C          0.2257     -0.5953      0.7815
     6         C          1.4654     -0.7842      1.3287
     7         C          1.1041      0.3208     -1.3028
     8         C          2.5576     -0.4025      0.5243
     9         C          2.3836      0.1311     -0.7436
    10         H         -1.8870     -0.8892     -1.1570
    11         H         -1.6666     -0.1264      1.8264
    12         H         -1.6094     -1.7766      1.1511
    13         H         -1.8039      1.8897      0.2012
    14         H         -3.2685      1.0091     -0.2615
    15         H         -2.1513      1.5924     -1.5087
    16         H          3.5713     -0.5328      0.9177
    17         H          1.6149     -1.2030      2.3270
    18         H          3.2626      0.4149     -1.3321
    19         H          0.9777      0.7420     -2.3034

  H: (PM3): J. J. P. STEWART, J. COMP. CHEM. 10, 209 (1989).
  C: (PM3): J. J. P. STEWART, J. COMP. CHEM. 10, 209 (1989).

           Empirical Formula: C9 H10  =    19 atoms



      MOLECULAR POINT GROUP   :   C1  


      RHF CALCULATION, NO. OF DOUBLY OCCUPIED LEVELS = 23



          HEAT OF FORMATION =      41.550671 KCALS/MOLE


          CARTESIAN COORDINATE DERIVATIVES

   NUMBER  ATOM         X            Y            Z

     1       C     -0.000792     0.000442     0.003436
     2       C     -0.001662     0.003276    -0.006617
     3       C     -0.002107    -0.002719     0.007342
     4       C     -0.012871    -0.000757     0.001116
     5       C      0.012651    -0.000897    -0.010241
     6       C     -0.000664     0.002134     0.005775
     7       C      0.003175     0.000382     0.014315
     8       C     -0.008128     0.000618     0.006983
     9       C      0.010558     0.003097     0.000316
    10       H      0.003956    -0.010456    -0.003870
    11       H      0.001517    -0.006500     0.002984
    12       H     -0.001417     0.003236    -0.002376
    13       H     -0.002006     0.005006    -0.009277
    14       H      0.001425     0.005718    -0.002464
    15       H     -0.007138    -0.000271    -0.001260
    16       H      0.009654    -0.000763     0.010938
    17       H     -0.003781    -0.010012    -0.011492
    18       H      0.000871     0.006293    -0.016749
    19       H     -0.003243     0.002172     0.011139



          GRADIENT NORM =   0.04898

          MOLECULAR WEIGHT =  118.18



          ROTATIONAL CONSTANTS IN CM(-1)

          A =    0.11598180   B =    0.04672642   C =    0.03561405



           PRINCIPAL MOMENTS OF INERTIA IN UNITS OF 10**(-40)*GRAM-CM**2

          A =      241.3547   B =      599.0776   C =      786.0029


          ORIENTATION OF MOLECULE IN FORCE CALCULATION

    NO.       ATOM         X         Y         Z

     1          C      -0.6273    0.6266    1.5529
     2          C       0.9616    0.6266    1.5529
     3          C      -1.2668    1.9871    1.5529
     4          C      -0.5349   -0.0590    0.2037
     5          C       0.8840   -0.0671    0.2168
     6          C       1.6186   -0.6061   -0.8039
     7          C      -1.2580   -0.5836   -0.8321
     8          C       0.8796   -1.1496   -1.8735
     9          C      -0.5069   -1.1379   -1.8878
    10          H      -1.0622   -0.0204    2.3423
    11          H       1.4224    1.6249    1.5357
    12          H       1.4252    0.0430    2.3603
    13          H      -0.8407    2.6418    0.7812
    14          H      -1.1279    2.4850    2.5211
    15          H      -2.3457    1.9158    1.3649
    16          H       1.4216   -1.5923   -2.7159
    17          H       2.7114   -0.6203   -0.8041
    18          H      -1.0389   -1.5708   -2.7416
    19          H      -2.3508   -0.5796   -0.8528


    FIRST DERIVATIVES WILL BE USED IN THE CALCULATION OF SECOND DERIVATIVES

          ESTIMATED TIME TO COMPLETE CALCULATION =        1.78 SECONDS

    FOR POINT-GROUP C1   THERE ARE   1 UNIQUE SYMMETRY FUNCTIONS.

 STEP:   1 TIME =     0.02 SECS, INTEGRAL =      0.02 TIME LEFT: 172799.98
 STEP:   2 TIME =     0.02 SECS, INTEGRAL =      0.03 TIME LEFT: 172799.96
 STEP:   3 TIME =     0.02 SECS, INTEGRAL =      0.05 TIME LEFT: 172799.94
 STEP:   4 TIME =     0.02 SECS, INTEGRAL =      0.07 TIME LEFT: 172799.93
 STEP:   5 TIME =     0.02 SECS, INTEGRAL =      0.08 TIME LEFT: 172799.91
 STEP:   6 TIME =     0.02 SECS, INTEGRAL =      0.10 TIME LEFT: 172799.89
 STEP:   7 TIME =     0.02 SECS, INTEGRAL =      0.12 TIME LEFT: 172799.88
 STEP:   8 TIME =     0.02 SECS, INTEGRAL =      0.13 TIME LEFT: 172799.86
 STEP:   9 TIME =     0.02 SECS, INTEGRAL =      0.15 TIME LEFT: 172799.84
 STEP:  10 TIME =     0.02 SECS, INTEGRAL =      0.17 TIME LEFT: 172799.82
 STEP:  11 TIME =     0.02 SECS, INTEGRAL =      0.19 TIME LEFT: 172799.80
 STEP:  12 TIME =     0.02 SECS, INTEGRAL =      0.21 TIME LEFT: 172799.78
 STEP:  13 TIME =     0.02 SECS, INTEGRAL =      0.23 TIME LEFT: 172799.76
 STEP:  14 TIME =     0.02 SECS, INTEGRAL =      0.25 TIME LEFT: 172799.74
 STEP:  15 TIME =     0.02 SECS, INTEGRAL =      0.27 TIME LEFT: 172799.72
 STEP:  16 TIME =     0.02 SECS, INTEGRAL =      0.29 TIME LEFT: 172799.71
 STEP:  17 TIME =     0.02 SECS, INTEGRAL =      0.31 TIME LEFT: 172799.68
 STEP:  18 TIME =     0.02 SECS, INTEGRAL =      0.33 TIME LEFT: 172799.66
 STEP:  19 TIME =     0.02 SECS, INTEGRAL =      0.34 TIME LEFT: 172799.65
 STEP:  20 TIME =     0.02 SECS, INTEGRAL =      0.36 TIME LEFT: 172799.63
 STEP:  21 TIME =     0.02 SECS, INTEGRAL =      0.39 TIME LEFT: 172799.61
 STEP:  22 TIME =     0.02 SECS, INTEGRAL =      0.41 TIME LEFT: 172799.59
 STEP:  23 TIME =     0.02 SECS, INTEGRAL =      0.43 TIME LEFT: 172799.57
 STEP:  24 TIME =     0.02 SECS, INTEGRAL =      0.45 TIME LEFT: 172799.55
 STEP:  25 TIME =     0.02 SECS, INTEGRAL =      0.46 TIME LEFT: 172799.53
 STEP:  26 TIME =     0.02 SECS, INTEGRAL =      0.48 TIME LEFT: 172799.51
 STEP:  27 TIME =     0.02 SECS, INTEGRAL =      0.50 TIME LEFT: 172799.49
 STEP:  28 TIME =     0.02 SECS, INTEGRAL =      0.52 TIME LEFT: 172799.47
 STEP:  29 TIME =     0.02 SECS, INTEGRAL =      0.54 TIME LEFT: 172799.46
 STEP:  30 TIME =     0.02 SECS, INTEGRAL =      0.55 TIME LEFT: 172799.44
 STEP:  31 TIME =     0.02 SECS, INTEGRAL =      0.57 TIME LEFT: 172799.42
 STEP:  32 TIME =     0.02 SECS, INTEGRAL =      0.59 TIME LEFT: 172799.41
 STEP:  33 TIME =     0.02 SECS, INTEGRAL =      0.61 TIME LEFT: 172799.39
 STEP:  34 TIME =     0.02 SECS, INTEGRAL =      0.62 TIME LEFT: 172799.37
 STEP:  35 TIME =     0.02 SECS, INTEGRAL =      0.64 TIME LEFT: 172799.35
 STEP:  36 TIME =     0.02 SECS, INTEGRAL =      0.66 TIME LEFT: 172799.33
 STEP:  37 TIME =     0.02 SECS, INTEGRAL =      0.68 TIME LEFT: 172799.32
 STEP:  38 TIME =     0.02 SECS, INTEGRAL =      0.69 TIME LEFT: 172799.30
 STEP:  39 TIME =     0.02 SECS, INTEGRAL =      0.71 TIME LEFT: 172799.28
 STEP:  40 TIME =     0.02 SECS, INTEGRAL =      0.73 TIME LEFT: 172799.26
 STEP:  41 TIME =     0.02 SECS, INTEGRAL =      0.75 TIME LEFT: 172799.25
 STEP:  42 TIME =     0.02 SECS, INTEGRAL =      0.76 TIME LEFT: 172799.23
 STEP:  43 TIME =     0.02 SECS, INTEGRAL =      0.78 TIME LEFT: 172799.21
 STEP:  44 TIME =     0.02 SECS, INTEGRAL =      0.79 TIME LEFT: 172799.20
 STEP:  45 TIME =     0.02 SECS, INTEGRAL =      0.81 TIME LEFT: 172799.18
 STEP:  46 TIME =     0.02 SECS, INTEGRAL =      0.83 TIME LEFT: 172799.16
 STEP:  47 TIME =     0.02 SECS, INTEGRAL =      0.85 TIME LEFT: 172799.14
 STEP:  48 TIME =     0.02 SECS, INTEGRAL =      0.87 TIME LEFT: 172799.12
 STEP:  49 TIME =     0.02 SECS, INTEGRAL =      0.89 TIME LEFT: 172799.11
 STEP:  50 TIME =     0.02 SECS, INTEGRAL =      0.91 TIME LEFT: 172799.09
 STEP:  51 TIME =     0.02 SECS, INTEGRAL =      0.93 TIME LEFT: 172799.07
 STEP:  52 TIME =     0.02 SECS, INTEGRAL =      0.94 TIME LEFT: 172799.05
 STEP:  53 TIME =     0.02 SECS, INTEGRAL =      0.96 TIME LEFT: 172799.03
 STEP:  54 TIME =     0.02 SECS, INTEGRAL =      0.98 TIME LEFT: 172799.01
 STEP:  55 TIME =     0.02 SECS, INTEGRAL =      1.00 TIME LEFT: 172799.00
 STEP:  56 TIME =     0.02 SECS, INTEGRAL =      1.02 TIME LEFT: 172798.98
 STEP:  57 TIME =     0.02 SECS, INTEGRAL =      1.03 TIME LEFT: 172798.96

(To convert to Hartree/Bohr^2, multiply by (10^(-21) x N x a0^2)/(4.184 x 627.51) =  0.0642)


           FORCE MATRIX IN MILLIDYNES/ANGSTROM


                  C  1       C  2       C  3       C  4       C  5       C  6
 ------------------------------------------------------------------------------
     C    1  14.394604
     C    2   2.544148  14.222119
     C    3   4.674378   0.504531  14.532028
     C    4   4.051402   2.145910   0.578285  18.564858
     C    5   2.124386   4.348941   0.047924   5.856151  18.690101
     C    6   0.078050   0.361015   0.014198   2.286816   7.937490  17.396264
     C    7   0.348244   0.075745   0.013363   7.957898   2.298535   1.704435
     C    8   0.017263   0.108077   0.003272   1.798484   2.596126   6.340434
     C    9   0.106867   0.021648   0.014551   2.589495   1.808086   2.362199
     H   10   4.441703   0.415014   0.429200   0.422551   0.040417   0.011097
     H   11   0.434247   4.694736   0.020503   0.038245   0.444404   0.011130
     H   12   0.421572   4.722707   0.030202   0.039800   0.445600   0.012750
     H   13   0.469999   0.018426   4.737858   0.013164   0.002492   0.001417
     H   14   0.450452   0.010562   4.743586   0.049230   0.006313   0.002556
     H   15   0.453479   0.046111   4.751220   0.011954   0.003740   0.001816
     H   16   0.008480   0.004891   0.001328   0.010292   0.085743   0.434478
     H   17   0.009159   0.044214   0.001403   0.102263   0.454936   4.917964
     H   18   0.004592   0.008427   0.000749   0.085149   0.010137   0.093648
     H   19   0.043848   0.009344   0.006951   0.454994   0.102638   0.011114


                  C  7       C  8       C  9       H 10       H 11       H 12
 ------------------------------------------------------------------------------
     C    7  17.398099
     C    8   2.363118  16.934588
     C    9   6.334834   7.131634  16.929357
     H   10   0.010988   0.003650   0.012533   4.943693
     H   11   0.011362   0.013271   0.003163   0.027508   5.303596
     H   12   0.010743   0.013492   0.003339   0.024415   0.524905   5.328174
     H   13   0.002089   0.000381   0.000674   0.045865   0.015626   0.001664
     H   14   0.001990   0.000926   0.002438   0.027768   0.003924   0.001859
     H   15   0.001592   0.000347   0.000666   0.027271   0.002723   0.005518
     H   16   0.094073   4.848581   0.437091   0.001126   0.000625   0.000583
     H   17   0.011080   0.440927   0.083192   0.001139   0.006429   0.006311
     H   18   0.434509   0.437282   4.848889   0.000590   0.001198   0.001167
     H   19   4.916307   0.083177   0.440763   0.006074   0.001226   0.001207


                  H 13       H 14       H 15       H 16       H 17       H 18
 ------------------------------------------------------------------------------
     H   13   5.467865
     H   14   0.570591   5.467552
     H   15   0.571912   0.567029   5.474310
     H   16   0.000180   0.000237   0.000182   5.211891
     H   17   0.000207   0.000339   0.000137   0.036187   5.293397
     H   18   0.000150   0.000180   0.000164   0.047716   0.006898   5.212701
     H   19   0.000498   0.001445   0.002004   0.006978   0.010687   0.035937


                  H 19
 ------------------
     H   19   5.291461


          HEAT OF FORMATION =      41.550671 KCALS/MOLE

          ZERO POINT ENERGY     101.603 KCAL/MOL


           NORMAL COORDINATE ANALYSIS (Total motion = 1 Angstrom)


   Root No.       1         2         3         4         5         6         7         8

                 1 A       2 A       3 A       4 A       5 A       6 A       7 A       8 A   

                 128.2     149.0     181.5     286.5     362.7     398.2     478.9     505.0
  
           1    0.0071   -0.0048    0.0174    0.0074   -0.0038   -0.0039   -0.0259    0.0122
           2    0.0030   -0.0022   -0.0007   -0.0121   -0.0262   -0.0339   -0.0273   -0.0178
           3   -0.0073   -0.0014    0.0103    0.0048    0.0189    0.0138   -0.0273    0.0085
           4    0.0071   -0.0053    0.0184    0.0092   -0.0065   -0.0062   -0.0299    0.0106
           5    0.0281    0.0028    0.0247   -0.0295    0.0201    0.0139    0.0320   -0.0002
           6   -0.0229   -0.0021   -0.0087    0.0263   -0.0146   -0.0025    0.0220   -0.0164
           7   -0.0323    0.0002   -0.0333   -0.0191    0.0326    0.0290    0.0187    0.0154
           8   -0.0172   -0.0001   -0.0248   -0.0254   -0.0109   -0.0216   -0.0098   -0.0248
           9    0.0581    0.0099   -0.0386   -0.0329   -0.0042   -0.0161   -0.0010   -0.0119
          10    0.0053   -0.0035    0.0129    0.0185   -0.0196   -0.0069    0.0393   -0.0202
          11    0.0299    0.0005   -0.0241    0.0258   -0.0361    0.0113   -0.0032    0.0337
          12   -0.0213   -0.0035    0.0245   -0.0068    0.0187   -0.0074   -0.0179   -0.0188
          13    0.0052   -0.0032    0.0126    0.0180   -0.0188   -0.0063    0.0401   -0.0198
          14    0.0134   -0.0016   -0.0280    0.0282   -0.0087    0.0649   -0.0032   -0.0045
          15   -0.0151    0.0009    0.0175   -0.0082    0.0061   -0.0270    0.0211   -0.0006
          16    0.0035    0.0013    0.0010    0.0031   -0.0049   -0.0028    0.0074    0.0026
          17   -0.0317   -0.0058   -0.0311    0.0249    0.0384   -0.0157   -0.0079   -0.0144
          18    0.0073    0.0066    0.0106   -0.0179   -0.0060    0.0205   -0.0044    0.0286
          19    0.0047    0.0016    0.0006    0.0006   -0.0064   -0.0084    0.0057   -0.0206
          20    0.0330    0.0050    0.0211    0.0405    0.0320   -0.0237    0.0088    0.0206
          21   -0.0227   -0.0095    0.0111    0.0007   -0.0266    0.0117    0.0048   -0.0121
          22    0.0025    0.0059   -0.0108   -0.0135    0.0063   -0.0019   -0.0234    0.0056
          23   -0.0444   -0.0037    0.0082   -0.0206   -0.0250   -0.0125    0.0130    0.0467
          24    0.0145    0.0025   -0.0019    0.0152    0.0200    0.0185   -0.0011   -0.0009
          25    0.0029    0.0061   -0.0104   -0.0135    0.0068   -0.0013   -0.0234    0.0037
          26   -0.0045    0.0040    0.0443   -0.0116   -0.0015    0.0353   -0.0123   -0.0298
          27   -0.0043   -0.0061   -0.0082    0.0201   -0.0015   -0.0141    0.0019    0.0300
          28    0.0340    0.0002    0.0432   -0.0073    0.0124   -0.0020   -0.0567    0.0282
          29   -0.0358   -0.0041    0.0110   -0.0178   -0.0113   -0.0365   -0.0514   -0.0347
          30   -0.0230   -0.0002    0.0341   -0.0083    0.0382    0.0100   -0.0645    0.0022
          31   -0.0114   -0.0113   -0.0005    0.0253   -0.0442   -0.0399   -0.0909   -0.0082
          32    0.0366    0.0055    0.0327   -0.0371    0.0383    0.0307    0.0617    0.0093
          33   -0.0423   -0.0066   -0.0623    0.0927   -0.0602    0.0425   -0.0032   -0.0597
          34    0.0269   -0.0023    0.0397   -0.0155    0.0413    0.0269   -0.0234    0.0508
          35    0.0483    0.0091    0.0713   -0.0862    0.0658   -0.0114    0.0973    0.0315
          36   -0.0199    0.0007    0.0123    0.0005   -0.0100   -0.0399    0.0631   -0.0179
          37   -0.0468   -0.1890   -0.0534   -0.0401    0.0710    0.0640    0.0464    0.0248
          38    0.0369   -0.0862   -0.0351   -0.0457   -0.0344   -0.0544   -0.0107   -0.0464
          39    0.0962   -0.1672   -0.0585   -0.0617   -0.0040   -0.0260    0.0127   -0.0260
          40   -0.0551    0.2489   -0.0646   -0.0293    0.0347    0.0314    0.0597    0.0032
          41   -0.0643    0.1011    0.0160    0.0163   -0.0050   -0.0033   -0.0451    0.0003
          42    0.0857   -0.0775   -0.0555   -0.0537   -0.0075   -0.0263    0.0119   -0.0241
          43   -0.0289   -0.0475   -0.0286   -0.0182    0.0342    0.0307    0.0137    0.0185
          44   -0.0406   -0.0114   -0.0776   -0.0632    0.0267    0.0091    0.0546   -0.0334
          45    0.0468    0.2897   -0.0476   -0.0271   -0.0238   -0.0340    0.0096   -0.0263
          46    0.0009    0.0091   -0.0193   -0.0237    0.0138    0.0007   -0.0322    0.0100
          47   -0.0849   -0.0070    0.0177   -0.0674   -0.0722   -0.0511    0.0344    0.1225
          48    0.0347    0.0063   -0.0123    0.0331    0.0498    0.0405   -0.0185   -0.0376
          49    0.0032    0.0013    0.0008    0.0033   -0.0040   -0.0039    0.0073    0.0017
          50   -0.0592   -0.0098   -0.0493    0.0341    0.1150   -0.0872   -0.0296   -0.0613
          51    0.0205    0.0138    0.0064   -0.0419   -0.0280    0.0621   -0.0440    0.0764
          52    0.0019    0.0094   -0.0183   -0.0223    0.0156    0.0053   -0.0324    0.0188
          53   -0.0074    0.0082    0.0914   -0.0465   -0.0073    0.0869   -0.0315   -0.1233
          54   -0.0021   -0.0103   -0.0270    0.0434   -0.0042   -0.0443    0.0176    0.0679
          55    0.0050    0.0018    0.0007    0.0007   -0.0052   -0.0092    0.0054   -0.0202
          56    0.0551    0.0079    0.0477    0.0718    0.0984   -0.0981    0.0384    0.0215
          57   -0.0331   -0.0170    0.0118    0.0058   -0.0785    0.0470    0.0393   -0.0310


   Root No.       9        10        11        12        13        14        15        16

                 9 A      10 A      11 A      12 A      13 A      14 A      15 A      16 A   

                 570.5     638.3     698.9     773.0     830.3     843.2     879.1     931.9
  
           1   -0.0035   -0.0412   -0.0023    0.0009   -0.0337   -0.0341   -0.0037    0.0029
           2   -0.0010   -0.0138   -0.0060   -0.0017   -0.0129   -0.0121   -0.0012   -0.0064
           3   -0.0528    0.0280    0.0118   -0.0008    0.0307   -0.0358    0.0006   -0.0043
           4   -0.0020   -0.0357   -0.0011   -0.0008    0.0224    0.0529   -0.0015    0.0186
           5   -0.0216   -0.0102   -0.0118    0.0052   -0.0279   -0.0031    0.0165   -0.0267
           6   -0.0383   -0.0248    0.0059    0.0008   -0.0242   -0.0140   -0.0111    0.0287
           7   -0.0017   -0.0107    0.0035    0.0042   -0.0260   -0.0154   -0.0025    0.0009
           8   -0.0032    0.0131   -0.0079   -0.0078    0.0257   -0.0111   -0.0038    0.0202
           9   -0.0021    0.0027   -0.0021   -0.0012    0.0113   -0.0173   -0.0007   -0.0105
          10   -0.0017    0.0009   -0.0043   -0.0028    0.0138    0.0007    0.0005   -0.0014
          11   -0.0158    0.0052    0.0660    0.0256    0.0053    0.0017   -0.0080   -0.0198
          12   -0.0201    0.0340   -0.0214   -0.0082   -0.0020    0.0164    0.0054    0.0015
          13    0.0074    0.0025   -0.0079   -0.0045    0.0126   -0.0110    0.0010    0.0019
          14   -0.0238   -0.0025   -0.0444    0.0037    0.0015    0.0083   -0.0001    0.0187
          15   -0.0175   -0.0418    0.0204   -0.0011   -0.0046    0.0157   -0.0001   -0.0049
          16    0.0599    0.0232   -0.0084   -0.0081    0.0270   -0.0428    0.0010   -0.0043
          17    0.0170   -0.0265    0.0149   -0.0139    0.0033    0.0083   -0.0306    0.0009
          18    0.0088   -0.0336   -0.0133    0.0056    0.0086    0.0117    0.0164   -0.0052
          19   -0.0564    0.0132    0.0055    0.0011    0.0216    0.0231    0.0035   -0.0187
          20   -0.0021    0.0277   -0.0057   -0.0105   -0.0043    0.0062    0.0261    0.0155
          21    0.0229    0.0334    0.0120    0.0106   -0.0103    0.0177   -0.0128   -0.0136
          22    0.0020    0.0290    0.0072    0.0041   -0.0220    0.0045   -0.0016    0.0061
          23    0.0115   -0.0128   -0.0176   -0.0312    0.0132   -0.0018   -0.0103   -0.0205
          24    0.0541   -0.0433   -0.0063    0.0067    0.0366   -0.0105    0.0073    0.0010
          25   -0.0025    0.0278    0.0083    0.0048   -0.0227    0.0100   -0.0008    0.0048
          26    0.0378    0.0158    0.0212   -0.0206   -0.0191    0.0064    0.0180    0.0052
          27    0.0436    0.0491   -0.0014    0.0179   -0.0286    0.0103   -0.0113    0.0074
          28   -0.0105   -0.0532   -0.0173   -0.0026   -0.0333   -0.0462    0.0239   -0.0649
          29   -0.0111    0.0026   -0.0389   -0.0251   -0.0116   -0.0408    0.0084    0.0295
          30   -0.0629    0.0332   -0.0246   -0.0219    0.0271   -0.0677    0.0240   -0.0144
          31    0.0212   -0.0729   -0.0325   -0.0019   -0.0167    0.0781    0.0296   -0.1213
          32   -0.0332    0.0068    0.0039    0.0057   -0.0102   -0.0175    0.0007    0.0421
          33   -0.0423   -0.0241   -0.1159    0.0221   -0.0834   -0.0279    0.0745   -0.0340
          34   -0.0270   -0.0077    0.0363   -0.0015    0.1078    0.0505   -0.0340    0.1561
          35   -0.0300   -0.0078    0.0933   -0.0109   -0.0058   -0.0243   -0.0632    0.0749
          36   -0.0298   -0.0414    0.0562   -0.0101   -0.0612   -0.0299   -0.0467    0.0174
          37   -0.0196    0.0331    0.0153    0.0094    0.0386    0.0243    0.0167   -0.0753
          38    0.0386   -0.0269   -0.0366   -0.0183   -0.0479    0.0129   -0.0111    0.1048
          39    0.0246   -0.0084   -0.0212   -0.0077   -0.0181    0.0253    0.0035    0.0218
          40    0.0259    0.0022   -0.0101    0.0020   -0.0246    0.0798    0.0158   -0.0120
          41   -0.0590    0.0335    0.0248    0.0009    0.0892   -0.1107   -0.0139   -0.0286
          42    0.0234   -0.0097   -0.0183   -0.0060   -0.0218    0.0220    0.0023    0.0179
          43   -0.0071   -0.0114    0.0067    0.0054   -0.0257   -0.0294   -0.0043   -0.0029
          44    0.0096    0.0677   -0.0144   -0.0101    0.1006    0.1156    0.0281   -0.0360
          45    0.0248   -0.0111   -0.0190   -0.0067   -0.0186    0.0244    0.0017    0.0224
          46   -0.0336   -0.0197    0.0035    0.0073   -0.0082    0.0310    0.0004   -0.0004
          47   -0.0205   -0.0118   -0.0888    0.2067    0.0525   -0.0153    0.0804    0.0817
          48    0.0484   -0.0753    0.0288   -0.1162    0.0254    0.0145   -0.0389   -0.0573
          49    0.0598    0.0232   -0.0075   -0.0061    0.0274   -0.0438    0.0036   -0.0045
          50    0.0577   -0.0589    0.0848    0.1492    0.0003    0.0109    0.1690   -0.0149
          51   -0.0104   -0.0048   -0.0360   -0.0684   -0.0283    0.0566   -0.0904    0.0026
          52    0.0289   -0.0155   -0.0040   -0.0007   -0.0016   -0.0230   -0.0036    0.0172
          53    0.0697    0.0009    0.0205    0.2180    0.0040    0.0067   -0.1245   -0.0133
          54    0.0082    0.0838    0.0065   -0.0992   -0.0539    0.0319    0.0626    0.0090
          55   -0.0560    0.0140    0.0037    0.0026    0.0213    0.0238    0.0012   -0.0202
          56   -0.0073    0.0414   -0.1536    0.0931    0.0081    0.0280   -0.1510   -0.0889
          57    0.0329    0.0140    0.0783   -0.0485    0.0235    0.0202    0.0816    0.0139


   Root No.      17        18        19        20        21        22        23        24

                17 A      18 A      19 A      20 A      21 A      22 A      23 A      24 A   

                 937.5     950.7     993.9    1007.3    1023.1    1057.3    1093.4    1100.2
  
           1    0.0063    0.0016    0.0002   -0.0042    0.0041    0.0214   -0.0134   -0.0269
           2    0.0054   -0.0019   -0.0033   -0.0024   -0.0002    0.0026   -0.0028   -0.0111
           3   -0.0065   -0.0022    0.0039   -0.0146    0.0054   -0.0048    0.0185    0.0194
           4   -0.0379   -0.0011    0.0006    0.0030   -0.0037   -0.0139    0.0223    0.0103
           5   -0.0200   -0.0086    0.0090    0.0113    0.0145   -0.0141    0.0238    0.0143
           6   -0.0295   -0.0005   -0.0025   -0.0140   -0.0054    0.0068    0.0143   -0.0058
           7    0.0242    0.0083   -0.0015    0.0123   -0.0046   -0.0171    0.0075    0.0119
           8   -0.0090    0.0081    0.0022    0.0126   -0.0020    0.0037   -0.0028   -0.0003
           9   -0.0131   -0.0006   -0.0098    0.0245   -0.0114    0.0019   -0.0073   -0.0042
          10    0.0040    0.0016   -0.0017    0.0091   -0.0036    0.0136   -0.0096    0.0090
          11    0.0061    0.0076    0.0025   -0.0168    0.0211   -0.0086    0.0065    0.0067
          12    0.0170   -0.0032    0.0002   -0.0019   -0.0060   -0.0155    0.0066   -0.0116
          13   -0.0081   -0.0020    0.0006   -0.0007   -0.0011   -0.0018   -0.0159    0.0071
          14    0.0004    0.0054   -0.0138   -0.0109   -0.0349    0.0020   -0.0104   -0.0028
          15   -0.0073   -0.0027    0.0067    0.0111    0.0154   -0.0051   -0.0116    0.0084
          16   -0.0065   -0.0047    0.0030   -0.0155    0.0056   -0.0029    0.0440   -0.0063
          17    0.0130   -0.0272   -0.0117    0.0131    0.0248    0.0013   -0.0010   -0.0020
          18    0.0114    0.0169    0.0046   -0.0002   -0.0145    0.0065   -0.0037   -0.0079
          19    0.0479    0.0039   -0.0006   -0.0010    0.0022   -0.0161   -0.0013   -0.0284
          20    0.0154   -0.0280    0.0211    0.0118   -0.0166    0.0023   -0.0045   -0.0025
          21    0.0114    0.0172   -0.0124   -0.0009    0.0078    0.0041   -0.0073    0.0021
          22   -0.0126    0.0001   -0.0003    0.0046   -0.0024    0.0150    0.0064    0.0129
          23    0.0014    0.0183    0.0329   -0.0066   -0.0208   -0.0080   -0.0054   -0.0046
          24    0.0179   -0.0088   -0.0162   -0.0028    0.0134   -0.0165   -0.0092   -0.0069
          25   -0.0075    0.0002   -0.0009    0.0023   -0.0006   -0.0087   -0.0207    0.0005
          26   -0.0102    0.0166   -0.0375   -0.0007    0.0178   -0.0049   -0.0087   -0.0015
          27   -0.0128   -0.0084    0.0183    0.0070   -0.0119   -0.0091   -0.0182   -0.0052
          28   -0.0199   -0.0452    0.0131   -0.0626    0.0403    0.1098   -0.1246   -0.0751
          29    0.0498   -0.0140    0.0262   -0.0866    0.0151    0.0019    0.0062    0.0821
          30    0.0181   -0.0390    0.0346   -0.1170    0.0376    0.0431   -0.0358    0.0685
          31   -0.0391   -0.0797   -0.0670   -0.0125   -0.0864   -0.0604    0.0677    0.0733
          32   -0.0200    0.0295    0.0415    0.0181    0.0542    0.0089    0.0026   -0.0167
          33   -0.0756    0.0188    0.0996    0.0580    0.1387   -0.0027    0.0386   -0.0101
          34   -0.0333    0.0814    0.0653    0.0249    0.0748    0.0247   -0.0133   -0.0209
          35   -0.0145   -0.0092   -0.0520   -0.0563   -0.0751    0.0156    0.0123   -0.0202
          36   -0.0301   -0.0504   -0.0827   -0.0749   -0.1132    0.0061    0.0271   -0.0125
          37   -0.0689   -0.0386   -0.0180   -0.0052   -0.0022    0.0368   -0.0284   -0.0383
          38    0.0853    0.0360    0.0420   -0.0486    0.0274   -0.0286    0.0352    0.0450
          39    0.0194   -0.0018    0.0158   -0.0387    0.0151    0.0018    0.0074    0.0094
          40    0.0050   -0.0261    0.0203   -0.0866    0.0337    0.0169    0.0051   -0.0082
          41   -0.0739    0.0156   -0.0446    0.1415   -0.0548    0.0105   -0.0354   -0.0216
          42    0.0234   -0.0001    0.0125   -0.0310    0.0116   -0.0055    0.0102    0.0104
          43    0.0244    0.0112   -0.0062    0.0273   -0.0104   -0.0205    0.0058    0.0115
          44   -0.1197   -0.0599    0.0144   -0.0940    0.0379    0.0921   -0.0377   -0.0602
          45    0.0208    0.0001    0.0137   -0.0339    0.0120   -0.0028    0.0107    0.0117
          46    0.0234    0.0051   -0.0073    0.0267   -0.0084    0.0760   -0.0901    0.1032
          47    0.0486   -0.0805   -0.1257    0.0176    0.0648    0.0044   -0.0282    0.0185
          48    0.0178    0.0465    0.0625   -0.0011   -0.0354    0.0153   -0.0598    0.0366
          49   -0.0075   -0.0028    0.0036   -0.0167    0.0043   -0.0018    0.0470   -0.0062
          50   -0.0039    0.1341    0.0274   -0.0241   -0.0945    0.0878    0.0822   -0.0312
          51    0.0535   -0.0541   -0.0264    0.0690    0.0311    0.1516    0.1705   -0.0521
          52   -0.0484   -0.0064    0.0046   -0.0118    0.0009   -0.0385   -0.0977    0.1110
          53    0.0166   -0.0726    0.1412    0.0190   -0.0572    0.0038    0.0093   -0.0324
          54   -0.0002    0.0412   -0.0758    0.0066    0.0249    0.0049    0.0174   -0.0579
          55    0.0480    0.0060   -0.0019   -0.0021    0.0033   -0.0194   -0.0030   -0.0315
          56    0.0012    0.1361   -0.0870   -0.0230    0.0366    0.0867    0.0160    0.0827
          57    0.0911   -0.0551    0.0316    0.0672   -0.0368    0.1653    0.0268    0.1331


   Root No.      25        26        27        28        29        30        31        32

                25 A      26 A      27 A      28 A      29 A      30 A      31 A      32 A   

                1129.4    1149.7    1151.3    1163.8    1182.4    1239.6    1251.0    1319.0
  
           1   -0.0364   -0.0026    0.0071   -0.0219    0.0054   -0.0291    0.0262   -0.0327
           2   -0.0184    0.0032    0.0460   -0.0098   -0.0059    0.0171   -0.0016    0.0544
           3   -0.0164   -0.0060   -0.0284   -0.0281    0.0108   -0.0260    0.0199    0.0343
           4    0.0096    0.0148    0.0047    0.0356    0.0075   -0.0137    0.0039    0.0131
           5   -0.0062   -0.0009   -0.0085   -0.0107   -0.0052    0.0026   -0.0173   -0.0181
           6   -0.0134   -0.0013    0.0049   -0.0078   -0.0202    0.0253   -0.0438   -0.0197
           7    0.0121    0.0005   -0.0035    0.0074   -0.0026    0.0088   -0.0073   -0.0016
           8    0.0034   -0.0054   -0.0471    0.0059    0.0023   -0.0034   -0.0009    0.0082
           9    0.0117    0.0034    0.0255    0.0061   -0.0022    0.0030   -0.0043   -0.0068
          10    0.0151   -0.0214   -0.0018   -0.0262    0.0158   -0.0228   -0.0324    0.0231
          11    0.0004    0.0042   -0.0010    0.0085    0.0064    0.0080    0.0014   -0.0079
          12   -0.0252    0.0090    0.0061    0.0166    0.0090    0.0253    0.0013   -0.0024
          13    0.0228    0.0049   -0.0058   -0.0142    0.0188    0.0213    0.0505    0.0049
          14    0.0077   -0.0037    0.0004   -0.0048   -0.0065    0.0050    0.0153    0.0099
          15    0.0216   -0.0075   -0.0053   -0.0124   -0.0093    0.0039    0.0325    0.0139
          16   -0.0105    0.0195   -0.0005    0.0089   -0.0103    0.0261    0.0039   -0.0061
          17    0.0064    0.0014   -0.0017   -0.0009   -0.0062    0.0027    0.0274   -0.0035
          18    0.0106    0.0033   -0.0024   -0.0011   -0.0125    0.0066    0.0532   -0.0066
          19   -0.0042   -0.0107    0.0048    0.0147   -0.0049   -0.0111   -0.0306   -0.0145
          20   -0.0062    0.0049    0.0016    0.0028    0.0074    0.0160    0.0128   -0.0095
          21   -0.0042    0.0088   -0.0002    0.0057    0.0154    0.0288    0.0246   -0.0210
          22    0.0002    0.0056   -0.0022   -0.0040   -0.0171   -0.0108   -0.0042    0.0171
          23   -0.0052   -0.0036    0.0019    0.0032   -0.0006   -0.0125   -0.0182    0.0019
          24   -0.0089   -0.0070    0.0035    0.0060   -0.0017   -0.0247   -0.0353    0.0041
          25    0.0036   -0.0081    0.0004    0.0034   -0.0128   -0.0075    0.0263   -0.0077
          26    0.0066   -0.0072   -0.0001   -0.0039    0.0015   -0.0114   -0.0184    0.0027
          27    0.0107   -0.0144   -0.0002   -0.0074    0.0027   -0.0223   -0.0349    0.0047
          28    0.0787   -0.0360   -0.1834    0.1081   -0.0468    0.1154   -0.0956    0.0600
          29    0.1413    0.0257    0.2433   -0.0143    0.0044   -0.0481   -0.0054   -0.1014
          30    0.1763   -0.0063    0.0243    0.0403   -0.0096    0.0030   -0.0509   -0.0399
          31    0.0045   -0.0320   -0.0763   -0.0981   -0.0563    0.0540   -0.0736   -0.0868
          32   -0.0051    0.0225    0.0321    0.0539    0.0249   -0.0304    0.0193    0.0273
          33   -0.0098    0.0504    0.0158    0.1248    0.0453   -0.0656    0.0007    0.0064
          34   -0.0096   -0.0205    0.0606   -0.0756   -0.0847    0.1095   -0.0974   -0.0405
          35   -0.0088    0.0301    0.0130    0.0770    0.0186   -0.0291   -0.0135   -0.0037
          36   -0.0044    0.0416   -0.0154    0.1203    0.0496   -0.0692    0.0167    0.0184
          37   -0.0168    0.0096    0.1066   -0.0093   -0.0085    0.0221   -0.0067    0.0736
          38    0.0017   -0.0207   -0.1785   -0.0015    0.0142   -0.0377    0.0143   -0.0849
          39   -0.0049   -0.0046   -0.0252   -0.0100    0.0044   -0.0167    0.0075   -0.0332
          40   -0.0419   -0.0012    0.0252   -0.0274   -0.0007    0.0115    0.0053    0.0930
          41    0.0512    0.0036    0.0013    0.0382   -0.0016   -0.0186   -0.0067   -0.1432
          42   -0.0051   -0.0015   -0.0056   -0.0069    0.0003    0.0065   -0.0017    0.0474
          43    0.0180    0.0018    0.0038    0.0126   -0.0051    0.0181   -0.0129    0.0195
          44   -0.0659   -0.0060    0.0006   -0.0408    0.0178   -0.0742    0.0498   -0.1488
          45   -0.0055   -0.0045   -0.0250   -0.0107    0.0031   -0.0112    0.0041   -0.0149
          46   -0.0549    0.2512   -0.0358   -0.0460    0.0954    0.0376   -0.1065   -0.0111
          47   -0.0179    0.0570   -0.0063   -0.0074    0.0277   -0.0019   -0.0455   -0.0053
          48   -0.0368    0.1182   -0.0137   -0.0154    0.0565   -0.0027   -0.0911   -0.0108
          49   -0.0107    0.0217   -0.0008    0.0089   -0.0099    0.0291    0.0040   -0.0061
          50    0.0418   -0.0467    0.0049   -0.0147    0.0799    0.0177   -0.0239    0.0006
          51    0.0776   -0.0892    0.0080   -0.0305    0.1551    0.0336   -0.0451    0.0010
          52   -0.1107   -0.2124    0.0567    0.0678    0.1221    0.0754   -0.0172   -0.0311
          53    0.0348    0.0458   -0.0147   -0.0206   -0.0339   -0.0347   -0.0085    0.0081
          54    0.0676    0.0851   -0.0278   -0.0391   -0.0636   -0.0656   -0.0170    0.0160
          55   -0.0031   -0.0120    0.0049    0.0143   -0.0023   -0.0112   -0.0335   -0.0167
          56   -0.0349   -0.0263    0.0059    0.0468   -0.0718   -0.0289    0.0126   -0.0028
          57   -0.0961   -0.0495    0.0248    0.0920   -0.1438   -0.0484    0.0218    0.0034


   Root No.      33        34        35        36        37        38        39        40

                33 A      34 A      35 A      36 A      37 A      38 A      39 A      40 A   

                1387.4    1396.7    1406.8    1423.1    1489.8    1544.8    1570.2    1845.8
  
           1    0.0026    0.0049   -0.0033    0.0280    0.0158    0.0348    0.0082   -0.0069
           2   -0.0034   -0.0108    0.0040   -0.0488   -0.0258   -0.0383    0.0049   -0.0117
           3    0.0080   -0.0027   -0.0004   -0.0119   -0.0194   -0.0382    0.0109   -0.0234
           4   -0.0313    0.0028    0.0037    0.0077   -0.0081   -0.0263    0.0062   -0.0113
           5   -0.0135    0.0034    0.0001    0.0161   -0.0074   -0.0157   -0.0074    0.0068
           6   -0.0291    0.0043    0.0016    0.0188   -0.0179   -0.0351   -0.0143    0.0128
           7   -0.0124   -0.0323   -0.0202   -0.0310   -0.0084   -0.0105   -0.0014    0.0013
           8    0.0160   -0.0031   -0.0170    0.0667    0.0169    0.0160    0.0003   -0.0001
           9   -0.0021    0.0276   -0.0296   -0.0005    0.0028    0.0016   -0.0008    0.0010
          10   -0.0030   -0.0019    0.0010   -0.0135    0.0564   -0.0671   -0.0287    0.0878
          11   -0.0055    0.0007    0.0005    0.0008    0.0083    0.0461   -0.0198    0.0735
          12   -0.0124   -0.0001    0.0016   -0.0079    0.0147    0.0858   -0.0390    0.1446
          13    0.0113   -0.0010   -0.0014   -0.0013   -0.0584    0.0684   -0.0232    0.0424
          14   -0.0038   -0.0012    0.0008   -0.0089    0.0067    0.0414    0.0240   -0.0580
          15   -0.0062   -0.0014    0.0012   -0.0130    0.0131    0.0829    0.0458   -0.1107
          16   -0.0076    0.0004    0.0010   -0.0007    0.0074   -0.0016    0.0612   -0.0256
          17    0.0039    0.0001   -0.0002    0.0020    0.0156   -0.0384    0.0219    0.0604
          18    0.0074    0.0002   -0.0005    0.0039    0.0302   -0.0746    0.0439    0.1159
          19    0.0042    0.0010   -0.0008    0.0080   -0.0076   -0.0042    0.0619   -0.0505
          20    0.0029    0.0003   -0.0001    0.0031    0.0156   -0.0373   -0.0253   -0.0665
          21    0.0061    0.0009   -0.0005    0.0077    0.0303   -0.0721   -0.0474   -0.1302
          22   -0.0146   -0.0013    0.0022   -0.0169    0.0758    0.0600   -0.0545   -0.0386
          23    0.0001    0.0001   -0.0002    0.0004   -0.0081    0.0128   -0.0414   -0.0197
          24   -0.0003    0.0001   -0.0003    0.0002   -0.0136    0.0263   -0.0815   -0.0392
          25    0.0152    0.0009   -0.0023    0.0145   -0.0755   -0.0548   -0.0617    0.0073
          26    0.0004   -0.0001   -0.0001   -0.0002   -0.0071    0.0098    0.0431    0.0140
          27    0.0013   -0.0000   -0.0003    0.0004   -0.0156    0.0178    0.0819    0.0273
          28   -0.0245   -0.0103    0.0011   -0.0433   -0.0062   -0.0278   -0.0108    0.0108
          29    0.0039    0.0103   -0.0071    0.0500    0.0306    0.0231   -0.0007   -0.0001
          30   -0.0004    0.0069   -0.0072    0.0285    0.0123   -0.0211   -0.0059    0.0020
          31    0.1796   -0.0059   -0.0216   -0.0178    0.0134    0.0318   -0.0120    0.0104
          32   -0.0900    0.0055    0.0104    0.0219   -0.0152   -0.0377    0.0027   -0.0085
          33    0.2204   -0.0210   -0.0183   -0.0665    0.0368   -0.0000    0.0027    0.0049
          34    0.1695   -0.0168   -0.0145   -0.0542    0.0010    0.0175   -0.0124    0.0102
          35    0.2307   -0.0217   -0.0192   -0.0708    0.0375    0.0196    0.0008    0.0088
          36    0.0531   -0.0041   -0.0040   -0.0133    0.0115   -0.0288    0.0039   -0.0042
          37    0.0564   -0.0524    0.2706    0.1277    0.0198    0.0215    0.0005    0.0005
          38   -0.0258    0.1162    0.1172   -0.1276   -0.0231   -0.0208   -0.0001   -0.0015
          39    0.0068    0.0837    0.2475   -0.0540   -0.0118   -0.0091    0.0002   -0.0011
          40    0.0490    0.3500    0.0412    0.0422    0.0038   -0.0003    0.0038   -0.0050
          41   -0.0309    0.0994    0.1814   -0.1148   -0.0058    0.0025   -0.0061    0.0071
          42    0.0102   -0.0921   -0.1126    0.0694    0.0100    0.0039    0.0018   -0.0027
          43   -0.0008    0.0504   -0.0378   -0.0089   -0.0029   -0.0068   -0.0016    0.0016
          44   -0.0712   -0.0855   -0.1331   -0.1525   -0.0195   -0.0067    0.0037   -0.0027
          45    0.0037   -0.3174    0.2257    0.0301   -0.0013    0.0010    0.0000    0.0000
          46   -0.0035    0.0007    0.0002    0.0034   -0.0217    0.0031    0.1359    0.0122
          47    0.0034    0.0006   -0.0008    0.0062   -0.0369   -0.0024    0.0020   -0.0076
          48    0.0067    0.0012   -0.0016    0.0120   -0.0727   -0.0048    0.0075   -0.0142
          49   -0.0090    0.0003    0.0012   -0.0014    0.0082    0.0045    0.0716   -0.0385
          50    0.0057   -0.0000   -0.0011    0.0032   -0.0536    0.0337   -0.0149   -0.0204
          51    0.0109   -0.0001   -0.0020    0.0056   -0.1035    0.0652   -0.0271   -0.0400
          52    0.0015    0.0009    0.0001    0.0046    0.0220   -0.0170    0.1359    0.0003
          53    0.0048    0.0001   -0.0010    0.0036   -0.0373   -0.0013   -0.0053    0.0175
          54    0.0093   -0.0000   -0.0017    0.0064   -0.0725   -0.0034   -0.0067    0.0340
          55    0.0053    0.0012   -0.0009    0.0094   -0.0071   -0.0128    0.0711   -0.0719
          56    0.0035    0.0008   -0.0013    0.0083   -0.0517    0.0334    0.0153    0.0236
          57    0.0056    0.0004   -0.0016    0.0095   -0.1028    0.0638    0.0316    0.0444


   Root No.      41        42        43        44        45        46        47        48

                41 A      42 A      43 A      44 A      45 A      46 A      47 A      48 A   

                1854.5    2960.1    3047.1    3052.7    3065.7    3081.1    3084.3    3087.7
  
           1   -0.0143    0.0259   -0.0012   -0.0000    0.0000    0.0009   -0.0003   -0.0001
           2    0.0174    0.0376   -0.0018   -0.0000   -0.0000    0.0012   -0.0002   -0.0001
           3    0.0231   -0.0471    0.0020    0.0000    0.0000   -0.0016    0.0000   -0.0001
           4    0.0081    0.0010   -0.0021    0.0000   -0.0000    0.0005    0.0001    0.0003
           5    0.0152   -0.0039   -0.0528   -0.0000    0.0000    0.0005   -0.0008    0.0001
           6    0.0300    0.0015    0.0251    0.0000   -0.0000    0.0003    0.0002    0.0004
           7    0.0022   -0.0021    0.0006   -0.0000    0.0001    0.0242   -0.0409    0.0007
           8   -0.0040   -0.0006    0.0004   -0.0000    0.0000    0.0120   -0.0195    0.0003
           9   -0.0013    0.0026   -0.0000    0.0000    0.0000   -0.0416   -0.0295    0.0000
          10   -0.0891    0.0005    0.0001    0.0001   -0.0003   -0.0001   -0.0001    0.0013
          11   -0.0282   -0.0001   -0.0003   -0.0001   -0.0001    0.0002    0.0002    0.0009
          12   -0.0567   -0.0006    0.0003   -0.0002   -0.0001    0.0001    0.0001    0.0019
          13    0.1108   -0.0010   -0.0000    0.0001    0.0002   -0.0000    0.0000    0.0013
          14   -0.0515    0.0007   -0.0003    0.0001   -0.0001    0.0000   -0.0000   -0.0008
          15   -0.0972    0.0007    0.0001    0.0002   -0.0001    0.0000   -0.0000   -0.0015
          16   -0.0633    0.0001    0.0000   -0.0051   -0.0095   -0.0001   -0.0004   -0.0313
          17    0.0262   -0.0000   -0.0000    0.0005    0.0007   -0.0000    0.0000    0.0007
          18    0.0489   -0.0001    0.0000    0.0008    0.0010   -0.0000    0.0000    0.0006
          19    0.0506   -0.0000    0.0000   -0.0051    0.0098    0.0006   -0.0006   -0.0372
          20    0.0052    0.0002   -0.0000   -0.0004    0.0005    0.0000   -0.0000   -0.0002
          21    0.0114    0.0002   -0.0000   -0.0008    0.0012    0.0000   -0.0000   -0.0014
          22    0.0955   -0.0001   -0.0000    0.0163    0.0163   -0.0000    0.0000   -0.0009
          23    0.0095   -0.0000   -0.0000   -0.0141   -0.0119    0.0000    0.0000    0.0020
          24    0.0209   -0.0000    0.0000   -0.0269   -0.0225    0.0001    0.0000    0.0038
          25   -0.1004    0.0001   -0.0000    0.0157   -0.0162    0.0001   -0.0001   -0.0021
          26    0.0163    0.0000   -0.0000    0.0137   -0.0117    0.0001   -0.0001   -0.0029
          27    0.0289   -0.0001   -0.0000    0.0269   -0.0232    0.0001   -0.0001   -0.0058
          28   -0.0062   -0.3180    0.0174    0.0001    0.0001   -0.0080    0.0002    0.0002
          29   -0.0144   -0.4615    0.0187    0.0001    0.0001   -0.0175    0.0019    0.0001
          30    0.0072    0.5687   -0.0232   -0.0001   -0.0001    0.0171   -0.0031   -0.0003
          31    0.0091    0.0108    0.2065    0.0000    0.0001   -0.0048    0.0032   -0.0021
          32    0.0151    0.0307    0.4292    0.0000    0.0003   -0.0090    0.0055   -0.0048
          33   -0.0084   -0.0002   -0.0011    0.0000   -0.0000    0.0000   -0.0001    0.0004
          34    0.0118   -0.0084   -0.1805   -0.0003    0.0002   -0.0024   -0.0016   -0.0025
          35   -0.0153    0.0153    0.2085    0.0004   -0.0003    0.0037    0.0021    0.0036
          36    0.0067   -0.0227   -0.3031   -0.0005    0.0004   -0.0047   -0.0031   -0.0045
          37   -0.0036    0.0134   -0.0023    0.0000   -0.0000   -0.1773    0.0082   -0.0016
          38    0.0040    0.0134   -0.0020    0.0001   -0.0001   -0.2655    0.0317   -0.0026
          39    0.0021   -0.0208    0.0030   -0.0001    0.0001    0.3131   -0.0662    0.0034
          40    0.0027   -0.0046    0.0001   -0.0000   -0.0000    0.0526    0.0368   -0.0001
          41   -0.0058   -0.0051   -0.0005   -0.0000   -0.0001    0.1311    0.1684   -0.0012
          42    0.0004   -0.0163   -0.0011   -0.0000   -0.0002    0.2360    0.3524   -0.0027
          43    0.0012    0.0154   -0.0094    0.0001   -0.0006   -0.1636    0.4437   -0.0065
          44   -0.0013    0.0047   -0.0005   -0.0000   -0.0000   -0.0100    0.0332   -0.0005
          45    0.0003    0.0035   -0.0017    0.0000   -0.0001   -0.0522    0.0667   -0.0012
          46   -0.0236   -0.0001    0.0001   -0.1964   -0.1698    0.0004    0.0000    0.0209
          47   -0.0229    0.0001   -0.0001    0.1625    0.1362   -0.0003   -0.0001   -0.0192
          48   -0.0450    0.0002   -0.0002    0.3093    0.2593   -0.0006   -0.0001   -0.0366
          49   -0.0810    0.0007   -0.0004    0.0617    0.1160    0.0007    0.0050    0.3517
          50   -0.0084   -0.0000    0.0002   -0.0018   -0.0023   -0.0000   -0.0000   -0.0042
          51   -0.0182   -0.0000   -0.0001   -0.0019   -0.0014    0.0000   -0.0000    0.0006
          52    0.0256    0.0001    0.0002   -0.1900    0.1688   -0.0009    0.0008    0.0328
          53   -0.0194    0.0001    0.0002   -0.1567    0.1348   -0.0008    0.0007    0.0291
          54   -0.0371    0.0002    0.0003   -0.3093    0.2663   -0.0015    0.0013    0.0573
          55    0.0632    0.0007   -0.0003    0.0612   -0.1195   -0.0062    0.0062    0.4179
          56   -0.0028   -0.0003    0.0001    0.0008   -0.0004    0.0000    0.0001   -0.0019
          57   -0.0039    0.0000   -0.0000    0.0030   -0.0037   -0.0001    0.0002    0.0071


   Root No.      49        50        51

                49 A      50 A      51 A   

                3090.3    3100.5    3179.2
  
           1   -0.0000   -0.0011   -0.0003
           2    0.0001   -0.0001    0.0003
           3    0.0002   -0.0004    0.0002
           4    0.0001   -0.0295   -0.0001
           5    0.0001   -0.0096   -0.0002
           6    0.0003   -0.0278   -0.0000
           7   -0.0002    0.0007   -0.0111
           8   -0.0001    0.0002    0.0221
           9    0.0003   -0.0009    0.0001
          10   -0.0005    0.0011    0.0000
          11   -0.0009    0.0005   -0.0000
          12   -0.0017    0.0009   -0.0001
          13    0.0007   -0.0004    0.0000
          14   -0.0010   -0.0002   -0.0000
          15   -0.0020   -0.0005   -0.0000
          16   -0.0330   -0.0008    0.0000
          17    0.0006    0.0001    0.0000
          18    0.0003    0.0002   -0.0000
          19    0.0273   -0.0005    0.0000
          20    0.0000   -0.0001    0.0000
          21    0.0008   -0.0001    0.0000
          22   -0.0053   -0.0002    0.0000
          23    0.0048    0.0000   -0.0000
          24    0.0091    0.0001   -0.0000
          25    0.0050    0.0001   -0.0000
          26    0.0043    0.0000    0.0000
          27    0.0085    0.0000   -0.0000
          28    0.0000   -0.0013    0.0006
          29    0.0001   -0.0010    0.0021
          30    0.0000    0.0006   -0.0016
          31   -0.0007    0.1662    0.0008
          32   -0.0016    0.3889    0.0029
          33    0.0002   -0.0234   -0.0002
          34   -0.0009    0.1952    0.0002
          35    0.0014   -0.2751   -0.0004
          36   -0.0016    0.3536    0.0004
          37    0.0015   -0.0039   -0.1356
          38    0.0022   -0.0052   -0.1776
          39   -0.0026    0.0061    0.2305
          40   -0.0004    0.0011   -0.0498
          41   -0.0009    0.0035   -0.1300
          42   -0.0016    0.0063   -0.2877
          43    0.0015   -0.0063    0.3194
          44    0.0001   -0.0007    0.0396
          45    0.0005   -0.0017    0.0569
          46    0.0575    0.0009   -0.0000
          47   -0.0483   -0.0007    0.0000
          48   -0.0921   -0.0014    0.0001
          49    0.3680    0.0084   -0.0001
          50   -0.0042   -0.0002   -0.0000
          51    0.0009   -0.0001   -0.0000
          52   -0.0525   -0.0003    0.0000
          53   -0.0437   -0.0002    0.0000
          54   -0.0863   -0.0004    0.0000
          55   -0.3036    0.0046   -0.0004
          56    0.0015   -0.0000    0.0000
          57   -0.0049    0.0001    0.0000


           MASS-WEIGHTED COORDINATE ANALYSIS (NORMAL COORDINATES)


   Root No.       1         2         3         4         5         6         7         8

                 1 A       2 A       3 A       4 A       5 A       6 A       7 A       8 A   

                 128.2     149.0     181.5     286.5     362.7     398.2     478.9     505.0
  
           1    0.0528   -0.0335    0.1386    0.0610   -0.0308   -0.0306   -0.2075    0.0972
           2    0.0226   -0.0151   -0.0059   -0.0991   -0.2131   -0.2636   -0.2189   -0.1421
           3   -0.0549   -0.0100    0.0818    0.0396    0.1540    0.1075   -0.2191    0.0684
           4    0.0533   -0.0372    0.1465    0.0752   -0.0526   -0.0484   -0.2396    0.0847
           5    0.2107    0.0194    0.1964   -0.2420    0.1637    0.1081    0.2569   -0.0015
           6   -0.1712   -0.0144   -0.0689    0.2157   -0.1184   -0.0198    0.1762   -0.1312
           7   -0.2422    0.0011   -0.2655   -0.1566    0.2654    0.2254    0.1499    0.1229
           8   -0.1286   -0.0008   -0.1974   -0.2081   -0.0887   -0.1678   -0.0787   -0.1985
           9    0.4351    0.0694   -0.3076   -0.2695   -0.0339   -0.1251   -0.0082   -0.0953
          10    0.0397   -0.0245    0.1024    0.1517   -0.1591   -0.0538    0.3150   -0.1618
          11    0.2241    0.0036   -0.1923    0.2113   -0.2935    0.0881   -0.0254    0.2698
          12   -0.1598   -0.0245    0.1950   -0.0554    0.1517   -0.0575   -0.1439   -0.1506
          13    0.0387   -0.0225    0.1007    0.1471   -0.1532   -0.0490    0.3221   -0.1586
          14    0.1003   -0.0112   -0.2229    0.2312   -0.0707    0.5045   -0.0257   -0.0358
          15   -0.1133    0.0064    0.1397   -0.0668    0.0493   -0.2095    0.1695   -0.0049
          16    0.0262    0.0091    0.0081    0.0257   -0.0397   -0.0220    0.0592    0.0210
          17   -0.2377   -0.0407   -0.2478    0.2043    0.3120   -0.1220   -0.0636   -0.1150
          18    0.0545    0.0462    0.0843   -0.1465   -0.0492    0.1591   -0.0353    0.2291
          19    0.0353    0.0111    0.0047    0.0048   -0.0519   -0.0649    0.0456   -0.1652
          20    0.2470    0.0347    0.1680    0.3320    0.2598   -0.1840    0.0706    0.1647
          21   -0.1698   -0.0666    0.0886    0.0061   -0.2163    0.0906    0.0387   -0.0968
          22    0.0185    0.0415   -0.0858   -0.1105    0.0511   -0.0144   -0.1874    0.0447
          23   -0.3326   -0.0258    0.0651   -0.1686   -0.2035   -0.0975    0.1045    0.3734
          24    0.1087    0.0175   -0.0148    0.1243    0.1627    0.1441   -0.0092   -0.0072
          25    0.0221    0.0429   -0.0827   -0.1110    0.0550   -0.0101   -0.1879    0.0295
          26   -0.0334    0.0281    0.3527   -0.0948   -0.0121    0.2747   -0.0991   -0.2384
          27   -0.0320   -0.0426   -0.0652    0.1645   -0.0124   -0.1100    0.0151    0.2396
          28    0.0738    0.0004    0.0996   -0.0174    0.0291   -0.0045   -0.1317    0.0653
          29   -0.0777   -0.0083    0.0253   -0.0422   -0.0265   -0.0823   -0.1195   -0.0803
          30   -0.0499   -0.0005    0.0786   -0.0197    0.0899    0.0225   -0.1499    0.0051
          31   -0.0248   -0.0230   -0.0011    0.0601   -0.1041   -0.0899   -0.2113   -0.0191
          32    0.0793    0.0111    0.0754   -0.0880    0.0902    0.0690    0.1435    0.0215
          33   -0.0917   -0.0134   -0.1437    0.2200   -0.1419    0.0956   -0.0075   -0.1382
          34    0.0583   -0.0047    0.0916   -0.0369    0.0973    0.0605   -0.0543    0.1177
          35    0.1048    0.0184    0.1644   -0.2045    0.1550   -0.0257    0.2261    0.0730
          36   -0.0432    0.0014    0.0283    0.0011   -0.0237   -0.0897    0.1467   -0.0415
          37   -0.1016   -0.3830   -0.1233   -0.0952    0.1673    0.1441    0.1078    0.0575
          38    0.0800   -0.1747   -0.0810   -0.1084   -0.0809   -0.1225   -0.0250   -0.1075
          39    0.2088   -0.3388   -0.1350   -0.1464   -0.0093   -0.0585    0.0295   -0.0602
          40   -0.1195    0.5043   -0.1491   -0.0695    0.0818    0.0707    0.1388    0.0074
          41   -0.1395    0.2048    0.0370    0.0386   -0.0119   -0.0075   -0.1048    0.0007
          42    0.1860   -0.1571   -0.1282   -0.1274   -0.0176   -0.0592    0.0276   -0.0559
          43   -0.0628   -0.0962   -0.0661   -0.0431    0.0806    0.0691    0.0318    0.0428
          44   -0.0881   -0.0232   -0.1790   -0.1499    0.0630    0.0206    0.1270   -0.0773
          45    0.1017    0.5871   -0.1097   -0.0643   -0.0559   -0.0766    0.0224   -0.0610
          46    0.0019    0.0185   -0.0445   -0.0563    0.0325    0.0016   -0.0748    0.0231
          47   -0.1841   -0.0142    0.0408   -0.1600   -0.1701   -0.1151    0.0799    0.2837
          48    0.0754    0.0128   -0.0284    0.0785    0.1172    0.0912   -0.0429   -0.0871
          49    0.0069    0.0025    0.0018    0.0077   -0.0094   -0.0087    0.0170    0.0039
          50   -0.1285   -0.0198   -0.1137    0.0808    0.2709   -0.1964   -0.0688   -0.1421
          51    0.0444    0.0280    0.0148   -0.0994   -0.0660    0.1397   -0.1022    0.1770
          52    0.0041    0.0191   -0.0423   -0.0530    0.0368    0.0119   -0.0753    0.0437
          53   -0.0161    0.0166    0.2109   -0.1104   -0.0172    0.1956   -0.0733   -0.2858
          54   -0.0046   -0.0208   -0.0623    0.1029   -0.0099   -0.0998    0.0409    0.1573
          55    0.0108    0.0036    0.0016    0.0016   -0.0123   -0.0208    0.0125   -0.0469
          56    0.1195    0.0159    0.1101    0.1703    0.2318   -0.2209    0.0894    0.0498
          57   -0.0718   -0.0345    0.0272    0.0137   -0.1848    0.1059    0.0914   -0.0719


   Root No.       9        10        11        12        13        14        15        16

                 9 A      10 A      11 A      12 A      13 A      14 A      15 A      16 A   

                 570.5     638.3     698.9     773.0     830.3     843.2     879.1     931.9
  
           1   -0.0229   -0.2782   -0.0178    0.0072   -0.2671   -0.2722   -0.0336    0.0261
           2   -0.0067   -0.0934   -0.0471   -0.0136   -0.1018   -0.0964   -0.0106   -0.0575
           3   -0.3429    0.1891    0.0926   -0.0062    0.2434   -0.2858    0.0054   -0.0389
           4   -0.0129   -0.2413   -0.0085   -0.0063    0.1770    0.4219   -0.0135    0.1672
           5   -0.1404   -0.0692   -0.0928    0.0412   -0.2208   -0.0250    0.1478   -0.2395
           6   -0.2488   -0.1676    0.0466    0.0061   -0.1915   -0.1118   -0.0992    0.2576
           7   -0.0108   -0.0723    0.0276    0.0330   -0.2060   -0.1231   -0.0225    0.0083
           8   -0.0210    0.0885   -0.0620   -0.0613    0.2035   -0.0882   -0.0343    0.1816
           9   -0.0136    0.0181   -0.0167   -0.0094    0.0896   -0.1377   -0.0061   -0.0944
          10   -0.0111    0.0061   -0.0342   -0.0218    0.1094    0.0053    0.0046   -0.0122
          11   -0.1028    0.0353    0.5199    0.2012    0.0418    0.0139   -0.0714   -0.1774
          12   -0.1308    0.2294   -0.1684   -0.0647   -0.0154    0.1308    0.0486    0.0138
          13    0.0478    0.0171   -0.0624   -0.0358    0.0997   -0.0878    0.0093    0.0168
          14   -0.1544   -0.0166   -0.3498    0.0291    0.0122    0.0665   -0.0012    0.1676
          15   -0.1137   -0.2820    0.1603   -0.0084   -0.0361    0.1252   -0.0008   -0.0439
          16    0.3894    0.1567   -0.0660   -0.0639    0.2137   -0.3410    0.0091   -0.0385
          17    0.1108   -0.1787    0.1173   -0.1091    0.0265    0.0665   -0.2746    0.0084
          18    0.0571   -0.2270   -0.1046    0.0442    0.0681    0.0932    0.1470   -0.0463
          19   -0.3668    0.0892    0.0433    0.0084    0.1707    0.1844    0.0313   -0.1683
          20   -0.0138    0.1870   -0.0449   -0.0826   -0.0338    0.0493    0.2335    0.1396
          21    0.1488    0.2253    0.0941    0.0836   -0.0819    0.1413   -0.1144   -0.1222
          22    0.0132    0.1960    0.0565    0.0325   -0.1744    0.0356   -0.0146    0.0544
          23    0.0745   -0.0863   -0.1382   -0.2455    0.1044   -0.0143   -0.0921   -0.1836
          24    0.3518   -0.2921   -0.0495    0.0529    0.2898   -0.0840    0.0655    0.0088
          25   -0.0164    0.1879    0.0651    0.0376   -0.1794    0.0797   -0.0072    0.0428
          26    0.2460    0.1065    0.1669   -0.1619   -0.1510    0.0509    0.1609    0.0469
          27    0.2831    0.3317   -0.0114    0.1413   -0.2269    0.0825   -0.1016    0.0661
          28   -0.0197   -0.1041   -0.0394   -0.0060   -0.0764   -0.1068    0.0621   -0.1688
          29   -0.0209    0.0051   -0.0888   -0.0573   -0.0267   -0.0943    0.0218    0.0768
          30   -0.1184    0.0649   -0.0562   -0.0499    0.0622   -0.1565    0.0622   -0.0375
          31    0.0399   -0.1426   -0.0741   -0.0043   -0.0384    0.1805    0.0767   -0.3155
          32   -0.0624    0.0132    0.0088    0.0131   -0.0235   -0.0403    0.0019    0.1094
          33   -0.0797   -0.0471   -0.2643    0.0504   -0.1913   -0.0644    0.1933   -0.0883
          34   -0.0508   -0.0150    0.0827   -0.0033    0.2474    0.1166   -0.0883    0.4061
          35   -0.0565   -0.0153    0.2127   -0.0247   -0.0132   -0.0561   -0.1641    0.1948
          36   -0.0561   -0.0810    0.1281   -0.0230   -0.1405   -0.0690   -0.1212    0.0454
          37   -0.0369    0.0646    0.0349    0.0214    0.0885    0.0562    0.0432   -0.1957
          38    0.0727   -0.0526   -0.0836   -0.0417   -0.1098    0.0297   -0.0289    0.2727
          39    0.0463   -0.0164   -0.0484   -0.0175   -0.0415    0.0584    0.0090    0.0567
          40    0.0488    0.0043   -0.0229    0.0045   -0.0565    0.1844    0.0411   -0.0313
          41   -0.1110    0.0655    0.0566    0.0021    0.2045   -0.2558   -0.0362   -0.0744
          42    0.0440   -0.0189   -0.0418   -0.0136   -0.0501    0.0509    0.0061    0.0465
          43   -0.0133   -0.0224    0.0153    0.0123   -0.0590   -0.0680   -0.0112   -0.0074
          44    0.0180    0.1323   -0.0328   -0.0230    0.2307    0.2670    0.0728   -0.0935
          45    0.0466   -0.0218   -0.0433   -0.0152   -0.0428    0.0564    0.0044    0.0584
          46   -0.0632   -0.0386    0.0080    0.0166   -0.0188    0.0717    0.0011   -0.0010
          47   -0.0386   -0.0231   -0.2024    0.4715    0.1205   -0.0354    0.2086    0.2124
          48    0.0911   -0.1473    0.0657   -0.2649    0.0583    0.0335   -0.1011   -0.1491
          49    0.1126    0.0453   -0.0172   -0.0140    0.0628   -0.1011    0.0094   -0.0117
          50    0.1086   -0.1152    0.1934    0.3403    0.0007    0.0251    0.4387   -0.0388
          51   -0.0197   -0.0094   -0.0822   -0.1560   -0.0649    0.1309   -0.2347    0.0069
          52    0.0545   -0.0304   -0.0090   -0.0016   -0.0038   -0.0532   -0.0093    0.0448
          53    0.1313    0.0018    0.0469    0.4972    0.0092    0.0154   -0.3231   -0.0347
          54    0.0154    0.1639    0.0149   -0.2263   -0.1237    0.0737    0.1623    0.0234
          55   -0.1054    0.0274    0.0085    0.0059    0.0488    0.0551    0.0030   -0.0526
          56   -0.0137    0.0809   -0.3502    0.2124    0.0185    0.0647   -0.3918   -0.2312
          57    0.0620    0.0274    0.1785   -0.1105    0.0538    0.0467    0.2117    0.0361


   Root No.      17        18        19        20        21        22        23        24

                17 A      18 A      19 A      20 A      21 A      22 A      23 A      24 A   

                 937.5     950.7     993.9    1007.3    1023.1    1057.3    1093.4    1100.2
  
           1    0.0544    0.0159    0.0022   -0.0403    0.0372    0.1995   -0.1164   -0.2576
           2    0.0462   -0.0188   -0.0304   -0.0234   -0.0020    0.0238   -0.0240   -0.1069
           3   -0.0556   -0.0218    0.0357   -0.1417    0.0498   -0.0444    0.1610    0.1865
           4   -0.3263   -0.0107    0.0052    0.0296   -0.0338   -0.1293    0.1942    0.0985
           5   -0.1723   -0.0841    0.0822    0.1097    0.1332   -0.1315    0.2074    0.1373
           6   -0.2543   -0.0046   -0.0223   -0.1361   -0.0493    0.0629    0.1243   -0.0553
           7    0.2083    0.0807   -0.0138    0.1189   -0.0426   -0.1588    0.0653    0.1137
           8   -0.0772    0.0792    0.0199    0.1222   -0.0180    0.0343   -0.0243   -0.0029
[...]
 REDUCED MASS        0.4334         C  1 -- C  2          +6.7% ( 28.6%)     43.7%
 EFFECTIVE MASS      2.8023
 FORCE CONSTANT      0.4916

 VIBRATION         34   34A           ATOM PAIR      ENERGY CONTRIBUTION    RADIAL
 FREQUENCY          1396.74         C  3 -- H 14         +45.2% ( 59.8%)      1.2%
 TRANSITION DIPOLE   0.0616         C  3 -- H 15         +35.9% ( 53.3%)      3.5%
 TRAVEL (Ang.)       0.3360         C  3 -- H 13          +8.8% ( 26.4%)     57.8%
 REDUCED MASS        0.4276         C  1 -- C  3          +6.5% ( 22.6%)     21.9%
 EFFECTIVE MASS      1.7250
 FORCE CONSTANT      0.4915

 VIBRATION         35   35A           ATOM PAIR      ENERGY CONTRIBUTION    RADIAL
 FREQUENCY          1406.79         C  3 -- H 13         +51.3% ( 62.3%)      0.0%
 TRANSITION DIPOLE   0.0563         C  3 -- H 15         +24.9% ( 43.4%)      6.0%
 TRAVEL (Ang.)       0.3426         C  3 -- H 14         +16.9% ( 35.8%)     18.5%
 REDUCED MASS        0.4084         C  1 -- C  3          +5.3% ( 20.1%)      8.9%
 EFFECTIVE MASS      1.5974
 FORCE CONSTANT      0.4762

 VIBRATION         36   36A           ATOM PAIR      ENERGY CONTRIBUTION    RADIAL
 FREQUENCY          1423.06         C  1 -- C  3         +19.7% ( 65.0%)     99.1%
 TRANSITION DIPOLE   0.0933         C  3 -- H 13         +14.7% ( 56.1%)      4.0%
 TRAVEL (Ang.)       0.1815         C  3 -- H 15         +12.7% ( 52.1%)      3.8%
 REDUCED MASS        1.4379         C  3 -- H 14         +12.0% ( 50.6%)      3.8%
 EFFECTIVE MASS      6.9131
 FORCE CONSTANT      1.7156

 VIBRATION         37   37A           ATOM PAIR      ENERGY CONTRIBUTION    RADIAL
 FREQUENCY          1489.77         C  8 -- C  9         +20.0% ( 72.2%)    100.0%
 TRANSITION DIPOLE   0.6209         C  4 -- C  5         +11.1% ( 53.9%)    100.0%
 TRAVEL (Ang.)       0.1674         C  7 -- C  9          +7.5% ( 44.3%)      0.7%
 REDUCED MASS        1.6160         C  6 -- C  8          +7.5% ( 44.2%)      0.6%
 EFFECTIVE MASS     10.5393
 FORCE CONSTANT      2.1132

 VIBRATION         38   38A           ATOM PAIR      ENERGY CONTRIBUTION    RADIAL
 FREQUENCY          1544.78         C  4 -- C  5         +12.5% ( 58.2%)     99.8%
 TRANSITION DIPOLE   0.1181         C  4 -- C  7         +11.4% ( 55.4%)     39.0%
 TRAVEL (Ang.)       0.1508         C  5 -- C  6         +11.0% ( 54.6%)     34.4%
 REDUCED MASS        1.9196         C  1 -- C  4          +8.8% ( 48.8%)     72.8%
 EFFECTIVE MASS     11.6996
 FORCE CONSTANT      2.6989

 VIBRATION         39   39A           ATOM PAIR      ENERGY CONTRIBUTION    RADIAL
 FREQUENCY          1570.19         C  7 -- C  9         +17.3% ( 62.9%)     98.1%
 TRANSITION DIPOLE   0.4677         C  6 -- C  8         +15.8% ( 60.2%)     98.1%
 TRAVEL (Ang.)       0.1444         C  8 -- C  9         +15.0% ( 58.6%)      0.1%
 REDUCED MASS        2.0607         C  9 -- H 18          +8.4% ( 43.9%)      6.0%
 EFFECTIVE MASS     11.3339
 FORCE CONSTANT      2.9934

 VIBRATION         40   40A           ATOM PAIR      ENERGY CONTRIBUTION    RADIAL
 FREQUENCY          1845.81         C  4 -- C  7         +21.5% ( 71.9%)     98.2%
 TRANSITION DIPOLE   0.3208         C  4 -- C  5         +14.6% ( 59.2%)      2.6%
 TRAVEL (Ang.)       0.1132         C  5 -- C  6         +12.5% ( 54.8%)     90.9%
 REDUCED MASS        2.8513         C  1 -- C  4         +10.0% ( 48.9%)     74.7%
 EFFECTIVE MASS     11.9309
 FORCE CONSTANT      5.7236

 VIBRATION         41   41A           ATOM PAIR      ENERGY CONTRIBUTION    RADIAL
 FREQUENCY          1854.51         C  5 -- C  6         +16.5% ( 62.3%)     94.2%
 TRANSITION DIPOLE   0.3407         C  4 -- C  5         +15.5% ( 60.5%)     94.6%
 TRAVEL (Ang.)       0.1221         C  2 -- C  5         +10.5% ( 49.6%)     61.2%
 REDUCED MASS        2.4401         C  1 -- C  5         +10.2% ( 49.0%)     99.6%
 EFFECTIVE MASS     11.9050
 FORCE CONSTANT      4.9444

 VIBRATION         42   42A           ATOM PAIR      ENERGY CONTRIBUTION    RADIAL
 FREQUENCY          2960.08         C  1 -- H 10         +95.3% ( 99.7%)    100.0%
 TRANSITION DIPOLE   0.1013         C  1 -- C  2          +1.0% ( 10.4%)     13.2%
 TRAVEL (Ang.)       0.1573         C  1 -- C  3          +1.0% ( 10.4%)     10.9%
 REDUCED MASS        0.9202         C  1 -- C  5          +1.0% ( 10.4%)     31.4%
 EFFECTIVE MASS      1.4433
 FORCE CONSTANT      4.7506

 VIBRATION         43   43A           ATOM PAIR      ENERGY CONTRIBUTION    RADIAL
 FREQUENCY          3047.07         C  2 -- H 11         +54.8% ( 77.0%)     97.7%
 TRANSITION DIPOLE   0.0881         C  2 -- H 12         +41.6% ( 67.1%)     96.1%
 TRAVEL (Ang.)       0.2053         C  2 -- C  4          +1.1% ( 10.9%)      0.2%
 REDUCED MASS        0.5251         C  2 -- C  5          +1.1% ( 10.9%)      0.1%
 EFFECTIVE MASS      1.5422
 FORCE CONSTANT      2.8724

 VIBRATION         44   44A           ATOM PAIR      ENERGY CONTRIBUTION    RADIAL
 FREQUENCY          3052.75         C  8 -- H 16         +48.1% ( 70.5%)    100.0%
 TRANSITION DIPOLE   0.1694         C  9 -- H 18         +46.8% ( 69.6%)    100.0%
 TRAVEL (Ang.)       0.2230         C  8 -- C  9          +1.3% ( 11.5%)      0.0%
 REDUCED MASS        0.4440         C  6 -- H 17          +1.2% ( 10.9%)     99.6%
 EFFECTIVE MASS      1.4926
 FORCE CONSTANT      2.4378

 VIBRATION         45   45A           ATOM PAIR      ENERGY CONTRIBUTION    RADIAL
 FREQUENCY          3065.72         C  9 -- H 18         +43.8% ( 67.2%)    100.0%
 TRANSITION DIPOLE   0.3840         C  8 -- H 16         +42.7% ( 66.3%)    100.0%
 TRAVEL (Ang.)       0.2414         C  7 -- H 19          +5.3% ( 23.5%)     99.9%
 REDUCED MASS        0.3776         C  6 -- H 17          +5.0% ( 22.8%)     99.9%
 EFFECTIVE MASS      1.5304
 FORCE CONSTANT      2.0909

 VIBRATION         46   46A           ATOM PAIR      ENERGY CONTRIBUTION    RADIAL
 FREQUENCY          3081.12         C  3 -- H 13         +63.9% ( 82.5%)     98.8%
 TRANSITION DIPOLE   0.0419         C  3 -- H 14         +24.7% ( 51.3%)     90.2%
 TRAVEL (Ang.)       0.2074         C  3 -- H 15         +10.1% ( 32.8%)     73.8%
 REDUCED MASS        0.5090         C  1 -- C  3          +1.0% ( 10.3%)      0.0%
 EFFECTIVE MASS      1.5058
 FORCE CONSTANT      2.8469

 VIBRATION         47   47A           ATOM PAIR      ENERGY CONTRIBUTION    RADIAL
 FREQUENCY          3084.34         C  3 -- H 15         +54.9% ( 76.5%)     97.9%
 TRANSITION DIPOLE   0.0436         C  3 -- H 14         +41.8% ( 66.7%)     95.7%
 TRAVEL (Ang.)       0.2077         C  3 -- H 13          +2.2% ( 15.3%)     25.3%
 REDUCED MASS        0.5067         C  1 -- C  3          +1.0% ( 10.4%)      0.0%
 EFFECTIVE MASS      1.5075
 FORCE CONSTANT      2.8399

 VIBRATION         48   48A           ATOM PAIR      ENERGY CONTRIBUTION    RADIAL
 FREQUENCY          3087.70         C  7 -- H 19         +55.2% ( 75.5%)    100.0%
 TRANSITION DIPOLE   0.5234         C  6 -- H 17         +39.1% ( 63.6%)    100.0%
 TRAVEL (Ang.)       0.2189         C  9 -- H 18          +1.6% ( 13.0%)     99.4%
 REDUCED MASS        0.4557         C  7 -- C  9          +1.0% ( 10.0%)     42.4%
 EFFECTIVE MASS      1.5447
 FORCE CONSTANT      2.5596

 VIBRATION         49   49A           ATOM PAIR      ENERGY CONTRIBUTION    RADIAL
 FREQUENCY          3090.28         C  6 -- H 17         +51.5% ( 72.9%)    100.0%
 TRANSITION DIPOLE   0.1765         C  7 -- H 19         +35.1% ( 60.1%)    100.0%
 TRAVEL (Ang.)       0.2361         C  8 -- H 16          +5.4% ( 23.5%)    100.0%
 REDUCED MASS        0.3914         C  9 -- H 18          +4.6% ( 21.8%)    100.0%
 EFFECTIVE MASS      1.5669
 FORCE CONSTANT      2.2025

 VIBRATION         50   50A           ATOM PAIR      ENERGY CONTRIBUTION    RADIAL
 FREQUENCY          3100.53         C  2 -- H 12         +56.2% ( 74.5%)     97.8%
 TRANSITION DIPOLE   0.1246         C  2 -- H 11         +41.6% ( 64.1%)     95.7%
 TRAVEL (Ang.)       0.2101         C  2 -- C  4          +0.7% (  8.4%)     99.1%
 REDUCED MASS        0.4927         C  1 -- C  2          +0.7% (  8.3%)     48.9%
 EFFECTIVE MASS      1.2839
 FORCE CONSTANT      2.7905

 VIBRATION         51   51A           ATOM PAIR      ENERGY CONTRIBUTION    RADIAL
 FREQUENCY          3179.22         C  3 -- H 15         +34.2% ( 56.3%)     97.3%
 TRANSITION DIPOLE   0.0471         C  3 -- H 13         +32.9% ( 55.2%)     97.0%
 TRAVEL (Ang.)       0.2546         C  3 -- H 14         +32.6% ( 55.0%)     97.0%
 REDUCED MASS        0.3272         C  1 -- C  3          +0.3% (  5.2%)    100.0%
 EFFECTIVE MASS      1.1365
 FORCE CONSTANT      1.9482

      SYMMETRY NUMBER FOR POINT-GROUP C1  =  1


          SYSTEM IS A GROUND STATE



 InChI=1S/C9H10/c1-7-6-8-4-2-3-5-9(7)8/h2-5,7H,6H2,1H3


          MOLECULE IS NOT LINEAR

          THERE ARE 51 GENUINE VIBRATIONS IN THIS SYSTEM
          THIS THERMODYNAMICS CALCULATION IS LIMITED TO
          MOLECULES WHICH HAVE NO INTERNAL ROTATIONS




                    CALCULATED THERMODYNAMIC PROPERTIES
                                          *
   TEMP. (K)   PARTITION FUNCTION   H.O.F.    ENTHALPY  HEAT CAPACITY ENTROPY
                                   KCAL/MOL   CAL/MOLE    CAL/K/MOL  CAL/K/MOL


 298.00  VIB.     0.2307D+02                  2943.0972    23.8926    16.1134
         ROT.     0.3803D+06                   888.2803     2.9808    28.5138
         INT.     0.8775D+07                  3831.3775    26.8735    44.6272
         TRA.     0.1242D+28                  1480.4672     4.9680    40.2136
         TOT.                       41.551    5311.8446    31.8415    84.8409

 200.00  VIB.     0.5082D+01                  1121.2936    13.5694     8.8370
         ROT.     0.2091D+06                   596.1613     2.9808    27.3251
         INT.     0.1063D+07                  1717.4549    16.5502    36.1621
         TRA.     0.6829D+27                   993.6021     4.9680    38.2325
         TOT.                       38.950    2711.0571    21.5182    74.3946

 210.00  VIB.     0.5860D+01                  1261.7659    14.5297     9.5221
         ROT.     0.2250D+06                   625.9693     2.9808    27.4706
         INT.     0.1318D+07                  1887.7353    17.5105    36.9927
         TRA.     0.7347D+27                  1043.2822     4.9680    38.4749
         TOT.                       39.170    2931.0175    22.4785    75.4676

 220.00  VIB.     0.6777D+01                  1411.9798    15.5175    10.2208
         ROT.     0.2412D+06                   655.7774     2.9808    27.6092
         INT.     0.1635D+07                  2067.7572    18.4983    37.8300
         TRA.     0.7878D+27                  1092.9623     4.9680    38.7060
         TOT.                       39.400    3160.7196    23.4663    76.5360

 230.00  VIB.     0.7860D+01                  1572.2012    16.5309    10.9328
         ROT.     0.2579D+06                   685.5855     2.9808    27.7417
         INT.     0.2027D+07                  2257.7866    19.5117    38.6745
         TRA.     0.8422D+27                  1142.6424     4.9680    38.9268
         TOT.                       39.639    3400.4291    24.4797    77.6014

 240.00  VIB.     0.9140D+01                  1742.6753    17.5676    11.6582
         ROT.     0.2749D+06                   715.3935     2.9808    27.8686
         INT.     0.2512D+07                  2458.0688    20.5484    39.5268
         TRA.     0.8977D+27                  1192.3226     4.9680    39.1383
         TOT.                       39.889    3650.3913    25.5164    78.6650

 250.00  VIB.     0.1066D+02                  1923.6223    18.6250    12.3967
         ROT.     0.2922D+06                   745.2016     2.9808    27.9903
         INT.     0.3114D+07                  2668.8239    21.6058    40.3870
         TRA.     0.9544D+27                  1242.0027     4.9680    39.3411
         TOT.                       40.150    3910.8266    26.5738    79.7281

 260.00  VIB.     0.1246D+02                  2115.2344    19.7001    13.1481
         ROT.     0.3099D+06                   775.0097     2.9808    28.1072
         INT.     0.3861D+07                  2890.2441    22.6809    41.2553
         TRA.     0.1012D+28                  1291.6828     4.9680    39.5359
         TOT.                       40.421    4181.9268    27.6489    80.7912

 270.00  VIB.     0.1460D+02                  2317.6735    20.7899    13.9119
         ROT.     0.3280D+06                   804.8177     2.9808    28.2197
         INT.     0.4789D+07                  3122.4913    23.7707    42.1316
         TRA.     0.1071D+28                  1341.3629     4.9680    39.7234
         TOT.                       40.703    4463.8541    28.7387    81.8551

 280.00  VIB.     0.1716D+02                  2531.0705    21.8912    14.6879
         ROT.     0.3464D+06                   834.6258     2.9808    28.3281
         INT.     0.5942D+07                  3365.6963    24.8720    43.0160
         TRA.     0.1131D+28                  1391.0430     4.9680    39.9041
         TOT.                       40.996    4756.7393    29.8400    82.9201

 290.00  VIB.     0.2021D+02                  2755.5249    23.0009    15.4754
         ROT.     0.3651D+06                   864.4339     2.9808    28.4327
         INT.     0.7377D+07                  3619.9588    25.9817    43.9081
         TRA.     0.1192D+28                  1440.7231     4.9680    40.0784
         TOT.                       41.300    5060.6819    30.9497    83.9866

 300.00  VIB.     0.2386D+02                  2991.1057    24.1160    16.2740
         ROT.     0.3841D+06                   894.2419     2.9808    28.5337
         INT.     0.9164D+07                  3885.3477    27.0968    44.8077
         TRA.     0.1255D+28                  1490.4032     4.9680    40.2469
         TOT.                       41.615    5375.7509    32.0648    85.0546

 310.00  VIB.     0.2823D+02                  3237.8523    25.2336    17.0830
         ROT.     0.4035D+06                   924.0500     2.9808    28.6315
         INT.     0.1139D+08                  4161.9023    28.2144    45.7144
         TRA.     0.1318D+28                  1540.0833     4.9680    40.4098
         TOT.                       41.941    5701.9856    33.1824    86.1242

 320.00  VIB.     0.3349D+02                  3495.7761    26.3509    17.9017
         ROT.     0.4232D+06                   953.8580     2.9808    28.7261
         INT.     0.1417D+08                  4449.6341    29.3318    46.6279
         TRA.     0.1382D+28                  1589.7634     4.9680    40.5675
         TOT.                       42.278    6039.3975    34.2998    87.1954

 330.00  VIB.     0.3981D+02                  3764.8622    27.4656    18.7297
         ROT.     0.4432D+06                   983.6661     2.9808    28.8179
         INT.     0.1764D+08                  4748.5283    30.4464    47.5475
         TRA.     0.1447D+28                  1639.4435     4.9680    40.7204
         TOT.                       42.627    6387.9718    35.4144    88.2679

 340.00  VIB.     0.4742D+02                  4045.0718    28.5753    19.5661
         ROT.     0.4635D+06                  1013.4742     2.9808    28.9068
         INT.     0.2198D+08                  5058.5460    31.5561    48.4729
         TRA.     0.1514D+28                  1689.1236     4.9680    40.8687
         TOT.                       42.986    6747.6696    36.5241    89.3416

 350.00  VIB.     0.5661D+02                  4336.3441    29.6778    20.4103
         ROT.     0.4841D+06                  1043.2822     2.9808    28.9932
         INT.     0.2740D+08                  5379.6264    32.6586    49.4036
         TRA.     0.1581D+28                  1738.8037     4.9680    41.0127
         TOT.                       43.357    7118.4301    37.6267    90.4163

 360.00  VIB.     0.6772D+02                  4638.5987    30.7714    21.2617
         ROT.     0.5050D+06                  1073.0903     2.9808    29.0772
         INT.     0.3419D+08                  5711.6890    33.7522    50.3390
         TRA.     0.1649D+28                  1788.4838     4.9680    41.1526
         TOT.                       43.739    7500.1728    38.7203    91.4916

 370.00  VIB.     0.8116D+02                  4951.7375    31.8544    22.1196
         ROT.     0.5261D+06                  1102.8984     2.9808    29.1589
         INT.     0.4270D+08                  6054.6359    34.8352    51.2785
         TRA.     0.1718D+28                  1838.1639     4.9680    41.2888
         TOT.                       44.132    7892.7998    39.8032    92.5673

 380.00  VIB.     0.9745D+02                  5275.6472    32.9254    22.9834
         ROT.     0.5476D+06                  1132.7064     2.9808    29.2384
         INT.     0.5337D+08                  6408.3536    35.9062    52.2218
         TRA.     0.1788D+28                  1887.8440     4.9680    41.4213
         TOT.                       44.535    8296.1976    40.8742    93.6430

 390.00  VIB.     0.1172D+03                  5610.2011    33.9831    23.8524
         ROT.     0.5694D+06                  1162.5145     2.9808    29.3158
         INT.     0.6674D+08                  6772.7156    36.9639    53.1682
         TRA.     0.1860D+28                  1937.5242     4.9680    41.5503
         TOT.                       44.949    8710.2398    41.9319    94.7185

 400.00  VIB.     0.1413D+03                  5955.2614    35.0265    24.7259
         ROT.     0.5914D+06                  1192.3226     2.9808    29.3913
         INT.     0.8354D+08                  7147.5839    38.0073    54.1172
         TRA.     0.1932D+28                  1987.2043     4.9680    41.6761
         TOT.                       45.374    9134.7882    42.9753    95.7933

   *: NOTE: HEATS OF FORMATION ARE RELATIVE TO THE
            ELEMENTS IN THEIR STANDARD STATE AT 298K
              (=  Standard Enthalpy of Formation).

            Hvib:  Zero-point energy is not included.
                   frequencies of less than zero cm-1 are not included.
            Hrot = (3/2)RT
            Htra = (3/2)RT + pV = (5/2)RT

            Heat capacity is Cp, not Cv

          For more information, see: HTTP://OpenMOPAC.net/Manual/thermochemistry.html


           FORCE CONSTANT IN CARTESIAN COORDINATES (Millidynes/A)

    ATOM   CHEMICAL       X               Y               Z
   NUMBER   SYMBOL  FORCE CONSTANT  FORCE CONSTANT  FORCE CONSTANT

      1       C        7.128995        8.711294        8.413976
      2       C        6.901670        8.460212        8.496144
      3       C        8.381378        8.470346        8.316156
      4       C       11.336377        4.887350       11.455514
      5       C       11.358942        4.921787       11.516801
      6       C       12.615149        4.287739        9.693338
      7       C       12.599115        4.264330        9.737091
      8       C       12.110188        4.305970        9.646113
      9       C       12.101420        4.292693        9.658498
     10       H        1.356660        2.094553        2.766086
     11       H        1.471711        4.424051        0.650948
     12       H        1.475481        1.996807        3.094450
     13       H        1.443809        2.280524        3.038418
     14       H        0.746987        1.588852        4.402623
     15       H        5.213770        0.734091        0.798657
     16       H        1.834087        1.150899        3.270158
     17       H        5.231282        0.432725        0.643917
     18       H        1.794973        1.118994        3.343028
     19       H        5.228783        0.430863        0.645098

 **********************
 *                    *
 * JOB ENDED NORMALLY *
 *                    *
 **********************



 TOTAL JOB TIME:             1.98 SECONDS

 == MOPAC DONE ==
