 *******************************************************************************
 **                                                                           **
 **                              MOPAC v23.1.2                                **
 **                                                                           **
 *******************************************************************************
 **          Digital Object Identifier (DOI): 10.5281/zenodo.6511958          **
 **    Visit the DOI location for information on how to cite this program.    **
 *******************************************************************************

                              PM3 CALCULATION RESULTS

 *******************************************************************************
 *  CALCULATION DONE: (MAX THREADS = 1)              Tue Jun  3 16:42:37 2025  *
 *  PM3        - The PM3 Hamiltonian to be used
 *  PRECISE    - TIGHTER CRITERIA TO BE USED
 *  NOSYM      - POINT-GROUP SYMMETRY SET TO C1
 *  THREADS=1  - MULTI-THREADING NOT USED
 *  T=         - A TIME OF 172800.0 SECONDS REQUESTED
 *  DUMP=N     - RESTART FILE WRITTEN EVERY 7200.0 SECONDS REQUESTED
 *******************************************************************************
pm3  precise nosym THREADS=1
 InChI=1S/C12H20/c1-4-7-11(6-3)12-8-10(5-2)9-12/h4,7-8,11-12H,5-6,9H2,1-3H3

   ATOM   CHEMICAL          X               Y               Z
  NUMBER   SYMBOL      (ANGSTROMS)     (ANGSTROMS)     (ANGSTROMS)

     1       C          0.59590000  *   0.69980000  *  -0.44650000  *
     2       C         -0.26290000  *  -0.34740000  *  -1.19610000  *
     3       C          0.86230000  *   1.92350000  *  -1.34910000  *
     4       C         -1.65200000  *   0.00000000  *  -1.35950000  *
     5       C         -3.32190000  *  -1.71570000  *   0.00620000  *
     6       C          1.55750000  *   3.05840000  *  -0.59600000  *
     7       C         -3.40270000  *  -1.62930000  *   1.52540000  *
     8       C          3.54800000  *  -0.73270000  *   1.62560000  *
     9       C         -2.02690000  *  -1.15260000  *  -0.48610000  *
    10       C         -0.68340000  *  -1.48760000  *  -0.31840000  *
    11       C          1.90830000  *   0.06550000  *  -0.03920000  *
    12       C          2.24900000  *  -0.09210000  *   1.24770000  *
    13       H          0.04100000  *   1.04420000  *   0.45770000  *
    14       H          0.20950000  *  -0.71220000  *  -2.13690000  *
    15       H          1.48510000  *   1.62780000  *  -2.22210000  *
    16       H         -0.09980000  *   2.31690000  *  -1.74220000  *
    17       H         -3.40370000  *  -2.77610000  *  -0.31320000  *
    18       H         -4.16210000  *  -1.14310000  *  -0.44060000  *
    19       H         -1.96230000  *   0.96630000  *  -0.90310000  *
    20       H         -2.01880000  *  -0.13900000  *  -2.40030000  *
    21       H          2.56350000  *   2.74080000  *  -0.24970000  *
    22       H          1.67930000  *   3.93130000  *  -1.27140000  *
    23       H          0.94920000  *   3.37030000  *   0.27950000  *
    24       H         -2.58380000  *  -2.21940000  *   1.98980000  *
    25       H         -3.32510000  *  -0.57110000  *   1.85530000  *
    26       H         -4.37540000  *  -2.03940000  *   1.86950000  *
    27       H          3.58920000  *  -1.76860000  *   1.22760000  *
    28       H          3.64040000  *  -0.76890000  *   2.73120000  *
    29       H          4.39460000  *  -0.14390000  *   1.21350000  *
    30       H          1.58300000  *   0.24410000  *   2.03740000  *
    31       H          2.58100000  *  -0.28420000  *  -0.81890000  *
    32       H         -0.15580000  *  -2.26560000  *   0.22300000  *



          CARTESIAN COORDINATES 

    NO.       ATOM           X           Y           Z

     1         C          0.5959      0.6998     -0.4465
     2         C         -0.2629     -0.3474     -1.1961
     3         C          0.8623      1.9235     -1.3491
     4         C         -1.6520      0.0000     -1.3595
     5         C         -3.3219     -1.7157      0.0062
     6         C          1.5575      3.0584     -0.5960
     7         C         -3.4027     -1.6293      1.5254
     8         C          3.5480     -0.7327      1.6256
     9         C         -2.0269     -1.1526     -0.4861
    10         C         -0.6834     -1.4876     -0.3184
    11         C          1.9083      0.0655     -0.0392
    12         C          2.2490     -0.0921      1.2477
    13         H          0.0410      1.0442      0.4577
    14         H          0.2095     -0.7122     -2.1369
    15         H          1.4851      1.6278     -2.2221
    16         H         -0.0998      2.3169     -1.7422
    17         H         -3.4037     -2.7761     -0.3132
    18         H         -4.1621     -1.1431     -0.4406
    19         H         -1.9623      0.9663     -0.9031
    20         H         -2.0188     -0.1390     -2.4003
    21         H          2.5635      2.7408     -0.2497
    22         H          1.6793      3.9313     -1.2714
    23         H          0.9492      3.3703      0.2795
    24         H         -2.5838     -2.2194      1.9898
    25         H         -3.3251     -0.5711      1.8553
    26         H         -4.3754     -2.0394      1.8695
    27         H          3.5892     -1.7686      1.2276
    28         H          3.6404     -0.7689      2.7312
    29         H          4.3946     -0.1439      1.2135
    30         H          1.5830      0.2441      2.0374
    31         H          2.5810     -0.2842     -0.8189
    32         H         -0.1558     -2.2656      0.2230

  H: (PM3): J. J. P. STEWART, J. COMP. CHEM. 10, 209 (1989).
  C: (PM3): J. J. P. STEWART, J. COMP. CHEM. 10, 209 (1989).

           Empirical Formula: C12 H20  =    32 atoms



      MOLECULAR POINT GROUP   :   C1  


      RHF CALCULATION, NO. OF DOUBLY OCCUPIED LEVELS = 34


          Geometry optimization using EF

          DIAGONAL MATRIX USED AS START HESSIAN

 CYCLE:     1 TIME:   0.012 TIME LEFT:  2.00D  GRAD.:   213.538 HEAT:  30.67635
 CYCLE:     2 TIME:   0.020 TIME LEFT:  2.00D  GRAD.:    65.145 HEAT:  21.02768
 CYCLE:     3 TIME:   0.020 TIME LEFT:  2.00D  GRAD.:   100.415 HEAT:  20.58118
 CYCLE:     4 TIME:   0.016 TIME LEFT:  2.00D  GRAD.:    36.547 HEAT:  19.00430
 CYCLE:     5 TIME:   0.012 TIME LEFT:  2.00D  GRAD.:    48.412 HEAT:  18.82025
 CYCLE:     6 TIME:   0.012 TIME LEFT:  2.00D  GRAD.:    36.838 HEAT:  18.09730
 CYCLE:     7 TIME:   0.016 TIME LEFT:  2.00D  GRAD.:    28.360 HEAT:  17.78725
 CYCLE:     8 TIME:   0.012 TIME LEFT:  2.00D  GRAD.:    28.382 HEAT:  17.63918
 CYCLE:     9 TIME:   0.012 TIME LEFT:  2.00D  GRAD.:    25.127 HEAT:  17.48255
 CYCLE:    10 TIME:   0.020 TIME LEFT:  2.00D  GRAD.:    15.808 HEAT:  17.33004
 CYCLE:    11 TIME:   0.020 TIME LEFT:  2.00D  GRAD.:     8.695 HEAT:  17.25310
 CYCLE:    12 TIME:   0.008 TIME LEFT:  2.00D  GRAD.:    14.536 HEAT:  17.23529
 CYCLE:    13 TIME:   0.012 TIME LEFT:  2.00D  GRAD.:    10.260 HEAT:  17.16671
 CYCLE:    14 TIME:   0.020 TIME LEFT:  2.00D  GRAD.:    10.083 HEAT:  17.15079
 CYCLE:    15 TIME:   0.008 TIME LEFT:  2.00D  GRAD.:     8.213 HEAT:  17.12486
 CYCLE:    16 TIME:   0.020 TIME LEFT:  2.00D  GRAD.:     7.973 HEAT:  17.11787
 CYCLE:    17 TIME:   0.008 TIME LEFT:  2.00D  GRAD.:     5.850 HEAT:  17.10427
 CYCLE:    18 TIME:   0.020 TIME LEFT:  2.00D  GRAD.:     6.243 HEAT:  17.10061
 CYCLE:    19 TIME:   0.012 TIME LEFT:  2.00D  GRAD.:     5.297 HEAT:  17.09484
 CYCLE:    20 TIME:   0.008 TIME LEFT:  2.00D  GRAD.:     4.990 HEAT:  17.08836
 CYCLE:    21 TIME:   0.012 TIME LEFT:  2.00D  GRAD.:     5.733 HEAT:  17.08618
 CYCLE:    22 TIME:   0.008 TIME LEFT:  2.00D  GRAD.:     6.088 HEAT:  17.08308
 CYCLE:    23 TIME:   0.012 TIME LEFT:  2.00D  GRAD.:     5.508 HEAT:  17.08080
 CYCLE:    24 TIME:   0.008 TIME LEFT:  2.00D  GRAD.:     4.190 HEAT:  17.07434
 CYCLE:    25 TIME:   0.012 TIME LEFT:  2.00D  GRAD.:     4.265 HEAT:  17.07112
 CYCLE:    26 TIME:   0.012 TIME LEFT:  2.00D  GRAD.:     3.476 HEAT:  17.06619
 CYCLE:    27 TIME:   0.008 TIME LEFT:  2.00D  GRAD.:     3.925 HEAT:  17.06502
 CYCLE:    28 TIME:   0.012 TIME LEFT:  2.00D  GRAD.:     2.854 HEAT:  17.06044
 CYCLE:    29 TIME:   0.012 TIME LEFT:  2.00D  GRAD.:     3.757 HEAT:  17.06011
 CYCLE:    30 TIME:   0.008 TIME LEFT:  2.00D  GRAD.:     1.763 HEAT:  17.05562
 CYCLE:    31 TIME:   0.012 TIME LEFT:  2.00D  GRAD.:     2.749 HEAT:  17.05524
 CYCLE:    32 TIME:   0.012 TIME LEFT:  2.00D  GRAD.:     1.450 HEAT:  17.05199
 CYCLE:    33 TIME:   0.008 TIME LEFT:  2.00D  GRAD.:     2.230 HEAT:  17.05051
 CYCLE:    34 TIME:   0.012 TIME LEFT:  2.00D  GRAD.:     1.557 HEAT:  17.04731
 CYCLE:    35 TIME:   0.008 TIME LEFT:  2.00D  GRAD.:     2.127 HEAT:  17.04360
 CYCLE:    36 TIME:   0.012 TIME LEFT:  2.00D  GRAD.:     2.411 HEAT:  17.04019
 CYCLE:    37 TIME:   0.012 TIME LEFT:  2.00D  GRAD.:     2.274 HEAT:  17.03559
 CYCLE:    38 TIME:   0.012 TIME LEFT:  2.00D  GRAD.:     2.135 HEAT:  17.02961
 CYCLE:    39 TIME:   0.012 TIME LEFT:  2.00D  GRAD.:     3.050 HEAT:  17.02248
 CYCLE:    40 TIME:   0.008 TIME LEFT:  2.00D  GRAD.:     2.570 HEAT:  17.01732
 CYCLE:    41 TIME:   0.012 TIME LEFT:  2.00D  GRAD.:     2.096 HEAT:  17.01382
 CYCLE:    42 TIME:   0.012 TIME LEFT:  2.00D  GRAD.:     1.602 HEAT:  17.01098
 CYCLE:    43 TIME:   0.012 TIME LEFT:  2.00D  GRAD.:     1.699 HEAT:  17.00883
 CYCLE:    44 TIME:   0.008 TIME LEFT:  2.00D  GRAD.:     1.329 HEAT:  17.00534
 CYCLE:    45 TIME:   0.012 TIME LEFT:  2.00D  GRAD.:     1.544 HEAT:  17.00104
 CYCLE:    46 TIME:   0.012 TIME LEFT:  2.00D  GRAD.:     1.453 HEAT:  16.99794
 CYCLE:    47 TIME:   0.012 TIME LEFT:  2.00D  GRAD.:     1.360 HEAT:  16.99503
 CYCLE:    48 TIME:   0.012 TIME LEFT:  2.00D  GRAD.:     1.414 HEAT:  16.99280
 CYCLE:    49 TIME:   0.012 TIME LEFT:  2.00D  GRAD.:     1.134 HEAT:  16.99076
 CYCLE:    50 TIME:   0.012 TIME LEFT:  2.00D  GRAD.:     1.051 HEAT:  16.98891
 CYCLE:    51 TIME:   0.008 TIME LEFT:  2.00D  GRAD.:     0.974 HEAT:  16.98699
 CYCLE:    52 TIME:   0.012 TIME LEFT:  2.00D  GRAD.:     0.908 HEAT:  16.98522
 CYCLE:    53 TIME:   0.012 TIME LEFT:  2.00D  GRAD.:     0.740 HEAT:  16.98407
 CYCLE:    54 TIME:   0.012 TIME LEFT:  2.00D  GRAD.:     0.607 HEAT:  16.98312
 CYCLE:    55 TIME:   0.012 TIME LEFT:  2.00D  GRAD.:     0.715 HEAT:  16.98207
 CYCLE:    56 TIME:   0.008 TIME LEFT:  2.00D  GRAD.:     0.824 HEAT:  16.98077
 CYCLE:    57 TIME:   0.012 TIME LEFT:  2.00D  GRAD.:     0.891 HEAT:  16.97920
 CYCLE:    58 TIME:   0.012 TIME LEFT:  2.00D  GRAD.:     0.875 HEAT:  16.97762
 CYCLE:    59 TIME:   0.012 TIME LEFT:  2.00D  GRAD.:     0.807 HEAT:  16.97646
 CYCLE:    60 TIME:   0.012 TIME LEFT:  2.00D  GRAD.:     0.688 HEAT:  16.97557
 CYCLE:    61 TIME:   0.008 TIME LEFT:  2.00D  GRAD.:     0.645 HEAT:  16.97483
 CYCLE:    62 TIME:   0.012 TIME LEFT:  2.00D  GRAD.:     0.560 HEAT:  16.97426
 CYCLE:    63 TIME:   0.012 TIME LEFT:  2.00D  GRAD.:     0.483 HEAT:  16.97376
 CYCLE:    64 TIME:   0.012 TIME LEFT:  2.00D  GRAD.:     0.513 HEAT:  16.97309
 CYCLE:    65 TIME:   0.008 TIME LEFT:  2.00D  GRAD.:     0.590 HEAT:  16.97232
 CYCLE:    66 TIME:   0.012 TIME LEFT:  2.00D  GRAD.:     0.679 HEAT:  16.97110
 CYCLE:    67 TIME:   0.012 TIME LEFT:  2.00D  GRAD.:     0.734 HEAT:  16.96965
 CYCLE:    68 TIME:   0.012 TIME LEFT:  2.00D  GRAD.:     0.826 HEAT:  16.96774
 CYCLE:    69 TIME:   0.012 TIME LEFT:  2.00D  GRAD.:     0.971 HEAT:  16.96533
 CYCLE:    70 TIME:   0.008 TIME LEFT:  2.00D  GRAD.:     1.214 HEAT:  16.96197
 CYCLE:    71 TIME:   0.016 TIME LEFT:  2.00D  GRAD.:     1.253 HEAT:  16.95866
 CYCLE:    72 TIME:   0.008 TIME LEFT:  2.00D  GRAD.:     1.620 HEAT:  16.95462
 CYCLE:    73 TIME:   0.012 TIME LEFT:  2.00D  GRAD.:     1.281 HEAT:  16.95240
 CYCLE:    74 TIME:   0.012 TIME LEFT:  2.00D  GRAD.:     0.980 HEAT:  16.94893
 CYCLE:    75 TIME:   0.012 TIME LEFT:  2.00D  GRAD.:     0.987 HEAT:  16.94532
 CYCLE:    76 TIME:   0.012 TIME LEFT:  2.00D  GRAD.:     1.226 HEAT:  16.94281
 CYCLE:    77 TIME:   0.012 TIME LEFT:  2.00D  GRAD.:     1.477 HEAT:  16.93882
 CYCLE:    78 TIME:   0.012 TIME LEFT:  2.00D  GRAD.:     1.812 HEAT:  16.93275
 CYCLE:    79 TIME:   0.012 TIME LEFT:  2.00D  GRAD.:     4.113 HEAT:  16.93210
 CYCLE:    80 TIME:   0.012 TIME LEFT:  2.00D  GRAD.:     1.504 HEAT:  16.92165
 CYCLE:    81 TIME:   0.012 TIME LEFT:  2.00D  GRAD.:     1.246 HEAT:  16.91447
 CYCLE:    82 TIME:   0.012 TIME LEFT:  2.00D  GRAD.:     2.395 HEAT:  16.89946
 CYCLE:    83 TIME:   0.012 TIME LEFT:  2.00D  GRAD.:     3.242 HEAT:  16.88972
 CYCLE:    84 TIME:   0.012 TIME LEFT:  2.00D  GRAD.:     3.926 HEAT:  16.85689
 CYCLE:    85 TIME:   0.016 TIME LEFT:  2.00D  GRAD.:     6.594 HEAT:  16.83348
 CYCLE:    86 TIME:   0.012 TIME LEFT:  2.00D  GRAD.:     5.052 HEAT:  16.76574
 CYCLE:    87 TIME:   0.012 TIME LEFT:  2.00D  GRAD.:    10.139 HEAT:  16.75959
 CYCLE:    88 TIME:   0.012 TIME LEFT:  2.00D  GRAD.:     3.990 HEAT:  16.70813
 CYCLE:    89 TIME:   0.012 TIME LEFT:  2.00D  GRAD.:     2.472 HEAT:  16.68493
 CYCLE:    90 TIME:   0.012 TIME LEFT:  2.00D  GRAD.:     4.582 HEAT:  16.65880
 CYCLE:    91 TIME:   0.012 TIME LEFT:  2.00D  GRAD.:     3.765 HEAT:  16.64041
 CYCLE:    92 TIME:   0.012 TIME LEFT:  2.00D  GRAD.:     2.295 HEAT:  16.60579
 CYCLE:    93 TIME:   0.012 TIME LEFT:  2.00D  GRAD.:     4.412 HEAT:  16.60142
 CYCLE:    94 TIME:   0.012 TIME LEFT:  2.00D  GRAD.:     2.630 HEAT:  16.58758
 CYCLE:    95 TIME:   0.008 TIME LEFT:  2.00D  GRAD.:     2.510 HEAT:  16.57061
 CYCLE:    96 TIME:   0.012 TIME LEFT:  2.00D  GRAD.:     2.964 HEAT:  16.55370
 CYCLE:    97 TIME:   0.012 TIME LEFT:  2.00D  GRAD.:     3.260 HEAT:  16.53452
 CYCLE:    98 TIME:   0.012 TIME LEFT:  2.00D  GRAD.:     3.234 HEAT:  16.51613
 CYCLE:    99 TIME:   0.012 TIME LEFT:  2.00D  GRAD.:     2.670 HEAT:  16.50103
 CYCLE:   100 TIME:   0.008 TIME LEFT:  2.00D  GRAD.:     2.471 HEAT:  16.48794
 CYCLE:   101 TIME:   0.012 TIME LEFT:  2.00D  GRAD.:     2.459 HEAT:  16.47569
 CYCLE:   102 TIME:   0.012 TIME LEFT:  2.00D  GRAD.:     3.799 HEAT:  16.46840
 CYCLE:   103 TIME:   0.012 TIME LEFT:  2.00D  GRAD.:     2.504 HEAT:  16.46382
 CYCLE:   104 TIME:   0.012 TIME LEFT:  2.00D  GRAD.:     1.538 HEAT:  16.45594
 CYCLE:   105 TIME:   0.012 TIME LEFT:  2.00D  GRAD.:     1.819 HEAT:  16.45141
 CYCLE:   106 TIME:   0.012 TIME LEFT:  2.00D  GRAD.:     2.395 HEAT:  16.44529
 CYCLE:   107 TIME:   0.012 TIME LEFT:  2.00D  GRAD.:     2.429 HEAT:  16.43962
 CYCLE:   108 TIME:   0.012 TIME LEFT:  2.00D  GRAD.:     1.881 HEAT:  16.43178
 CYCLE:   109 TIME:   0.012 TIME LEFT:  2.00D  GRAD.:     1.516 HEAT:  16.42721
 CYCLE:   110 TIME:   0.012 TIME LEFT:  2.00D  GRAD.:     2.227 HEAT:  16.41779
 CYCLE:   111 TIME:   0.012 TIME LEFT:  2.00D  GRAD.:     2.237 HEAT:  16.41423
 CYCLE:   112 TIME:   0.012 TIME LEFT:  2.00D  GRAD.:     1.621 HEAT:  16.40555
 CYCLE:   113 TIME:   0.008 TIME LEFT:  2.00D  GRAD.:     1.796 HEAT:  16.39600
 CYCLE:   114 TIME:   0.016 TIME LEFT:  2.00D  GRAD.:     1.425 HEAT:  16.39257
 CYCLE:   115 TIME:   0.008 TIME LEFT:  2.00D  GRAD.:     1.145 HEAT:  16.38529
 CYCLE:   116 TIME:   0.012 TIME LEFT:  2.00D  GRAD.:     0.997 HEAT:  16.38341
 CYCLE:   117 TIME:   0.012 TIME LEFT:  2.00D  GRAD.:     1.223 HEAT:  16.37758
 CYCLE:   118 TIME:   0.012 TIME LEFT:  2.00D  GRAD.:     1.578 HEAT:  16.37637
 CYCLE:   119 TIME:   0.012 TIME LEFT:  2.00D  GRAD.:     0.803 HEAT:  16.37391
 CYCLE:   120 TIME:   0.008 TIME LEFT:  2.00D  GRAD.:     0.679 HEAT:  16.37182
 CYCLE:   121 TIME:   0.012 TIME LEFT:  2.00D  GRAD.:     0.909 HEAT:  16.36908
 CYCLE:   122 TIME:   0.012 TIME LEFT:  2.00D  GRAD.:     0.854 HEAT:  16.36748
 CYCLE:   123 TIME:   0.012 TIME LEFT:  2.00D  GRAD.:     0.827 HEAT:  16.36492
 CYCLE:   124 TIME:   0.012 TIME LEFT:  2.00D  GRAD.:     0.768 HEAT:  16.36345
 CYCLE:   125 TIME:   0.012 TIME LEFT:  2.00D  GRAD.:     0.928 HEAT:  16.36086
 CYCLE:   126 TIME:   0.012 TIME LEFT:  2.00D  GRAD.:     0.592 HEAT:  16.35984
 CYCLE:   127 TIME:   0.012 TIME LEFT:  2.00D  GRAD.:     0.439 HEAT:  16.35837
 CYCLE:   128 TIME:   0.012 TIME LEFT:  2.00D  GRAD.:     0.631 HEAT:  16.35749
 CYCLE:   129 TIME:   0.012 TIME LEFT:  2.00D  GRAD.:     0.744 HEAT:  16.35641
 CYCLE:   130 TIME:   0.008 TIME LEFT:  2.00D  GRAD.:     0.921 HEAT:  16.35437
 CYCLE:   131 TIME:   0.012 TIME LEFT:  2.00D  GRAD.:     1.142 HEAT:  16.35080
 CYCLE:   132 TIME:   0.012 TIME LEFT:  2.00D  GRAD.:     0.990 HEAT:  16.34889
 CYCLE:   133 TIME:   0.012 TIME LEFT:  2.00D  GRAD.:     1.320 HEAT:  16.34664
 CYCLE:   134 TIME:   0.012 TIME LEFT:  2.00D  GRAD.:     1.035 HEAT:  16.34547
 CYCLE:   135 TIME:   0.012 TIME LEFT:  2.00D  GRAD.:     1.130 HEAT:  16.34181
 CYCLE:   136 TIME:   0.008 TIME LEFT:  2.00D  GRAD.:     0.966 HEAT:  16.33986
 CYCLE:   137 TIME:   0.016 TIME LEFT:  2.00D  GRAD.:     1.768 HEAT:  16.33187
 CYCLE:   138 TIME:   0.008 TIME LEFT:  2.00D  GRAD.:     1.514 HEAT:  16.32867
 CYCLE:   139 TIME:   0.012 TIME LEFT:  2.00D  GRAD.:     1.551 HEAT:  16.31416
 CYCLE:   140 TIME:   0.016 TIME LEFT:  2.00D  GRAD.:     1.613 HEAT:  16.31110
 CYCLE:   141 TIME:   0.012 TIME LEFT:  2.00D  GRAD.:     1.211 HEAT:  16.30826
 CYCLE:   142 TIME:   0.012 TIME LEFT:  2.00D  GRAD.:     0.874 HEAT:  16.30658
 CYCLE:   143 TIME:   0.008 TIME LEFT:  2.00D  GRAD.:     0.863 HEAT:  16.30464
 CYCLE:   144 TIME:   0.016 TIME LEFT:  2.00D  GRAD.:     0.790 HEAT:  16.30365
 CYCLE:   145 TIME:   0.012 TIME LEFT:  2.00D  GRAD.:     0.683 HEAT:  16.30251
 CYCLE:   146 TIME:   0.008 TIME LEFT:  2.00D  GRAD.:     0.695 HEAT:  16.30101
 CYCLE:   147 TIME:   0.012 TIME LEFT:  2.00D  GRAD.:     0.733 HEAT:  16.29963
 CYCLE:   148 TIME:   0.012 TIME LEFT:  2.00D  GRAD.:     0.661 HEAT:  16.29866
 CYCLE:   149 TIME:   0.012 TIME LEFT:  2.00D  GRAD.:     0.560 HEAT:  16.29809
 CYCLE:   150 TIME:   0.008 TIME LEFT:  2.00D  GRAD.:     0.386 HEAT:  16.29770
 CYCLE:   151 TIME:   0.012 TIME LEFT:  2.00D  GRAD.:     0.311 HEAT:  16.29736
 CYCLE:   152 TIME:   0.012 TIME LEFT:  2.00D  GRAD.:     0.385 HEAT:  16.29690
 CYCLE:   153 TIME:   0.012 TIME LEFT:  2.00D  GRAD.:     0.446 HEAT:  16.29661
 CYCLE:   154 TIME:   0.012 TIME LEFT:  2.00D  GRAD.:     0.668 HEAT:  16.29600
 CYCLE:   155 TIME:   0.012 TIME LEFT:  2.00D  GRAD.:     0.544 HEAT:  16.29569
 CYCLE:   156 TIME:   0.008 TIME LEFT:  2.00D  GRAD.:     0.665 HEAT:  16.29512
 CYCLE:   157 TIME:   0.012 TIME LEFT:  2.00D  GRAD.:     0.442 HEAT:  16.29469
 CYCLE:   158 TIME:   0.012 TIME LEFT:  2.00D  GRAD.:     0.326 HEAT:  16.29403
 CYCLE:   159 TIME:   0.012 TIME LEFT:  2.00D  GRAD.:     0.465 HEAT:  16.29313
 CYCLE:   160 TIME:   0.012 TIME LEFT:  2.00D  GRAD.:     0.742 HEAT:  16.29167
 CYCLE:   161 TIME:   0.012 TIME LEFT:  2.00D  GRAD.:     0.858 HEAT:  16.29038
 CYCLE:   162 TIME:   0.012 TIME LEFT:  2.00D  GRAD.:     0.870 HEAT:  16.28815
 CYCLE:   163 TIME:   0.012 TIME LEFT:  2.00D  GRAD.:     0.890 HEAT:  16.28558
 CYCLE:   164 TIME:   0.012 TIME LEFT:  2.00D  GRAD.:     1.295 HEAT:  16.28043
 CYCLE:   165 TIME:   0.008 TIME LEFT:  2.00D  GRAD.:     1.192 HEAT:  16.27795
 CYCLE:   166 TIME:   0.012 TIME LEFT:  2.00D  GRAD.:     1.219 HEAT:  16.27602
 CYCLE:   167 TIME:   0.012 TIME LEFT:  2.00D  GRAD.:     0.867 HEAT:  16.27400
 CYCLE:   168 TIME:   0.012 TIME LEFT:  2.00D  GRAD.:     0.690 HEAT:  16.27255
 CYCLE:   169 TIME:   0.012 TIME LEFT:  2.00D  GRAD.:     0.742 HEAT:  16.27133
 CYCLE:   170 TIME:   0.012 TIME LEFT:  2.00D  GRAD.:     0.692 HEAT:  16.27036
 CYCLE:   171 TIME:   0.012 TIME LEFT:  2.00D  GRAD.:     0.717 HEAT:  16.26946
 CYCLE:   172 TIME:   0.008 TIME LEFT:  2.00D  GRAD.:     0.532 HEAT:  16.26869
 CYCLE:   173 TIME:   0.012 TIME LEFT:  2.00D  GRAD.:     0.560 HEAT:  16.26790
 CYCLE:   174 TIME:   0.012 TIME LEFT:  2.00D  GRAD.:     0.824 HEAT:  16.26710
 CYCLE:   175 TIME:   0.012 TIME LEFT:  2.00D  GRAD.:     0.897 HEAT:  16.26573
 CYCLE:   176 TIME:   0.012 TIME LEFT:  2.00D  GRAD.:     3.627 HEAT:  16.26811
 CYCLE:   177 TIME:   0.008 TIME LEFT:  2.00D  GRAD.:     1.318 HEAT:  16.26081
 CYCLE:   178 TIME:   0.012 TIME LEFT:  2.00D  GRAD.:     1.160 HEAT:  16.25801
 CYCLE:   179 TIME:   0.023 TIME LEFT:  2.00D  GRAD.:     2.547 HEAT:  16.25036
 CYCLE:   180 TIME:   0.012 TIME LEFT:  2.00D  GRAD.:     2.086 HEAT:  16.24564
 CYCLE:   181 TIME:   0.012 TIME LEFT:  2.00D  GRAD.:     1.687 HEAT:  16.24214
 CYCLE:   182 TIME:   0.008 TIME LEFT:  2.00D  GRAD.:     1.724 HEAT:  16.23244
 CYCLE:   183 TIME:   0.016 TIME LEFT:  2.00D  GRAD.:     1.681 HEAT:  16.21936
 CYCLE:   184 TIME:   0.012 TIME LEFT:  2.00D  GRAD.:     5.073 HEAT:  16.21144
 CYCLE:   185 TIME:   0.023 TIME LEFT:  2.00D  GRAD.:     3.299 HEAT:  16.20175
 CYCLE:   186 TIME:   0.012 TIME LEFT:  2.00D  GRAD.:     1.814 HEAT:  16.18626
 CYCLE:   187 TIME:   0.012 TIME LEFT:  2.00D  GRAD.:     1.837 HEAT:  16.17721
 CYCLE:   188 TIME:   0.012 TIME LEFT:  2.00D  GRAD.:     3.129 HEAT:  16.16943
 CYCLE:   189 TIME:   0.008 TIME LEFT:  2.00D  GRAD.:     2.296 HEAT:  16.16136
 CYCLE:   190 TIME:   0.012 TIME LEFT:  2.00D  GRAD.:     2.367 HEAT:  16.15444
 CYCLE:   191 TIME:   0.012 TIME LEFT:  2.00D  GRAD.:     4.793 HEAT:  16.16123
 CYCLE:   192 TIME:   0.012 TIME LEFT:  2.00D  GRAD.:     2.575 HEAT:  16.14630
 CYCLE:   193 TIME:   0.012 TIME LEFT:  2.00D  GRAD.:     3.042 HEAT:  16.14626
 CYCLE:   194 TIME:   0.012 TIME LEFT:  2.00D  GRAD.:     1.007 HEAT:  16.14020
 CYCLE:   195 TIME:   0.012 TIME LEFT:  2.00D  GRAD.:     1.911 HEAT:  16.13826
 CYCLE:   196 TIME:   0.012 TIME LEFT:  2.00D  GRAD.:     1.105 HEAT:  16.13541
 CYCLE:   197 TIME:   0.008 TIME LEFT:  2.00D  GRAD.:     0.783 HEAT:  16.13319
 CYCLE:   198 TIME:   0.016 TIME LEFT:  2.00D  GRAD.:     1.119 HEAT:  16.13185
 CYCLE:   199 TIME:   0.008 TIME LEFT:  2.00D  GRAD.:     1.162 HEAT:  16.13001
 CYCLE:   200 TIME:   0.012 TIME LEFT:  2.00D  GRAD.:     1.630 HEAT:  16.12685
 CYCLE:   201 TIME:   0.016 TIME LEFT:  2.00D  GRAD.:     1.562 HEAT:  16.12118
 CYCLE:   202 TIME:   0.012 TIME LEFT:  2.00D  GRAD.:     2.207 HEAT:  16.11409
 CYCLE:   203 TIME:   0.012 TIME LEFT:  2.00D  GRAD.:     4.118 HEAT:  16.11479
 CYCLE:   204 TIME:   0.012 TIME LEFT:  2.00D  GRAD.:     3.028 HEAT:  16.10381
 CYCLE:   205 TIME:   0.012 TIME LEFT:  2.00D  GRAD.:     2.225 HEAT:  16.10021
 CYCLE:   206 TIME:   0.012 TIME LEFT:  2.00D  GRAD.:     1.489 HEAT:  16.09470
 CYCLE:   207 TIME:   0.012 TIME LEFT:  2.00D  GRAD.:     2.914 HEAT:  16.08844
 CYCLE:   208 TIME:   0.012 TIME LEFT:  2.00D  GRAD.:     1.838 HEAT:  16.08354
 CYCLE:   209 TIME:   0.008 TIME LEFT:  2.00D  GRAD.:     1.721 HEAT:  16.07677
 CYCLE:   210 TIME:   0.012 TIME LEFT:  2.00D  GRAD.:     1.932 HEAT:  16.07199
 CYCLE:   211 TIME:   0.012 TIME LEFT:  2.00D  GRAD.:     1.469 HEAT:  16.06768
 CYCLE:   212 TIME:   0.012 TIME LEFT:  2.00D  GRAD.:     1.798 HEAT:  16.06403
 CYCLE:   213 TIME:   0.012 TIME LEFT:  2.00D  GRAD.:     1.878 HEAT:  16.05841
 CYCLE:   214 TIME:   0.012 TIME LEFT:  2.00D  GRAD.:     2.694 HEAT:  16.05195
 CYCLE:   215 TIME:   0.012 TIME LEFT:  2.00D  GRAD.:     1.715 HEAT:  16.04581
 CYCLE:   216 TIME:   0.020 TIME LEFT:  2.00D  GRAD.:     3.667 HEAT:  16.04529
 CYCLE:   217 TIME:   0.027 TIME LEFT:  2.00D  GRAD.:     3.354 HEAT:  16.04188
 CYCLE:   218 TIME:   0.008 TIME LEFT:  2.00D  GRAD.:     2.209 HEAT:  16.03685
 CYCLE:   219 TIME:   0.012 TIME LEFT:  2.00D  GRAD.:     3.019 HEAT:  16.03544
 CYCLE:   220 TIME:   0.012 TIME LEFT:  2.00D  GRAD.:     1.755 HEAT:  16.03096
 CYCLE:   221 TIME:   0.012 TIME LEFT:  2.00D  GRAD.:     1.120 HEAT:  16.02912
 CYCLE:   222 TIME:   0.012 TIME LEFT:  2.00D  GRAD.:     0.727 HEAT:  16.02727
 CYCLE:   223 TIME:   0.012 TIME LEFT:  2.00D  GRAD.:     0.969 HEAT:  16.02637
 CYCLE:   224 TIME:   0.012 TIME LEFT:  2.00D  GRAD.:     0.570 HEAT:  16.02584
 CYCLE:   225 TIME:   0.012 TIME LEFT:  2.00D  GRAD.:     0.714 HEAT:  16.02514
 CYCLE:   226 TIME:   0.008 TIME LEFT:  2.00D  GRAD.:     0.685 HEAT:  16.02439
 CYCLE:   227 TIME:   0.012 TIME LEFT:  2.00D  GRAD.:     0.591 HEAT:  16.02375
 CYCLE:   228 TIME:   0.012 TIME LEFT:  2.00D  GRAD.:     0.820 HEAT:  16.02300
 CYCLE:   229 TIME:   0.012 TIME LEFT:  2.00D  GRAD.:     1.435 HEAT:  16.02324
 CYCLE:   230 TIME:   0.012 TIME LEFT:  2.00D  GRAD.:     0.690 HEAT:  16.02168
 CYCLE:   231 TIME:   0.012 TIME LEFT:  2.00D  GRAD.:     0.693 HEAT:  16.02101
 CYCLE:   232 TIME:   0.012 TIME LEFT:  2.00D  GRAD.:     0.854 HEAT:  16.01898
 CYCLE:   233 TIME:   0.012 TIME LEFT:  2.00D  GRAD.:     1.262 HEAT:  16.01777
 CYCLE:   234 TIME:   0.008 TIME LEFT:  2.00D  GRAD.:     0.634 HEAT:  16.01639
 CYCLE:   235 TIME:   0.012 TIME LEFT:  2.00D  GRAD.:     0.432 HEAT:  16.01573
 CYCLE:   236 TIME:   0.012 TIME LEFT:  2.00D  GRAD.:     0.563 HEAT:  16.01549
 CYCLE:   237 TIME:   0.012 TIME LEFT:  2.00D  GRAD.:     0.385 HEAT:  16.01525
 CYCLE:   238 TIME:   0.012 TIME LEFT:  2.00D  GRAD.:     0.352 HEAT:  16.01509
 CYCLE:   239 TIME:   0.008 TIME LEFT:  2.00D  GRAD.:     0.406 HEAT:  16.01474
 CYCLE:   240 TIME:   0.012 TIME LEFT:  2.00D  GRAD.:     0.601 HEAT:  16.01416
 CYCLE:   241 TIME:   0.012 TIME LEFT:  2.00D  GRAD.:     0.700 HEAT:  16.01333
 CYCLE:   242 TIME:   0.012 TIME LEFT:  2.00D  GRAD.:     0.977 HEAT:  16.01177
 CYCLE:   243 TIME:   0.012 TIME LEFT:  2.00D  GRAD.:     1.018 HEAT:  16.00899
 CYCLE:   244 TIME:   0.012 TIME LEFT:  2.00D  GRAD.:     1.805 HEAT:  16.00683
 CYCLE:   245 TIME:   0.012 TIME LEFT:  2.00D  GRAD.:     1.793 HEAT:  16.00393
 CYCLE:   246 TIME:   0.012 TIME LEFT:  2.00D  GRAD.:     1.409 HEAT:  16.00141
 CYCLE:   247 TIME:   0.012 TIME LEFT:  2.00D  GRAD.:     1.335 HEAT:  15.99826
 CYCLE:   248 TIME:   0.012 TIME LEFT:  2.00D  GRAD.:     0.678 HEAT:  15.99674
 CYCLE:   249 TIME:   0.012 TIME LEFT:  2.00D  GRAD.:     0.582 HEAT:  15.99581
 CYCLE:   250 TIME:   0.012 TIME LEFT:  2.00D  GRAD.:     0.422 HEAT:  15.99531
 CYCLE:   251 TIME:   0.012 TIME LEFT:  2.00D  GRAD.:     0.377 HEAT:  15.99514
 CYCLE:   252 TIME:   0.008 TIME LEFT:  2.00D  GRAD.:     0.312 HEAT:  15.99501
 CYCLE:   253 TIME:   0.012 TIME LEFT:  2.00D  GRAD.:     0.357 HEAT:  15.99486
 CYCLE:   254 TIME:   0.012 TIME LEFT:  2.00D  GRAD.:     0.306 HEAT:  15.99474
 CYCLE:   255 TIME:   0.012 TIME LEFT:  2.00D  GRAD.:     0.303 HEAT:  15.99452
 CYCLE:   256 TIME:   0.012 TIME LEFT:  2.00D  GRAD.:     0.312 HEAT:  15.99432
 CYCLE:   257 TIME:   0.012 TIME LEFT:  2.00D  GRAD.:     0.309 HEAT:  15.99411
 CYCLE:   258 TIME:   0.012 TIME LEFT:  2.00D  GRAD.:     0.222 HEAT:  15.99401
 CYCLE:   259 TIME:   0.008 TIME LEFT:  2.00D  GRAD.:     0.225 HEAT:  15.99393
 CYCLE:   260 TIME:   0.016 TIME LEFT:  2.00D  GRAD.:     0.209 HEAT:  15.99387
 CYCLE:   261 TIME:   0.012 TIME LEFT:  2.00D  GRAD.:     0.225 HEAT:  15.99382
 CYCLE:   262 TIME:   0.012 TIME LEFT:  2.00D  GRAD.:     0.225 HEAT:  15.99377
 CYCLE:   263 TIME:   0.012 TIME LEFT:  2.00D  GRAD.:     0.213 HEAT:  15.99373
 CYCLE:   264 TIME:   0.008 TIME LEFT:  2.00D  GRAD.:     0.428 HEAT:  15.99357
 CYCLE:   265 TIME:   0.012 TIME LEFT:  2.00D  GRAD.:     0.371 HEAT:  15.99338
 CYCLE:   266 TIME:   0.008 TIME LEFT:  2.00D  GRAD.:     0.644 HEAT:  15.99249
 CYCLE:   267 TIME:   0.012 TIME LEFT:  2.00D  GRAD.:     0.574 HEAT:  15.99193
 CYCLE:   268 TIME:   0.012 TIME LEFT:  2.00D  GRAD.:     0.359 HEAT:  15.99063
 CYCLE:   269 TIME:   0.012 TIME LEFT:  2.00D  GRAD.:     1.356 HEAT:  15.99057
 CYCLE:   270 TIME:   0.008 TIME LEFT:  2.00D  GRAD.:     0.650 HEAT:  15.98938
 CYCLE:   271 TIME:   0.008 TIME LEFT:  2.00D  GRAD.:     0.376 HEAT:  15.98898
 CYCLE:   272 TIME:   0.012 TIME LEFT:  2.00D  GRAD.:     0.357 HEAT:  15.98834
 CYCLE:   273 TIME:   0.012 TIME LEFT:  2.00D  GRAD.:     0.427 HEAT:  15.98807
 CYCLE:   274 TIME:   0.012 TIME LEFT:  2.00D  GRAD.:     0.267 HEAT:  15.98786
 CYCLE:   275 TIME:   0.012 TIME LEFT:  2.00D  GRAD.:     0.276 HEAT:  15.98777
 CYCLE:   276 TIME:   0.012 TIME LEFT:  2.00D  GRAD.:     0.704 HEAT:  15.98825
 CYCLE:   277 TIME:   0.012 TIME LEFT:  2.00D  GRAD.:     0.324 HEAT:  15.98769
 CYCLE:   278 TIME:   0.012 TIME LEFT:  2.00D  GRAD.:     0.339 HEAT:  15.98765
 CYCLE:   279 TIME:   0.012 TIME LEFT:  2.00D  GRAD.:     0.297 HEAT:  15.98759
 CYCLE:   280 TIME:   0.008 TIME LEFT:  2.00D  GRAD.:     0.784 HEAT:  15.98733
 CYCLE:   281 TIME:   0.012 TIME LEFT:  2.00D  GRAD.:     0.399 HEAT:  15.98691
 CYCLE:   282 TIME:   0.012 TIME LEFT:  2.00D  GRAD.:     0.562 HEAT:  15.98632
 CYCLE:   283 TIME:   0.008 TIME LEFT:  2.00D  GRAD.:     0.785 HEAT:  15.98535
 CYCLE:   284 TIME:   0.012 TIME LEFT:  2.00D  GRAD.:     1.497 HEAT:  15.98476
 CYCLE:   285 TIME:   0.012 TIME LEFT:  2.00D  GRAD.:     1.541 HEAT:  15.98351
 CYCLE:   286 TIME:   0.008 TIME LEFT:  2.00D  GRAD.:     0.572 HEAT:  15.98252
 CYCLE:   287 TIME:   0.012 TIME LEFT:  2.00D  GRAD.:     0.869 HEAT:  15.98147
 CYCLE:   288 TIME:   0.012 TIME LEFT:  2.00D  GRAD.:     0.482 HEAT:  15.98096
 CYCLE:   289 TIME:   0.008 TIME LEFT:  2.00D  GRAD.:     0.637 HEAT:  15.98016
 CYCLE:   290 TIME:   0.012 TIME LEFT:  2.00D  GRAD.:     0.314 HEAT:  15.97986
 CYCLE:   291 TIME:   0.008 TIME LEFT:  2.00D  GRAD.:     0.210 HEAT:  15.97968
 CYCLE:   292 TIME:   0.012 TIME LEFT:  2.00D  GRAD.:     0.545 HEAT:  15.97961
 CYCLE:   293 TIME:   0.012 TIME LEFT:  2.00D  GRAD.:     0.241 HEAT:  15.97944
 CYCLE:   294 TIME:   0.008 TIME LEFT:  2.00D  GRAD.:     0.155 HEAT:  15.97938
 CYCLE:   295 TIME:   0.008 TIME LEFT:  2.00D  GRAD.:     0.247 HEAT:  15.97931
 CYCLE:   296 TIME:   0.012 TIME LEFT:  2.00D  GRAD.:     0.172 HEAT:  15.97927
 CYCLE:   297 TIME:   0.008 TIME LEFT:  2.00D  GRAD.:     0.130 HEAT:  15.97921
 CYCLE:   298 TIME:   0.012 TIME LEFT:  2.00D  GRAD.:     0.122 HEAT:  15.97916
 CYCLE:   299 TIME:   0.008 TIME LEFT:  2.00D  GRAD.:     0.122 HEAT:  15.97913
 CYCLE:   300 TIME:   0.012 TIME LEFT:  2.00D  GRAD.:     0.085 HEAT:  15.97912
 CYCLE:   301 TIME:   0.008 TIME LEFT:  2.00D  GRAD.:     0.051 HEAT:  15.97911
 CYCLE:   302 TIME:   0.012 TIME LEFT:  2.00D  GRAD.:     0.184 HEAT:  15.97913
 CYCLE:   303 TIME:   0.008 TIME LEFT:  2.00D  GRAD.:     0.031 HEAT:  15.97911

     GRADIENT =  0.03087 IS LESS THAN CUTOFF =  0.05000



 -------------------------------------------------------------------------------
 pm3  precise nosym THREADS=1
 InChI=1S/C12H20/c1-4-7-11(6-3)12-8-10(5-2)9-12/h4,7-8,11-12H,5-6,9H2,1-3H3



     GEOMETRY OPTIMISED USING EIGENVECTOR FOLLOWING (EF).     
     SCF FIELD WAS ACHIEVED                                   


                              PM3 CALCULATION
                                                       MOPAC v23.1.2 MacOS
                                                       Tue Jun  3 16:42:40 2025




          FINAL HEAT OF FORMATION =         15.97911 KCAL/MOL =      66.85659 KJ/MOL


          COSMO AREA              =        239.51 SQUARE ANGSTROMS
          COSMO VOLUME            =        251.86 CUBIC ANGSTROMS

          GRADIENT NORM           =          0.03087          =       0.00546 PER ATOM
          IONIZATION POTENTIAL    =          9.409550 EV
          HOMO LUMO ENERGIES (EV) =         -9.410  1.013
          NO. OF FILLED LEVELS    =         34
          MOLECULAR WEIGHT        =        164.2900         POINT GROUP:  C1  

          MOLECULAR DIMENSIONS (Angstroms)

            Atom       Atom       Distance
            H    26    H    22     9.60819
            H    27    H    20     7.33643
            H    14    H    23     3.73703


          SCF CALCULATIONS        =        319

          WALL-CLOCK TIME         =      3.488 SECONDS
          COMPUTATION TIME        =      2.664 SECONDS




   ATOM   CHEMICAL          X               Y               Z
  NUMBER   SYMBOL      (ANGSTROMS)     (ANGSTROMS)     (ANGSTROMS)

     1       C          0.66864215  *   0.71725068  *  -0.43949616  *
     2       C         -0.25724612  *  -0.32730002  *  -1.04811121  *
     3       C          0.99198839  *   1.79965089  *  -1.47516466  *
     4       C         -1.74179770  *   0.13637356  *  -1.30312173  *
     5       C         -3.47096456  *  -1.33020505  *   0.15695117  *
     6       C          1.67654443  *   2.99522827  *  -0.85283166  *
     7       C         -3.44810879  *  -2.45639079  *   1.16659632  *
     8       C          3.59843799  *  -0.56359136  *   1.73755503  *
     9       C         -2.13347752  *  -0.94049507  *  -0.30249627  *
    10       C         -0.86122083  *  -1.32824116  *  -0.06890612  *
    11       C          1.93113775  *   0.05377963  *   0.01760943  *
    12       C          2.35018542  *   0.08835833  *   1.28331060  *
    13       H          0.14988801  *   1.19593761  *   0.42867697  *
    14       H          0.21539501  *  -0.80540405  *  -1.93149859  *
    15       H          1.62474606  *   1.37372753  *  -2.27930686  *
    16       H          0.05360452  *   2.12090654  *  -1.97100634  *
    17       H         -4.07579614  *  -1.61653141  *  -0.72736427  *
    18       H         -3.96843233  *  -0.43688026  *   0.58612825  *
    19       H         -1.97448771  *   1.16691957  *  -0.99652577  *
    20       H         -2.11209142  *  -0.01184328  *  -2.32705280  *
    21       H          2.60789314  *   2.70647900  *  -0.34696260  *
    22       H          1.93059158  *   3.74707588  *  -1.61069427  *
    23       H          1.03831422  *   3.48459610  *  -0.10495306  *
    24       H         -2.98512023  *  -3.36187410  *   0.75296905  *
    25       H         -2.87969903  *  -2.18316942  *   2.06526382  *
    26       H         -4.46402688  *  -2.72107466  *   1.48594787  *
    27       H          3.38254509  *  -1.30860800  *   2.51517042  *
    28       H          4.28362659  *   0.17731632  *   2.17112810  *
    29       H          4.13414980  *  -1.07602021  *   0.92732928  *
    30       H          1.77369493  *   0.61309638  *   2.05574322  *
    31       H          2.50425700  *  -0.47051757  *  -0.75827593  *
    32       H         -0.37848878  *  -2.06289337  *   0.56111025  *

                             CARTESIAN COORDINATES

   1    C        0.668642149     0.717250679    -0.439496164
   2    C       -0.257246115    -0.327300022    -1.048111214
   3    C        0.991988389     1.799650886    -1.475164663
   4    C       -1.741797702     0.136373561    -1.303121727
   5    C       -3.470964558    -1.330205046     0.156951167
   6    C        1.676544427     2.995228274    -0.852831656
   7    C       -3.448108793    -2.456390793     1.166596318
   8    C        3.598437989    -0.563591364     1.737555030
   9    C       -2.133477524    -0.940495073    -0.302496266
  10    C       -0.861220825    -1.328241157    -0.068906116
  11    C        1.931137754     0.053779630     0.017609428
  12    C        2.350185422     0.088358327     1.283310596
  13    H        0.149888008     1.195937612     0.428676972
  14    H        0.215395008    -0.805404051    -1.931498586
  15    H        1.624746062     1.373727535    -2.279306865
  16    H        0.053604520     2.120906536    -1.971006335
  17    H       -4.075796144    -1.616531408    -0.727364271
  18    H       -3.968432326    -0.436880258     0.586128247
  19    H       -1.974487705     1.166919570    -0.996525767
  20    H       -2.112091419    -0.011843282    -2.327052802
  21    H        2.607893142     2.706478996    -0.346962604
  22    H        1.930591576     3.747075876    -1.610694270
  23    H        1.038314217     3.484596103    -0.104953061
  24    H       -2.985120231    -3.361874099     0.752969054
  25    H       -2.879699034    -2.183169421     2.065263818
  26    H       -4.464026880    -2.721074663     1.485947867
  27    H        3.382545086    -1.308607999     2.515170419
  28    H        4.283626589     0.177316316     2.171128099
  29    H        4.134149803    -1.076020208     0.927329278
  30    H        1.773694927     0.613096378     2.055743223
  31    H        2.504257003    -0.470517570    -0.758275933
  32    H       -0.378488779    -2.062893374     0.561110249


           Empirical Formula: C12 H20  =    32 atoms



      MOLECULAR POINT GROUP   :   C1  


                  EIGENVALUES  
 -41.56028 -37.31181 -34.02277 -32.93826 -28.46002 -25.19766 -24.87934 -23.30912
 -21.18343 -19.98463 -19.47948 -17.48671 -16.82641 -16.52497 -15.88289 -15.40505
 -15.17244 -14.87429 -14.55532 -14.17569 -14.04299 -13.66581 -13.11713 -12.98282
 -12.65797 -12.44065 -12.31483 -12.14557 -12.07621 -11.90139 -11.48789 -11.45922
  -9.77396  -9.40955   1.01261   1.15716   3.16762   3.22027   3.25092   3.59354
   3.69538   3.78031   3.88490   3.93579   4.00781   4.01623   4.02444   4.08698
   4.14090   4.21266   4.26394   4.33375   4.38312   4.47644   4.53677   4.55575
   4.61198   4.65955   4.83203   4.86001   4.94048   4.99418   5.08219   5.24044
   5.40610   5.76721   6.02069   6.30889


              NET ATOMIC CHARGES AND DIPOLE CONTRIBUTIONS

  ATOM NO.   TYPE          CHARGE      No. of ELECS.   s-Pop       p-Pop       
    1          C          -0.034385        4.0344     1.16571     2.86868
    2          C          -0.059848        4.0598     1.18922     2.87063
    3          C          -0.095973        4.0960     1.16129     2.93468
    4          C          -0.075022        4.0750     1.17209     2.90293
    5          C          -0.021890        4.0219     1.13133     2.89056
    6          C          -0.112792        4.1128     1.13853     2.97426
    7          C          -0.108558        4.1086     1.13666     2.97189
    8          C          -0.074030        4.0740     1.12520     2.94883
    9          C          -0.147640        4.1476     1.22183     2.92581
   10          C          -0.160970        4.1610     1.21769     2.94328
   11          C          -0.146804        4.1468     1.19845     2.94836
   12          C          -0.146901        4.1469     1.19387     2.95303
   13          H           0.073055        0.9269     0.92695
   14          H           0.077558        0.9224     0.92244
   15          H           0.050533        0.9495     0.94947
   16          H           0.050726        0.9493     0.94927
   17          H           0.054887        0.9451     0.94511
   18          H           0.054953        0.9450     0.94505
   19          H           0.065351        0.9346     0.93465
   20          H           0.060287        0.9397     0.93971
   21          H           0.043964        0.9560     0.95604
   22          H           0.036759        0.9632     0.96324
   23          H           0.037329        0.9627     0.96267
   24          H           0.040980        0.9590     0.95902
   25          H           0.041046        0.9590     0.95895
   26          H           0.037444        0.9626     0.96256
   27          H           0.043391        0.9566     0.95661
   28          H           0.043340        0.9567     0.95666
   29          H           0.040641        0.9594     0.95936
   30          H           0.099858        0.9001     0.90014
   31          H           0.102795        0.8972     0.89720
   32          H           0.129917        0.8701     0.87008
 DIPOLE           X         Y         Z       TOTAL
 POINT-CHG.    -0.171     0.085     0.032     0.194
 HYBRID         0.040    -0.028     0.020     0.053
 SUM           -0.132     0.057     0.051     0.152


          ATOMIC ORBITAL ELECTRON POPULATIONS

     Atom    s        px        py        pz   
    1  C   1.16571   0.93867   0.94648   0.98353
    2  C   1.18922   0.93886   0.95472   0.97704
    3  C   1.16129   1.00506   0.95689   0.97273
    4  C   1.17209   0.95119   0.97378   0.97796
    5  C   1.13133   0.93155   0.97819   0.98082
    6  C   1.13853   1.00313   0.97054   1.00059
    7  C   1.13666   1.00810   0.97868   0.98512
    8  C   1.12520   0.95466   0.99056   1.00361
    9  C   1.22183   0.95518   0.98365   0.98699
   10  C   1.21769   0.94800   0.99506   1.00022
   11  C   1.19845   0.97708   1.00386   0.96742
   12  C   1.19387   0.98137   1.00389   0.96777
   13  H   0.92695
   14  H   0.92244
   15  H   0.94947
   16  H   0.94927
   17  H   0.94511
   18  H   0.94505
   19  H   0.93465
   20  H   0.93971
   21  H   0.95604
   22  H   0.96324
   23  H   0.96267
   24  H   0.95902
   25  H   0.95895
   26  H   0.96256
   27  H   0.95661
   28  H   0.95666
   29  H   0.95936
   30  H   0.90014
   31  H   0.89720
   32  H   0.87008
 *******************************************************************************
 **                                                                           **
 **                              MOPAC v23.1.2                                **
 **                                                                           **
 *******************************************************************************
 **          Digital Object Identifier (DOI): 10.5281/zenodo.6511958          **
 **    Visit the DOI location for information on how to cite this program.    **
 *******************************************************************************

                              PM3 CALCULATION RESULTS

 *******************************************************************************
 *  CALCULATION DONE: (MAX THREADS = 1)              Tue Jun  3 16:42:40 2025  *
 *  PM3        - The PM3 Hamiltonian to be used
 *  OLDGEO     - PREVIOUS GEOMETRY TO BE USED
 *  PRECISE    - TIGHTER CRITERIA TO BE USED
 *  NOSYM      - POINT-GROUP SYMMETRY SET TO C1
 *  THREADS=1  - MULTI-THREADING NOT USED
 *  T=         - A TIME OF 172800.0 SECONDS REQUESTED
 *  DUMP=N     - RESTART FILE WRITTEN EVERY 7200.0 SECONDS REQUESTED
 *  THERMO     - THERMODYNAMIC QUANTITIES TO BE CALCULATED
 *******************************************************************************
oldgeo thermo nosym precise THREADS=1  pm3
 InChI=1S/C12H20/c1-4-7-11(6-3)12-8-10(5-2)9-12/h4,7-8,11-12H,5-6,9H2,1-3H3

   ATOM   CHEMICAL          X               Y               Z
  NUMBER   SYMBOL      (ANGSTROMS)     (ANGSTROMS)     (ANGSTROMS)

     1       C          0.66864215  *   0.71725068  *  -0.43949616  *
     2       C         -0.25724612  *  -0.32730002  *  -1.04811121  *
     3       C          0.99198839  *   1.79965089  *  -1.47516466  *
     4       C         -1.74179770  *   0.13637356  *  -1.30312173  *
     5       C         -3.47096456  *  -1.33020505  *   0.15695117  *
     6       C          1.67654443  *   2.99522827  *  -0.85283166  *
     7       C         -3.44810879  *  -2.45639079  *   1.16659632  *
     8       C          3.59843799  *  -0.56359136  *   1.73755503  *
     9       C         -2.13347752  *  -0.94049507  *  -0.30249627  *
    10       C         -0.86122083  *  -1.32824116  *  -0.06890612  *
    11       C          1.93113775  *   0.05377963  *   0.01760943  *
    12       C          2.35018542  *   0.08835833  *   1.28331060  *
    13       H          0.14988801  *   1.19593761  *   0.42867697  *
    14       H          0.21539501  *  -0.80540405  *  -1.93149859  *
    15       H          1.62474606  *   1.37372753  *  -2.27930686  *
    16       H          0.05360452  *   2.12090654  *  -1.97100634  *
    17       H         -4.07579614  *  -1.61653141  *  -0.72736427  *
    18       H         -3.96843233  *  -0.43688026  *   0.58612825  *
    19       H         -1.97448771  *   1.16691957  *  -0.99652577  *
    20       H         -2.11209142  *  -0.01184328  *  -2.32705280  *
    21       H          2.60789314  *   2.70647900  *  -0.34696260  *
    22       H          1.93059158  *   3.74707588  *  -1.61069427  *
    23       H          1.03831422  *   3.48459610  *  -0.10495306  *
    24       H         -2.98512023  *  -3.36187410  *   0.75296905  *
    25       H         -2.87969903  *  -2.18316942  *   2.06526382  *
    26       H         -4.46402688  *  -2.72107466  *   1.48594787  *
    27       H          3.38254509  *  -1.30860800  *   2.51517042  *
    28       H          4.28362659  *   0.17731632  *   2.17112810  *
    29       H          4.13414980  *  -1.07602021  *   0.92732928  *
    30       H          1.77369493  *   0.61309638  *   2.05574322  *
    31       H          2.50425700  *  -0.47051757  *  -0.75827593  *
    32       H         -0.37848878  *  -2.06289337  *   0.56111025  *



          CARTESIAN COORDINATES 

    NO.       ATOM           X           Y           Z

     1         C          0.6686      0.7173     -0.4395
     2         C         -0.2572     -0.3273     -1.0481
     3         C          0.9920      1.7997     -1.4752
     4         C         -1.7418      0.1364     -1.3031
     5         C         -3.4710     -1.3302      0.1570
     6         C          1.6765      2.9952     -0.8528
     7         C         -3.4481     -2.4564      1.1666
     8         C          3.5984     -0.5636      1.7376
     9         C         -2.1335     -0.9405     -0.3025
    10         C         -0.8612     -1.3282     -0.0689
    11         C          1.9311      0.0538      0.0176
    12         C          2.3502      0.0884      1.2833
    13         H          0.1499      1.1959      0.4287
    14         H          0.2154     -0.8054     -1.9315
    15         H          1.6247      1.3737     -2.2793
    16         H          0.0536      2.1209     -1.9710
    17         H         -4.0758     -1.6165     -0.7274
    18         H         -3.9684     -0.4369      0.5861
    19         H         -1.9745      1.1669     -0.9965
    20         H         -2.1121     -0.0118     -2.3271
    21         H          2.6079      2.7065     -0.3470
    22         H          1.9306      3.7471     -1.6107
    23         H          1.0383      3.4846     -0.1050
    24         H         -2.9851     -3.3619      0.7530
    25         H         -2.8797     -2.1832      2.0653
    26         H         -4.4640     -2.7211      1.4859
    27         H          3.3825     -1.3086      2.5152
    28         H          4.2836      0.1773      2.1711
    29         H          4.1341     -1.0760      0.9273
    30         H          1.7737      0.6131      2.0557
    31         H          2.5043     -0.4705     -0.7583
    32         H         -0.3785     -2.0629      0.5611

  H: (PM3): J. J. P. STEWART, J. COMP. CHEM. 10, 209 (1989).
  C: (PM3): J. J. P. STEWART, J. COMP. CHEM. 10, 209 (1989).

           Empirical Formula: C12 H20  =    32 atoms



      MOLECULAR POINT GROUP   :   C1  


      RHF CALCULATION, NO. OF DOUBLY OCCUPIED LEVELS = 34



          HEAT OF FORMATION =      15.979108 KCALS/MOLE


          CARTESIAN COORDINATE DERIVATIVES

   NUMBER  ATOM         X            Y            Z

     1       C     -0.000933    -0.000493    -0.000248
     2       C     -0.003016    -0.000394     0.000649
     3       C      0.000017     0.001907    -0.003127
     4       C      0.001012     0.001198     0.000759
     5       C     -0.002785    -0.003380    -0.001740
     6       C      0.002331     0.001130     0.006877
     7       C      0.012155     0.004748     0.000671
     8       C     -0.000026    -0.000330     0.000054
     9       C      0.003711    -0.002280     0.001538
    10       C      0.001472    -0.001730    -0.001142
    11       C     -0.002051     0.003955     0.001962
    12       C     -0.000676    -0.002121    -0.001319
    13       H      0.000297    -0.002250    -0.000807
    14       H      0.000247     0.001217    -0.001382
    15       H      0.003275    -0.000399    -0.006117
    16       H     -0.000962     0.000350    -0.002963
    17       H      0.002995    -0.000994     0.002837
    18       H      0.001707     0.000973    -0.002092
    19       H      0.000304     0.000432    -0.001370
    20       H      0.001101     0.001082    -0.000668
    21       H     -0.004670    -0.004646     0.010167
    22       H     -0.002509     0.008021     0.002110
    23       H     -0.005527    -0.004602     0.001344
    24       H      0.004623    -0.001033     0.004812
    25       H     -0.006154    -0.004596    -0.005957
    26       H      0.004177     0.000225    -0.003659
    27       H     -0.003486     0.003247    -0.000127
    28       H     -0.004255     0.002070     0.001654
    29       H     -0.000514    -0.000248    -0.000628
    30       H     -0.002728    -0.000815    -0.001614
    31       H      0.001314     0.000105    -0.001011
    32       H     -0.000445    -0.000351     0.000538



          GRADIENT NORM =   0.03066

          MOLECULAR WEIGHT =  164.29



          ROTATIONAL CONSTANTS IN CM(-1)

          A =    0.04165669   B =    0.01599403   C =    0.01243588



           PRINCIPAL MOMENTS OF INERTIA IN UNITS OF 10**(-40)*GRAM-CM**2

          A =      671.9870   B =     1750.2002   C =     2250.9671


          ORIENTATION OF MOLECULE IN FORCE CALCULATION

    NO.       ATOM         X         Y         Z

     1          C      -0.8381    0.7140    0.2553
     2          C       0.6847    0.7140    0.2553
     3          C      -1.3633    2.1538    0.2553
     4          C       1.3712    1.1630   -1.0905
     5          C       2.8450   -0.8406   -2.1327
     6          C      -2.8483    2.2170   -0.0201
     7          C       3.2001   -2.2788   -1.8268
     8          C      -2.6110   -1.8036    2.5966
     9          C       1.9481   -0.2439   -1.1370
    10          C       1.3471   -0.6369    0.0066
    11          C      -1.3333   -0.0107    1.4688
    12          C      -2.1177   -1.0872    1.3996
    13          H      -1.1980    0.2016   -0.6720
    14          H       1.0783    1.2397    1.1502
    15          H      -1.1344    2.6376    1.2258
    16          H      -0.8149    2.7412   -0.5088
    17          H       3.7626   -0.2208   -2.1939
    18          H       2.3632   -0.7652   -3.1286
    19          H       0.6832    1.4140   -1.9114
    20          H       2.1072    1.9734   -0.9960
    21          H      -3.4188    1.6371    0.7182
    22          H      -3.2157    3.2504    0.0149
    23          H      -3.0949    1.8137   -1.0114
    24          H       3.7051   -2.3739   -0.8566
    25          H       2.3079   -2.9176   -1.7920
    26          H       3.8718   -2.6907   -2.5906
    27          H      -2.2795   -2.8506    2.5823
    28          H      -3.7092   -1.8052    2.6187
    29          H      -2.2614   -1.3582    3.5376
    30          H      -2.4359   -1.4938    0.4313
    31          H      -1.0120    0.3992    2.4353
    32          H       1.3058   -1.5490    0.5862


    FIRST DERIVATIVES WILL BE USED IN THE CALCULATION OF SECOND DERIVATIVES

          ESTIMATED TIME TO COMPLETE CALCULATION =        4.50 SECONDS

    FOR POINT-GROUP C1   THERE ARE   1 UNIQUE SYMMETRY FUNCTIONS.

 STEP:   1 TIME =     0.04 SECS, INTEGRAL =      0.04 TIME LEFT: 172799.95
 STEP:   2 TIME =     0.04 SECS, INTEGRAL =      0.07 TIME LEFT: 172799.91
 STEP:   3 TIME =     0.04 SECS, INTEGRAL =      0.11 TIME LEFT: 172799.88
 STEP:   4 TIME =     0.04 SECS, INTEGRAL =      0.15 TIME LEFT: 172799.84
 STEP:   5 TIME =     0.04 SECS, INTEGRAL =      0.19 TIME LEFT: 172799.80
 STEP:   6 TIME =     0.04 SECS, INTEGRAL =      0.22 TIME LEFT: 172799.77
 STEP:   7 TIME =     0.04 SECS, INTEGRAL =      0.26 TIME LEFT: 172799.73
 STEP:   8 TIME =     0.04 SECS, INTEGRAL =      0.30 TIME LEFT: 172799.69
 STEP:   9 TIME =     0.04 SECS, INTEGRAL =      0.34 TIME LEFT: 172799.65
 STEP:  10 TIME =     0.04 SECS, INTEGRAL =      0.38 TIME LEFT: 172799.61
 STEP:  11 TIME =     0.04 SECS, INTEGRAL =      0.41 TIME LEFT: 172799.57
 STEP:  12 TIME =     0.04 SECS, INTEGRAL =      0.45 TIME LEFT: 172799.54
 STEP:  13 TIME =     0.04 SECS, INTEGRAL =      0.48 TIME LEFT: 172799.50
 STEP:  14 TIME =     0.04 SECS, INTEGRAL =      0.52 TIME LEFT: 172799.47
 STEP:  15 TIME =     0.04 SECS, INTEGRAL =      0.55 TIME LEFT: 172799.43
 STEP:  16 TIME =     0.04 SECS, INTEGRAL =      0.59 TIME LEFT: 172799.40
 STEP:  17 TIME =     0.04 SECS, INTEGRAL =      0.63 TIME LEFT: 172799.36
 STEP:  18 TIME =     0.04 SECS, INTEGRAL =      0.67 TIME LEFT: 172799.32
 STEP:  19 TIME =     0.04 SECS, INTEGRAL =      0.71 TIME LEFT: 172799.28
 STEP:  20 TIME =     0.04 SECS, INTEGRAL =      0.74 TIME LEFT: 172799.25
 STEP:  21 TIME =     0.04 SECS, INTEGRAL =      0.78 TIME LEFT: 172799.21
 STEP:  22 TIME =     0.04 SECS, INTEGRAL =      0.82 TIME LEFT: 172799.17
 STEP:  23 TIME =     0.04 SECS, INTEGRAL =      0.86 TIME LEFT: 172799.13
 STEP:  24 TIME =     0.04 SECS, INTEGRAL =      0.90 TIME LEFT: 172799.09
 STEP:  25 TIME =     0.04 SECS, INTEGRAL =      0.94 TIME LEFT: 172799.05
 STEP:  26 TIME =     0.04 SECS, INTEGRAL =      0.98 TIME LEFT: 172799.01
 STEP:  27 TIME =     0.04 SECS, INTEGRAL =      1.02 TIME LEFT: 172798.97
 STEP:  28 TIME =     0.04 SECS, INTEGRAL =      1.05 TIME LEFT: 172798.93
 STEP:  29 TIME =     0.04 SECS, INTEGRAL =      1.09 TIME LEFT: 172798.89
 STEP:  30 TIME =     0.04 SECS, INTEGRAL =      1.13 TIME LEFT: 172798.86
 STEP:  31 TIME =     0.04 SECS, INTEGRAL =      1.17 TIME LEFT: 172798.82
 STEP:  32 TIME =     0.04 SECS, INTEGRAL =      1.21 TIME LEFT: 172798.78
 STEP:  33 TIME =     0.04 SECS, INTEGRAL =      1.25 TIME LEFT: 172798.74
 STEP:  34 TIME =     0.04 SECS, INTEGRAL =      1.29 TIME LEFT: 172798.70
 STEP:  35 TIME =     0.04 SECS, INTEGRAL =      1.32 TIME LEFT: 172798.67
 STEP:  36 TIME =     0.04 SECS, INTEGRAL =      1.36 TIME LEFT: 172798.63
 STEP:  37 TIME =     0.04 SECS, INTEGRAL =      1.39 TIME LEFT: 172798.59
 STEP:  38 TIME =     0.04 SECS, INTEGRAL =      1.43 TIME LEFT: 172798.55
 STEP:  39 TIME =     0.04 SECS, INTEGRAL =      1.47 TIME LEFT: 172798.52
 STEP:  40 TIME =     0.04 SECS, INTEGRAL =      1.51 TIME LEFT: 172798.48
 STEP:  41 TIME =     0.04 SECS, INTEGRAL =      1.55 TIME LEFT: 172798.44
 STEP:  42 TIME =     0.04 SECS, INTEGRAL =      1.59 TIME LEFT: 172798.40
 STEP:  43 TIME =     0.04 SECS, INTEGRAL =      1.62 TIME LEFT: 172798.36
 STEP:  44 TIME =     0.04 SECS, INTEGRAL =      1.66 TIME LEFT: 172798.33
 STEP:  45 TIME =     0.04 SECS, INTEGRAL =      1.70 TIME LEFT: 172798.29
 STEP:  46 TIME =     0.04 SECS, INTEGRAL =      1.73 TIME LEFT: 172798.25
 STEP:  47 TIME =     0.04 SECS, INTEGRAL =      1.77 TIME LEFT: 172798.22
 STEP:  48 TIME =     0.04 SECS, INTEGRAL =      1.81 TIME LEFT: 172798.18
 STEP:  49 TIME =     0.04 SECS, INTEGRAL =      1.85 TIME LEFT: 172798.14
 STEP:  50 TIME =     0.04 SECS, INTEGRAL =      1.89 TIME LEFT: 172798.10
 STEP:  51 TIME =     0.04 SECS, INTEGRAL =      1.93 TIME LEFT: 172798.06
 STEP:  52 TIME =     0.04 SECS, INTEGRAL =      1.96 TIME LEFT: 172798.02
 STEP:  53 TIME =     0.04 SECS, INTEGRAL =      2.01 TIME LEFT: 172797.98
 STEP:  54 TIME =     0.04 SECS, INTEGRAL =      2.05 TIME LEFT: 172797.94
 STEP:  55 TIME =     0.04 SECS, INTEGRAL =      2.09 TIME LEFT: 172797.90
 STEP:  56 TIME =     0.04 SECS, INTEGRAL =      2.12 TIME LEFT: 172797.86
 STEP:  57 TIME =     0.04 SECS, INTEGRAL =      2.16 TIME LEFT: 172797.83
 STEP:  58 TIME =     0.04 SECS, INTEGRAL =      2.20 TIME LEFT: 172797.79
 STEP:  59 TIME =     0.04 SECS, INTEGRAL =      2.23 TIME LEFT: 172797.76
 STEP:  60 TIME =     0.04 SECS, INTEGRAL =      2.27 TIME LEFT: 172797.72
 STEP:  61 TIME =     0.04 SECS, INTEGRAL =      2.31 TIME LEFT: 172797.68
 STEP:  62 TIME =     0.04 SECS, INTEGRAL =      2.35 TIME LEFT: 172797.64
 STEP:  63 TIME =     0.04 SECS, INTEGRAL =      2.39 TIME LEFT: 172797.60
 STEP:  64 TIME =     0.04 SECS, INTEGRAL =      2.42 TIME LEFT: 172797.57
 STEP:  65 TIME =     0.03 SECS, INTEGRAL =      2.45 TIME LEFT: 172797.54
 STEP:  66 TIME =     0.04 SECS, INTEGRAL =      2.49 TIME LEFT: 172797.50
 STEP:  67 TIME =     0.04 SECS, INTEGRAL =      2.53 TIME LEFT: 172797.46
 STEP:  68 TIME =     0.04 SECS, INTEGRAL =      2.57 TIME LEFT: 172797.42
 STEP:  69 TIME =     0.04 SECS, INTEGRAL =      2.60 TIME LEFT: 172797.39
 STEP:  70 TIME =     0.04 SECS, INTEGRAL =      2.64 TIME LEFT: 172797.35
 STEP:  71 TIME =     0.04 SECS, INTEGRAL =      2.68 TIME LEFT: 172797.31
 STEP:  72 TIME =     0.04 SECS, INTEGRAL =      2.71 TIME LEFT: 172797.28
 STEP:  73 TIME =     0.04 SECS, INTEGRAL =      2.75 TIME LEFT: 172797.24
 STEP:  74 TIME =     0.04 SECS, INTEGRAL =      2.79 TIME LEFT: 172797.20
 STEP:  75 TIME =     0.04 SECS, INTEGRAL =      2.82 TIME LEFT: 172797.16
 STEP:  76 TIME =     0.04 SECS, INTEGRAL =      2.86 TIME LEFT: 172797.13
 STEP:  77 TIME =     0.04 SECS, INTEGRAL =      2.89 TIME LEFT: 172797.09
 STEP:  78 TIME =     0.04 SECS, INTEGRAL =      2.93 TIME LEFT: 172797.05
 STEP:  79 TIME =     0.04 SECS, INTEGRAL =      2.97 TIME LEFT: 172797.02
 STEP:  80 TIME =     0.04 SECS, INTEGRAL =      3.01 TIME LEFT: 172796.98
 STEP:  81 TIME =     0.04 SECS, INTEGRAL =      3.05 TIME LEFT: 172796.94
 STEP:  82 TIME =     0.03 SECS, INTEGRAL =      3.08 TIME LEFT: 172796.91
 STEP:  83 TIME =     0.04 SECS, INTEGRAL =      3.12 TIME LEFT: 172796.87
 STEP:  84 TIME =     0.04 SECS, INTEGRAL =      3.16 TIME LEFT: 172796.83
 STEP:  85 TIME =     0.04 SECS, INTEGRAL =      3.19 TIME LEFT: 172796.80
 STEP:  86 TIME =     0.04 SECS, INTEGRAL =      3.23 TIME LEFT: 172796.76
 STEP:  87 TIME =     0.04 SECS, INTEGRAL =      3.26 TIME LEFT: 172796.73
 STEP:  88 TIME =     0.04 SECS, INTEGRAL =      3.30 TIME LEFT: 172796.69
 STEP:  89 TIME =     0.04 SECS, INTEGRAL =      3.34 TIME LEFT: 172796.65
 STEP:  90 TIME =     0.04 SECS, INTEGRAL =      3.38 TIME LEFT: 172796.61
 STEP:  91 TIME =     0.04 SECS, INTEGRAL =      3.41 TIME LEFT: 172796.57
 STEP:  92 TIME =     0.04 SECS, INTEGRAL =      3.45 TIME LEFT: 172796.54
 STEP:  93 TIME =     0.04 SECS, INTEGRAL =      3.49 TIME LEFT: 172796.50
 STEP:  94 TIME =     0.04 SECS, INTEGRAL =      3.53 TIME LEFT: 172796.46
 STEP:  95 TIME =     0.04 SECS, INTEGRAL =      3.57 TIME LEFT: 172796.42
 STEP:  96 TIME =     0.04 SECS, INTEGRAL =      3.61 TIME LEFT: 172796.38

(To convert to Hartree/Bohr^2, multiply by (10^(-21) x N x a0^2)/(4.184 x 627.51) =  0.0642)


           FORCE MATRIX IN MILLIDYNES/ANGSTROM


                  C  1       C  2       C  3       C  4       C  5       C  6
 ------------------------------------------------------------------------------
     C    1  14.622693
     C    2   3.994257  14.332803
     C    3   3.763956   0.651608  14.278197
     C    4   0.476684   2.845444   0.042717  14.168212
     C    5   0.019670   0.130315   0.003317   0.377254  14.958101
     C    6   0.630569   0.053259   4.482196   0.001915   0.001039  14.379081
     C    7   0.001065   0.007536   0.000371   0.037762   4.462696   0.000196
     C    8   0.145737   0.021359   0.022021   0.003774   0.000220   0.000928
     C    9   0.048895   2.239016   0.007721   3.972469   5.597873   0.001179
     C   10   0.524087   3.890787   0.047982   2.234296   0.556193   0.010134
     C   11   4.641011   0.705317   0.689447   0.047002   0.001688   0.047077
     C   12   0.794937   0.037912   0.035548   0.004997   0.000599   0.014337
     H   13   4.175056   0.430742   0.426083   0.022325   0.001320   0.035582
     H   14   0.441374   4.412900   0.024370   0.414836   0.017148   0.001347
     H   15   0.450676   0.020008   4.445767   0.002215   0.000183   0.438236
     H   16   0.441284   0.048651   4.426656   0.015081   0.000748   0.436904
     H   17   0.002478   0.017650   0.000278   0.011086   4.412148   0.000151
     H   18   0.003291   0.016850   0.000851   0.010772   4.413985   0.000334
     H   19   0.021278   0.432710   0.012220   4.679728   0.007417   0.001016
     H   20   0.026381   0.421635   0.001953   4.719025   0.007387   0.000431
     H   21   0.022593   0.001961   0.464905   0.000426   0.000204   4.717481
     H   22   0.051097   0.009351   0.450191   0.000501   0.000200   4.752244
     H   23   0.022076   0.001677   0.463790   0.000327   0.000127   4.720768
     H   24   0.000364   0.000714   0.000164   0.001810   0.463554   0.000088
     H   25   0.000329   0.000768   0.000133   0.001789   0.463708   0.000092
     H   26   0.000223   0.000911   0.000126   0.006491   0.448420   0.000080
     H   27   0.019513   0.003672   0.002375   0.000863   0.000132   0.000232
     H   28   0.019857   0.002569   0.003935   0.000305   0.000107   0.000240
     H   29   0.002209   0.000605   0.000688   0.000198   0.000074   0.000187
     H   30   0.084772   0.009352   0.010187   0.001925   0.000431   0.000820
     H   31   0.434280   0.022464   0.019066   0.002337   0.000755   0.002900
     H   32   0.009979   0.340305   0.002101   0.110028   0.035283   0.000785


                  C  7       C  8       C  9       C 10       C 11       C 12
 ------------------------------------------------------------------------------
     C    7  14.399195
     C    8   0.000230  14.713567
     C    9   0.715032   0.000276  19.098166
     C   10   0.038404   0.001044  10.064865  18.233383
     C   11   0.000724   0.846708   0.006104   0.037121  18.145637
     C   12   0.000167   5.262481   0.001068   0.009427  10.695439  18.177648
     H   13   0.000277   0.002050   0.003746   0.015265   0.444187   0.055331
     H   14   0.000866   0.000680   0.042499   0.413868   0.026556   0.001668
     H   15   0.000047   0.000949   0.000641   0.001445   0.036038   0.002329
     H   16   0.000256   0.003839   0.001661   0.002014   0.048679   0.005454
     H   17   0.439115   0.000119   0.427831   0.028578   0.000485   0.000131
     H   18   0.438643   0.000133   0.426308   0.029982   0.000634   0.000139
     H   19   0.001706   0.000281   0.438447   0.040433   0.001990   0.000677
     H   20   0.001688   0.000545   0.439356   0.040054   0.006042   0.000788
     H   21   0.000062   0.000908   0.000164   0.000913   0.009445   0.007793
     H   22   0.000080   0.000254   0.000241   0.002042   0.002865   0.000657
     H   23   0.000035   0.000252   0.000195   0.000799   0.002275   0.000891
     H   24   4.738204   0.000068   0.019992   0.005095   0.000239   0.000078
     H   25   4.738647   0.000076   0.019732   0.005060   0.000228   0.000191
     H   26   4.754177   0.000091   0.057325   0.003409   0.000262   0.000095
     H   27   0.000080   4.705911   0.000209   0.000379   0.035743   0.439164
     H   28   0.000063   4.705910   0.000100   0.000437   0.035428   0.439289
     H   29   0.000031   4.723305   0.000136   0.000407   0.041464   0.480889
     H   30   0.000192   0.424168   0.000774   0.002571   0.470566   4.771772
     H   31   0.000119   0.085219   0.000807   0.002786   4.754582   0.468082
     H   32   0.003081   0.000550   0.428434   5.278200   0.005544   0.004143


                  H 13       H 14       H 15       H 16       H 17       H 18
 ------------------------------------------------------------------------------
     H   13   4.654531
     H   14   0.040730   4.930771
     H   15   0.042372   0.013429   5.067239
     H   16   0.021587   0.002812   0.568533   5.046593
     H   17   0.000221   0.003124   0.000057   0.000100   5.001899
     H   18   0.000290   0.001968   0.000070   0.000088   0.568959   5.003693
     H   19   0.018827   0.024900   0.000563   0.023277   0.000855   0.003034
     H   20   0.001393   0.025948   0.000356   0.001570   0.003208   0.000782
     H   21   0.002341   0.000471   0.022910   0.048731   0.000035   0.000049
     H   22   0.002242   0.000439   0.031159   0.028879   0.000050   0.000085
     H   23   0.023063   0.000473   0.048441   0.026258   0.000026   0.000038
     H   24   0.000068   0.000203   0.000020   0.000029   0.023832   0.048472
     H   25   0.000086   0.000297   0.000031   0.000034   0.048479   0.023927
     H   26   0.000095   0.000162   0.000017   0.000076   0.029073   0.029033
     H   27   0.000441   0.000193   0.000164   0.000296   0.000048   0.000044
     H   28   0.000468   0.000133   0.000208   0.000867   0.000046   0.000045
     H   29   0.000547   0.000206   0.000219   0.000157   0.000026   0.000033
     H   30   0.029678   0.000699   0.000787   0.002030   0.000142   0.000177
     H   31   0.036620   0.016177   0.020703   0.001817   0.000208   0.000207
     H   32   0.002469   0.005430   0.000656   0.000683   0.004139   0.004072


                  H 19       H 20       H 21       H 22       H 23       H 24
 ------------------------------------------------------------------------------
     H   19   5.300304
     H   20   0.529012   5.334616
     H   21   0.000310   0.000217   5.450401
     H   22   0.000207   0.000108   0.567620   5.487171
     H   23   0.000292   0.000119   0.577419   0.573739   5.464182
     H   24   0.000363   0.000277   0.000011   0.000032   0.000013   5.478036
     H   25   0.000261   0.000384   0.000017   0.000033   0.000016   0.581151
     H   26   0.000331   0.000336   0.000017   0.000027   0.000012   0.570970
     H   27   0.000085   0.000159   0.000210   0.000095   0.000082   0.000027
     H   28   0.000061   0.000051   0.000225   0.000161   0.000116   0.000020
     H   29   0.000065   0.000051   0.000165   0.000087   0.000138   0.000018
     H   30   0.000297   0.000335   0.000910   0.000382   0.000518   0.000083
     H   31   0.000733   0.000513   0.001306   0.000503   0.000528   0.000096
     H   32   0.014760   0.014503   0.000279   0.000226   0.000207   0.003665


                  H 25       H 26       H 27       H 28       H 29       H 30
 ------------------------------------------------------------------------------
     H   25   5.478242
     H   26   0.570952   5.488013
     H   27   0.000036   0.000035   5.425720
     H   28   0.000024   0.000026   0.576512   5.425093
     H   29   0.000022   0.000014   0.565476   0.565922   5.450210
     H   30   0.000146   0.000086   0.023899   0.023649   0.041624   5.149082
     H   31   0.000090   0.000053   0.009572   0.009765   0.029665   0.106777
     H   32   0.003684   0.000745   0.000540   0.000310   0.000383   0.001568


                  H 31       H 32
 ------------------------------
     H   31   5.140277
     H   32   0.001538   5.668391


          HEAT OF FORMATION =      15.979108 KCALS/MOLE

          ZERO POINT ENERGY     179.618 KCAL/MOL


           NORMAL COORDINATE ANALYSIS (Total motion = 1 Angstrom)


   Root No.       1         2         3         4         5         6         7         8

                 1 A       2 A       3 A       4 A       5 A       6 A       7 A       8 A   

                  23.8      30.2      51.9      64.8      92.9     113.2     141.8     153.1
  
           1   -0.0065   -0.0051    0.0053   -0.0067   -0.0119   -0.0031   -0.0010   -0.0084
           2    0.0141    0.0067    0.0050   -0.0041    0.0004    0.0031    0.0041   -0.0047
           3   -0.0049   -0.0013   -0.0039   -0.0126    0.0007   -0.0061   -0.0086   -0.0047
           4   -0.0063   -0.0051    0.0052   -0.0067   -0.0122   -0.0028   -0.0007   -0.0078
           5    0.0092   -0.0037    0.0197   -0.0109   -0.0068   -0.0021   -0.0022   -0.0031
           6    0.0015   -0.0066   -0.0120   -0.0086   -0.0132    0.0046   -0.0025   -0.0045
           7   -0.0018    0.0057   -0.0068    0.0009    0.0002   -0.0030   -0.0078    0.0011
           8    0.0156    0.0106    0.0006   -0.0014    0.0053    0.0025    0.0007   -0.0007
           9   -0.0079    0.0089    0.0105   -0.0221    0.0172   -0.0144   -0.0003   -0.0032
          10    0.0008   -0.0067   -0.0079    0.0044   -0.0166    0.0135    0.0240   -0.0088
          11    0.0018   -0.0073   -0.0017   -0.0041   -0.0095    0.0067    0.0125   -0.0070
          12    0.0027   -0.0086   -0.0259   -0.0005   -0.0163    0.0163    0.0155   -0.0060
          13   -0.0043   -0.0207    0.0046    0.0260    0.0242   -0.0049    0.0037    0.0156
          14   -0.0088   -0.0153   -0.0122    0.0073    0.0056   -0.0006   -0.0032    0.0066
          15    0.0150   -0.0131    0.0082    0.0093    0.0121    0.0020    0.0018    0.0106
          16   -0.0032    0.0037   -0.0110   -0.0114    0.0064   -0.0055   -0.0091    0.0019
          17    0.0193    0.0231   -0.0098    0.0021    0.0253   -0.0001   -0.0099    0.0174
          18    0.0005    0.0225    0.0310    0.0457   -0.0107   -0.0019    0.0017   -0.0008
          19   -0.0313    0.0454   -0.0132    0.0112    0.0093   -0.0038   -0.0072   -0.0001
          20   -0.0167    0.0111   -0.0144    0.0004   -0.0001    0.0001   -0.0039   -0.0018
          21    0.0094    0.0345    0.0188   -0.0059    0.0025    0.0045    0.0138   -0.0117
          22    0.0389    0.0048   -0.0004   -0.0071    0.0132    0.0188    0.0255    0.0060
          23   -0.0270   -0.0094   -0.0051    0.0139   -0.0089   -0.0055   -0.0035   -0.0062
          24   -0.0148   -0.0111   -0.0199    0.0070    0.0108    0.0013    0.0047    0.0063
          25   -0.0050   -0.0144    0.0051    0.0075   -0.0024   -0.0017    0.0012    0.0108
          26   -0.0008   -0.0104    0.0026   -0.0029   -0.0041    0.0007    0.0033    0.0005
          27    0.0096   -0.0104   -0.0001   -0.0013   -0.0059    0.0040   -0.0043    0.0099
          28   -0.0105   -0.0140    0.0170   -0.0072   -0.0094   -0.0136   -0.0205    0.0072
          29    0.0058   -0.0076    0.0212   -0.0106   -0.0058   -0.0058   -0.0085    0.0018
          30    0.0089   -0.0092    0.0124   -0.0116   -0.0101   -0.0046   -0.0200    0.0086
          31   -0.0116   -0.0054    0.0165   -0.0114   -0.0013   -0.0030    0.0098   -0.0065
          32    0.0139    0.0025   -0.0094    0.0073   -0.0048    0.0047   -0.0034   -0.0045
          33   -0.0071   -0.0040   -0.0081   -0.0076    0.0020   -0.0051   -0.0083   -0.0039
          34    0.0395    0.0038   -0.0088   -0.0011   -0.0072    0.0074   -0.0233   -0.0126
          35   -0.0230   -0.0039    0.0094   -0.0006   -0.0008   -0.0030    0.0205   -0.0005
          36   -0.0121   -0.0083   -0.0146    0.0007    0.0071   -0.0019   -0.0013    0.0018
          37   -0.0044   -0.0122    0.0048   -0.0086   -0.0246    0.0009   -0.0007   -0.0111
          38    0.0152    0.0148    0.0095   -0.0082    0.0091    0.0001    0.0073   -0.0032
          39   -0.0064   -0.0031   -0.0063   -0.0095    0.0011   -0.0060   -0.0102   -0.0042
          40   -0.0085    0.0013    0.0052   -0.0086   -0.0047   -0.0069   -0.0024   -0.0115
          41    0.0108   -0.0068    0.0420   -0.0178   -0.0050   -0.0143   -0.0230    0.0062
          42    0.0015   -0.0076   -0.0252   -0.0034   -0.0170    0.0136    0.0107   -0.0080
          43    0.0053    0.0179    0.0022    0.0482   -0.0139    0.0054   -0.0103    0.0074
          44    0.0194    0.0053   -0.0028    0.0193   -0.0145    0.0114   -0.0040   -0.0034
          45   -0.0114    0.0086    0.0100   -0.0435    0.0304   -0.0208    0.0025   -0.0032
          46   -0.0041    0.0035   -0.0210   -0.0300    0.0202   -0.0096   -0.0121    0.0057
          47    0.0103    0.0091    0.0081   -0.0226    0.0144   -0.0045    0.0084   -0.0053
          48   -0.0136    0.0062    0.0060   -0.0605    0.0384   -0.0246    0.0028   -0.0037
          49    0.0066   -0.0470    0.0117    0.0309    0.0287   -0.0052    0.0075    0.0218
          50   -0.0234    0.0182   -0.0225    0.0032    0.0031   -0.0008   -0.0091   -0.0016
          51    0.0291   -0.0667    0.0107    0.0405    0.0512   -0.0036    0.0030    0.0229
          52    0.0078   -0.0545    0.0119    0.0495    0.0570   -0.0094    0.0090    0.0198
          53    0.0057   -0.0747   -0.0126    0.0260    0.0222   -0.0032   -0.0064    0.0261
          54    0.0103   -0.0013    0.0047   -0.0007   -0.0023    0.0040   -0.0009    0.0099
          55    0.0050   -0.0080   -0.0161    0.0111   -0.0203    0.0238    0.0388   -0.0095
          56    0.0022   -0.0032   -0.0247   -0.0031   -0.0241    0.0250    0.0413   -0.0264
          57   -0.0007   -0.0063   -0.0260   -0.0058   -0.0177    0.0133    0.0121   -0.0115
          58    0.0039   -0.0018   -0.0148    0.0016   -0.0260    0.0222    0.0370   -0.0215
          59   -0.0010   -0.0115    0.0071   -0.0027   -0.0002   -0.0032   -0.0024    0.0052
          60    0.0030   -0.0109   -0.0476    0.0089   -0.0234    0.0332    0.0421   -0.0122
          61   -0.0012    0.0057    0.0039    0.0185   -0.0136    0.0004   -0.0010   -0.0054
          62    0.0289    0.0263   -0.0200    0.0309    0.0106    0.0141   -0.0416    0.0351
          63    0.0095    0.0266    0.0345    0.0915   -0.0377    0.0138   -0.0168    0.0073
          64    0.0015    0.0123   -0.0192   -0.0010    0.0147   -0.0035   -0.0232    0.0176
          65    0.0212    0.0260   -0.0131    0.0064    0.0276    0.0012   -0.0161    0.0235
          66   -0.0070    0.0278    0.0434    0.0296    0.0095   -0.0169    0.0349   -0.0124
          67   -0.0109   -0.0086   -0.0211   -0.0615    0.0228   -0.0154   -0.0037   -0.0063
          68    0.0111    0.0269   -0.0048   -0.0281    0.0541   -0.0174    0.0184    0.0094
          69    0.0058    0.0240    0.0315    0.0705   -0.0265    0.0076   -0.0111    0.0045
          70   -0.0447    0.0853   -0.0243   -0.0160   -0.0425    0.0109    0.0021    0.1443
          71   -0.0316    0.0714   -0.0149   -0.0187   -0.0190    0.0042    0.0020   -0.0033
          72    0.0149    0.0196    0.0246    0.0065    0.0277   -0.0027    0.0095   -0.0872
          73   -0.0420    0.0710   -0.0201    0.0075    0.0081   -0.0050   -0.0135   -0.0229
          74   -0.0025   -0.0213   -0.0051    0.0037   -0.0017    0.0026    0.0058    0.0381
          75   -0.0060    0.0948    0.0127   -0.0417   -0.0580    0.0219    0.0308    0.1384
          76   -0.0286    0.0327   -0.0096    0.0306    0.0504   -0.0166   -0.0196   -0.1344
          77   -0.0222    0.0044   -0.0251    0.0108    0.0157   -0.0059   -0.0194   -0.0474
          78    0.0147    0.0269    0.0278    0.0056    0.0302   -0.0034    0.0114   -0.1054
          79    0.0861    0.0148   -0.0258    0.0010   -0.0015   -0.1287    0.0930    0.0184
          80   -0.0124   -0.0062   -0.0127    0.0162   -0.0132   -0.0505    0.0176   -0.0023
          81    0.0102   -0.0103   -0.0502    0.0266   -0.0109   -0.0876    0.0045    0.0020
          82    0.0383    0.0048    0.0000   -0.0073    0.0138    0.0203    0.0261    0.0063
          83   -0.0758   -0.0197    0.0207    0.0059    0.0059    0.1466   -0.0741   -0.0194
          84   -0.0449   -0.0163    0.0035   -0.0038    0.0392    0.0994    0.0140    0.0177
          85   -0.0070   -0.0038    0.0304   -0.0199    0.0436    0.1651    0.0050    0.0105
          86    0.0029   -0.0067   -0.0342    0.0312   -0.0256   -0.1076    0.0209   -0.0031
          87   -0.0119   -0.0092   -0.0176    0.0035    0.0075   -0.0047    0.0008    0.0032
          88    0.0855    0.0113   -0.0378    0.0118   -0.0262    0.0045   -0.0773   -0.0279
          89   -0.0530   -0.0057    0.0371   -0.0179    0.0081   -0.0046    0.0526    0.0048
          90   -0.0146   -0.0100   -0.0167    0.0038    0.0097   -0.0002    0.0031    0.0046
          91   -0.0571   -0.0127    0.0454   -0.0241    0.0155   -0.0051    0.0566    0.0052
          92    0.0438    0.0043   -0.0360    0.0239   -0.0139    0.0085   -0.0342   -0.0099
          93   -0.0046   -0.0023   -0.0065   -0.0103    0.0004   -0.0059   -0.0106   -0.0054
          94   -0.0163   -0.0176    0.0297   -0.0146   -0.0082   -0.0278   -0.0453    0.0126
          95    0.0081   -0.0075    0.0330   -0.0145   -0.0049   -0.0119   -0.0198    0.0052
          96    0.0121   -0.0094    0.0320   -0.0183   -0.0086   -0.0153   -0.0395    0.0143


   Root No.       9        10        11        12        13        14        15        16

                 9 A      10 A      11 A      12 A      13 A      14 A      15 A      16 A   

                 161.5     178.1     200.9     225.2     303.1     323.9     377.2     421.3
  
           1    0.0001    0.0019   -0.0033    0.0039   -0.0096    0.0070    0.0033   -0.0131
           2    0.0006   -0.0090   -0.0198   -0.0025   -0.0061   -0.0074    0.0025   -0.0003
           3   -0.0039    0.0033   -0.0156    0.0167    0.0033   -0.0048    0.0050   -0.0128
           4   -0.0005    0.0014   -0.0018    0.0024   -0.0045    0.0005    0.0029   -0.0217
           5   -0.0007   -0.0036   -0.0035   -0.0090    0.0113    0.0120    0.0334   -0.0029
           6   -0.0070   -0.0071    0.0044    0.0043   -0.0133    0.0053   -0.0072   -0.0231
           7   -0.0042    0.0051    0.0148    0.0146   -0.0215    0.0080    0.0235    0.0184
           8   -0.0005   -0.0079   -0.0126    0.0001   -0.0086   -0.0100    0.0069    0.0082
           9    0.0117    0.0113   -0.0205   -0.0265   -0.0109   -0.0216   -0.0033    0.0034
          10    0.0048   -0.0008   -0.0033   -0.0163    0.0256   -0.0107    0.0137    0.0010
          11    0.0049    0.0165    0.0082   -0.0009    0.0110   -0.0033    0.0194   -0.0062
          12   -0.0030   -0.0040    0.0068   -0.0040   -0.0008    0.0009   -0.0143   -0.0094
          13    0.0096    0.0094   -0.0139    0.0061    0.0015   -0.0106   -0.0016   -0.0086
          14   -0.0004    0.0042    0.0039    0.0071   -0.0137    0.0148   -0.0106    0.0086
          15    0.0010   -0.0055   -0.0087   -0.0020   -0.0041    0.0200    0.0129    0.0031
          16   -0.0039    0.0089    0.0133    0.0101   -0.0221    0.0073    0.0255    0.0211
          17   -0.0073    0.0028    0.0219   -0.0068    0.0312    0.0099   -0.0161   -0.0170
          18    0.0065   -0.0038    0.0038   -0.0015   -0.0045   -0.0030    0.0017    0.0024
          19   -0.0053   -0.0221   -0.0143   -0.0093    0.0088   -0.0037    0.0126   -0.0095
          20   -0.0028    0.0033    0.0081    0.0061   -0.0139    0.0152   -0.0127    0.0106
          21    0.0087    0.0325    0.0124    0.0128   -0.0087    0.0025   -0.0085    0.0005
          22   -0.0128   -0.0130    0.0053   -0.0059   -0.0207   -0.0045   -0.0115   -0.0048
          23    0.0167    0.0003   -0.0014   -0.0233   -0.0205    0.0119   -0.0200   -0.0039
          24    0.0049    0.0050    0.0171   -0.0145    0.0010   -0.0054    0.0174   -0.0010
          25    0.0034    0.0022    0.0073   -0.0051    0.0197   -0.0383   -0.0182    0.0382
          26    0.0042    0.0187    0.0138    0.0050    0.0058   -0.0127    0.0025    0.0107
          27   -0.0072   -0.0208    0.0037   -0.0111    0.0034    0.0055   -0.0087    0.0384
          28   -0.0048   -0.0003    0.0229    0.0024    0.0015   -0.0340   -0.0221   -0.0228
          29   -0.0011    0.0018    0.0093   -0.0054    0.0123   -0.0035    0.0267   -0.0047
          30   -0.0134   -0.0278    0.0105   -0.0106   -0.0041    0.0100   -0.0034    0.0008
          31   -0.0011    0.0059   -0.0112   -0.0024    0.0186    0.0513   -0.0226    0.0096
          32    0.0002   -0.0130   -0.0178    0.0189   -0.0064   -0.0298   -0.0085    0.0016
          33   -0.0044    0.0030   -0.0181    0.0288    0.0211   -0.0026   -0.0041    0.0002
          34    0.0204    0.0057   -0.0171   -0.0013    0.0106    0.0231   -0.0184    0.0078
          35   -0.0155   -0.0132   -0.0148    0.0185   -0.0017   -0.0086   -0.0157    0.0027
          36   -0.0009    0.0043   -0.0016    0.0139    0.0250   -0.0050    0.0117    0.0088
          37   -0.0033   -0.0019    0.0043   -0.0006   -0.0162    0.0099    0.0106   -0.0349
          38    0.0066   -0.0063   -0.0198   -0.0212   -0.0190   -0.0148    0.0028    0.0062
          39   -0.0056    0.0032   -0.0176    0.0279    0.0137   -0.0022    0.0018   -0.0080
          40    0.0007    0.0054   -0.0194    0.0139   -0.0122    0.0035    0.0046   -0.0244
          41   -0.0070   -0.0155    0.0042   -0.0139    0.0148    0.0157    0.0427    0.0028
          42   -0.0038   -0.0018    0.0076    0.0020   -0.0113    0.0015   -0.0139   -0.0238
          43   -0.0115   -0.0022    0.0403    0.0360   -0.0117    0.0281    0.0313    0.0202
          44   -0.0136   -0.0151   -0.0112    0.0336   -0.0015    0.0046    0.0177   -0.0005
          45    0.0201    0.0166   -0.0269   -0.0486   -0.0166   -0.0338   -0.0108    0.0071
          46   -0.0035    0.0147    0.0136    0.0020   -0.0187    0.0025    0.0197    0.0214
[...]
 TRANSITION DIPOLE   0.0975         C  2 -- C  4          +1.0% ( 10.3%)     14.3%
 TRAVEL (Ang.)       0.1577         C  2 -- C  9          +1.0% ( 10.3%)     32.2%
 REDUCED MASS        0.9174         C  2 -- C 10          +1.0% ( 10.2%)     16.2%
 EFFECTIVE MASS      1.4382
 FORCE CONSTANT      4.7205

 VIBRATION         75   75A           ATOM PAIR      ENERGY CONTRIBUTION    RADIAL
 FREQUENCY          3017.91         C  5 -- H 18         +49.5% ( 69.3%)     97.8%
 TRANSITION DIPOLE   0.0705         C  5 -- H 17         +48.8% ( 68.8%)     97.7%
 TRAVEL (Ang.)       0.2156         C  5 -- C  7          +0.7% (  8.0%)     27.8%
 REDUCED MASS        0.4806         C  5 -- C  9          +0.6% (  7.8%)     26.8%
 EFFECTIVE MASS      1.2772
 FORCE CONSTANT      2.5789

 VIBRATION         76   76A           ATOM PAIR      ENERGY CONTRIBUTION    RADIAL
 FREQUENCY          3028.24         C  3 -- H 15         +52.6% ( 71.5%)     98.1%
 TRANSITION DIPOLE   0.0415         C  3 -- H 16         +44.4% ( 65.7%)     97.2%
 TRAVEL (Ang.)       0.2175         C 11 -- H 31          +0.9% (  9.5%)    100.0%
 REDUCED MASS        0.4705         C  3 -- C  6          +0.6% (  7.7%)     26.2%
 EFFECTIVE MASS      1.2760
 FORCE CONSTANT      2.5421

 VIBRATION         77   77A           ATOM PAIR      ENERGY CONTRIBUTION    RADIAL
 FREQUENCY          3035.24         C 11 -- H 31         +93.1% ( 97.6%)    100.0%
 TRANSITION DIPOLE   0.2783         C 12 -- H 30          +3.5% ( 19.0%)     99.6%
 TRAVEL (Ang.)       0.1619         C  1 -- C 11          +1.3% ( 11.4%)     14.8%
 REDUCED MASS        0.8475         C 11 -- C 12          +1.2% ( 11.2%)     40.6%
 EFFECTIVE MASS      1.4805
 FORCE CONSTANT      4.6001

 VIBRATION         78   78A           ATOM PAIR      ENERGY CONTRIBUTION    RADIAL
 FREQUENCY          3038.18         C 12 -- H 30         +91.0% ( 97.0%)    100.0%
 TRANSITION DIPOLE   0.1860         C 11 -- H 31          +3.4% ( 18.7%)     99.3%
 TRAVEL (Ang.)       0.1639         C 11 -- C 12          +1.7% ( 13.3%)     39.2%
 REDUCED MASS        0.8261         C  8 -- H 29          +1.5% ( 12.4%)     98.1%
 EFFECTIVE MASS      1.5451
 FORCE CONSTANT      4.4925

 VIBRATION         79   79A           ATOM PAIR      ENERGY CONTRIBUTION    RADIAL
 FREQUENCY          3045.68         C  4 -- H 19         +57.3% ( 78.7%)     97.9%
 TRANSITION DIPOLE   0.0708         C  4 -- H 20         +39.0% ( 64.9%)     95.7%
 TRAVEL (Ang.)       0.2044         C  4 -- C 10          +1.1% ( 10.9%)      0.4%
 REDUCED MASS        0.5301         C  4 -- C  9          +1.1% ( 10.9%)      0.2%
 EFFECTIVE MASS      1.5373
 FORCE CONSTANT      2.8970

 VIBRATION         80   80A           ATOM PAIR      ENERGY CONTRIBUTION    RADIAL
 FREQUENCY          3069.97         C  8 -- H 28         +49.8% ( 72.8%)     97.1%
 TRANSITION DIPOLE   0.0178         C  8 -- H 27         +48.3% ( 71.7%)     96.9%
 TRAVEL (Ang.)       0.2077         C  8 -- C 12          +1.0% ( 10.2%)      0.0%
 REDUCED MASS        0.5093         C  8 -- H 29          +0.9% (  9.9%)      0.2%
 EFFECTIVE MASS      1.5010
 FORCE CONSTANT      2.8282

 VIBRATION         81   81A           ATOM PAIR      ENERGY CONTRIBUTION    RADIAL
 FREQUENCY          3075.63         C  8 -- H 29         +62.6% ( 81.5%)     98.9%
 TRANSITION DIPOLE   0.0548         C  8 -- H 27         +17.8% ( 43.5%)     85.6%
 TRAVEL (Ang.)       0.2141         C  8 -- H 28         +16.4% ( 41.8%)     84.2%
 REDUCED MASS        0.4781         C 12 -- H 30          +2.0% ( 14.6%)    100.0%
 EFFECTIVE MASS      1.5084
 FORCE CONSTANT      2.6648

 VIBRATION         82   82A           ATOM PAIR      ENERGY CONTRIBUTION    RADIAL
 FREQUENCY          3076.08         C  6 -- H 21         +52.6% ( 74.8%)     97.5%
 TRANSITION DIPOLE   0.0259         C  6 -- H 23         +45.1% ( 69.3%)     96.5%
 TRAVEL (Ang.)       0.2077         C  6 -- H 22          +1.0% ( 10.4%)      2.0%
 REDUCED MASS        0.5082         C  3 -- C  6          +1.0% ( 10.2%)      0.0%
 EFFECTIVE MASS      1.5020
 FORCE CONSTANT      2.8331

 VIBRATION         83   83A           ATOM PAIR      ENERGY CONTRIBUTION    RADIAL
 FREQUENCY          3081.82         C  7 -- H 24         +49.1% ( 72.3%)     97.0%
 TRANSITION DIPOLE   0.0153         C  7 -- H 25         +48.8% ( 72.1%)     97.0%
 TRAVEL (Ang.)       0.2077         C  5 -- C  7          +1.0% ( 10.2%)      0.0%
 REDUCED MASS        0.5070         C  7 -- H 26          +0.9% ( 10.0%)      0.0%
 EFFECTIVE MASS      1.5015
 FORCE CONSTANT      2.8371

 VIBRATION         84   84A           ATOM PAIR      ENERGY CONTRIBUTION    RADIAL
 FREQUENCY          3084.24         C  6 -- H 22         +61.3% ( 80.7%)     98.7%
 TRANSITION DIPOLE   0.0145         C  6 -- H 23         +21.2% ( 47.5%)     88.0%
 TRAVEL (Ang.)       0.2146         C  6 -- H 21         +16.0% ( 41.2%)     83.4%
 REDUCED MASS        0.4749         C  3 -- C  6          +1.0% ( 10.4%)      0.0%
 EFFECTIVE MASS      1.5041
 FORCE CONSTANT      2.6617

 VIBRATION         85   85A           ATOM PAIR      ENERGY CONTRIBUTION    RADIAL
 FREQUENCY          3086.98         C  7 -- H 26         +64.4% ( 82.8%)     98.9%
 TRANSITION DIPOLE   0.0110         C  7 -- H 25         +17.2% ( 42.8%)     84.9%
 TRAVEL (Ang.)       0.2086         C  7 -- H 24         +17.0% ( 42.6%)     84.7%
 REDUCED MASS        0.5020         C  5 -- C  7          +1.0% ( 10.4%)      0.0%
 EFFECTIVE MASS      1.5058
 FORCE CONSTANT      2.8187

 VIBRATION         86   86A           ATOM PAIR      ENERGY CONTRIBUTION    RADIAL
 FREQUENCY          3101.23         C  4 -- H 20         +59.0% ( 76.4%)     98.1%
 TRANSITION DIPOLE   0.1129         C  4 -- H 19         +38.8% ( 61.9%)     95.2%
 TRAVEL (Ang.)       0.2083         C  4 -- C 10          +0.7% (  8.3%)     97.9%
 REDUCED MASS        0.5011         C  2 -- C  4          +0.7% (  8.3%)     51.2%
 EFFECTIVE MASS      1.2818
 FORCE CONSTANT      2.8397

 VIBRATION         87   87A           ATOM PAIR      ENERGY CONTRIBUTION    RADIAL
 FREQUENCY          3169.58         C  8 -- H 29         +34.5% ( 56.6%)     97.2%
 TRANSITION DIPOLE   0.0662         C  8 -- H 27         +32.6% ( 55.0%)     97.1%
 TRAVEL (Ang.)       0.2550         C  8 -- H 28         +32.5% ( 54.9%)     97.0%
 REDUCED MASS        0.3272         C  8 -- C 12          +0.3% (  5.4%)    100.0%
 EFFECTIVE MASS      1.1393
 FORCE CONSTANT      1.9366

 VIBRATION         88   88A           ATOM PAIR      ENERGY CONTRIBUTION    RADIAL
 FREQUENCY          3178.72         C  6 -- H 22         +37.1% ( 58.6%)     97.7%
 TRANSITION DIPOLE   0.0223         C  6 -- H 23         +32.6% ( 54.9%)     97.0%
 TRAVEL (Ang.)       0.2539         C  6 -- H 21         +30.0% ( 52.7%)     96.5%
 REDUCED MASS        0.3291         C  3 -- C  6          +0.3% (  5.1%)     99.4%
 EFFECTIVE MASS      1.1367
 FORCE CONSTANT      1.9591

 VIBRATION         89   89A           ATOM PAIR      ENERGY CONTRIBUTION    RADIAL
 FREQUENCY          3183.29         C  7 -- H 26         +33.7% ( 55.9%)     97.2%
 TRANSITION DIPOLE   0.0232         C  7 -- H 25         +33.0% ( 55.3%)     97.1%
 TRAVEL (Ang.)       0.2545         C  7 -- H 24         +33.0% ( 55.2%)     97.1%
 REDUCED MASS        0.3270         C  5 -- C  7          +0.3% (  5.1%)    100.0%
 EFFECTIVE MASS      1.1360
 FORCE CONSTANT      1.9524

 VIBRATION         90   90A           ATOM PAIR      ENERGY CONTRIBUTION    RADIAL
 FREQUENCY          3205.52         C 10 -- H 32         +94.1% ( 99.9%)    100.0%
 TRANSITION DIPOLE   0.4221         C  9 -- C 10          +2.0% ( 14.7%)     64.7%
 TRAVEL (Ang.)       0.1505         C  4 -- C 10          +1.9% ( 14.1%)     99.3%
 REDUCED MASS        0.9293         C  2 -- C 10          +1.8% ( 14.0%)     37.2%
 EFFECTIVE MASS      1.6002
 FORCE CONSTANT      5.6260

      SYMMETRY NUMBER FOR POINT-GROUP C1  =  1


          SYSTEM IS A GROUND STATE



 InChI=1S/C12H20/c1-4-7-11(6-3)12-8-10(5-2)9-12/h4,7-8,11-12H,5-6,9H2,1-3H3


          MOLECULE IS NOT LINEAR

          THERE ARE 90 GENUINE VIBRATIONS IN THIS SYSTEM
          THIS THERMODYNAMICS CALCULATION IS LIMITED TO
          MOLECULES WHICH HAVE NO INTERNAL ROTATIONS




                    CALCULATED THERMODYNAMIC PROPERTIES
                                          *
   TEMP. (K)   PARTITION FUNCTION   H.O.F.    ENTHALPY  HEAT CAPACITY ENTROPY
                                   KCAL/MOL   CAL/MOLE    CAL/K/MOL  CAL/K/MOL


 298.00  VIB.     0.9846D+06                  7553.7081    47.2904    52.7715
         ROT.     0.1835D+07                   888.2803     2.9808    31.6419
         INT.     0.1807D+13                  8441.9884    50.2712    84.4134
         TRA.     0.2036D+28                  1480.4672     4.9680    41.1956
         TOT.                       15.979    9922.4556    55.2392   125.6090

 200.00  VIB.     0.1290D+05                  3675.2150    32.4586    37.1853
         ROT.     0.1009D+07                   596.1613     2.9808    30.4532
         INT.     0.1302D+11                  4271.3763    35.4394    67.6385
         TRA.     0.1119D+28                   993.6021     4.9680    39.2145
         TOT.                       11.322    5264.9784    40.4074   106.8530

 210.00  VIB.     0.2043D+05                  4006.4475    33.7949    38.8011
         ROT.     0.1086D+07                   625.9693     2.9808    30.5986
         INT.     0.2219D+11                  4632.4168    36.7757    69.3998
         TRA.     0.1204D+28                  1043.2822     4.9680    39.4569
         TOT.                       11.732    5675.6991    41.7438   108.8567

 220.00  VIB.     0.3220D+05                  4351.2586    35.1746    40.4050
         ROT.     0.1164D+07                   655.7774     2.9808    30.7373
         INT.     0.3749D+11                  5007.0360    38.1554    71.1423
         TRA.     0.1291D+28                  1092.9623     4.9680    39.6880
         TOT.                       12.157    6099.9983    43.1235   110.8303

 230.00  VIB.     0.5051D+05                  4710.0884    36.5987    41.9998
         ROT.     0.1245D+07                   685.5855     2.9808    30.8698
         INT.     0.6286D+11                  5395.6739    39.5795    72.8696
         TRA.     0.1380D+28                  1142.6424     4.9680    39.9088
         TOT.                       12.595    6538.3163    44.5475   112.7784

 240.00  VIB.     0.7890D+05                  5083.3789    38.0665    43.5883
         ROT.     0.1327D+07                   715.3935     2.9808    30.9967
         INT.     0.1047D+12                  5798.7724    41.0473    74.5850
         TRA.     0.1471D+28                  1192.3226     4.9680    40.1203
         TOT.                       13.048    6991.0950    46.0154   114.7052

 250.00  VIB.     0.1228D+06                  5471.5588    39.5762    45.1727
         ROT.     0.1410D+07                   745.2016     2.9808    31.1184
         INT.     0.1732D+12                  6216.7604    42.5570    76.2911
         TRA.     0.1564D+28                  1242.0027     4.9680    40.3231
         TOT.                       13.515    7458.7631    47.5250   116.6141

 260.00  VIB.     0.1904D+06                  5875.0322    41.1247    46.7549
         ROT.     0.1496D+07                   775.0097     2.9808    31.2353
         INT.     0.2849D+12                  6650.0418    44.1055    77.9902
         TRA.     0.1659D+28                  1291.6828     4.9680    40.5179
         TOT.                       13.998    7941.7246    49.0735   118.5082

 270.00  VIB.     0.2945D+06                  6294.1689    42.7082    48.3366
         ROT.     0.1583D+07                   804.8177     2.9808    31.3478
         INT.     0.4662D+12                  7098.9866    45.6890    79.6844
         TRA.     0.1756D+28                  1341.3629     4.9680    40.7054
         TOT.                       14.497    8440.3495    50.6570   120.3898

 280.00  VIB.     0.4541D+06                  6729.2981    44.3224    49.9189
         ROT.     0.1672D+07                   834.6258     2.9808    31.4562
         INT.     0.7592D+12                  7563.9239    47.3032    81.3750
         TRA.     0.1854D+28                  1391.0430     4.9680    40.8861
         TOT.                       15.012    8954.9669    52.2712   122.2612

 290.00  VIB.     0.6987D+06                  7180.7039    45.9627    51.5027
         ROT.     0.1762D+07                   864.4339     2.9808    31.5608
         INT.     0.1231D+13                  8045.1377    48.9435    83.0635
         TRA.     0.1954D+28                  1440.7231     4.9680    41.0604
         TOT.                       15.543    9485.8608    53.9115   124.1240

 300.00  VIB.     0.1073D+07                  7648.6226    47.6242    53.0889
         ROT.     0.1854D+07                   894.2419     2.9808    31.6618
         INT.     0.1989D+13                  8542.8645    50.6050    84.7507
         TRA.     0.2056D+28                  1490.4032     4.9680    41.2289
         TOT.                       16.090   10033.2677    55.5730   125.9796

 310.00  VIB.     0.1644D+07                  8133.2421    49.3020    54.6778
         ROT.     0.1947D+07                   924.0500     2.9808    31.7596
         INT.     0.3201D+13                  9057.2920    52.2829    86.4374
         TRA.     0.2160D+28                  1540.0833     4.9680    41.3918
         TOT.                       16.654   10597.3753    57.2509   127.8292

 320.00  VIB.     0.2514D+07                  8634.7022    50.9915    56.2697
         ROT.     0.2042D+07                   953.8580     2.9808    31.8542
         INT.     0.5135D+13                  9588.5603    53.9723    88.1239
         TRA.     0.2265D+28                  1589.7634     4.9680    41.5495
         TOT.                       17.235   11178.3237    58.9404   129.6734

 330.00  VIB.     0.3840D+07                  9153.0963    52.6881    57.8648
         ROT.     0.2139D+07                   983.6661     2.9808    31.9459
         INT.     0.8214D+13                 10136.7624    55.6689    89.8107
         TRA.     0.2372D+28                  1639.4435     4.9680    41.7024
         TOT.                       17.833   11776.2059    60.6369   131.5131

 340.00  VIB.     0.5859D+07                  9688.4733    54.3874    59.4629
         ROT.     0.2237D+07                  1013.4742     2.9808    32.0349
         INT.     0.1310D+14                 10701.9475    57.3682    91.4978
         TRA.     0.2481D+28                  1689.1236     4.9680    41.8507
         TOT.                       18.448   12391.0711    62.3362   133.3485

 350.00  VIB.     0.8927D+07                 10240.8409    56.0856    61.0640
         ROT.     0.2336D+07                  1043.2822     2.9808    32.1213
         INT.     0.2086D+14                 11284.1231    59.0664    93.1853
         TRA.     0.2591D+28                  1738.8037     4.9680    41.9947
         TOT.                       19.080   13022.9268    64.0344   135.1800

 360.00  VIB.     0.1359D+08                 10810.1681    57.7788    62.6677
         ROT.     0.2437D+07                  1073.0903     2.9808    32.2053
         INT.     0.3312D+14                 11883.2584    60.7596    94.8730
         TRA.     0.2703D+28                  1788.4838     4.9680    42.1347
         TOT.                       19.728   13671.7422    65.7276   137.0077

 370.00  VIB.     0.2067D+08                 11396.3893    59.4638    64.2738
         ROT.     0.2539D+07                  1102.8984     2.9808    32.2870
         INT.     0.5249D+14                 12499.2877    62.4446    96.5608
         TRA.     0.2817D+28                  1838.1639     4.9680    42.2708
         TOT.                       20.394   14337.4516    67.4127   138.8315

 380.00  VIB.     0.3141D+08                 11999.4077    61.1377    65.8818
         ROT.     0.2643D+07                  1132.7064     2.9808    32.3665
         INT.     0.8302D+14                 13132.1141    64.1185    98.2483
         TRA.     0.2932D+28                  1887.8440     4.9680    42.4033
         TOT.                       21.077   15019.9581    69.0866   140.6516

 390.00  VIB.     0.4770D+08                 12619.0983    62.7979    67.4914
         ROT.     0.2748D+07                  1162.5145     2.9808    32.4439
         INT.     0.1311D+15                 13781.6127    65.7787    99.9353
         TRA.     0.3048D+28                  1937.5242     4.9680    42.5323
         TOT.                       21.776   15719.1369    70.7467   142.4676

 400.00  VIB.     0.7240D+08                 13255.3118    64.4420    69.1021
         ROT.     0.2854D+07                  1192.3226     2.9808    32.5194
         INT.     0.2067D+15                 14447.6343    67.4228   101.6214
         TRA.     0.3166D+28                  1987.2043     4.9680    42.6581
         TOT.                       22.491   16434.8386    72.3908   144.2795

   *: NOTE: HEATS OF FORMATION ARE RELATIVE TO THE
            ELEMENTS IN THEIR STANDARD STATE AT 298K
              (=  Standard Enthalpy of Formation).

            Hvib:  Zero-point energy is not included.
                   frequencies of less than zero cm-1 are not included.
            Hrot = (3/2)RT
            Htra = (3/2)RT + pV = (5/2)RT

            Heat capacity is Cp, not Cv

          For more information, see: HTTP://OpenMOPAC.net/Manual/thermochemistry.html


           FORCE CONSTANT IN CARTESIAN COORDINATES (Millidynes/A)

    ATOM   CHEMICAL       X               Y               Z
   NUMBER   SYMBOL  FORCE CONSTANT  FORCE CONSTANT  FORCE CONSTANT

      1       C        8.297043        8.145982        8.852226
      2       C        8.848050        7.225570        8.193591
      3       C        8.494350        7.943942        8.278746
      4       C        7.358266        9.288071        7.201015
      5       C        8.480547        8.669476        8.683512
      6       C        8.284281        8.414568        8.203648
      7       C        8.302818        8.314550        8.320094
      8       C        8.168782        8.390331        8.884376
      9       C        7.528222        7.989215       12.439690
     10       C        4.886635       10.536750       10.948075
     11       C        7.042949       11.026659        9.111877
     12       C        6.850506       10.873772        9.423338
     13       H        1.126793        1.545677        3.351671
     14       H        1.260456        1.556802        3.395365
     15       H        0.874020        1.492726        4.045041
     16       H        1.727771        1.859085        2.808473
     17       H        3.601177        1.998320        0.642284
     18       H        1.522095        0.711116        4.011184
     19       H        2.464744        0.896966        3.198142
     20       H        2.726761        3.121356        0.725423
     21       H        1.890868        1.987174        2.862278
     22       H        1.186476        4.926859        0.674634
     23       H        0.922341        1.317353        4.534956
     24       H        1.662451        0.738202        4.371004
     25       H        3.893672        2.206852        0.671569
     26       H        2.435162        1.313905        3.037961
     27       H        1.105660        4.876396        0.681335
     28       H        5.343690        0.642921        0.675685
     29       H        1.185912        1.530536        4.049970
     30       H        0.858992        1.216407        4.133165
     31       H        0.866116        1.225694        4.121605
     32       H        0.435277        4.149290        1.982587

 **********************
 *                    *
 * JOB ENDED NORMALLY *
 *                    *
 **********************



 TOTAL JOB TIME:            10.78 SECONDS

 == MOPAC DONE ==
