 *******************************************************************************
 **                                                                           **
 **                              MOPAC v23.1.2                                **
 **                                                                           **
 *******************************************************************************
 **          Digital Object Identifier (DOI): 10.5281/zenodo.6511958          **
 **    Visit the DOI location for information on how to cite this program.    **
 *******************************************************************************

                              PM3 CALCULATION RESULTS

 *******************************************************************************
 *  CALCULATION DONE: (MAX THREADS = 1)              Tue Jun  3 16:33:38 2025  *
 *  PM3        - The PM3 Hamiltonian to be used
 *  PRECISE    - TIGHTER CRITERIA TO BE USED
 *  NOSYM      - POINT-GROUP SYMMETRY SET TO C1
 *  THREADS=1  - MULTI-THREADING NOT USED
 *  T=         - A TIME OF 172800.0 SECONDS REQUESTED
 *  DUMP=N     - RESTART FILE WRITTEN EVERY 7200.0 SECONDS REQUESTED
 *******************************************************************************
pm3  precise nosym THREADS=1
 InChI=1S/C10H10/c1-2-6-10-8-4-3-7-9(10)5-1/h1-5,8H,6-7H2

   ATOM   CHEMICAL          X               Y               Z
  NUMBER   SYMBOL      (ANGSTROMS)     (ANGSTROMS)     (ANGSTROMS)

     1       C          1.74750000  *  -0.96230000  *   0.05410000  *
     2       C         -1.74750000  *   0.96230000  *  -0.05410000  *
     3       C          0.26060000  *  -0.68970000  *   0.08620000  *
     4       C         -0.26060000  *   0.68970000  *  -0.08620000  *
     5       C          2.58080000  *   0.27390000  *  -0.16250000  *
     6       C         -2.58080000  *  -0.27390000  *   0.16250000  *
     7       C         -0.59200000  *  -1.70450000  *   0.27210000  *
     8       C          0.59200000  *   1.70450000  *  -0.27210000  *
     9       C          2.04710000  *   1.48930000  *  -0.31080000  *
    10       C         -2.04710000  *  -1.48930000  *   0.31080000  *
    11       H          2.05340000  *  -1.42570000  *   1.01650000  *
    12       H          1.96830000  *  -1.68040000  *  -0.76440000  *
    13       H         -1.96830000  *   1.68040000  *   0.76440000  *
    14       H         -2.05340000  *   1.42570000  *  -1.01650000  *
    15       H          3.65780000  *   0.16670000  *  -0.19860000  *
    16       H         -3.65780000  *  -0.16670000  *   0.19860000  *
    17       H          2.69780000  *   2.34080000  *  -0.46370000  *
    18       H         -0.21740000  *  -2.71330000  *   0.39850000  *
    19       H          0.21740000  *   2.71330000  *  -0.39850000  *
    20       H         -2.69780000  *  -2.34080000  *   0.46370000  *



          CARTESIAN COORDINATES 

    NO.       ATOM           X           Y           Z

     1         C          1.7475     -0.9623      0.0541
     2         C         -1.7475      0.9623     -0.0541
     3         C          0.2606     -0.6897      0.0862
     4         C         -0.2606      0.6897     -0.0862
     5         C          2.5808      0.2739     -0.1625
     6         C         -2.5808     -0.2739      0.1625
     7         C         -0.5920     -1.7045      0.2721
     8         C          0.5920      1.7045     -0.2721
     9         C          2.0471      1.4893     -0.3108
    10         C         -2.0471     -1.4893      0.3108
    11         H          2.0534     -1.4257      1.0165
    12         H          1.9683     -1.6804     -0.7644
    13         H         -1.9683      1.6804      0.7644
    14         H         -2.0534      1.4257     -1.0165
    15         H          3.6578      0.1667     -0.1986
    16         H         -3.6578     -0.1667      0.1986
    17         H          2.6978      2.3408     -0.4637
    18         H         -0.2174     -2.7133      0.3985
    19         H          0.2174      2.7133     -0.3985
    20         H         -2.6978     -2.3408      0.4637

  H: (PM3): J. J. P. STEWART, J. COMP. CHEM. 10, 209 (1989).
  C: (PM3): J. J. P. STEWART, J. COMP. CHEM. 10, 209 (1989).

           Empirical Formula: C10 H10  =    20 atoms



      MOLECULAR POINT GROUP   :   C1  


      RHF CALCULATION, NO. OF DOUBLY OCCUPIED LEVELS = 25


          Geometry optimization using EF

          DIAGONAL MATRIX USED AS START HESSIAN

 CYCLE:     1 TIME:   0.008 TIME LEFT:  2.00D  GRAD.:    91.807 HEAT:  50.52437
 CYCLE:     2 TIME:   0.012 TIME LEFT:  2.00D  GRAD.:    95.807 HEAT:  49.83754
 CYCLE:     3 TIME:   0.008 TIME LEFT:  2.00D  GRAD.:    97.755 HEAT:  49.74315
 CYCLE:     4 TIME:   0.004 TIME LEFT:  2.00D  GRAD.:    80.021 HEAT:  49.31130
 CYCLE:     5 TIME:   0.008 TIME LEFT:  2.00D  GRAD.:    40.893 HEAT:  48.34717
 CYCLE:     6 TIME:   0.012 TIME LEFT:  2.00D  GRAD.:    25.877 HEAT:  47.77161
 CYCLE:     7 TIME:   0.012 TIME LEFT:  2.00D  GRAD.:    16.266 HEAT:  47.60010
 CYCLE:     8 TIME:   0.008 TIME LEFT:  2.00D  GRAD.:    16.028 HEAT:  47.53614
 CYCLE:     9 TIME:   0.008 TIME LEFT:  2.00D  GRAD.:    11.522 HEAT:  47.48540
 CYCLE:    10 TIME:   0.008 TIME LEFT:  2.00D  GRAD.:    12.658 HEAT:  47.45015
 CYCLE:    11 TIME:   0.008 TIME LEFT:  2.00D  GRAD.:     8.860 HEAT:  47.39939
 CYCLE:    12 TIME:   0.008 TIME LEFT:  2.00D  GRAD.:     9.272 HEAT:  47.36697
 CYCLE:    13 TIME:   0.008 TIME LEFT:  2.00D  GRAD.:     4.677 HEAT:  47.34698
 CYCLE:    14 TIME:   0.008 TIME LEFT:  2.00D  GRAD.:     2.352 HEAT:  47.34207
 CYCLE:    15 TIME:   0.008 TIME LEFT:  2.00D  GRAD.:     1.396 HEAT:  47.33981
 CYCLE:    16 TIME:   0.008 TIME LEFT:  2.00D  GRAD.:     1.745 HEAT:  47.33748
 CYCLE:    17 TIME:   0.008 TIME LEFT:  2.00D  GRAD.:     1.072 HEAT:  47.33571
 CYCLE:    18 TIME:   0.008 TIME LEFT:  2.00D  GRAD.:     0.852 HEAT:  47.33538
 CYCLE:    19 TIME:   0.004 TIME LEFT:  2.00D  GRAD.:     0.522 HEAT:  47.33503
 CYCLE:    20 TIME:   0.008 TIME LEFT:  2.00D  GRAD.:     0.558 HEAT:  47.33494
 CYCLE:    21 TIME:   0.008 TIME LEFT:  2.00D  GRAD.:     1.376 HEAT:  47.33515
 CYCLE:    22 TIME:   0.008 TIME LEFT:  2.00D  GRAD.:     0.312 HEAT:  47.33484
 CYCLE:    23 TIME:   0.004 TIME LEFT:  2.00D  GRAD.:     0.546 HEAT:  47.33486
 CYCLE:    24 TIME:   0.008 TIME LEFT:  2.00D  GRAD.:     0.675 HEAT:  47.33493
 CYCLE:    25 TIME:   0.004 TIME LEFT:  2.00D  GRAD.:     0.312 HEAT:  47.33479
 CYCLE:    26 TIME:   0.008 TIME LEFT:  2.00D  GRAD.:     0.885 HEAT:  47.33489
 CYCLE:    27 TIME:   0.004 TIME LEFT:  2.00D  GRAD.:     0.149 HEAT:  47.33476
 CYCLE:    28 TIME:   0.008 TIME LEFT:  2.00D  GRAD.:     0.107 HEAT:  47.33476
 CYCLE:    29 TIME:   0.008 TIME LEFT:  2.00D  GRAD.:     0.050 HEAT:  47.33475

     GRADIENT =  0.04998 IS LESS THAN CUTOFF =  0.05000



 -------------------------------------------------------------------------------
 pm3  precise nosym THREADS=1
 InChI=1S/C10H10/c1-2-6-10-8-4-3-7-9(10)5-1/h1-5,8H,6-7H2



     GEOMETRY OPTIMISED USING EIGENVECTOR FOLLOWING (EF).     
     SCF FIELD WAS ACHIEVED                                   


                              PM3 CALCULATION
                                                       MOPAC v23.1.2 MacOS
                                                       Tue Jun  3 16:33:38 2025




          FINAL HEAT OF FORMATION =         47.33475 KCAL/MOL =     198.04860 KJ/MOL


          COSMO AREA              =        169.68 SQUARE ANGSTROMS
          COSMO VOLUME            =        169.68 CUBIC ANGSTROMS

          GRADIENT NORM           =          0.04998          =       0.01118 PER ATOM
          IONIZATION POTENTIAL    =          8.042129 EV
          HOMO LUMO ENERGIES (EV) =         -8.042 -0.474
          NO. OF FILLED LEVELS    =         25
          MOLECULAR WEIGHT        =        130.1890         POINT GROUP:  C1  

          MOLECULAR DIMENSIONS (Angstroms)

            Atom       Atom       Distance
            H    16    H    15     7.29625
            H    19    H    18     5.50207
            H    13    H    12     1.77286


          SCF CALCULATIONS        =         36

          WALL-CLOCK TIME         =      0.238 SECONDS
          COMPUTATION TIME        =      0.149 SECONDS




   ATOM   CHEMICAL          X               Y               Z
  NUMBER   SYMBOL      (ANGSTROMS)     (ANGSTROMS)     (ANGSTROMS)

     1       C          1.71984871  *  -0.93065071  *   0.05076565  *
     2       C         -1.71984959  *   0.93065491  *  -0.05077537  *
     3       C          0.24660385  *  -0.68058620  *   0.08566167  *
     4       C         -0.24660400  *   0.68058529  *  -0.08565319  *
     5       C          2.55864538  *   0.27417511  *  -0.16131001  *
     6       C         -2.55864461  *  -0.27417745  *   0.16129339  *
     7       C         -0.60904675  *  -1.70954680  *   0.27394916  *
     8       C          0.60904918  *   1.70954608  *  -0.27396585  *
     9       C          2.03740154  *   1.49934269  *  -0.31186222  *
    10       C         -2.03740400  *  -1.49934332  *   0.31189241  *
    11       H          2.03007966  *  -1.41562016  *   1.00020884  *
    12       H          1.94611580  *  -1.66518568  *  -0.75056625  *
    13       H         -1.94611563  *   1.66518582  *   0.75056639  *
    14       H         -2.03007917  *   1.41561784  *  -1.00019559  *
    15       H          3.64152449  *   0.11093526  *  -0.18924856  *
    16       H         -3.64152484  *  -0.11093508  *   0.18925073  *
    17       H          2.67535836  *   2.37541622  *  -0.46758324  *
    18       H         -0.23848399  *  -2.73240927  *   0.40279715  *
    19       H          0.23848381  *   2.73241033  *  -0.40279279  *
    20       H         -2.67535747  *  -2.37541392  *   0.46757845  *

                             CARTESIAN COORDINATES

   1    C        1.719848713    -0.930650710     0.050765647
   2    C       -1.719849592     0.930654913    -0.050775367
   3    C        0.246603848    -0.680586196     0.085661668
   4    C       -0.246604002     0.680585291    -0.085653191
   5    C        2.558645376     0.274175108    -0.161310010
   6    C       -2.558644609    -0.274177451     0.161293386
   7    C       -0.609046746    -1.709546798     0.273949156
   8    C        0.609049176     1.709546080    -0.273965853
   9    C        2.037401544     1.499342686    -0.311862221
  10    C       -2.037404000    -1.499343316     0.311892406
  11    H        2.030079657    -1.415620165     1.000208841
  12    H        1.946115805    -1.665185683    -0.750566252
  13    H       -1.946115629     1.665185819     0.750566388
  14    H       -2.030079173     1.415617841    -1.000195587
  15    H        3.641524485     0.110935265    -0.189248562
  16    H       -3.641524843    -0.110935082     0.189250730
  17    H        2.675358357     2.375416225    -0.467583241
  18    H       -0.238483987    -2.732409268     0.402797146
  19    H        0.238483811     2.732410334    -0.402792791
  20    H       -2.675357475    -2.375413924     0.467578446


           Empirical Formula: C10 H10  =    20 atoms



      MOLECULAR POINT GROUP   :   C1  


                  EIGENVALUES  
 -41.03397 -35.64061 -32.25713 -28.82326 -27.36230 -23.10055 -21.42281 -21.10316
 -17.80300 -17.34943 -16.89448 -15.68221 -15.36184 -15.17062 -14.48160 -14.40278
 -14.11538 -13.47363 -13.06400 -12.23484 -11.76407 -11.47754 -11.34275 -10.03306
  -8.04213  -0.47375   0.74761   1.86333   2.36855   3.08229   3.20975   3.29133
   3.46494   3.60561   3.73660   3.83287   4.00314   4.06748   4.28581   4.33767
   4.48240   4.51305   4.88337   4.95862   5.31907   5.34255   5.74944   5.85816
   6.32905   6.36534


              NET ATOMIC CHARGES AND DIPOLE CONTRIBUTIONS

  ATOM NO.   TYPE          CHARGE      No. of ELECS.   s-Pop       p-Pop       
    1          C          -0.016364        4.0164     1.13187     2.88449
    2          C          -0.016362        4.0164     1.13187     2.88449
    3          C          -0.056693        4.0567     1.18033     2.87636
    4          C          -0.056694        4.0567     1.18033     2.87636
    5          C          -0.139347        4.1393     1.19533     2.94402
    6          C          -0.139348        4.1393     1.19533     2.94402
    7          C          -0.118641        4.1186     1.17840     2.94025
    8          C          -0.118641        4.1186     1.17840     2.94024
    9          C          -0.104207        4.1042     1.17593     2.92828
   10          C          -0.104207        4.1042     1.17593     2.92828
   11          H           0.065408        0.9346     0.93459
   12          H           0.065418        0.9346     0.93458
   13          H           0.065417        0.9346     0.93458
   14          H           0.065409        0.9346     0.93459
   15          H           0.099350        0.9006     0.90065
   16          H           0.099349        0.9007     0.90065
   17          H           0.101250        0.8988     0.89875
   18          H           0.103827        0.8962     0.89617
   19          H           0.103827        0.8962     0.89617
   20          H           0.101250        0.8987     0.89875
 DIPOLE           X         Y         Z       TOTAL
 POINT-CHG.     0.000     0.000     0.000     0.000
 HYBRID        -0.000    -0.000     0.000     0.000
 SUM            0.000     0.000     0.000     0.000


          ATOMIC ORBITAL ELECTRON POPULATIONS

     Atom    s        px        py        pz   
    1  C   1.13187   0.91571   0.96223   1.00656
    2  C   1.13187   0.91571   0.96223   1.00656
    3  C   1.18033   0.94827   0.93572   0.99238
    4  C   1.18033   0.94827   0.93572   0.99237
    5  C   1.19533   0.98420   0.95413   1.00569
    6  C   1.19533   0.98420   0.95413   1.00569
    7  C   1.17840   0.94046   0.97432   1.02547
    8  C   1.17840   0.94046   0.97432   1.02547
    9  C   1.17593   0.94924   0.96709   1.01195
   10  C   1.17593   0.94924   0.96709   1.01195
   11  H   0.93459
   12  H   0.93458
   13  H   0.93458
   14  H   0.93459
   15  H   0.90065
   16  H   0.90065
   17  H   0.89875
   18  H   0.89617
   19  H   0.89617
   20  H   0.89875
 *******************************************************************************
 **                                                                           **
 **                              MOPAC v23.1.2                                **
 **                                                                           **
 *******************************************************************************
 **          Digital Object Identifier (DOI): 10.5281/zenodo.6511958          **
 **    Visit the DOI location for information on how to cite this program.    **
 *******************************************************************************

                              PM3 CALCULATION RESULTS

 *******************************************************************************
 *  CALCULATION DONE: (MAX THREADS = 1)              Tue Jun  3 16:33:38 2025  *
 *  PM3        - The PM3 Hamiltonian to be used
 *  OLDGEO     - PREVIOUS GEOMETRY TO BE USED
 *  PRECISE    - TIGHTER CRITERIA TO BE USED
 *  NOSYM      - POINT-GROUP SYMMETRY SET TO C1
 *  THREADS=1  - MULTI-THREADING NOT USED
 *  T=         - A TIME OF 172800.0 SECONDS REQUESTED
 *  DUMP=N     - RESTART FILE WRITTEN EVERY 7200.0 SECONDS REQUESTED
 *  THERMO     - THERMODYNAMIC QUANTITIES TO BE CALCULATED
 *******************************************************************************
oldgeo thermo nosym precise THREADS=1  pm3
 InChI=1S/C10H10/c1-2-6-10-8-4-3-7-9(10)5-1/h1-5,8H,6-7H2

   ATOM   CHEMICAL          X               Y               Z
  NUMBER   SYMBOL      (ANGSTROMS)     (ANGSTROMS)     (ANGSTROMS)

     1       C          1.71984871  *  -0.93065071  *   0.05076565  *
     2       C         -1.71984959  *   0.93065491  *  -0.05077537  *
     3       C          0.24660385  *  -0.68058620  *   0.08566167  *
     4       C         -0.24660400  *   0.68058529  *  -0.08565319  *
     5       C          2.55864538  *   0.27417511  *  -0.16131001  *
     6       C         -2.55864461  *  -0.27417745  *   0.16129339  *
     7       C         -0.60904675  *  -1.70954680  *   0.27394916  *
     8       C          0.60904918  *   1.70954608  *  -0.27396585  *
     9       C          2.03740154  *   1.49934269  *  -0.31186222  *
    10       C         -2.03740400  *  -1.49934332  *   0.31189241  *
    11       H          2.03007966  *  -1.41562016  *   1.00020884  *
    12       H          1.94611580  *  -1.66518568  *  -0.75056625  *
    13       H         -1.94611563  *   1.66518582  *   0.75056639  *
    14       H         -2.03007917  *   1.41561784  *  -1.00019559  *
    15       H          3.64152449  *   0.11093526  *  -0.18924856  *
    16       H         -3.64152484  *  -0.11093508  *   0.18925073  *
    17       H          2.67535836  *   2.37541622  *  -0.46758324  *
    18       H         -0.23848399  *  -2.73240927  *   0.40279715  *
    19       H          0.23848381  *   2.73241033  *  -0.40279279  *
    20       H         -2.67535747  *  -2.37541392  *   0.46757845  *



          CARTESIAN COORDINATES 

    NO.       ATOM           X           Y           Z

     1         C          1.7198     -0.9307      0.0508
     2         C         -1.7198      0.9307     -0.0508
     3         C          0.2466     -0.6806      0.0857
     4         C         -0.2466      0.6806     -0.0857
     5         C          2.5586      0.2742     -0.1613
     6         C         -2.5586     -0.2742      0.1613
     7         C         -0.6090     -1.7095      0.2739
     8         C          0.6090      1.7095     -0.2740
     9         C          2.0374      1.4993     -0.3119
    10         C         -2.0374     -1.4993      0.3119
    11         H          2.0301     -1.4156      1.0002
    12         H          1.9461     -1.6652     -0.7506
    13         H         -1.9461      1.6652      0.7506
    14         H         -2.0301      1.4156     -1.0002
    15         H          3.6415      0.1109     -0.1892
    16         H         -3.6415     -0.1109      0.1893
    17         H          2.6754      2.3754     -0.4676
    18         H         -0.2385     -2.7324      0.4028
    19         H          0.2385      2.7324     -0.4028
    20         H         -2.6754     -2.3754      0.4676

  H: (PM3): J. J. P. STEWART, J. COMP. CHEM. 10, 209 (1989).
  C: (PM3): J. J. P. STEWART, J. COMP. CHEM. 10, 209 (1989).

           Empirical Formula: C10 H10  =    20 atoms



      MOLECULAR POINT GROUP   :   C1  


      RHF CALCULATION, NO. OF DOUBLY OCCUPIED LEVELS = 25



          HEAT OF FORMATION =      47.334750 KCALS/MOLE


          CARTESIAN COORDINATE DERIVATIVES

   NUMBER  ATOM         X            Y            Z

     1       C      0.006527    -0.005930    -0.007283
     2       C      0.001355    -0.002932    -0.003650
     3       C     -0.008051     0.003033     0.004059
     4       C      0.007471     0.005235     0.000419
     5       C     -0.004372    -0.006772    -0.006688
     6       C      0.004707     0.004638    -0.003945
     7       C      0.003025    -0.002438    -0.003254
     8       C     -0.008784    -0.008460    -0.012403
     9       C     -0.004939    -0.001754     0.011417
    10       C      0.007553     0.016016     0.007370
    11       H     -0.007147     0.003365     0.003027
    12       H      0.000903    -0.000454     0.000233
    13       H      0.000634    -0.000871     0.001272
    14       H      0.000161     0.002893     0.009353
    15       H     -0.001305    -0.009994     0.006083
    16       H      0.002506     0.010598    -0.004736
    17       H      0.005480    -0.005174    -0.003788
    18       H      0.014325     0.010628     0.001052
    19       H     -0.013912    -0.010424     0.001769
    20       H     -0.006136    -0.001204    -0.000307



          GRADIENT NORM =   0.05037

          MOLECULAR WEIGHT =  130.19



          ROTATIONAL CONSTANTS IN CM(-1)

          A =    0.09660493   B =    0.03945159   C =    0.02830925



           PRINCIPAL MOMENTS OF INERTIA IN UNITS OF 10**(-40)*GRAM-CM**2

          A =      289.7653   B =      709.5469   C =      988.8199


          ORIENTATION OF MOLECULE IN FORCE CALCULATION

    NO.       ATOM         X         Y         Z

     1          C      -1.9562   -0.0000    0.0000
     2          C       1.9562   -0.0000    0.0000
     3          C      -0.5428    0.4865    0.0000
     4          C       0.5428   -0.4865    0.0000
     5          C      -2.1149   -1.4748    0.0008
     6          C       2.1149    1.4748   -0.0008
     7          C      -0.2850    1.8131   -0.0002
     8          C       0.2850   -1.8131    0.0002
     9          C      -1.0699   -2.3134    0.0007
    10          C       1.0699    2.3134   -0.0007
    11          H      -2.4843    0.4136    0.8848
    12          H      -2.4838    0.4125   -0.8857
    13          H       2.4838   -0.4125    0.8857
    14          H       2.4843   -0.4136   -0.8848
    15          H      -3.1439   -1.8506    0.0014
    16          H       3.1439    1.8506   -0.0014
    17          H      -1.2099   -3.3992    0.0012
    18          H      -1.1007    2.5443   -0.0001
    19          H       1.1007   -2.5443    0.0001
    20          H       1.2099    3.3992   -0.0011


    FIRST DERIVATIVES WILL BE USED IN THE CALCULATION OF SECOND DERIVATIVES

          ESTIMATED TIME TO COMPLETE CALCULATION =        1.88 SECONDS

    FOR POINT-GROUP C1   THERE ARE   1 UNIQUE SYMMETRY FUNCTIONS.

 STEP:   1 TIME =     0.02 SECS, INTEGRAL =      0.02 TIME LEFT: 172799.97
 STEP:   2 TIME =     0.02 SECS, INTEGRAL =      0.04 TIME LEFT: 172799.95
 STEP:   3 TIME =     0.02 SECS, INTEGRAL =      0.06 TIME LEFT: 172799.93
 STEP:   4 TIME =     0.02 SECS, INTEGRAL =      0.08 TIME LEFT: 172799.91
 STEP:   5 TIME =     0.02 SECS, INTEGRAL =      0.10 TIME LEFT: 172799.89
 STEP:   6 TIME =     0.02 SECS, INTEGRAL =      0.12 TIME LEFT: 172799.87
 STEP:   7 TIME =     0.02 SECS, INTEGRAL =      0.14 TIME LEFT: 172799.85
 STEP:   8 TIME =     0.02 SECS, INTEGRAL =      0.17 TIME LEFT: 172799.82
 STEP:   9 TIME =     0.02 SECS, INTEGRAL =      0.19 TIME LEFT: 172799.80
 STEP:  10 TIME =     0.02 SECS, INTEGRAL =      0.21 TIME LEFT: 172799.78
 STEP:  11 TIME =     0.02 SECS, INTEGRAL =      0.23 TIME LEFT: 172799.76
 STEP:  12 TIME =     0.02 SECS, INTEGRAL =      0.25 TIME LEFT: 172799.74
 STEP:  13 TIME =     0.02 SECS, INTEGRAL =      0.27 TIME LEFT: 172799.72
 STEP:  14 TIME =     0.02 SECS, INTEGRAL =      0.29 TIME LEFT: 172799.70
 STEP:  15 TIME =     0.02 SECS, INTEGRAL =      0.31 TIME LEFT: 172799.68
 STEP:  16 TIME =     0.02 SECS, INTEGRAL =      0.33 TIME LEFT: 172799.66
 STEP:  17 TIME =     0.02 SECS, INTEGRAL =      0.35 TIME LEFT: 172799.64
 STEP:  18 TIME =     0.02 SECS, INTEGRAL =      0.38 TIME LEFT: 172799.62
 STEP:  19 TIME =     0.02 SECS, INTEGRAL =      0.39 TIME LEFT: 172799.60
 STEP:  20 TIME =     0.02 SECS, INTEGRAL =      0.42 TIME LEFT: 172799.57
 STEP:  21 TIME =     0.02 SECS, INTEGRAL =      0.44 TIME LEFT: 172799.55
 STEP:  22 TIME =     0.02 SECS, INTEGRAL =      0.46 TIME LEFT: 172799.53
 STEP:  23 TIME =     0.02 SECS, INTEGRAL =      0.48 TIME LEFT: 172799.51
 STEP:  24 TIME =     0.02 SECS, INTEGRAL =      0.51 TIME LEFT: 172799.48
 STEP:  25 TIME =     0.02 SECS, INTEGRAL =      0.53 TIME LEFT: 172799.46
 STEP:  26 TIME =     0.02 SECS, INTEGRAL =      0.55 TIME LEFT: 172799.45
 STEP:  27 TIME =     0.02 SECS, INTEGRAL =      0.57 TIME LEFT: 172799.42
 STEP:  28 TIME =     0.02 SECS, INTEGRAL =      0.59 TIME LEFT: 172799.40
 STEP:  29 TIME =     0.02 SECS, INTEGRAL =      0.61 TIME LEFT: 172799.38
 STEP:  30 TIME =     0.02 SECS, INTEGRAL =      0.63 TIME LEFT: 172799.36
 STEP:  31 TIME =     0.02 SECS, INTEGRAL =      0.65 TIME LEFT: 172799.34
 STEP:  32 TIME =     0.02 SECS, INTEGRAL =      0.67 TIME LEFT: 172799.32
 STEP:  33 TIME =     0.02 SECS, INTEGRAL =      0.70 TIME LEFT: 172799.30
 STEP:  34 TIME =     0.02 SECS, INTEGRAL =      0.71 TIME LEFT: 172799.28
 STEP:  35 TIME =     0.02 SECS, INTEGRAL =      0.73 TIME LEFT: 172799.26
 STEP:  36 TIME =     0.02 SECS, INTEGRAL =      0.75 TIME LEFT: 172799.24
 STEP:  37 TIME =     0.02 SECS, INTEGRAL =      0.77 TIME LEFT: 172799.22
 STEP:  38 TIME =     0.02 SECS, INTEGRAL =      0.79 TIME LEFT: 172799.20
 STEP:  39 TIME =     0.02 SECS, INTEGRAL =      0.81 TIME LEFT: 172799.18
 STEP:  40 TIME =     0.02 SECS, INTEGRAL =      0.83 TIME LEFT: 172799.16
 STEP:  41 TIME =     0.02 SECS, INTEGRAL =      0.85 TIME LEFT: 172799.14
 STEP:  42 TIME =     0.02 SECS, INTEGRAL =      0.87 TIME LEFT: 172799.12
 STEP:  43 TIME =     0.02 SECS, INTEGRAL =      0.89 TIME LEFT: 172799.10
 STEP:  44 TIME =     0.02 SECS, INTEGRAL =      0.91 TIME LEFT: 172799.08
 STEP:  45 TIME =     0.02 SECS, INTEGRAL =      0.93 TIME LEFT: 172799.06
 STEP:  46 TIME =     0.02 SECS, INTEGRAL =      0.95 TIME LEFT: 172799.04
 STEP:  47 TIME =     0.02 SECS, INTEGRAL =      0.97 TIME LEFT: 172799.02
 STEP:  48 TIME =     0.02 SECS, INTEGRAL =      0.99 TIME LEFT: 172799.00
 STEP:  49 TIME =     0.02 SECS, INTEGRAL =      1.02 TIME LEFT: 172798.98
 STEP:  50 TIME =     0.02 SECS, INTEGRAL =      1.04 TIME LEFT: 172798.96
 STEP:  51 TIME =     0.02 SECS, INTEGRAL =      1.06 TIME LEFT: 172798.93
 STEP:  52 TIME =     0.02 SECS, INTEGRAL =      1.08 TIME LEFT: 172798.91
 STEP:  53 TIME =     0.02 SECS, INTEGRAL =      1.10 TIME LEFT: 172798.89
 STEP:  54 TIME =     0.02 SECS, INTEGRAL =      1.12 TIME LEFT: 172798.88
 STEP:  55 TIME =     0.02 SECS, INTEGRAL =      1.14 TIME LEFT: 172798.86
 STEP:  56 TIME =     0.02 SECS, INTEGRAL =      1.16 TIME LEFT: 172798.84
 STEP:  57 TIME =     0.02 SECS, INTEGRAL =      1.18 TIME LEFT: 172798.81
 STEP:  58 TIME =     0.02 SECS, INTEGRAL =      1.20 TIME LEFT: 172798.79
 STEP:  59 TIME =     0.02 SECS, INTEGRAL =      1.21 TIME LEFT: 172798.78
 STEP:  60 TIME =     0.02 SECS, INTEGRAL =      1.23 TIME LEFT: 172798.76

(To convert to Hartree/Bohr^2, multiply by (10^(-21) x N x a0^2)/(4.184 x 627.51) =  0.0642)


           FORCE MATRIX IN MILLIDYNES/ANGSTROM


                  C  1       C  2       C  3       C  4       C  5       C  6
 ------------------------------------------------------------------------------
     C    1  15.039771
     C    2   0.049753  15.039847
     C    3   4.692539   0.595944  18.493211
     C    4   0.595959   4.692485   5.243333  18.492739
     C    5   5.060515   0.013337   0.698671   0.236891  18.019384
     C    6   0.013337   5.060396   0.236849   0.698671   0.003189  18.019200
     C    7   0.826130   0.140588   9.377111   1.146888   0.066147   1.230726
     C    8   0.140603   0.826127   1.146814   9.376732   1.230755   0.066148
     C    9   0.874346   0.128039   0.190369   1.199333  10.168014   0.015948
     C   10   0.128033   0.874301   1.199173   0.190380   0.015947  10.167940
     H   11   4.355553   0.004165   0.417143   0.029187   0.416891   0.002685
     H   12   4.355564   0.004162   0.417085   0.029164   0.416824   0.002688
     H   13   0.004162   4.355458   0.029162   0.417087   0.002689   0.416832
     H   14   0.004165   4.356120   0.029187   0.417146   0.002684   0.416888
     H   15   0.422339   0.009966   0.049179   0.007742   4.836050   0.000946
     H   16   0.009962   0.422335   0.007741   0.049177   0.000946   4.836007
     H   17   0.123105   0.008893   0.002376   0.049503   0.444013   0.002060
     H   18   0.069439   0.003974   0.454296   0.112216   0.002492   0.048433
     H   19   0.003972   0.069438   0.112214   0.454301   0.048434   0.002493
     H   20   0.008893   0.123069   0.049501   0.002373   0.002060   0.444013


                  C  7       C  8       C  9       C 10       H 11       H 12
 ------------------------------------------------------------------------------
     C    7  18.184258
     C    8   0.229125  18.184105
     C    9   0.089191   5.728488  18.366127
     C   10   5.728450   0.089190   0.029083  18.366276
     H   11   0.042631   0.015253   0.041780   0.015943   4.944273
     H   12   0.042610   0.015258   0.041749   0.015960   0.569678   4.944228
     H   13   0.015255   0.042608   0.015959   0.041743   0.001273   0.001413
     H   14   0.015249   0.042633   0.015941   0.041780   0.001414   0.001273
     H   15   0.009016   0.122572   0.444713   0.004065   0.029483   0.029435
     H   16   0.122545   0.009017   0.004063   0.444705   0.001451   0.001452
     H   17   0.001299   0.433956   4.854759   0.000598   0.016194   0.016203
     H   18   4.833900   0.009585   0.008056   0.434896   0.012665   0.012636
     H   19   0.009586   4.833904   0.434897   0.008055   0.000961   0.000963
     H   20   0.433951   0.001299   0.000597   4.855012   0.000818   0.000819


                  H 13       H 14       H 15       H 16       H 17       H 18
 ------------------------------------------------------------------------------
     H   13   4.944151
     H   14   0.569709   4.944848
     H   15   0.001453   0.001451   5.213288
     H   16   0.029436   0.029486   0.000450   5.213245
     H   17   0.000819   0.000818   0.065767   0.000464   5.218528
     H   18   0.000963   0.000961   0.001795   0.007385   0.000335   5.206408
     H   19   0.012634   0.012665   0.007387   0.001794   0.031993   0.008991
     H   20   0.016195   0.016186   0.000464   0.065737   0.000215   0.031993


                  H 19       H 20
 ------------------------------
     H   19   5.206416
     H   20   0.000335   5.218789


          HEAT OF FORMATION =      47.334750 KCALS/MOLE

          ZERO POINT ENERGY     105.007 KCAL/MOL


           NORMAL COORDINATE ANALYSIS (Total motion = 1 Angstrom)


   Root No.       1         2         3         4         5         6         7         8

                 1 A       2 A       3 A       4 A       5 A       6 A       7 A       8 A   

                  36.9     152.6     160.5     327.5     376.3     416.1     423.3     482.4
  
           1   -0.0000   -0.0000   -0.0000    0.0000    0.0237   -0.0000    0.0000   -0.0337
           2    0.0000    0.0000   -0.0000   -0.0000    0.0173    0.0000   -0.0000    0.0358
           3    0.0503    0.0318    0.0137   -0.0117    0.0000    0.0003   -0.0007   -0.0000
           4   -0.0000    0.0000   -0.0000    0.0000    0.0237    0.0000   -0.0000    0.0337
           5    0.0000   -0.0000   -0.0000   -0.0000    0.0173   -0.0000   -0.0000   -0.0358
           6    0.0503   -0.0319    0.0133   -0.0117    0.0000   -0.0003   -0.0006    0.0000
           7    0.0000   -0.0000   -0.0000    0.0000    0.0378   -0.0000   -0.0000   -0.0206
           8    0.0000   -0.0000   -0.0000    0.0000   -0.0378   -0.0000    0.0000   -0.0165
           9    0.0166   -0.0085   -0.0290    0.0596   -0.0000    0.0185   -0.0216   -0.0000
          10    0.0000    0.0000   -0.0000    0.0000    0.0378    0.0000   -0.0000    0.0206
          11    0.0000    0.0000   -0.0000    0.0000   -0.0378    0.0000    0.0000    0.0165
          12    0.0166    0.0087   -0.0289    0.0596   -0.0000   -0.0183   -0.0217    0.0000
          13    0.0000   -0.0000    0.0000   -0.0000   -0.0195   -0.0000    0.0000    0.0183
          14   -0.0000   -0.0000    0.0000    0.0000    0.0298   -0.0000    0.0000    0.0413
          15   -0.0122   -0.0261    0.0632    0.0094    0.0000   -0.0347    0.0254    0.0000
          16    0.0000    0.0000    0.0000   -0.0000   -0.0195    0.0000    0.0000   -0.0183
          17   -0.0000    0.0000    0.0000    0.0000    0.0298    0.0000    0.0000   -0.0413
          18   -0.0122    0.0256    0.0636    0.0094    0.0000    0.0345    0.0256   -0.0000
          19    0.0000   -0.0000   -0.0000   -0.0000   -0.0066   -0.0000    0.0000   -0.0465
          20    0.0000   -0.0000   -0.0000    0.0000   -0.0316   -0.0000    0.0000   -0.0195
          21   -0.0160   -0.0358   -0.0582   -0.0117    0.0000    0.0240    0.0296    0.0000
          22    0.0000    0.0000   -0.0000   -0.0000   -0.0066    0.0000    0.0000    0.0465
          23    0.0000    0.0000   -0.0000    0.0000   -0.0316    0.0000    0.0000    0.0195
          24   -0.0159    0.0363   -0.0577   -0.0117    0.0000   -0.0243    0.0295   -0.0000
          25   -0.0000   -0.0000    0.0000   -0.0000   -0.0314    0.0000   -0.0000    0.0377
          26   -0.0000   -0.0000    0.0000   -0.0000    0.0149    0.0000   -0.0000    0.0639
          27   -0.0428   -0.0052    0.0026   -0.0248   -0.0000    0.0444   -0.0351   -0.0000
          28   -0.0000    0.0000    0.0000   -0.0000   -0.0314   -0.0000   -0.0000   -0.0377
          29   -0.0000    0.0000    0.0000   -0.0000    0.0149   -0.0000   -0.0000   -0.0639
          30   -0.0428    0.0052    0.0027   -0.0248   -0.0000   -0.0442   -0.0354    0.0000
          31    0.0389    0.0489    0.0199   -0.0749    0.0402    0.0013   -0.0093   -0.0333
          32   -0.0437   -0.0481    0.0305    0.0396    0.0392   -0.0413    0.0377    0.0409
          33    0.0942    0.0841    0.0112   -0.0765    0.0002    0.0211   -0.0248   -0.0014
          34   -0.0390   -0.0489   -0.0199    0.0750    0.0401   -0.0013    0.0093   -0.0334
          35    0.0438    0.0482   -0.0306   -0.0397    0.0392    0.0414   -0.0378    0.0409
          36    0.0941    0.0840    0.0113   -0.0764   -0.0002    0.0211   -0.0247    0.0014
          37   -0.0390    0.0491   -0.0193    0.0750    0.0401    0.0012    0.0093    0.0334
          38    0.0438   -0.0480   -0.0312   -0.0397    0.0392   -0.0411   -0.0381   -0.0409
          39    0.0941   -0.0841    0.0102   -0.0764   -0.0001   -0.0209   -0.0248   -0.0014
          40    0.0389   -0.0491    0.0192   -0.0749    0.0402   -0.0012   -0.0093    0.0333
          41   -0.0437    0.0479    0.0312    0.0396    0.0392    0.0410    0.0380   -0.0409
          42    0.0942   -0.0842    0.0101   -0.0765    0.0002   -0.0209   -0.0249    0.0014
          43   -0.0000   -0.0000    0.0001    0.0000   -0.0285   -0.0000    0.0000    0.0336
          44   -0.0000   -0.0000    0.0000    0.0000    0.0546   -0.0000    0.0000   -0.0002
          45   -0.0294   -0.0762    0.1421    0.0299    0.0000   -0.0790    0.0561    0.0001
          46   -0.0000    0.0000    0.0001    0.0000   -0.0285    0.0000    0.0000   -0.0336
          47   -0.0000    0.0000    0.0000    0.0000    0.0546    0.0000    0.0000    0.0002
          48   -0.0293    0.0752    0.1431    0.0298    0.0000    0.0786    0.0566   -0.0001
          49   -0.0000   -0.0000    0.0000   -0.0000   -0.0627    0.0001   -0.0000    0.0298
          50   -0.0000   -0.0000    0.0000   -0.0000    0.0187    0.0001   -0.0000    0.0648
          51   -0.0878   -0.0321    0.0188   -0.0525   -0.0000    0.1314   -0.1074   -0.0001
          52    0.0000   -0.0000   -0.0000   -0.0000   -0.0376    0.0000    0.0000   -0.0417
          53    0.0000   -0.0000   -0.0000   -0.0000   -0.0653    0.0000    0.0000   -0.0145
          54   -0.0234   -0.0673   -0.0962   -0.0720    0.0000    0.0755    0.1311   -0.0000
          55    0.0000    0.0000   -0.0000   -0.0000   -0.0376   -0.0000    0.0000    0.0417
          56    0.0000    0.0000   -0.0000   -0.0000   -0.0653   -0.0000    0.0000    0.0145
          57   -0.0233    0.0679   -0.0953   -0.0720    0.0000   -0.0764    0.1306    0.0000
          58   -0.0000    0.0000    0.0000   -0.0000   -0.0627   -0.0001   -0.0000   -0.0298
          59   -0.0000    0.0000    0.0000   -0.0000    0.0187   -0.0001   -0.0000   -0.0648
          60   -0.0877    0.0320    0.0192   -0.0525   -0.0000   -0.1306   -0.1082    0.0001


   Root No.       9        10        11        12        13        14        15        16

                 9 A      10 A      11 A      12 A      13 A      14 A      15 A      16 A   

                 497.1     586.7     612.6     746.8     751.3     781.7     818.1     832.2
  
           1    0.0473    0.0548   -0.0000   -0.0000    0.0000   -0.0116   -0.0598   -0.0000
           2    0.0320   -0.0332   -0.0000   -0.0000    0.0000   -0.0301    0.0194    0.0000
           3   -0.0000    0.0000   -0.0206   -0.0072   -0.0129    0.0000   -0.0000    0.0303
           4   -0.0473    0.0548    0.0000    0.0000    0.0000   -0.0116    0.0598    0.0000
           5   -0.0320   -0.0332    0.0000    0.0000    0.0000   -0.0301   -0.0194    0.0000
           6    0.0000    0.0000    0.0206    0.0069   -0.0131    0.0000   -0.0000    0.0303
           7    0.0266    0.0300    0.0000    0.0000   -0.0000    0.0151   -0.0157   -0.0000
           8    0.0295    0.0301   -0.0000    0.0000    0.0000   -0.0069    0.0210    0.0000
           9    0.0000   -0.0000   -0.0540    0.0238    0.0128    0.0000    0.0000   -0.0041
          10   -0.0266    0.0300   -0.0000    0.0000   -0.0000    0.0151    0.0157   -0.0000
          11   -0.0295    0.0301    0.0000   -0.0000    0.0000   -0.0069   -0.0210   -0.0000
          12   -0.0000   -0.0000    0.0540   -0.0235    0.0134    0.0000   -0.0000   -0.0041
          13    0.0637   -0.0261    0.0000   -0.0000    0.0000   -0.0619    0.0111    0.0000
          14    0.0319   -0.0252   -0.0000   -0.0000    0.0000   -0.0282   -0.0042    0.0000
          15   -0.0000    0.0000    0.0017   -0.0111   -0.0135   -0.0000   -0.0000   -0.0080
          16   -0.0637   -0.0261   -0.0000    0.0000    0.0000   -0.0619   -0.0111    0.0000
          17   -0.0319   -0.0252    0.0000    0.0000    0.0000   -0.0282    0.0042    0.0000
          18    0.0000    0.0000   -0.0017    0.0108   -0.0137   -0.0000    0.0000   -0.0080
          19   -0.0161   -0.0407    0.0000    0.0000   -0.0000    0.0376   -0.0015   -0.0000
          20    0.0412    0.0448    0.0000    0.0000    0.0000    0.0008    0.0314   -0.0000
          21   -0.0000   -0.0000    0.0138    0.0033    0.0012   -0.0000   -0.0000   -0.0227
          22    0.0161   -0.0407   -0.0000   -0.0000   -0.0000    0.0376    0.0015   -0.0000
          23   -0.0412    0.0448   -0.0000    0.0000    0.0000    0.0008   -0.0314   -0.0000
          24    0.0000   -0.0000   -0.0138   -0.0032    0.0013   -0.0000    0.0000   -0.0227
          25    0.0189   -0.0230   -0.0000   -0.0000   -0.0000    0.0176   -0.0073   -0.0000
          26   -0.0258   -0.0141   -0.0000   -0.0000   -0.0001    0.0726   -0.0324   -0.0000
          27    0.0000    0.0000   -0.0034   -0.0159   -0.0190   -0.0001    0.0000   -0.0049
          28   -0.0189   -0.0230    0.0000    0.0000   -0.0000    0.0176    0.0073   -0.0000
          29    0.0258   -0.0141    0.0000    0.0000   -0.0001    0.0726    0.0324   -0.0000
          30   -0.0000    0.0000    0.0034    0.0155   -0.0193   -0.0001   -0.0000   -0.0049
          31    0.0436    0.0620    0.0873    0.0065    0.0197   -0.0024   -0.0935   -0.0683
          32    0.0273   -0.0319   -0.0350   -0.0377   -0.0459   -0.0239   -0.0051    0.0408
          33    0.0005    0.0031    0.0505    0.0153    0.0218    0.0010   -0.0076   -0.0317
          34    0.0436    0.0619   -0.0874   -0.0065   -0.0196   -0.0022   -0.0934    0.0683
          35    0.0274   -0.0319    0.0351    0.0378    0.0460   -0.0240   -0.0052   -0.0408
          36   -0.0005   -0.0031    0.0504    0.0153    0.0217   -0.0010    0.0076   -0.0316
          37   -0.0436    0.0619    0.0874    0.0061   -0.0198   -0.0022    0.0934    0.0683
          38   -0.0274   -0.0319   -0.0351   -0.0367    0.0469   -0.0239    0.0052   -0.0408
          39    0.0005   -0.0031   -0.0504   -0.0148    0.0221   -0.0010   -0.0075   -0.0316
          40   -0.0436    0.0620   -0.0873   -0.0061    0.0198   -0.0024    0.0936   -0.0683
          41   -0.0273   -0.0319    0.0350    0.0367   -0.0468   -0.0239    0.0051    0.0408
          42   -0.0005    0.0031   -0.0505   -0.0148    0.0222    0.0010    0.0076   -0.0317
          43    0.0532   -0.0401    0.0000    0.0001    0.0001   -0.0386    0.0217    0.0000
          44    0.0596    0.0148    0.0000    0.0000    0.0001   -0.0914   -0.0367    0.0000
          45   -0.0000   -0.0001    0.0788    0.1303    0.1601    0.0003    0.0000   -0.0418
          46   -0.0532   -0.0401   -0.0000   -0.0001    0.0001   -0.0386   -0.0217    0.0000
          47   -0.0596    0.0148   -0.0000   -0.0000    0.0001   -0.0914    0.0367    0.0000
          48    0.0000   -0.0001   -0.0787   -0.1265    0.1631    0.0003    0.0000   -0.0418
          49   -0.0274    0.0201    0.0000    0.0000    0.0000    0.0670   -0.0417   -0.0000
          50   -0.0192   -0.0192   -0.0000    0.0000   -0.0000    0.0663   -0.0295   -0.0000
          51    0.0000   -0.0000    0.0502    0.1053    0.1130    0.0003   -0.0000    0.1024
          52   -0.0306   -0.0446    0.0000   -0.0000   -0.0000    0.0149    0.0145    0.0000
          53    0.0250    0.0394    0.0000   -0.0000    0.0000   -0.0252    0.0507    0.0000
          54   -0.0000    0.0000    0.0640   -0.1250    0.0557    0.0003    0.0000    0.1146
          55    0.0306   -0.0446   -0.0000    0.0000   -0.0000    0.0149   -0.0145    0.0000
          56   -0.0250    0.0394   -0.0000    0.0000    0.0000   -0.0252   -0.0507    0.0000
          57    0.0000   -0.0000   -0.0639    0.1263    0.0527    0.0003   -0.0001    0.1146
          58    0.0274    0.0201   -0.0000   -0.0000    0.0000    0.0670    0.0417   -0.0000
          59    0.0192   -0.0192    0.0000   -0.0000   -0.0000    0.0663    0.0295    0.0000
          60   -0.0000   -0.0000   -0.0501   -0.1027    0.1154    0.0003   -0.0000    0.1024


   Root No.      17        18        19        20        21        22        23        24

                17 A      18 A      19 A      20 A      21 A      22 A      23 A      24 A   

                 889.4     897.0     919.1     948.6     991.8    1014.4    1038.9    1049.0
  
           1    0.0128    0.0000   -0.0000    0.0000   -0.0000   -0.0000   -0.0085   -0.0049
           2   -0.0228   -0.0001    0.0000   -0.0000    0.0000    0.0000    0.0254    0.0227
           3    0.0001   -0.0238    0.0192   -0.0239    0.0168    0.0216   -0.0000   -0.0000
           4   -0.0128   -0.0000    0.0000    0.0000   -0.0000    0.0000   -0.0085    0.0049
           5    0.0228    0.0000   -0.0000   -0.0000    0.0000   -0.0000    0.0254   -0.0226
           6   -0.0001    0.0238   -0.0192   -0.0239    0.0167   -0.0216   -0.0000    0.0000
           7    0.0024    0.0000   -0.0000    0.0000    0.0000    0.0000    0.0069    0.0078
           8    0.0311    0.0001   -0.0000    0.0000   -0.0000    0.0000   -0.0024    0.0036
           9   -0.0001    0.0080   -0.0238    0.0207   -0.0076   -0.0219   -0.0000   -0.0000
          10   -0.0024   -0.0000    0.0000    0.0000    0.0000   -0.0000    0.0069   -0.0078
          11   -0.0311   -0.0001    0.0000   -0.0000   -0.0000   -0.0000   -0.0024   -0.0036
          12    0.0001   -0.0080    0.0238    0.0207   -0.0076    0.0219   -0.0000    0.0000
          13   -0.0409   -0.0001    0.0000    0.0000   -0.0000   -0.0000   -0.0185   -0.0201
          14   -0.0113   -0.0000    0.0000    0.0000   -0.0000   -0.0000   -0.0202   -0.0204
          15   -0.0001    0.0187    0.0063    0.0148   -0.0321   -0.0322    0.0001    0.0001
          16    0.0409    0.0001   -0.0000    0.0000   -0.0000    0.0000   -0.0185    0.0201
          17    0.0113    0.0000   -0.0000    0.0000   -0.0000    0.0000   -0.0202    0.0204
          18    0.0001   -0.0187   -0.0062    0.0148   -0.0321    0.0323    0.0001   -0.0001
          19   -0.0476   -0.0001    0.0000   -0.0000    0.0000    0.0000    0.0046   -0.0072
          20    0.0579    0.0001   -0.0000   -0.0000   -0.0000    0.0000    0.0012    0.0071
          21   -0.0001    0.0265    0.0193   -0.0338   -0.0083    0.0220    0.0000    0.0000
          22    0.0476    0.0001   -0.0000   -0.0000   -0.0000   -0.0000    0.0045    0.0072
          23   -0.0579   -0.0001    0.0000   -0.0000   -0.0000   -0.0000    0.0012   -0.0071
          24    0.0001   -0.0266   -0.0193   -0.0338   -0.0084   -0.0219    0.0000    0.0000
          25   -0.0016   -0.0000   -0.0000    0.0000    0.0000    0.0000   -0.0006    0.0047
          26    0.0377    0.0001   -0.0000    0.0000   -0.0000    0.0000   -0.0199   -0.0097
          27   -0.0001    0.0171   -0.0141    0.0161    0.0319    0.0289   -0.0000   -0.0000
          28    0.0016    0.0000    0.0000    0.0000    0.0000   -0.0000   -0.0006   -0.0047
          29   -0.0377   -0.0001    0.0000    0.0000   -0.0000   -0.0000   -0.0199    0.0097
          30    0.0001   -0.0171    0.0140    0.0161    0.0319   -0.0290   -0.0000    0.0000
          31    0.0139    0.0514   -0.0088    0.0273   -0.0585   -0.0303    0.0389    0.0452
          32   -0.0310   -0.0286    0.0614   -0.0527   -0.0133    0.0375    0.1072    0.1042
          33    0.0033    0.0217   -0.0160    0.0186   -0.0127   -0.0150   -0.0089   -0.0075
          34    0.0143   -0.0514    0.0087   -0.0273    0.0587    0.0303    0.0391    0.0456
          35   -0.0314    0.0285   -0.0615    0.0527    0.0135   -0.0374    0.1075    0.1048
          36   -0.0035    0.0216   -0.0160    0.0185   -0.0126   -0.0149    0.0088    0.0074
          37   -0.0143    0.0514   -0.0088   -0.0273    0.0586   -0.0304    0.0392   -0.0455
          38    0.0314   -0.0285    0.0615    0.0527    0.0136    0.0373    0.1076   -0.1045
          39    0.0035   -0.0216    0.0160    0.0185   -0.0126    0.0149    0.0088   -0.0074
          40   -0.0139   -0.0514    0.0088    0.0273   -0.0585    0.0303    0.0391   -0.0452
          41    0.0310    0.0286   -0.0614   -0.0527   -0.0134   -0.0375    0.1074   -0.1042
          42   -0.0033   -0.0217    0.0161    0.0186   -0.0126    0.0150   -0.0089    0.0075
          43   -0.0384   -0.0001   -0.0000   -0.0000    0.0001    0.0001   -0.0142   -0.0081
          44   -0.0218   -0.0001   -0.0000   -0.0000    0.0000    0.0000   -0.0308   -0.0516
          45    0.0002   -0.0766   -0.0905   -0.0453    0.1355    0.1047   -0.0001   -0.0001
          46    0.0384    0.0001    0.0000   -0.0000    0.0001   -0.0000   -0.0142    0.0081
          47    0.0218    0.0001    0.0000   -0.0000    0.0000   -0.0000   -0.0309    0.0515
          48   -0.0003    0.0766    0.0905   -0.0454    0.1354   -0.1049   -0.0001    0.0001
          49   -0.0490   -0.0001    0.0001   -0.0000   -0.0000   -0.0000    0.0892    0.0944
          50    0.0436    0.0000    0.0000   -0.0000   -0.0001   -0.0000   -0.0332   -0.0228
          51    0.0005   -0.0822    0.1126   -0.0699   -0.1315   -0.0981    0.0000    0.0000
          52   -0.0039   -0.0000   -0.0000    0.0000    0.0000   -0.0000    0.0392   -0.0350
          53    0.1090    0.0002   -0.0001    0.0000    0.0000   -0.0000    0.0391   -0.0219
          54    0.0003   -0.1217   -0.0862    0.1510    0.0134   -0.0694   -0.0001   -0.0000
          55    0.0039    0.0000    0.0000    0.0000    0.0000    0.0000    0.0392    0.0351
          56   -0.1090   -0.0002    0.0001    0.0000    0.0000    0.0000    0.0391    0.0219
          57   -0.0004    0.1218    0.0862    0.1510    0.0136    0.0694   -0.0000   -0.0000
          58    0.0490    0.0001   -0.0001   -0.0000   -0.0000   -0.0000    0.0894   -0.0943
          59   -0.0436   -0.0000   -0.0000   -0.0000   -0.0001    0.0001   -0.0333    0.0227
          60   -0.0005    0.0822   -0.1125   -0.0699   -0.1314    0.0983    0.0001   -0.0000


   Root No.      25        26        27        28        29        30        31        32

                25 A      26 A      27 A      28 A      29 A      30 A      31 A      32 A   

                1066.0    1074.6    1089.2    1106.7    1154.4    1157.5    1177.8    1196.3
  
           1   -0.0000   -0.0000    0.0114    0.0063   -0.0002   -0.0017   -0.0051   -0.0118
           2    0.0001    0.0001   -0.0101    0.0021    0.0020    0.0016   -0.0086    0.0152
           3    0.0009   -0.0054    0.0000   -0.0000    0.0000    0.0000    0.0000   -0.0000
           4   -0.0000    0.0000    0.0114   -0.0063    0.0002   -0.0017    0.0051   -0.0118
           5    0.0000   -0.0000   -0.0101   -0.0021   -0.0020    0.0016    0.0086    0.0152
           6    0.0009    0.0054    0.0000    0.0000   -0.0000    0.0000   -0.0000   -0.0000
           7    0.0000    0.0000   -0.0213    0.0017   -0.0079   -0.0004   -0.0181    0.0415
           8    0.0000    0.0000    0.0047    0.0064    0.0049   -0.0052   -0.0137   -0.0036
           9    0.0146    0.0261   -0.0000    0.0000   -0.0000   -0.0000    0.0000   -0.0000
          10    0.0000   -0.0000   -0.0213   -0.0017    0.0079   -0.0004    0.0181    0.0415
          11   -0.0000   -0.0000    0.0047   -0.0064   -0.0049   -0.0052    0.0137   -0.0036
          12    0.0147   -0.0261   -0.0000   -0.0000    0.0000   -0.0000   -0.0000   -0.0000
          13   -0.0001   -0.0001   -0.0134    0.0120   -0.0021   -0.0008    0.0063   -0.0085
          14   -0.0000   -0.0001   -0.0001   -0.0007    0.0010    0.0043   -0.0073    0.0005
          15   -0.0205   -0.0161    0.0000   -0.0000    0.0000   -0.0000    0.0000    0.0000
          16   -0.0000    0.0000   -0.0134   -0.0120    0.0021   -0.0008   -0.0063   -0.0085
          17   -0.0000    0.0000   -0.0001    0.0007   -0.0010    0.0043    0.0073    0.0005
          18   -0.0206    0.0160    0.0000    0.0000   -0.0000   -0.0000   -0.0000    0.0000
          19    0.0000   -0.0000    0.0257    0.0245   -0.0031   -0.0006   -0.0103    0.0031
          20    0.0000    0.0000   -0.0084   -0.0014    0.0020   -0.0022   -0.0082    0.0057
          21   -0.0078   -0.0068   -0.0000   -0.0000    0.0000    0.0000    0.0000   -0.0000
          22    0.0000    0.0000    0.0257   -0.0245    0.0030   -0.0006    0.0103    0.0031
          23   -0.0000   -0.0000   -0.0084    0.0014   -0.0020   -0.0022    0.0082    0.0057
          24   -0.0079    0.0068   -0.0000    0.0000   -0.0000    0.0000   -0.0000   -0.0000
          25   -0.0000    0.0000   -0.0060    0.0103    0.0014    0.0016    0.0045   -0.0120
          26   -0.0000   -0.0000   -0.0045    0.0171   -0.0029   -0.0003   -0.0097   -0.0127
          27    0.0083    0.0019    0.0000   -0.0000    0.0000   -0.0000    0.0000    0.0000
          28   -0.0000   -0.0000   -0.0060   -0.0103   -0.0014    0.0016   -0.0045   -0.0120
          29   -0.0000    0.0000   -0.0045   -0.0171    0.0029   -0.0003    0.0097   -0.0127
          30    0.0083   -0.0019   -0.0000    0.0000   -0.0000   -0.0000    0.0000    0.0000
          31    0.1146    0.1351    0.0288    0.0074   -0.0255   -0.0354    0.0493   -0.1025
          32    0.1443    0.1477   -0.0008   -0.0052   -0.0234   -0.0344    0.0663   -0.0602
          33    0.0019    0.0064    0.0057    0.0024   -0.0019   -0.0019   -0.0018   -0.0167
          34   -0.1146   -0.1350    0.0289    0.0073   -0.0254   -0.0353    0.0492   -0.1024
          35   -0.1440   -0.1472   -0.0007   -0.0052   -0.0233   -0.0343    0.0663   -0.0600
          36    0.0021    0.0065   -0.0056   -0.0024    0.0019    0.0019    0.0017    0.0168
          37   -0.1150    0.1347    0.0290   -0.0073    0.0254   -0.0354   -0.0492   -0.1024
          38   -0.1444    0.1469   -0.0007    0.0052    0.0233   -0.0344   -0.0663   -0.0600
          39    0.0021   -0.0065   -0.0056    0.0024   -0.0019    0.0019   -0.0017    0.0168
          40    0.1149   -0.1348    0.0288   -0.0074    0.0255   -0.0355   -0.0493   -0.1025
          41    0.1445   -0.1473   -0.0009    0.0052    0.0234   -0.0344   -0.0663   -0.0601
          42    0.0019   -0.0064    0.0057   -0.0024    0.0019   -0.0019    0.0018   -0.0167
          43   -0.0001   -0.0000   -0.0607    0.0632   -0.0598   -0.0546   -0.0186   -0.0029
          44    0.0001   -0.0000    0.1239   -0.1337    0.1567    0.1497    0.0608   -0.0202
          45    0.0323    0.0206   -0.0000    0.0000   -0.0000   -0.0000   -0.0000    0.0000
          46   -0.0001    0.0000   -0.0607   -0.0632    0.0598   -0.0546    0.0186   -0.0029
          47    0.0001    0.0000    0.1239    0.1337   -0.1566    0.1498   -0.0609   -0.0202
          48    0.0324   -0.0206   -0.0000   -0.0000    0.0000   -0.0000    0.0000    0.0000
          49    0.0002    0.0003   -0.0702    0.0791    0.1684    0.1777   -0.0870   -0.0189
          50   -0.0001   -0.0001    0.0046    0.0080   -0.0247   -0.0230    0.0014   -0.0125
          51   -0.0146    0.0003    0.0000   -0.0000   -0.0001   -0.0001    0.0000    0.0000
          52    0.0001   -0.0001    0.1162    0.1371    0.0449   -0.0297    0.0770    0.0820
          53    0.0001   -0.0001    0.0912    0.1228    0.0570   -0.0360    0.0894    0.0926
          54    0.0320    0.0231   -0.0001   -0.0000   -0.0000    0.0000   -0.0000   -0.0000
          55    0.0002    0.0001    0.1162   -0.1371   -0.0449   -0.0298   -0.0770    0.0820
          56    0.0002    0.0001    0.0912   -0.1227   -0.0570   -0.0361   -0.0893    0.0926
          57    0.0320   -0.0230   -0.0001    0.0001    0.0000    0.0000    0.0000   -0.0000
          58    0.0000   -0.0002   -0.0702   -0.0792   -0.1682    0.1778    0.0869   -0.0190
          59   -0.0000    0.0001    0.0046   -0.0080    0.0247   -0.0230   -0.0014   -0.0125
          60   -0.0146   -0.0004    0.0000    0.0000    0.0001   -0.0001   -0.0000    0.0000


   Root No.      33        34        35        36        37        38        39        40

                33 A      34 A      35 A      36 A      37 A      38 A      39 A      40 A   

                1226.6    1330.0    1337.3    1367.1    1397.9    1410.1    1481.9    1550.9
  
           1    0.0097    0.0104    0.0224    0.0446   -0.0106    0.0317    0.0328   -0.0554
           2   -0.0075    0.0309   -0.0054   -0.0009   -0.0544    0.0112    0.0562   -0.0366
           3    0.0000   -0.0000    0.0000    0.0000    0.0000    0.0000   -0.0000    0.0000
           4    0.0097    0.0104   -0.0224    0.0446    0.0106   -0.0317    0.0328    0.0554
           5   -0.0075    0.0309    0.0054   -0.0009    0.0544   -0.0112    0.0562    0.0366
           6    0.0000   -0.0000   -0.0000    0.0000   -0.0000   -0.0000   -0.0000   -0.0000
           7   -0.0122   -0.0119    0.0145   -0.0242   -0.0190   -0.0234   -0.0189    0.1394
           8   -0.0185    0.0145   -0.0010    0.0085    0.0094   -0.0243   -0.0215   -0.0525
           9    0.0000   -0.0000   -0.0000   -0.0000    0.0000    0.0000    0.0000   -0.0000
          10   -0.0122   -0.0119   -0.0145   -0.0242    0.0190    0.0234   -0.0189   -0.1394
          11   -0.0185    0.0145    0.0010    0.0085   -0.0094    0.0243   -0.0215    0.0525
          12    0.0000    0.0000    0.0000   -0.0000   -0.0000   -0.0000    0.0000    0.0000
          13    0.0069   -0.0144   -0.0019   -0.0082    0.0156   -0.0122   -0.0066    0.0003
          14    0.0220    0.0026   -0.0128    0.0060    0.0320    0.0251   -0.0458    0.0330
          15   -0.0000    0.0000    0.0000   -0.0000   -0.0000   -0.0000    0.0000   -0.0000
          16    0.0069   -0.0144    0.0019   -0.0082   -0.0156    0.0122   -0.0066   -0.0003
          17    0.0220    0.0026    0.0128    0.0060   -0.0320   -0.0251   -0.0458   -0.0330
          18   -0.0000    0.0000   -0.0000   -0.0000    0.0000    0.0000    0.0000    0.0000
          19   -0.0226    0.0239    0.0051    0.0122    0.0098   -0.0432   -0.0401   -0.0380
          20   -0.0097   -0.0070   -0.0035   -0.0103    0.0174   -0.0137   -0.0101   -0.0058
          21    0.0000   -0.0000   -0.0000   -0.0000   -0.0000    0.0000    0.0000    0.0000
          22   -0.0226    0.0239   -0.0051    0.0122   -0.0098    0.0432   -0.0401    0.0380
          23   -0.0097   -0.0070    0.0035   -0.0103   -0.0174    0.0137   -0.0101    0.0058
          24    0.0000   -0.0000    0.0000   -0.0000    0.0000   -0.0000    0.0000   -0.0000
          25   -0.0060   -0.0169    0.0125   -0.0119   -0.0199   -0.0397    0.0458   -0.0160
          26    0.0142   -0.0144    0.0068   -0.0017    0.0059   -0.0281    0.0195   -0.0142
          27   -0.0000    0.0000   -0.0000    0.0000    0.0000    0.0000   -0.0000    0.0000
          28   -0.0060   -0.0169   -0.0125   -0.0119    0.0199    0.0397    0.0458    0.0160
          29    0.0142   -0.0144   -0.0068   -0.0017   -0.0059    0.0281    0.0195    0.0142
          30    0.0000    0.0000    0.0000    0.0000   -0.0000   -0.0000   -0.0000   -0.0000
          31    0.0328    0.0395   -0.1246   -0.0962    0.0148   -0.0404   -0.0270    0.0011
          32   -0.0224   -0.0885    0.0658    0.0381    0.0788   -0.0148   -0.0452    0.0058
          33    0.0176    0.0625   -0.1039   -0.0876   -0.0398   -0.0260    0.0101    0.0098
          34    0.0328    0.0396   -0.1246   -0.0963    0.0148   -0.0404   -0.0269    0.0012
          35   -0.0224   -0.0885    0.0660    0.0383    0.0788   -0.0148   -0.0452    0.0058
          36   -0.0176   -0.0624    0.1037    0.0875    0.0397    0.0260   -0.0101   -0.0098
          37    0.0328    0.0396    0.1246   -0.0963   -0.0148    0.0404   -0.0269   -0.0012
          38   -0.0224   -0.0886   -0.0660    0.0383   -0.0788    0.0148   -0.0452   -0.0058
          39   -0.0176   -0.0624   -0.1037    0.0875   -0.0397   -0.0260   -0.0101    0.0098
          40    0.0328    0.0395    0.1246   -0.0962   -0.0148    0.0404   -0.0269   -0.0011
          41   -0.0224   -0.0885   -0.0658    0.0381   -0.0788    0.0148   -0.0452   -0.0058
          42    0.0176    0.0625    0.1039   -0.0876    0.0398    0.0260    0.0101   -0.0098
          43    0.0425    0.0097   -0.0134    0.0165    0.0355    0.0316   -0.0369    0.0084
          44   -0.0696   -0.0667    0.0185   -0.0606   -0.0149   -0.0965    0.0361    0.0069
          45    0.0000    0.0000   -0.0000    0.0000   -0.0000    0.0000    0.0000   -0.0000
          46    0.0425    0.0097    0.0134    0.0165   -0.0355   -0.0316   -0.0369   -0.0084
          47   -0.0696   -0.0668   -0.0185   -0.0606    0.0149    0.0965    0.0361   -0.0069
          48    0.0000    0.0000   -0.0000    0.0000    0.0000   -0.0000    0.0000    0.0000
          49    0.0998    0.0295   -0.0363    0.0295    0.0721    0.0395   -0.0626    0.0365
          50    0.0020   -0.0228    0.0139   -0.0077   -0.0049   -0.0423    0.0360   -0.0231
          51   -0.0000   -0.0000    0.0000   -0.0000   -0.0000    0.0000    0.0000   -0.0000
          52    0.0812   -0.0119    0.0157   -0.0012   -0.0422    0.0102   -0.0013    0.0567
          53    0.1070   -0.0502    0.0069   -0.0271   -0.0389    0.0499    0.0380    0.0997
          54   -0.0000    0.0000   -0.0000    0.0000    0.0000   -0.0000   -0.0000   -0.0000
          55    0.0812   -0.0119   -0.0157   -0.0012    0.0422   -0.0102   -0.0014   -0.0567
          56    0.1070   -0.0502   -0.0069   -0.0271    0.0389   -0.0499    0.0380   -0.0997
          57   -0.0000    0.0000    0.0000    0.0000   -0.0000    0.0000   -0.0000    0.0000
          58    0.0998    0.0294    0.0363    0.0295   -0.0721   -0.0395   -0.0625   -0.0365
          59    0.0020   -0.0228   -0.0139   -0.0077    0.0049    0.0422    0.0360    0.0231
          60   -0.0000   -0.0000   -0.0000   -0.0000    0.0000   -0.0000    0.0000    0.0000


   Root No.      41        42        43        44        45        46        47        48

                41 A      42 A      43 A      44 A      45 A      46 A      47 A      48 A   

                1818.1    1834.2    1844.9    1869.4    2921.2    2921.3    3002.2    3002.4
  
           1    0.0100    0.0142    0.0041   -0.0041    0.0000    0.0000   -0.0217   -0.0103
           2   -0.0003    0.0119   -0.0155   -0.0217   -0.0000   -0.0000    0.0171    0.0081
           3    0.0000   -0.0000    0.0000    0.0000   -0.0397   -0.0214   -0.0000   -0.0000
           4   -0.0100    0.0142    0.0041    0.0041    0.0000   -0.0000   -0.0103    0.0217
           5    0.0003    0.0120   -0.0155    0.0217    0.0000   -0.0000    0.0081   -0.0171
           6   -0.0000   -0.0000    0.0000   -0.0000    0.0214   -0.0397    0.0000   -0.0000
           7   -0.0212   -0.0395   -0.0052    0.0052   -0.0000   -0.0000   -0.0004   -0.0005
           8   -0.0922   -0.1297   -0.0213    0.0820   -0.0000   -0.0000   -0.0003   -0.0003
           9    0.0000    0.0000    0.0000   -0.0000    0.0000   -0.0001    0.0000   -0.0000
          10    0.0213   -0.0395   -0.0052   -0.0052    0.0000   -0.0000    0.0000    0.0007
          11    0.0923   -0.1296   -0.0213   -0.0819    0.0000   -0.0000   -0.0001    0.0004
          12   -0.0000    0.0000    0.0000    0.0000   -0.0001   -0.0001   -0.0000   -0.0000
          13   -0.0511    0.0159   -0.0776   -0.0554   -0.0000   -0.0000    0.0025    0.0012
          14    0.0528   -0.0101    0.0863    0.0627    0.0000    0.0000    0.0013    0.0007
          15   -0.0000    0.0000   -0.0000   -0.0000   -0.0000   -0.0000   -0.0000   -0.0000
          16    0.0511    0.0161   -0.0776    0.0554    0.0000   -0.0000    0.0011   -0.0025
          17   -0.0528   -0.0102    0.0863   -0.0627   -0.0000    0.0000    0.0006   -0.0014
          18    0.0000   -0.0000   -0.0000    0.0000    0.0000   -0.0000   -0.0000    0.0000
          19    0.0458    0.0543   -0.0088   -0.0105    0.0000    0.0000    0.0001    0.0002
          20    0.0766    0.1325    0.0216   -0.0586    0.0000   -0.0000   -0.0001    0.0001
          21   -0.0000   -0.0000   -0.0000    0.0000   -0.0001    0.0000   -0.0000   -0.0000
          22   -0.0459    0.0542   -0.0088    0.0105   -0.0000    0.0000   -0.0001   -0.0002
          23   -0.0768    0.1324    0.0215    0.0586   -0.0000    0.0000   -0.0001   -0.0001
          24    0.0000   -0.0000    0.0000   -0.0000    0.0001   -0.0001    0.0000   -0.0000
          25    0.0788   -0.0368    0.0984    0.0638    0.0000   -0.0000    0.0002    0.0002
          26   -0.0296   -0.0040   -0.0589   -0.0452   -0.0000   -0.0000   -0.0000   -0.0000
          27   -0.0000    0.0000   -0.0000   -0.0000   -0.0002   -0.0001   -0.0000   -0.0000
          28   -0.0788   -0.0370    0.0984   -0.0638   -0.0000    0.0000    0.0001   -0.0003
          29    0.0297   -0.0039   -0.0589    0.0452    0.0000   -0.0000   -0.0000    0.0001
          30    0.0000    0.0000   -0.0000    0.0000    0.0001   -0.0002    0.0000   -0.0000
          31   -0.0085   -0.0062   -0.0020    0.0068   -0.1470   -0.0793    0.1309    0.0622
          32   -0.0227   -0.0115   -0.0145    0.0011    0.1154    0.0623   -0.1024   -0.0487
          33    0.0034   -0.0004   -0.0006   -0.0029    0.2396    0.1293   -0.2559   -0.1216
          34   -0.0084   -0.0062   -0.0020    0.0067    0.1468    0.0792    0.1308    0.0621
          35   -0.0227   -0.0115   -0.0145    0.0012   -0.1151   -0.0621   -0.1021   -0.0485
          36   -0.0034    0.0004    0.0007    0.0029    0.2399    0.1294    0.2561    0.1217
          37    0.0084   -0.0062   -0.0020   -0.0067   -0.0793    0.1470    0.0622   -0.1303
          38    0.0227   -0.0114   -0.0144   -0.0012    0.0622   -0.1153   -0.0486    0.1017
          39    0.0034    0.0004    0.0007   -0.0029   -0.1296    0.2402    0.1218   -0.2552
          40    0.0085   -0.0062   -0.0019   -0.0068    0.0792   -0.1468    0.0625   -0.1308
          41    0.0228   -0.0114   -0.0145   -0.0011   -0.0622    0.1153   -0.0489    0.1023
          42   -0.0034   -0.0004   -0.0006    0.0029   -0.1291    0.2393   -0.1220    0.2556
          43   -0.0333    0.0172   -0.0472   -0.0335    0.0000    0.0000   -0.0292   -0.0147
          44   -0.0247   -0.0019   -0.0484   -0.0380    0.0000    0.0000   -0.0084   -0.0043
          45    0.0000   -0.0000    0.0000    0.0000   -0.0010   -0.0005    0.0000    0.0000
          46    0.0333    0.0173   -0.0472    0.0335    0.0000   -0.0000   -0.0134    0.0298
          47    0.0247   -0.0018   -0.0484    0.0380    0.0000   -0.0000   -0.0038    0.0086
          48   -0.0000   -0.0000    0.0000   -0.0000    0.0006   -0.0010    0.0000   -0.0000
          49   -0.0054   -0.0256   -0.0392   -0.0374   -0.0000   -0.0000   -0.0000    0.0000
          50   -0.0300   -0.0022   -0.0583   -0.0443    0.0000    0.0000   -0.0030   -0.0010
          51    0.0000    0.0000    0.0000    0.0000   -0.0005   -0.0002    0.0000    0.0000
          52   -0.0247   -0.0754   -0.0399    0.0508   -0.0000   -0.0000   -0.0026   -0.0012
          53    0.0118    0.0187   -0.0088   -0.0029    0.0000    0.0000    0.0012    0.0005
          54   -0.0000    0.0000    0.0000   -0.0000   -0.0000   -0.0000    0.0000    0.0000
          55    0.0249   -0.0754   -0.0399   -0.0508    0.0000   -0.0000   -0.0013    0.0026
          56   -0.0118    0.0187   -0.0088    0.0029   -0.0000    0.0000    0.0006   -0.0011
          57    0.0000    0.0000    0.0000    0.0000    0.0000   -0.0000    0.0000   -0.0000
          58    0.0054   -0.0255   -0.0392    0.0374    0.0000   -0.0000   -0.0000    0.0000
          59    0.0300   -0.0021   -0.0583    0.0443    0.0000   -0.0000   -0.0017    0.0026
          60   -0.0000    0.0000    0.0000   -0.0000    0.0003   -0.0005    0.0000   -0.0000


   Root No.      49        50        51        52        53        54

                49 A      50 A      51 A      52 A      53 A      54 A   

                3050.9    3050.9    3058.0    3058.0    3073.3    3073.5
  
           1    0.0007    0.0004   -0.0006   -0.0007   -0.0009    0.0007
           2   -0.0005   -0.0001    0.0007    0.0003    0.0006   -0.0007
           3   -0.0000   -0.0000   -0.0000    0.0000    0.0000    0.0000
           4   -0.0005    0.0006   -0.0007    0.0006   -0.0007   -0.0009
           5    0.0004   -0.0004    0.0007   -0.0002    0.0005    0.0008
           6    0.0000   -0.0000    0.0000   -0.0000    0.0000    0.0000
           7    0.0000   -0.0001   -0.0004    0.0005    0.0003    0.0003
           8    0.0001   -0.0007   -0.0019    0.0013    0.0008    0.0005
           9    0.0000    0.0000    0.0000   -0.0000   -0.0000   -0.0000
          10   -0.0001   -0.0001   -0.0003   -0.0005    0.0004   -0.0002
          11   -0.0004   -0.0007   -0.0017   -0.0015    0.0009   -0.0003
          12    0.0000    0.0000    0.0000    0.0000   -0.0000    0.0000
          13    0.0157    0.0103   -0.0127   -0.0144   -0.0159    0.0122
          14    0.0058    0.0038   -0.0039   -0.0044   -0.0033    0.0026
          15   -0.0000   -0.0000    0.0000    0.0000    0.0000   -0.0000
          16   -0.0101    0.0160   -0.0141    0.0129   -0.0122   -0.0158
          17   -0.0038    0.0059   -0.0044    0.0039   -0.0026   -0.0033
          18    0.0000   -0.0000    0.0000   -0.0000    0.0000    0.0000
          19    0.0052   -0.0080   -0.0176    0.0160    0.0052    0.0068
          20   -0.0050    0.0079    0.0175   -0.0156   -0.0048   -0.0060
          21   -0.0000    0.0000    0.0000   -0.0000   -0.0000   -0.0000
          22   -0.0080   -0.0051   -0.0159   -0.0177    0.0068   -0.0053
          23    0.0079    0.0051    0.0157    0.0173   -0.0062    0.0047
          24    0.0000    0.0000    0.0000    0.0000   -0.0000    0.0000
          25   -0.0024   -0.0015    0.0011    0.0013   -0.0008    0.0006
          26   -0.0179   -0.0115    0.0001    0.0002   -0.0206    0.0158
          27    0.0000    0.0000   -0.0000   -0.0000    0.0000   -0.0000
          28    0.0015   -0.0024    0.0012   -0.0012   -0.0006   -0.0008
          29    0.0115   -0.0179    0.0001   -0.0002   -0.0159   -0.0205
          30   -0.0000    0.0000   -0.0000    0.0000    0.0000    0.0000
          31   -0.0038   -0.0019    0.0037    0.0030    0.0037   -0.0033
          32    0.0042    0.0025   -0.0034   -0.0038   -0.0040    0.0032
          33    0.0084    0.0044   -0.0075   -0.0068   -0.0079    0.0068
          34   -0.0038   -0.0019    0.0036    0.0030    0.0037   -0.0033
          35    0.0042    0.0025   -0.0034   -0.0037   -0.0040    0.0032
          36   -0.0084   -0.0044    0.0075    0.0068    0.0079   -0.0068
          37    0.0027   -0.0033    0.0039   -0.0026    0.0027    0.0041
          38   -0.0028    0.0040   -0.0038    0.0034   -0.0030   -0.0041
          39    0.0058   -0.0075    0.0082   -0.0059    0.0059    0.0085
          40    0.0027   -0.0033    0.0040   -0.0026    0.0027    0.0041
          41   -0.0028    0.0041   -0.0038    0.0034   -0.0030   -0.0041
          42   -0.0058    0.0075   -0.0082    0.0059   -0.0059   -0.0086
          43   -0.1861   -0.1211    0.1452    0.1635    0.1626   -0.1254
          44   -0.0705   -0.0459    0.0539    0.0607    0.0591   -0.0456
          45    0.0001    0.0001   -0.0001   -0.0001   -0.0001    0.0001
          46    0.1195   -0.1884    0.1615   -0.1471    0.1254    0.1618
          47    0.0453   -0.0714    0.0600   -0.0546    0.0456    0.0588
          48   -0.0001    0.0001   -0.0001    0.0001   -0.0001   -0.0001
          49    0.0280    0.0181   -0.0032   -0.0037    0.0286   -0.0220
          50    0.2115    0.1365   -0.0061   -0.0081    0.2216   -0.1706
          51   -0.0001   -0.0001    0.0000    0.0000   -0.0001    0.0001
          52   -0.0611    0.0943    0.2104   -0.1895   -0.0584   -0.0756
          53    0.0561   -0.0865   -0.1891    0.1703    0.0511    0.0661
          54    0.0000   -0.0000   -0.0000    0.0000    0.0000    0.0000
          55    0.0945    0.0602    0.1892    0.2108   -0.0758    0.0585
          56   -0.0867   -0.0552   -0.1701   -0.1894    0.0662   -0.0512
          57   -0.0000   -0.0000   -0.0000   -0.0000    0.0000   -0.0000
          58   -0.0179    0.0281   -0.0035    0.0033    0.0222    0.0286
          59   -0.1356    0.2121   -0.0067    0.0072    0.1716    0.2212
          60    0.0001   -0.0001    0.0000   -0.0000   -0.0001   -0.0001


           MASS-WEIGHTED COORDINATE ANALYSIS (NORMAL COORDINATES)


   Root No.       1         2         3         4         5         6         7         8

                 1 A       2 A       3 A       4 A       5 A       6 A       7 A       8 A   

                  36.9     152.6     160.5     327.5     376.3     416.1     423.3     482.4
  
           1   -0.0000   -0.0001   -0.0001    0.0002    0.1774   -0.0001    0.0000   -0.1991
           2    0.0002    0.0001   -0.0000   -0.0001    0.1299    0.0001   -0.0000    0.2113
           3    0.4010    0.2898    0.0919   -0.0960    0.0000    0.0024   -0.0058   -0.0001
           4   -0.0000    0.0001   -0.0001    0.0002    0.1774    0.0001   -0.0000    0.1990
           5    0.0002   -0.0001   -0.0000   -0.0001    0.1299   -0.0001   -0.0001   -0.2113
           6    0.4008   -0.2909    0.0891   -0.0959    0.0000   -0.0023   -0.0058    0.0001
           7    0.0000   -0.0000   -0.0001    0.0001    0.2830   -0.0000   -0.0001   -0.1215
           8    0.0000   -0.0000   -0.0000    0.0001   -0.2830   -0.0000    0.0001   -0.0974
           9    0.1327   -0.0779   -0.1941    0.4880   -0.0001    0.1572   -0.1926   -0.0002
          10    0.0000    0.0000   -0.0001    0.0001    0.2830    0.0000   -0.0001    0.1214
          11    0.0000    0.0000   -0.0000    0.0001   -0.2830    0.0000    0.0000    0.0974
          12    0.1327    0.0797   -0.1934    0.4880   -0.0001   -0.1557   -0.1938    0.0002
          13    0.0000   -0.0001    0.0001   -0.0000   -0.1458   -0.0001    0.0001    0.1077
          14   -0.0001   -0.0001    0.0001    0.0000    0.2233   -0.0000    0.0001    0.2437
          15   -0.0975   -0.2377    0.4232    0.0771    0.0001   -0.2958    0.2267    0.0001
          16    0.0000    0.0001    0.0001   -0.0000   -0.1458    0.0001    0.0001   -0.1077
          17   -0.0001    0.0002    0.0001    0.0000    0.2233    0.0000    0.0001   -0.2437
          18   -0.0974    0.2336    0.4256    0.0770    0.0000    0.2942    0.2287   -0.0001
          19    0.0000   -0.0001   -0.0001   -0.0001   -0.0491   -0.0000    0.0000   -0.2745
          20    0.0000   -0.0001   -0.0000    0.0000   -0.2363   -0.0001    0.0001   -0.1152
          21   -0.1272   -0.3268   -0.3897   -0.0959    0.0000    0.2049    0.2645    0.0000
          22    0.0000    0.0001   -0.0001   -0.0001   -0.0491    0.0000    0.0001    0.2745
          23    0.0000    0.0000   -0.0000    0.0001   -0.2363    0.0000    0.0001    0.1152
          24   -0.1270    0.3307   -0.3865   -0.0959    0.0000   -0.2068    0.2630   -0.0000
          25   -0.0000   -0.0000    0.0001   -0.0001   -0.2351    0.0002   -0.0001    0.2226
          26   -0.0001   -0.0001    0.0000   -0.0000    0.1118    0.0003   -0.0001    0.3771
          27   -0.3411   -0.0474    0.0177   -0.2031   -0.0001    0.3784   -0.3134   -0.0003
          28   -0.0000    0.0000    0.0000   -0.0001   -0.2351   -0.0002   -0.0001   -0.2226
          29   -0.0001    0.0001    0.0000   -0.0000    0.1118   -0.0003   -0.0001   -0.3771
          30   -0.3410    0.0474    0.0181   -0.2031   -0.0000   -0.3764   -0.3161    0.0003
          31    0.0900    0.1292    0.0386   -0.1776    0.0872    0.0031   -0.0242   -0.0569
          32   -0.1009   -0.1270    0.0592    0.0940    0.0850   -0.1020    0.0976    0.0699
          33    0.2176    0.2222    0.0218   -0.1815    0.0004    0.0521   -0.0640   -0.0024
          34   -0.0900   -0.1293   -0.0387    0.1778    0.0870   -0.0031    0.0242   -0.0571
          35    0.1011    0.1273   -0.0593   -0.0942    0.0850    0.1022   -0.0977    0.0699
          36    0.2174    0.2220    0.0219   -0.1812   -0.0003    0.0520   -0.0639    0.0024
          37   -0.0900    0.1297   -0.0374    0.1778    0.0870    0.0030    0.0241    0.0571
          38    0.1011   -0.1268   -0.0606   -0.0942    0.0850   -0.1015   -0.0984   -0.0699
          39    0.2173   -0.2223    0.0197   -0.1812   -0.0003   -0.0515   -0.0642   -0.0024
          40    0.0899   -0.1296    0.0373   -0.1776    0.0872   -0.0030   -0.0241    0.0569
          41   -0.1009    0.1266    0.0605    0.0940    0.0850    0.1013    0.0983   -0.0699
          42    0.2175   -0.2226    0.0196   -0.1814    0.0004   -0.0517   -0.0644    0.0024
          43   -0.0000   -0.0001    0.0001    0.0000   -0.0617   -0.0001    0.0001    0.0574
          44   -0.0001   -0.0001    0.0001    0.0001    0.1185   -0.0001    0.0001   -0.0003
          45   -0.0679   -0.2013    0.2756    0.0708    0.0000   -0.1951    0.1451    0.0002
          46   -0.0000    0.0001    0.0001    0.0000   -0.0617    0.0001    0.0001   -0.0574
          47   -0.0001    0.0001    0.0001    0.0001    0.1185    0.0001    0.0000    0.0003
          48   -0.0678    0.1986    0.2775    0.0708    0.0000    0.1941    0.1464   -0.0002
          49   -0.0000   -0.0000    0.0000   -0.0000   -0.1361    0.0001   -0.0001    0.0509
          50   -0.0001   -0.0000    0.0000   -0.0000    0.0406    0.0002   -0.0001    0.1108
          51   -0.2027   -0.0849    0.0364   -0.1245   -0.0000    0.3244   -0.2778   -0.0001
          52    0.0000   -0.0000   -0.0000   -0.0001   -0.0815    0.0000    0.0001   -0.0712
          53    0.0000   -0.0000   -0.0000   -0.0000   -0.1417    0.0000    0.0001   -0.0247
          54   -0.0540   -0.1777   -0.1865   -0.1707    0.0000    0.1863    0.3391   -0.0000
          55    0.0000    0.0000   -0.0000   -0.0001   -0.0815   -0.0000    0.0001    0.0712
          56    0.0000    0.0000   -0.0000   -0.0000   -0.1417   -0.0000    0.0001    0.0247
          57   -0.0539    0.1795   -0.1848   -0.1707    0.0000   -0.1886    0.3377    0.0001
          58   -0.0000    0.0000    0.0000   -0.0000   -0.1361   -0.0001   -0.0001   -0.0509
          59   -0.0001    0.0000    0.0000   -0.0000    0.0406   -0.0002   -0.0001   -0.1108
          60   -0.2026    0.0845    0.0372   -0.1244   -0.0000   -0.3224   -0.2800    0.0001


   Root No.       9        10        11        12        13        14        15        16

                 9 A      10 A      11 A      12 A      13 A      14 A      15 A      16 A   

                 497.1     586.7     612.6     746.8     751.3     781.7     818.1     832.2
  
           1    0.2820    0.3404   -0.0000   -0.0001    0.0002   -0.0679   -0.4464   -0.0000
           2    0.1905   -0.2065   -0.0001   -0.0000    0.0001   -0.1757    0.1452    0.0003
           3   -0.0000    0.0002   -0.1806   -0.0730   -0.1299    0.0002   -0.0001    0.3061
           4   -0.2820    0.3404    0.0000    0.0001    0.0001   -0.0679    0.4464    0.0001
           5   -0.1905   -0.2065    0.0001    0.0000    0.0001   -0.1757   -0.1452    0.0003
           6    0.0000    0.0002    0.1806    0.0701   -0.1318    0.0002   -0.0000    0.3060
           7    0.1585    0.1866    0.0000    0.0000   -0.0000    0.0880   -0.1176   -0.0001
           8    0.1755    0.1868   -0.0000    0.0000    0.0001   -0.0402    0.1572    0.0000
           9    0.0000   -0.0003   -0.4723    0.2407    0.1290    0.0001    0.0001   -0.0418
          10   -0.1585    0.1866   -0.0000    0.0000   -0.0000    0.0880    0.1176   -0.0001
          11   -0.1755    0.1868    0.0000   -0.0000    0.0001   -0.0402   -0.1572   -0.0000
          12   -0.0000   -0.0003    0.4723   -0.2377    0.1345    0.0001   -0.0001   -0.0417
          13    0.3791   -0.1622    0.0001   -0.0001    0.0003   -0.3612    0.0832    0.0003
          14    0.1901   -0.1564   -0.0001   -0.0001    0.0000   -0.1645   -0.0314    0.0002
          15   -0.0002    0.0000    0.0151   -0.1125   -0.1358   -0.0001   -0.0000   -0.0804
          16   -0.3791   -0.1622   -0.0001    0.0000    0.0003   -0.3612   -0.0832    0.0003
          17   -0.1901   -0.1564    0.0001    0.0001    0.0000   -0.1645    0.0314    0.0002
          18    0.0002    0.0000   -0.0152    0.1092   -0.1383   -0.0001    0.0000   -0.0805
          19   -0.0957   -0.2531    0.0002    0.0001   -0.0003    0.2197   -0.0111   -0.0002
          20    0.2455    0.2785    0.0001    0.0000    0.0001    0.0046    0.2344   -0.0001
          21   -0.0000   -0.0001    0.1208    0.0332    0.0125   -0.0002   -0.0000   -0.2295
          22    0.0957   -0.2531   -0.0002   -0.0001   -0.0003    0.2197    0.0112   -0.0002
          23   -0.2455    0.2785   -0.0001    0.0000    0.0001    0.0046   -0.2344   -0.0002
          24    0.0000   -0.0001   -0.1208   -0.0328    0.0135   -0.0002    0.0001   -0.2294
          25    0.1126   -0.1426   -0.0001   -0.0001   -0.0002    0.1025   -0.0548   -0.0001
          26   -0.1534   -0.0874   -0.0003   -0.0001   -0.0005    0.4238   -0.2423   -0.0004
          27    0.0001    0.0001   -0.0302   -0.1611   -0.1910   -0.0004    0.0001   -0.0493
          28   -0.1126   -0.1426    0.0001    0.0001   -0.0002    0.1025    0.0548   -0.0001
          29    0.1534   -0.0874    0.0003    0.0002   -0.0005    0.4238    0.2423   -0.0004
          30   -0.0001    0.0001    0.0300    0.1565   -0.1945   -0.0004   -0.0001   -0.0493
          31    0.0752    0.1115    0.2212    0.0190    0.0573   -0.0040   -0.2024   -0.1999
          32    0.0471   -0.0573   -0.0888   -0.1107   -0.1338   -0.0405   -0.0111    0.1195
          33    0.0009    0.0056    0.1279    0.0449    0.0636    0.0016   -0.0165   -0.0928
          34    0.0752    0.1115   -0.2215   -0.0191   -0.0572   -0.0037   -0.2022    0.2000
          35    0.0472   -0.0574    0.0889    0.1108    0.1341   -0.0405   -0.0112   -0.1195
          36   -0.0009   -0.0055    0.1277    0.0448    0.0634   -0.0017    0.0163   -0.0925
          37   -0.0752    0.1115    0.2214    0.0178   -0.0578   -0.0038    0.2021    0.2000
          38   -0.0472   -0.0574   -0.0888   -0.1077    0.1367   -0.0405    0.0112   -0.1194
          39    0.0009   -0.0055   -0.1276   -0.0433    0.0645   -0.0017   -0.0163   -0.0925
          40   -0.0752    0.1115   -0.2212   -0.0177    0.0579   -0.0040    0.2025   -0.1998
          41   -0.0471   -0.0573    0.0888    0.1076   -0.1364   -0.0405    0.0111    0.1194
          42   -0.0009    0.0056   -0.1279   -0.0435    0.0647    0.0016    0.0165   -0.0928
          43    0.0919   -0.0722    0.0001    0.0002    0.0003   -0.0653    0.0469    0.0000
          44    0.1028    0.0266    0.0001    0.0001    0.0004   -0.1545   -0.0795    0.0001
[...]
 FREQUENCY          1397.95         C  2 -- C  6         +12.2% ( 52.7%)     96.5%
 TRANSITION DIPOLE   0.0000         C  1 -- C  5         +12.2% ( 52.7%)     96.5%
 TRAVEL (Ang.)       0.2046         C  1 -- H 11          +8.0% ( 42.6%)      2.5%
 REDUCED MASS        1.1525         C  2 -- H 14          +8.0% ( 42.6%)      2.5%
 EFFECTIVE MASS      8.6794
 FORCE CONSTANT      1.3270

 VIBRATION         38   38A           ATOM PAIR      ENERGY CONTRIBUTION    RADIAL
 FREQUENCY          1410.13         C  8 -- C  9         +12.2% ( 53.0%)     98.7%
 TRANSITION DIPOLE   0.0000         C  7 -- C 10         +12.2% ( 53.0%)     98.7%
 TRAVEL (Ang.)       0.2284         C  1 -- C  3          +5.8% ( 36.5%)     94.3%
 REDUCED MASS        0.9169         C  2 -- C  4          +5.8% ( 36.5%)     94.3%
 EFFECTIVE MASS      9.9221
 FORCE CONSTANT      1.0742

 VIBRATION         39   39A           ATOM PAIR      ENERGY CONTRIBUTION    RADIAL
 FREQUENCY          1481.87         C  1 -- C  5          +9.6% ( 48.0%)     93.3%
 TRANSITION DIPOLE   0.2536         C  2 -- C  6          +9.6% ( 48.0%)     93.3%
 TRAVEL (Ang.)       0.1938         C  7 -- C 10          +7.4% ( 42.3%)    100.0%
 REDUCED MASS        1.2116         C  8 -- C  9          +7.4% ( 42.3%)    100.0%
 EFFECTIVE MASS     10.9259
 FORCE CONSTANT      1.5675

 VIBRATION         40   40A           ATOM PAIR      ENERGY CONTRIBUTION    RADIAL
 FREQUENCY          1550.89         C  3 -- C  4         +28.6% ( 80.1%)     86.9%
 TRANSITION DIPOLE   0.0001         C  1 -- C  3         +14.3% ( 56.7%)     83.9%
 TRAVEL (Ang.)       0.1159         C  2 -- C  4         +14.3% ( 56.7%)     83.9%
 REDUCED MASS        3.2375         C  3 -- C  7         +11.1% ( 49.8%)      0.4%
 EFFECTIVE MASS     11.4973         C  4 -- C  8         +11.1% ( 49.8%)      0.4%
 FORCE CONSTANT      4.5880

 VIBRATION         41   41A           ATOM PAIR      ENERGY CONTRIBUTION    RADIAL
 FREQUENCY          1818.14         C  4 -- C  8         +12.2% ( 53.0%)     96.6%
 TRANSITION DIPOLE   0.0004         C  3 -- C  7         +12.2% ( 52.8%)     96.6%
 TRAVEL (Ang.)       0.1573         C  3 -- C  4          +9.4% ( 46.3%)     23.3%
 REDUCED MASS        1.4994         C  5 -- C  9          +9.3% ( 46.0%)     98.8%
 EFFECTIVE MASS     11.9426
 FORCE CONSTANT      2.9202

 VIBRATION         42   42A           ATOM PAIR      ENERGY CONTRIBUTION    RADIAL
 FREQUENCY          1834.24         C  3 -- C  7         +21.2% ( 68.1%)     97.7%
 TRANSITION DIPOLE   0.4689         C  4 -- C  8         +21.2% ( 68.0%)     97.7%
 TRAVEL (Ang.)       0.1180         C  3 -- C  4         +11.4% ( 50.0%)     20.3%
 REDUCED MASS        2.6412         C  7 -- C 10          +7.9% ( 41.7%)     65.6%
 EFFECTIVE MASS     11.9256
 FORCE CONSTANT      5.2356

 VIBRATION         43   43A           ATOM PAIR      ENERGY CONTRIBUTION    RADIAL
 FREQUENCY          1844.86         C  6 -- C 10         +21.5% ( 68.4%)    100.0%
 TRANSITION DIPOLE   0.7711         C  5 -- C  9         +21.5% ( 68.4%)    100.0%
 TRAVEL (Ang.)       0.1196         C  2 -- C  6          +7.1% ( 39.2%)     50.1%
 REDUCED MASS        2.5570         C  1 -- C  5          +7.1% ( 39.2%)     50.1%
 EFFECTIVE MASS     11.8283
 FORCE CONSTANT      5.1276

 VIBRATION         44   44A           ATOM PAIR      ENERGY CONTRIBUTION    RADIAL
 FREQUENCY          1869.37         C  5 -- C  9         +12.4% ( 51.5%)     99.6%
 TRANSITION DIPOLE   0.0001         C  6 -- C 10         +12.4% ( 51.4%)     99.6%
 TRAVEL (Ang.)       0.1586         C  3 -- C  7          +9.3% ( 44.5%)     99.4%
 REDUCED MASS        1.4339         C  4 -- C  8          +9.3% ( 44.5%)     99.4%
 EFFECTIVE MASS     11.8356
 FORCE CONSTANT      2.9523

 VIBRATION         45   45A           ATOM PAIR      ENERGY CONTRIBUTION    RADIAL
 FREQUENCY          2921.20         C  1 -- H 12         +37.9% ( 63.9%)     96.5%
 TRANSITION DIPOLE   0.0247         C  1 -- H 11         +37.9% ( 63.9%)     96.5%
 TRAVEL (Ang.)       0.2619         C  2 -- H 13         +11.1% ( 34.5%)     96.5%
 REDUCED MASS        0.3366         C  2 -- H 14         +11.0% ( 34.4%)     96.5%
 EFFECTIVE MASS      1.5329
 FORCE CONSTANT      1.6922

 VIBRATION         46   46A           ATOM PAIR      ENERGY CONTRIBUTION    RADIAL
 FREQUENCY          2921.34         C  2 -- H 13         +38.0% ( 64.0%)     96.5%
 TRANSITION DIPOLE   0.0827         C  2 -- H 14         +37.8% ( 63.8%)     96.5%
 TRAVEL (Ang.)       0.2618         C  1 -- H 12         +11.0% ( 34.5%)     96.5%
 REDUCED MASS        0.3367         C  1 -- H 11         +11.0% ( 34.5%)     96.5%
 EFFECTIVE MASS      1.5340
 FORCE CONSTANT      1.6928

 VIBRATION         47   47A           ATOM PAIR      ENERGY CONTRIBUTION    RADIAL
 FREQUENCY          3002.24         C  1 -- H 11         +40.0% ( 62.3%)     97.8%
 TRANSITION DIPOLE   0.1715         C  1 -- H 12         +40.0% ( 62.3%)     97.8%
 TRAVEL (Ang.)       0.2591         C  2 -- H 14          +9.1% ( 29.7%)     97.8%
 REDUCED MASS        0.3347         C  2 -- H 13          +9.1% ( 29.6%)     97.8%
 EFFECTIVE MASS      1.2776
 FORCE CONSTANT      1.7774

 VIBRATION         48   48A           ATOM PAIR      ENERGY CONTRIBUTION    RADIAL
 FREQUENCY          3002.37         C  2 -- H 14         +40.1% ( 62.4%)     97.8%
 TRANSITION DIPOLE   0.0608         C  2 -- H 13         +39.9% ( 62.2%)     97.8%
 TRAVEL (Ang.)       0.2591         C  1 -- H 12          +9.1% ( 29.7%)     97.8%
 REDUCED MASS        0.3345         C  1 -- H 11          +9.1% ( 29.7%)     97.8%
 EFFECTIVE MASS      1.2781
 FORCE CONSTANT      1.7765

 VIBRATION         49   49A           ATOM PAIR      ENERGY CONTRIBUTION    RADIAL
 FREQUENCY          3050.87         C  9 -- H 17         +30.9% ( 56.4%)    100.0%
 TRANSITION DIPOLE   0.0549         C  5 -- H 15         +26.8% ( 52.6%)    100.0%
 TRAVEL (Ang.)       0.3279         C 10 -- H 20         +12.7% ( 36.2%)    100.0%
 REDUCED MASS        0.2056         C  8 -- H 19         +11.2% ( 34.0%)    100.0%
 EFFECTIVE MASS      1.4739         C  6 -- H 16         +11.0% ( 33.8%)    100.0%
 FORCE CONSTANT      1.1274

 VIBRATION         50   50A           ATOM PAIR      ENERGY CONTRIBUTION    RADIAL
 FREQUENCY          3050.93         C 10 -- H 20         +30.7% ( 56.3%)    100.0%
 TRANSITION DIPOLE   0.2538         C  6 -- H 16         +27.2% ( 52.9%)    100.0%
 TRAVEL (Ang.)       0.3273         C  9 -- H 17         +12.7% ( 36.2%)    100.0%
 REDUCED MASS        0.2064         C  5 -- H 15         +11.2% ( 34.0%)    100.0%
 EFFECTIVE MASS      1.4767         C  7 -- H 18         +11.0% ( 33.7%)    100.0%
 FORCE CONSTANT      1.1317

 VIBRATION         51   51A           ATOM PAIR      ENERGY CONTRIBUTION    RADIAL
 FREQUENCY          3057.99         C  7 -- H 18         +39.1% ( 63.4%)    100.0%
 TRANSITION DIPOLE   0.5204         C  8 -- H 19         +31.6% ( 57.1%)    100.0%
 TRAVEL (Ang.)       0.2789         C  6 -- H 16         +14.5% ( 38.6%)    100.0%
 REDUCED MASS        0.2835         C  5 -- H 15         +11.7% ( 34.7%)    100.0%
 EFFECTIVE MASS      1.5136
 FORCE CONSTANT      1.5619

 VIBRATION         52   52A           ATOM PAIR      ENERGY CONTRIBUTION    RADIAL
 FREQUENCY          3058.05         C  8 -- H 19         +38.9% ( 63.3%)    100.0%
 TRANSITION DIPOLE   0.0277         C  7 -- H 18         +31.4% ( 56.9%)    100.0%
 TRAVEL (Ang.)       0.2797         C  5 -- H 15         +14.7% ( 38.9%)    100.0%
 REDUCED MASS        0.2819         C  6 -- H 16         +11.9% ( 35.0%)    100.0%
 EFFECTIVE MASS      1.5109
 FORCE CONSTANT      1.5530

 VIBRATION         53   53A           ATOM PAIR      ENERGY CONTRIBUTION    RADIAL
 FREQUENCY          3073.33         C  9 -- H 17         +33.4% ( 58.6%)    100.0%
 TRANSITION DIPOLE   0.6092         C  5 -- H 15         +20.0% ( 45.4%)     99.9%
 TRAVEL (Ang.)       0.3209         C 10 -- H 20         +20.0% ( 45.4%)    100.0%
 REDUCED MASS        0.2131         C  6 -- H 16         +11.9% ( 35.0%)     99.9%
 EFFECTIVE MASS      1.5965
 FORCE CONSTANT      1.1859

 VIBRATION         54   54A           ATOM PAIR      ENERGY CONTRIBUTION    RADIAL
 FREQUENCY          3073.48         C 10 -- H 20         +33.5% ( 58.7%)    100.0%
 TRANSITION DIPOLE   0.0779         C  6 -- H 16         +20.0% ( 45.3%)     99.9%
 TRAVEL (Ang.)       0.3210         C  9 -- H 17         +19.9% ( 45.3%)    100.0%
 REDUCED MASS        0.2129         C  5 -- H 15         +12.0% ( 35.1%)     99.9%
 EFFECTIVE MASS      1.5929
 FORCE CONSTANT      1.1850

      SYMMETRY NUMBER FOR POINT-GROUP C1  =  1


          SYSTEM IS A GROUND STATE



 InChI=1S/C10H10/c1-2-6-10-8-4-3-7-9(10)5-1/h1-5,8H,6-7H2


          MOLECULE IS NOT LINEAR

          THERE ARE 54 GENUINE VIBRATIONS IN THIS SYSTEM
          THIS THERMODYNAMICS CALCULATION IS LIMITED TO
          MOLECULES WHICH HAVE NO INTERNAL ROTATIONS




                    CALCULATED THERMODYNAMIC PROPERTIES
                                          *
   TEMP. (K)   PARTITION FUNCTION   H.O.F.    ENTHALPY  HEAT CAPACITY ENTROPY
                                   KCAL/MOL   CAL/MOLE    CAL/K/MOL  CAL/K/MOL


 298.00  VIB.     0.7545D+02                  3273.1468    26.1670    19.5753
         ROT.     0.5086D+06                   888.2803     2.9808    29.0917
         INT.     0.3838D+08                  4161.4271    29.1479    48.6670
         TRA.     0.1436D+28                  1480.4672     4.9680    40.5022
         TOT.                       47.335    5641.8943    34.1159    89.1692

 200.00  VIB.     0.1381D+02                  1279.0697    14.7685    11.6122
         ROT.     0.2797D+06                   596.1613     2.9808    27.9030
         INT.     0.3862D+07                  1875.2310    17.7493    39.5153
         TRA.     0.7896D+27                   993.6021     4.9680    38.5210
         TOT.                       44.562    2868.8331    22.7173    78.0363

 210.00  VIB.     0.1624D+02                  1432.1222    15.8468    12.3588
         ROT.     0.3009D+06                   625.9693     2.9808    28.0484
         INT.     0.4886D+07                  2058.0916    18.8276    40.4072
         TRA.     0.8496D+27                  1043.2822     4.9680    38.7634
         TOT.                       44.794    3101.3738    23.7956    79.1706

 220.00  VIB.     0.1915D+02                  1596.0978    16.9527    13.1214
         ROT.     0.3226D+06                   655.7774     2.9808    28.1871
         INT.     0.6177D+07                  2251.8752    19.9335    41.3085
         TRA.     0.9110D+27                  1092.9623     4.9680    38.9945
         TOT.                       45.038    3344.8375    24.9015    80.3030

 230.00  VIB.     0.2263D+02                  1771.2576    18.0832    13.8998
         ROT.     0.3449D+06                   685.5855     2.9808    28.3196
         INT.     0.7805D+07                  2456.8431    21.0640    42.2194
         TRA.     0.9738D+27                  1142.6424     4.9680    39.2154
         TOT.                       45.292    3599.4855    26.0320    81.4348

 240.00  VIB.     0.2682D+02                  1957.8327    19.2352    14.6937
         ROT.     0.3676D+06                   715.3935     2.9808    28.4465
         INT.     0.9859D+07                  2673.2263    22.2160    43.1402
         TRA.     0.1038D+28                  1192.3226     4.9680    39.4268
         TOT.                       45.558    3865.5488    27.1840    82.5670

 250.00  VIB.     0.3186D+02                  2156.0214    20.4053    15.5026
         ROT.     0.3908D+06                   745.2016     2.9808    28.5682
         INT.     0.1245D+08                  2901.2230    23.3861    44.0707
         TRA.     0.1103D+28                  1242.0027     4.9680    39.6296
         TOT.                       45.836    4143.2257    28.3541    83.7004

 260.00  VIB.     0.3795D+02                  2365.9881    21.5902    16.3259
         ROT.     0.4145D+06                   775.0097     2.9808    28.6851
         INT.     0.1573D+08                  3140.9977    24.5710    45.0110
         TRA.     0.1170D+28                  1291.6828     4.9680    39.8245
         TOT.                       46.126    4432.6805    29.5390    84.8355

 270.00  VIB.     0.4532D+02                  2587.8624    22.7863    17.1632
         ROT.     0.4387D+06                   804.8177     2.9808    28.7976
         INT.     0.1988D+08                  3392.6801    25.7671    45.9607
         TRA.     0.1239D+28                  1341.3629     4.9680    40.0120
         TOT.                       46.427    4734.0430    30.7351    85.9727

 280.00  VIB.     0.5425D+02                  2821.7400    23.9903    18.0136
         ROT.     0.4633D+06                   834.6258     2.9808    28.9060
         INT.     0.2513D+08                  3656.3657    26.9711    46.9195
         TRA.     0.1308D+28                  1391.0430     4.9680    40.1926
         TOT.                       46.740    5047.4087    31.9391    87.1122

 290.00  VIB.     0.6510D+02                  3067.6832    25.1989    18.8765
         ROT.     0.4883D+06                   864.4339     2.9808    29.0106
         INT.     0.3179D+08                  3932.1171    28.1797    47.8871
         TRA.     0.1379D+28                  1440.7231     4.9680    40.3670
         TOT.                       47.066    5372.8402    33.1477    88.2540

 300.00  VIB.     0.7831D+02                  3325.7229    26.4091    19.7512
         ROT.     0.5138D+06                   894.2419     2.9808    29.1116
         INT.     0.4023D+08                  4219.9648    29.3899    48.8628
         TRA.     0.1451D+28                  1490.4032     4.9680    40.5354
         TOT.                       47.403    5710.3680    34.3579    89.3982

 310.00  VIB.     0.9442D+02                  3595.8600    27.6179    20.6369
         ROT.     0.5397D+06                   924.0500     2.9808    29.2094
         INT.     0.5096D+08                  4519.9100    30.5987    49.8462
         TRA.     0.1524D+28                  1540.0833     4.9680    40.6983
         TOT.                       47.753    6059.9933    35.5667    90.5445

 320.00  VIB.     0.1141D+03                  3878.0680    28.8228    21.5327
         ROT.     0.5660D+06                   953.8580     2.9808    29.3040
         INT.     0.6459D+08                  4831.9260    31.8036    50.8367
         TRA.     0.1598D+28                  1589.7634     4.9680    40.8560
         TOT.                       48.115    6421.6895    36.7716    91.6927

 330.00  VIB.     0.1382D+03                  4172.2950    30.0213    22.4380
         ROT.     0.5927D+06                   983.6661     2.9808    29.3957
         INT.     0.8193D+08                  5155.9611    33.0022    51.8337
         TRA.     0.1674D+28                  1639.4435     4.9680    41.0089
         TOT.                       48.488    6795.4047    37.9702    92.8426

 340.00  VIB.     0.1678D+03                  4478.4666    31.2114    23.3519
         ROT.     0.6199D+06                  1013.4742     2.9808    29.4847
         INT.     0.1040D+09                  5491.9407    34.1922    52.8366
         TRA.     0.1750D+28                  1689.1236     4.9680    41.1572
         TOT.                       48.874    7181.0643    39.1602    93.9939

 350.00  VIB.     0.2041D+03                  4796.4876    32.3910    24.2737
         ROT.     0.6474D+06                  1043.2822     2.9808    29.5711
         INT.     0.1322D+09                  5839.7699    35.3718    53.8448
         TRA.     0.1828D+28                  1738.8037     4.9680    41.3012
         TOT.                       49.271    7578.5736    40.3398    95.1461

 360.00  VIB.     0.2488D+03                  5126.2454    33.5584    25.2026
         ROT.     0.6754D+06                  1073.0903     2.9808    29.6551
         INT.     0.1681D+09                  6199.3357    36.5392    54.8577
         TRA.     0.1907D+28                  1788.4838     4.9680    41.4412
         TOT.                       49.681    7987.8195    41.5073    96.2989

 370.00  VIB.     0.3039D+03                  5467.6113    34.7124    26.1378
         ROT.     0.7037D+06                  1102.8984     2.9808    29.7368
         INT.     0.2139D+09                  6570.5096    37.6932    55.8746
         TRA.     0.1987D+28                  1838.1639     4.9680    41.5773
         TOT.                       50.102    8408.6736    42.6612    97.4519

 380.00  VIB.     0.3719D+03                  5820.4434    35.8515    27.0787
         ROT.     0.7324D+06                  1132.7064     2.9808    29.8162
         INT.     0.2724D+09                  6953.1498    38.8323    56.8950
         TRA.     0.2068D+28                  1887.8440     4.9680    41.7098
         TOT.                       50.534    8840.9939    43.8003    98.6047

 390.00  VIB.     0.4560D+03                  6184.5884    36.9748    28.0245
         ROT.     0.7615D+06                  1162.5145     2.9808    29.8937
         INT.     0.3473D+09                  7347.1029    39.9556    57.9182
         TRA.     0.2150D+28                  1937.5242     4.9680    41.8388
         TOT.                       50.977    9284.6271    44.9236    99.7570

 400.00  VIB.     0.5600D+03                  6559.8837    38.0814    28.9746
         ROT.     0.7910D+06                  1192.3226     2.9808    29.9691
         INT.     0.4430D+09                  7752.2062    41.0622    58.9438
         TRA.     0.2233D+28                  1987.2043     4.9680    41.9646
         TOT.                       51.432    9739.4105    46.0302   100.9084

   *: NOTE: HEATS OF FORMATION ARE RELATIVE TO THE
            ELEMENTS IN THEIR STANDARD STATE AT 298K
              (=  Standard Enthalpy of Formation).

            Hvib:  Zero-point energy is not included.
                   frequencies of less than zero cm-1 are not included.
            Hrot = (3/2)RT
            Htra = (3/2)RT + pV = (5/2)RT

            Heat capacity is Cp, not Cv

          For more information, see: HTTP://OpenMOPAC.net/Manual/thermochemistry.html


           FORCE CONSTANT IN CARTESIAN COORDINATES (Millidynes/A)

    ATOM   CHEMICAL       X               Y               Z
   NUMBER   SYMBOL  FORCE CONSTANT  FORCE CONSTANT  FORCE CONSTANT

      1       C        8.839624        9.509884        7.574786
      2       C        8.839605        9.509770        7.575114
      3       C       10.612520       14.862015        2.621351
      4       C       10.612491       14.861447        2.621352
      5       C       13.219912       11.451857        2.346087
      6       C       13.219814       11.451697        2.346071
      7       C       10.946723       14.315105        2.171289
      8       C       10.946873       14.314827        2.171117
      9       C       13.042883       12.382754        2.180781
     10       C       13.042795       12.383066        2.180887
     11       H        1.532732        1.192677        3.420206
     12       H        1.530709        1.189343        3.425212
     13       H        1.530683        1.189313        3.425225
     14       H        1.532839        1.192688        3.420558
     15       H        4.613977        1.299313        0.341489
     16       H        4.613933        1.299334        0.341590
     17       H        0.834500        5.077262        0.345375
     18       H        3.186966        2.721443        0.334866
     19       H        3.187006        2.721418        0.334870
     20       H        0.834484        5.077516        0.345524

 **********************
 *                    *
 * JOB ENDED NORMALLY *
 *                    *
 **********************



 TOTAL JOB TIME:             1.81 SECONDS

 == MOPAC DONE ==
