 *******************************************************************************
 **                                                                           **
 **                              MOPAC v23.1.2                                **
 **                                                                           **
 *******************************************************************************
 **          Digital Object Identifier (DOI): 10.5281/zenodo.6511958          **
 **    Visit the DOI location for information on how to cite this program.    **
 *******************************************************************************

                              PM3 CALCULATION RESULTS

 *******************************************************************************
 *  CALCULATION DONE: (MAX THREADS = 1)              Tue Jun  3 16:43:15 2025  *
 *  PM3        - The PM3 Hamiltonian to be used
 *  PRECISE    - TIGHTER CRITERIA TO BE USED
 *  BFGS       - USE THE BFGS GEOMETRY OPTIMIZER
 *  NOSYM      - POINT-GROUP SYMMETRY SET TO C1
 *  THREADS=1  - MULTI-THREADING NOT USED
 *  T=         - A TIME OF 172800.0 SECONDS REQUESTED
 *  DUMP=N     - RESTART FILE WRITTEN EVERY 7200.0 SECONDS REQUESTED
 *  GNORM      - EXIT WHEN GRADIENT NORM DROPS BELOW 0.000
 *******************************************************************************
pm3  precise nosym gnorm=0.0 bfgs THREADS=1
 InChI=1S/C12H22/c1-3-9-5-7-11(9)12-8-6-10(12)4-2/h9-12H,3-8H2,1-2H3

   ATOM   CHEMICAL          X               Y               Z
  NUMBER   SYMBOL      (ANGSTROMS)     (ANGSTROMS)     (ANGSTROMS)

     1       C          0.74220000  *  -0.59310000  *  -0.93460000  *
     2       C         -0.57670000  *  -0.98880000  *  -0.23490000  *
     3       C          1.86960000  *  -0.25910000  *   0.05450000  *
     4       C         -1.42390000  *   0.21030000  *   0.20780000  *
     5       C          2.63960000  *  -1.49380000  *  -0.41640000  *
     6       C         -2.53500000  *  -0.22830000  *  -0.74750000  *
     7       C          1.53540000  *  -1.80890000  *  -1.41630000  *
     8       C         -1.68060000  *  -1.40180000  *  -1.20880000  *
     9       C          2.61970000  *   1.05140000  *  -0.24930000  *
    10       C         -1.81050000  *   0.16030000  *   1.69570000  *
    11       C          1.79480000  *   2.27970000  *   0.12330000  *
    12       C         -2.70790000  *   1.33470000  *   2.07600000  *
    13       H          1.57370000  *  -0.34230000  *   1.12510000  *
    14       H         -0.99310000  *   1.19120000  *  -0.08640000  *
    15       H          0.60780000  *   0.16330000  *  -1.74140000  *
    16       H         -0.43320000  *  -1.75180000  *   0.56520000  *
    17       H          3.55920000  *   1.06570000  *   0.34460000  *
    18       H          2.89440000  *   1.10880000  *  -1.32590000  *
    19       H         -2.33010000  *  -0.79350000  *   1.93600000  *
    20       H         -0.88410000  *   0.21060000  *   2.30780000  *
    21       H          2.71880000  *  -2.26770000  *   0.37830000  *
    22       H          3.60960000  *  -1.27110000  *  -0.91410000  *
    23       H         -3.46780000  *  -0.56200000  *  -0.24160000  *
    24       H         -2.71030000  *   0.51110000  *  -1.55920000  *
    25       H          1.04640000  *  -2.78750000  *  -1.21320000  *
    26       H         -1.39490000  *  -1.31940000  *  -2.28090000  *
    27       H          1.87730000  *  -1.69640000  *  -2.46840000  *
    28       H         -2.13210000  *  -2.38300000  *  -0.94430000  *
    29       H          0.94210000  *   2.39720000  *  -0.57600000  *
    30       H          1.41550000  *   2.19610000  *   1.16420000  *
    31       H          2.42920000  *   3.18780000  *   0.04830000  *
    32       H         -2.18840000  *   2.29630000  *   1.87720000  *
    33       H         -3.65520000  *   1.30360000  *   1.49740000  *
    34       H         -2.95180000  *   1.28030000  *   3.15790000  *



          CARTESIAN COORDINATES 

    NO.       ATOM           X           Y           Z

     1         C          0.7422     -0.5931     -0.9346
     2         C         -0.5767     -0.9888     -0.2349
     3         C          1.8696     -0.2591      0.0545
     4         C         -1.4239      0.2103      0.2078
     5         C          2.6396     -1.4938     -0.4164
     6         C         -2.5350     -0.2283     -0.7475
     7         C          1.5354     -1.8089     -1.4163
     8         C         -1.6806     -1.4018     -1.2088
     9         C          2.6197      1.0514     -0.2493
    10         C         -1.8105      0.1603      1.6957
    11         C          1.7948      2.2797      0.1233
    12         C         -2.7079      1.3347      2.0760
    13         H          1.5737     -0.3423      1.1251
    14         H         -0.9931      1.1912     -0.0864
    15         H          0.6078      0.1633     -1.7414
    16         H         -0.4332     -1.7518      0.5652
    17         H          3.5592      1.0657      0.3446
    18         H          2.8944      1.1088     -1.3259
    19         H         -2.3301     -0.7935      1.9360
    20         H         -0.8841      0.2106      2.3078
    21         H          2.7188     -2.2677      0.3783
    22         H          3.6096     -1.2711     -0.9141
    23         H         -3.4678     -0.5620     -0.2416
    24         H         -2.7103      0.5111     -1.5592
    25         H          1.0464     -2.7875     -1.2132
    26         H         -1.3949     -1.3194     -2.2809
    27         H          1.8773     -1.6964     -2.4684
    28         H         -2.1321     -2.3830     -0.9443
    29         H          0.9421      2.3972     -0.5760
    30         H          1.4155      2.1961      1.1642
    31         H          2.4292      3.1878      0.0483
    32         H         -2.1884      2.2963      1.8772
    33         H         -3.6552      1.3036      1.4974
    34         H         -2.9518      1.2803      3.1579

  H: (PM3): J. J. P. STEWART, J. COMP. CHEM. 10, 209 (1989).
  C: (PM3): J. J. P. STEWART, J. COMP. CHEM. 10, 209 (1989).

           Empirical Formula: C12 H22  =    34 atoms



      MOLECULAR POINT GROUP   :   C1  


      RHF CALCULATION, NO. OF DOUBLY OCCUPIED LEVELS = 35


          Geometry optimization using BFGS

  GNORM HAS BEEN SET TOO LOW, RESET TO 0.01
 CYCLE:     1 TIME:   0.016 TIME LEFT:  2.00D  GRAD.:    68.340 HEAT: -23.92271
 CYCLE:     2 TIME:   0.012 TIME LEFT:  2.00D  GRAD.:    58.724 HEAT: -24.63137
 CYCLE:     3 TIME:   0.012 TIME LEFT:  2.00D  GRAD.:    35.552 HEAT: -25.48167
 CYCLE:     4 TIME:   0.016 TIME LEFT:  2.00D  GRAD.:    23.363 HEAT: -25.92108
 CYCLE:     5 TIME:   0.012 TIME LEFT:  2.00D  GRAD.:    27.291 HEAT: -26.01801
 CYCLE:     6 TIME:   0.008 TIME LEFT:  2.00D  GRAD.:    16.486 HEAT: -26.23215
 CYCLE:     7 TIME:   0.008 TIME LEFT:  2.00D  GRAD.:    15.222 HEAT: -26.26937
 CYCLE:     8 TIME:   0.012 TIME LEFT:  2.00D  GRAD.:    16.279 HEAT: -26.29271
 CYCLE:     9 TIME:   0.008 TIME LEFT:  2.00D  GRAD.:    11.459 HEAT: -26.35345
 CYCLE:    10 TIME:   0.012 TIME LEFT:  2.00D  GRAD.:     7.022 HEAT: -26.39698
 CYCLE:    11 TIME:   0.008 TIME LEFT:  2.00D  GRAD.:     5.979 HEAT: -26.41707
 CYCLE:    12 TIME:   0.008 TIME LEFT:  2.00D  GRAD.:     4.102 HEAT: -26.43947
 CYCLE:    13 TIME:   0.012 TIME LEFT:  2.00D  GRAD.:     3.343 HEAT: -26.45852
 CYCLE:    14 TIME:   0.008 TIME LEFT:  2.00D  GRAD.:     4.275 HEAT: -26.46689
 CYCLE:    15 TIME:   0.008 TIME LEFT:  2.00D  GRAD.:     3.027 HEAT: -26.47553
 CYCLE:    16 TIME:   0.008 TIME LEFT:  2.00D  GRAD.:     2.261 HEAT: -26.48430
 CYCLE:    17 TIME:   0.012 TIME LEFT:  2.00D  GRAD.:     2.072 HEAT: -26.49331
 CYCLE:    18 TIME:   0.008 TIME LEFT:  2.00D  GRAD.:     2.367 HEAT: -26.50152
 CYCLE:    19 TIME:   0.012 TIME LEFT:  2.00D  GRAD.:     2.853 HEAT: -26.51062
 CYCLE:    20 TIME:   0.012 TIME LEFT:  2.00D  GRAD.:     3.893 HEAT: -26.52721
 CYCLE:    21 TIME:   0.012 TIME LEFT:  2.00D  GRAD.:     2.929 HEAT: -26.54127
 CYCLE:    22 TIME:   0.008 TIME LEFT:  2.00D  GRAD.:     2.604 HEAT: -26.55838
 CYCLE:    23 TIME:   0.008 TIME LEFT:  2.00D  GRAD.:     2.962 HEAT: -26.57042
 CYCLE:    24 TIME:   0.016 TIME LEFT:  2.00D  GRAD.:     4.038 HEAT: -26.59520
 CYCLE:    25 TIME:   0.012 TIME LEFT:  2.00D  GRAD.:     5.262 HEAT: -26.62644
 CYCLE:    26 TIME:   0.012 TIME LEFT:  2.00D  GRAD.:     3.671 HEAT: -26.65235
 CYCLE:    27 TIME:   0.016 TIME LEFT:  2.00D  GRAD.:    26.046 HEAT: -26.70526
 CYCLE:    28 TIME:   0.016 TIME LEFT:  2.00D  GRAD.:     5.413 HEAT: -26.70625
 CYCLE:    29 TIME:   0.012 TIME LEFT:  2.00D  GRAD.:     5.462 HEAT: -26.73264
 CYCLE:    30 TIME:   0.008 TIME LEFT:  2.00D  GRAD.:     4.506 HEAT: -26.76857
 CYCLE:    31 TIME:   0.012 TIME LEFT:  2.00D  GRAD.:     4.697 HEAT: -26.80093
 CYCLE:    32 TIME:   0.008 TIME LEFT:  2.00D  GRAD.:     4.981 HEAT: -26.83300
 CYCLE:    33 TIME:   0.008 TIME LEFT:  2.00D  GRAD.:     4.803 HEAT: -26.87116
 CYCLE:    34 TIME:   0.012 TIME LEFT:  2.00D  GRAD.:     4.324 HEAT: -26.89716
 CYCLE:    35 TIME:   0.008 TIME LEFT:  2.00D  GRAD.:     4.308 HEAT: -26.92444
 CYCLE:    36 TIME:   0.012 TIME LEFT:  2.00D  GRAD.:     4.512 HEAT: -26.94965
 CYCLE:    37 TIME:   0.008 TIME LEFT:  2.00D  GRAD.:     4.491 HEAT: -26.97294
 CYCLE:    38 TIME:   0.008 TIME LEFT:  2.00D  GRAD.:     4.385 HEAT: -26.99467
 CYCLE:    39 TIME:   0.012 TIME LEFT:  2.00D  GRAD.:     4.966 HEAT: -27.01965
 CYCLE:    40 TIME:   0.012 TIME LEFT:  2.00D  GRAD.:     5.675 HEAT: -27.05069
 CYCLE:    41 TIME:   0.008 TIME LEFT:  2.00D  GRAD.:     5.978 HEAT: -27.08795
 CYCLE:    42 TIME:   0.012 TIME LEFT:  2.00D  GRAD.:     5.606 HEAT: -27.12468
 CYCLE:    43 TIME:   0.008 TIME LEFT:  2.00D  GRAD.:     5.218 HEAT: -27.15656
 CYCLE:    44 TIME:   0.012 TIME LEFT:  2.00D  GRAD.:     4.889 HEAT: -27.17975
 CYCLE:    45 TIME:   0.008 TIME LEFT:  2.00D  GRAD.:     4.393 HEAT: -27.19497
 CYCLE:    46 TIME:   0.008 TIME LEFT:  2.00D  GRAD.:     3.794 HEAT: -27.20247
 CYCLE:    47 TIME:   0.012 TIME LEFT:  2.00D  GRAD.:     3.542 HEAT: -27.20494
 CYCLE:    48 TIME:   0.008 TIME LEFT:  2.00D  GRAD.:     3.408 HEAT: -27.20521
 CYCLE:    49 TIME:   0.016 TIME LEFT:  2.00D  GRAD.:     3.423 HEAT: -27.20533
 CYCLE:    50 TIME:   0.012 TIME LEFT:  2.00D  GRAD.:     3.742 HEAT: -27.20777
 CYCLE:    51 TIME:   0.016 TIME LEFT:  2.00D  GRAD.:     3.695 HEAT: -27.21371
 CYCLE:    52 TIME:   0.016 TIME LEFT:  2.00D  GRAD.:     4.953 HEAT: -27.22715
 CYCLE:    53 TIME:   0.012 TIME LEFT:  2.00D  GRAD.:     4.916 HEAT: -27.24823
 CYCLE:    54 TIME:   0.016 TIME LEFT:  2.00D  GRAD.:     4.886 HEAT: -27.27635
 CYCLE:    55 TIME:   0.016 TIME LEFT:  2.00D  GRAD.:     4.952 HEAT: -27.29786
 CYCLE:    56 TIME:   0.012 TIME LEFT:  2.00D  GRAD.:     4.683 HEAT: -27.31697
 CYCLE:    57 TIME:   0.016 TIME LEFT:  2.00D  GRAD.:     4.935 HEAT: -27.34121
 CYCLE:    58 TIME:   0.008 TIME LEFT:  2.00D  GRAD.:     4.776 HEAT: -27.36124
 CYCLE:    59 TIME:   0.016 TIME LEFT:  2.00D  GRAD.:     6.390 HEAT: -27.40563
 CYCLE:    60 TIME:   0.012 TIME LEFT:  2.00D  GRAD.:     5.436 HEAT: -27.45243
 CYCLE:    61 TIME:   0.020 TIME LEFT:  2.00D  GRAD.:     4.741 HEAT: -27.49051
 CYCLE:    62 TIME:   0.012 TIME LEFT:  2.00D  GRAD.:     4.474 HEAT: -27.51641
 CYCLE:    63 TIME:   0.012 TIME LEFT:  2.00D  GRAD.:     3.389 HEAT: -27.54299
 CYCLE:    64 TIME:   0.016 TIME LEFT:  2.00D  GRAD.:     3.372 HEAT: -27.55977
 CYCLE:    65 TIME:   0.012 TIME LEFT:  2.00D  GRAD.:     3.310 HEAT: -27.57886
 CYCLE:    66 TIME:   0.012 TIME LEFT:  2.00D  GRAD.:     3.796 HEAT: -27.60002
 CYCLE:    67 TIME:   0.012 TIME LEFT:  2.00D  GRAD.:     3.628 HEAT: -27.62293
 CYCLE:    68 TIME:   0.016 TIME LEFT:  2.00D  GRAD.:     3.652 HEAT: -27.64886
 CYCLE:    69 TIME:   0.012 TIME LEFT:  2.00D  GRAD.:     3.637 HEAT: -27.67409
 CYCLE:    70 TIME:   0.012 TIME LEFT:  2.00D  GRAD.:     3.497 HEAT: -27.70252
 CYCLE:    71 TIME:   0.012 TIME LEFT:  2.00D  GRAD.:     3.068 HEAT: -27.72510
 CYCLE:    72 TIME:   0.008 TIME LEFT:  2.00D  GRAD.:     2.479 HEAT: -27.74472
 CYCLE:    73 TIME:   0.012 TIME LEFT:  2.00D  GRAD.:     1.953 HEAT: -27.75406
 CYCLE:    74 TIME:   0.008 TIME LEFT:  2.00D  GRAD.:     1.751 HEAT: -27.76291
 CYCLE:    75 TIME:   0.012 TIME LEFT:  2.00D  GRAD.:     1.970 HEAT: -27.77024
 CYCLE:    76 TIME:   0.008 TIME LEFT:  2.00D  GRAD.:     2.207 HEAT: -27.77891
 CYCLE:    77 TIME:   0.016 TIME LEFT:  2.00D  GRAD.:     2.699 HEAT: -27.79130
 CYCLE:    78 TIME:   0.016 TIME LEFT:  2.00D  GRAD.:     3.128 HEAT: -27.81193
 CYCLE:    79 TIME:   0.012 TIME LEFT:  2.00D  GRAD.:     2.297 HEAT: -27.82448
 CYCLE:    80 TIME:   0.012 TIME LEFT:  2.00D  GRAD.:     1.744 HEAT: -27.83515
 CYCLE:    81 TIME:   0.008 TIME LEFT:  2.00D  GRAD.:     1.471 HEAT: -27.84123
 CYCLE:    82 TIME:   0.012 TIME LEFT:  2.00D  GRAD.:     1.256 HEAT: -27.84622
 CYCLE:    83 TIME:   0.008 TIME LEFT:  2.00D  GRAD.:     1.112 HEAT: -27.84939
 CYCLE:    84 TIME:   0.012 TIME LEFT:  2.00D  GRAD.:     1.029 HEAT: -27.85146
 CYCLE:    85 TIME:   0.008 TIME LEFT:  2.00D  GRAD.:     1.050 HEAT: -27.85366
 CYCLE:    86 TIME:   0.016 TIME LEFT:  2.00D  GRAD.:     1.515 HEAT: -27.85732
 CYCLE:    87 TIME:   0.016 TIME LEFT:  2.00D  GRAD.:     1.652 HEAT: -27.86344
 CYCLE:    88 TIME:   0.012 TIME LEFT:  2.00D  GRAD.:     1.211 HEAT: -27.86561
 CYCLE:    89 TIME:   0.016 TIME LEFT:  2.00D  GRAD.:     1.474 HEAT: -27.86918
 CYCLE:    90 TIME:   0.012 TIME LEFT:  2.00D  GRAD.:     1.349 HEAT: -27.87231
 CYCLE:    91 TIME:   0.012 TIME LEFT:  2.00D  GRAD.:     1.055 HEAT: -27.87422
 CYCLE:    92 TIME:   0.012 TIME LEFT:  2.00D  GRAD.:     1.067 HEAT: -27.87638
 CYCLE:    93 TIME:   0.012 TIME LEFT:  2.00D  GRAD.:     1.458 HEAT: -27.87953
 CYCLE:    94 TIME:   0.016 TIME LEFT:  2.00D  GRAD.:     1.236 HEAT: -27.88499
 CYCLE:    95 TIME:   0.012 TIME LEFT:  2.00D  GRAD.:     0.990 HEAT: -27.88646
 CYCLE:    96 TIME:   0.008 TIME LEFT:  2.00D  GRAD.:     0.747 HEAT: -27.88819
 CYCLE:    97 TIME:   0.012 TIME LEFT:  2.00D  GRAD.:     0.687 HEAT: -27.88914
 CYCLE:    98 TIME:   0.008 TIME LEFT:  2.00D  GRAD.:     0.708 HEAT: -27.89010
 CYCLE:    99 TIME:   0.016 TIME LEFT:  2.00D  GRAD.:     0.820 HEAT: -27.89126
 CYCLE:   100 TIME:   0.012 TIME LEFT:  2.00D  GRAD.:     0.643 HEAT: -27.89249
 CYCLE:   101 TIME:   0.012 TIME LEFT:  2.00D  GRAD.:     0.806 HEAT: -27.89342
 CYCLE:   102 TIME:   0.020 TIME LEFT:  2.00D  GRAD.:     1.026 HEAT: -27.89512
 CYCLE:   103 TIME:   0.016 TIME LEFT:  2.00D  GRAD.:     0.864 HEAT: -27.89678
 CYCLE:   104 TIME:   0.012 TIME LEFT:  2.00D  GRAD.:     0.632 HEAT: -27.89787
 CYCLE:   105 TIME:   0.016 TIME LEFT:  2.00D  GRAD.:     0.531 HEAT: -27.89849
 CYCLE:   106 TIME:   0.012 TIME LEFT:  2.00D  GRAD.:     0.474 HEAT: -27.89903
 CYCLE:   107 TIME:   0.008 TIME LEFT:  2.00D  GRAD.:     0.325 HEAT: -27.89933
 CYCLE:   108 TIME:   0.012 TIME LEFT:  2.00D  GRAD.:     0.238 HEAT: -27.89956
 CYCLE:   109 TIME:   0.008 TIME LEFT:  2.00D  GRAD.:     0.180 HEAT: -27.89963
 CYCLE:   110 TIME:   0.008 TIME LEFT:  2.00D  GRAD.:     0.160 HEAT: -27.89968
 CYCLE:   111 TIME:   0.008 TIME LEFT:  2.00D  GRAD.:     0.156 HEAT: -27.89972
 CYCLE:   112 TIME:   0.016 TIME LEFT:  2.00D  GRAD.:     0.297 HEAT: -27.89980
 CYCLE:   113 TIME:   0.016 TIME LEFT:  2.00D  GRAD.:     0.319 HEAT: -27.89997
 CYCLE:   114 TIME:   0.012 TIME LEFT:  2.00D  GRAD.:     0.307 HEAT: -27.90024
 CYCLE:   115 TIME:   0.016 TIME LEFT:  2.00D  GRAD.:     0.261 HEAT: -27.90041
 CYCLE:   116 TIME:   0.012 TIME LEFT:  2.00D  GRAD.:     0.227 HEAT: -27.90055
 CYCLE:   117 TIME:   0.012 TIME LEFT:  2.00D  GRAD.:     0.194 HEAT: -27.90067
 CYCLE:   118 TIME:   0.012 TIME LEFT:  2.00D  GRAD.:     0.159 HEAT: -27.90074
 CYCLE:   119 TIME:   0.008 TIME LEFT:  2.00D  GRAD.:     0.128 HEAT: -27.90077
 CYCLE:   120 TIME:   0.008 TIME LEFT:  2.00D  GRAD.:     0.093 HEAT: -27.90079
 CYCLE:   121 TIME:   0.008 TIME LEFT:  2.00D  GRAD.:     0.100 HEAT: -27.90081
 CYCLE:   122 TIME:   0.012 TIME LEFT:  2.00D  GRAD.:     0.125 HEAT: -27.90084
 CYCLE:   123 TIME:   0.016 TIME LEFT:  2.00D  GRAD.:     0.228 HEAT: -27.90089
 CYCLE:   124 TIME:   0.016 TIME LEFT:  2.00D  GRAD.:     0.300 HEAT: -27.90105
 CYCLE:   125 TIME:   0.012 TIME LEFT:  2.00D  GRAD.:     0.262 HEAT: -27.90125
 CYCLE:   126 TIME:   0.020 TIME LEFT:  2.00D  GRAD.:     0.295 HEAT: -27.90148
 CYCLE:   127 TIME:   0.012 TIME LEFT:  2.00D  GRAD.:     0.176 HEAT: -27.90165
 CYCLE:   128 TIME:   0.008 TIME LEFT:  2.00D  GRAD.:     0.147 HEAT: -27.90170
 CYCLE:   129 TIME:   0.012 TIME LEFT:  2.00D  GRAD.:     0.131 HEAT: -27.90175
 CYCLE:   130 TIME:   0.012 TIME LEFT:  2.00D  GRAD.:     0.097 HEAT: -27.90177
 CYCLE:   131 TIME:   0.008 TIME LEFT:  2.00D  GRAD.:     0.075 HEAT: -27.90178
 CYCLE:   132 TIME:   0.008 TIME LEFT:  2.00D  GRAD.:     0.057 HEAT: -27.90179
 CYCLE:   133 TIME:   0.008 TIME LEFT:  2.00D  GRAD.:     0.057 HEAT: -27.90180
 CYCLE:   134 TIME:   0.008 TIME LEFT:  2.00D  GRAD.:     0.048 HEAT: -27.90180
 CYCLE:   135 TIME:   0.012 TIME LEFT:  2.00D  GRAD.:     0.056 HEAT: -27.90181
 CYCLE:   136 TIME:   0.016 TIME LEFT:  2.00D  GRAD.:     0.089 HEAT: -27.90182
 CYCLE:   137 TIME:   0.012 TIME LEFT:  2.00D  GRAD.:     0.056 HEAT: -27.90183
 CYCLE:   138 TIME:   0.012 TIME LEFT:  2.00D  GRAD.:     0.084 HEAT: -27.90184
 CYCLE:   139 TIME:   0.008 TIME LEFT:  2.00D  GRAD.:     0.091 HEAT: -27.90186
 CYCLE:   140 TIME:   0.008 TIME LEFT:  2.00D  GRAD.:     0.091 HEAT: -27.90188
 CYCLE:   141 TIME:   0.008 TIME LEFT:  2.00D  GRAD.:     0.081 HEAT: -27.90192
 CYCLE:   142 TIME:   0.012 TIME LEFT:  2.00D  GRAD.:     0.079 HEAT: -27.90196
 CYCLE:   143 TIME:   0.008 TIME LEFT:  2.00D  GRAD.:     0.065 HEAT: -27.90199
 CYCLE:   144 TIME:   0.008 TIME LEFT:  2.00D  GRAD.:     0.051 HEAT: -27.90201
 CYCLE:   145 TIME:   0.012 TIME LEFT:  2.00D  GRAD.:     0.040 HEAT: -27.90202
 CYCLE:   146 TIME:   0.008 TIME LEFT:  2.00D  GRAD.:     0.034 HEAT: -27.90203
 CYCLE:   147 TIME:   0.012 TIME LEFT:  2.00D  GRAD.:     0.038 HEAT: -27.90203
 CYCLE:   148 TIME:   0.008 TIME LEFT:  2.00D  GRAD.:     0.041 HEAT: -27.90203
 CYCLE:   149 TIME:   0.008 TIME LEFT:  2.00D  GRAD.:     0.034 HEAT: -27.90204
 CYCLE:   150 TIME:   0.012 TIME LEFT:  2.00D  GRAD.:     0.050 HEAT: -27.90204
 CYCLE:   151 TIME:   0.012 TIME LEFT:  2.00D  GRAD.:     0.042 HEAT: -27.90205
 CYCLE:   152 TIME:   0.012 TIME LEFT:  2.00D  GRAD.:     0.043 HEAT: -27.90205
 CYCLE:   153 TIME:   0.008 TIME LEFT:  2.00D  GRAD.:     0.044 HEAT: -27.90205
 CYCLE:   154 TIME:   0.008 TIME LEFT:  2.00D  GRAD.:     0.041 HEAT: -27.90206
 CYCLE:   155 TIME:   0.008 TIME LEFT:  2.00D  GRAD.:     0.039 HEAT: -27.90207
 CYCLE:   156 TIME:   0.008 TIME LEFT:  2.00D  GRAD.:     0.034 HEAT: -27.90209
 CYCLE:   157 TIME:   0.012 TIME LEFT:  2.00D  GRAD.:     0.029 HEAT: -27.90211
 CYCLE:   158 TIME:   0.008 TIME LEFT:  2.00D  GRAD.:     0.027 HEAT: -27.90214
 CYCLE:   159 TIME:   0.008 TIME LEFT:  2.00D  GRAD.:     0.028 HEAT: -27.90218
 CYCLE:   160 TIME:   0.012 TIME LEFT:  2.00D  GRAD.:     0.026 HEAT: -27.90220
 CYCLE:   161 TIME:   0.008 TIME LEFT:  2.00D  GRAD.:     0.019 HEAT: -27.90222
 CYCLE:   162 TIME:   0.012 TIME LEFT:  2.00D  GRAD.:     0.016 HEAT: -27.90222
 CYCLE:   163 TIME:   0.016 TIME LEFT:  2.00D  GRAD.:     0.017 HEAT: -27.90222
 CYCLE:   164 TIME:   0.012 TIME LEFT:  2.00D  GRAD.:     0.012 HEAT: -27.90222
 TEST ON GRADIENT SATISFIED
PETERS TEST SATISFIED

 -------------------------------------------------------------------------------
 pm3  precise nosym gnorm=0.0 bfgs THREADS=1
 InChI=1S/C12H22/c1-3-9-5-7-11(9)12-8-6-10(12)4-2/h9-12H,3-8H2,1-2H3



     PETERS TEST WAS SATISFIED IN BFGS OPTIMIZATION           
     SCF FIELD WAS ACHIEVED                                   


                              PM3 CALCULATION
                                                       MOPAC v23.1.2 MacOS
                                                       Tue Jun  3 16:43:17 2025




          FINAL HEAT OF FORMATION =        -27.90223 KCAL/MOL =    -116.74291 KJ/MOL


          COSMO AREA              =        226.56 SQUARE ANGSTROMS
          COSMO VOLUME            =        254.95 CUBIC ANGSTROMS

          GRADIENT NORM           =          0.00588          =       0.00101 PER ATOM
          IONIZATION POTENTIAL    =         10.963684 EV
          HOMO LUMO ENERGIES (EV) =        -10.964  3.091
          NO. OF FILLED LEVELS    =         35
          MOLECULAR WEIGHT        =        166.3058         POINT GROUP:  C1  

          MOLECULAR DIMENSIONS (Angstroms)

            Atom       Atom       Distance
            H    34    H    22     8.00812
            H    31    H    28     6.95945
            H    21    H    24     4.81920


          SCF CALCULATIONS        =        266

          WALL-CLOCK TIME         =      1.875 SECONDS
          COMPUTATION TIME        =      1.490 SECONDS




   ATOM   CHEMICAL          X               Y               Z
  NUMBER   SYMBOL      (ANGSTROMS)     (ANGSTROMS)     (ANGSTROMS)

     1       C          0.73428009  *  -0.70937162  *  -0.96128616  *
     2       C         -0.58239492  *  -1.03908379  *  -0.30320088  *
     3       C          1.85639841  *  -0.25127784  *   0.01866479  *
     4       C         -1.38303447  *   0.20076021  *   0.19393264  *
     5       C          2.72338802  *  -1.45201475  *  -0.42932464  *
     6       C         -2.54671645  *  -0.18241366  *  -0.75026331  *
     7       C          1.59527645  *  -1.93242732  *  -1.35989273  *
     8       C         -1.73734893  *  -1.38212668  *  -1.27553389  *
     9       C          2.45780126  *   1.10866229  *  -0.26895759  *
    10       C         -1.69759935  *   0.18930233  *   1.67437219  *
    11       C          1.57031188  *   2.22893793  *   0.22624575  *
    12       C         -2.49796816  *   1.40384246  *   2.08759217  *
    13       H          1.54438998  *  -0.30948651  *   1.08458561  *
    14       H         -0.89120038  *   1.16708619  *  -0.07946152  *
    15       H          0.57525000  *   0.00296007  *  -1.80024215  *
    16       H         -0.43629254  *  -1.80659806  *   0.48773056  *
    17       H          3.45462640  *   1.17232491  *   0.21073658  *
    18       H          2.64323767  *   1.22210256  *  -1.35607785  *
    19       H         -2.24496317  *  -0.73608089  *   1.94392709  *
    20       H         -0.74344592  *   0.14960431  *   2.23870333  *
    21       H          2.98947445  *  -2.15139950  *   0.37681521  *
    22       H          3.65786962  *  -1.17573344  *  -0.94193876  *
    23       H         -3.48505049  *  -0.44532045  *  -0.23721824  *
    24       H         -2.79224915  *   0.57769626  *  -1.50646885  *
    25       H          1.16077241  *  -2.90790454  *  -1.09220681  *
    26       H         -1.47219231  *  -1.32803396  *  -2.34262808  *
    27       H          1.86080729  *  -1.97692364  *  -2.42636745  *
    28       H         -2.20126541  *  -2.36480851  *  -1.10543817  *
    29       H          0.54478730  *   2.13562727  *  -0.17226731  *
    30       H          1.48756394  *   2.22665148  *   1.32152024  *
    31       H          1.95715685  *   3.21032707  *  -0.07391838  *
    32       H         -1.95519839  *   2.33613952  *   1.88118805  *
    33       H         -3.45401143  *   1.45621335  *   1.54935035  *
    34       H         -2.72441118  *   1.38576756  *   3.16112344  *

                             CARTESIAN COORDINATES

   1    C        0.734280095    -0.709371622    -0.961286159
   2    C       -0.582394917    -1.039083787    -0.303200875
   3    C        1.856398411    -0.251277844     0.018664788
   4    C       -1.383034468     0.200760206     0.193932645
   5    C        2.723388019    -1.452014747    -0.429324636
   6    C       -2.546716448    -0.182413661    -0.750263311
   7    C        1.595276452    -1.932427321    -1.359892726
   8    C       -1.737348929    -1.382126679    -1.275533892
   9    C        2.457801260     1.108662291    -0.268957593
  10    C       -1.697599347     0.189302326     1.674372185
  11    C        1.570311883     2.228937934     0.226245748
  12    C       -2.497968157     1.403842457     2.087592167
  13    H        1.544389984    -0.309486505     1.084585607
  14    H       -0.891200384     1.167086190    -0.079461515
  15    H        0.575249999     0.002960067    -1.800242149
  16    H       -0.436292536    -1.806598061     0.487730562
  17    H        3.454626398     1.172324908     0.210736583
  18    H        2.643237671     1.222102564    -1.356077845
  19    H       -2.244963174    -0.736080887     1.943927092
  20    H       -0.743445915     0.149604315     2.238703327
  21    H        2.989474448    -2.151399496     0.376815215
  22    H        3.657869625    -1.175733436    -0.941938756
  23    H       -3.485050488    -0.445320446    -0.237218244
  24    H       -2.792249153     0.577696264    -1.506468855
  25    H        1.160772409    -2.907904536    -1.092206812
  26    H       -1.472192309    -1.328033960    -2.342628083
  27    H        1.860807287    -1.976923641    -2.426367447
  28    H       -2.201265408    -2.364808513    -1.105438166
  29    H        0.544787297     2.135627269    -0.172267314
  30    H        1.487563936     2.226651476     1.321520244
  31    H        1.957156851     3.210327069    -0.073918380
  32    H       -1.955198387     2.336139523     1.881188052
  33    H       -3.454011435     1.456213352     1.549350355
  34    H       -2.724411181     1.385767564     3.161123437


           Empirical Formula: C12 H22  =    34 atoms



      MOLECULAR POINT GROUP   :   C1  


                  EIGENVALUES  
 -42.96580 -38.56281 -33.90794 -32.52188 -27.02807 -25.47253 -24.82698 -22.99418
 -21.73868 -20.75721 -19.06781 -18.42304 -17.19353 -16.63963 -15.86546 -15.65898
 -15.22830 -14.73016 -14.39360 -14.21301 -13.82971 -13.65679 -13.45265 -12.89294
 -12.83564 -12.66314 -12.34199 -12.26362 -11.94517 -11.88580 -11.33619 -11.31309
 -11.01426 -10.99196 -10.96368   3.09072   3.19713   3.37744   3.46854   3.60961
   3.68181   3.73197   3.75241   3.90297   3.95276   3.96948   3.97686   4.03372
   4.09869   4.19776   4.23237   4.27876   4.32279   4.36848   4.39919   4.44832
   4.57979   4.60418   4.62725   4.72457   4.86953   4.90102   4.93867   4.97649
   5.00621   5.06249   5.41303   5.46077   5.72553   5.77491


              NET ATOMIC CHARGES AND DIPOLE CONTRIBUTIONS

  ATOM NO.   TYPE          CHARGE      No. of ELECS.   s-Pop       p-Pop       
    1          C          -0.085666        4.0857     1.19278     2.89289
    2          C          -0.085176        4.0852     1.19246     2.89272
    3          C          -0.095692        4.0957     1.19451     2.90118
    4          C          -0.107645        4.1076     1.19787     2.90978
    5          C          -0.109468        4.1095     1.17373     2.93574
    6          C          -0.107665        4.1077     1.17316     2.93450
    7          C          -0.107610        4.1076     1.17304     2.93457
    8          C          -0.107340        4.1073     1.17311     2.93423
    9          C          -0.087094        4.0871     1.15686     2.93023
   10          C          -0.089005        4.0890     1.15730     2.93171
   11          C          -0.121616        4.1216     1.14196     2.97965
   12          C          -0.109844        4.1098     1.13810     2.97174
   13          H           0.077332        0.9227     0.92267
   14          H           0.086380        0.9136     0.91362
   15          H           0.078265        0.9217     0.92173
   16          H           0.076957        0.9230     0.92304
   17          H           0.049657        0.9503     0.95034
   18          H           0.051076        0.9489     0.94892
   19          H           0.051451        0.9485     0.94855
   20          H           0.050399        0.9496     0.94960
   21          H           0.054651        0.9453     0.94535
   22          H           0.057918        0.9421     0.94208
   23          H           0.059272        0.9407     0.94073
   24          H           0.054139        0.9459     0.94586
   25          H           0.058878        0.9411     0.94112
   26          H           0.058677        0.9413     0.94132
   27          H           0.054692        0.9453     0.94531
   28          H           0.054593        0.9454     0.94541
   29          H           0.048530        0.9515     0.95147
   30          H           0.038865        0.9611     0.96114
   31          H           0.038376        0.9616     0.96162
   32          H           0.037370        0.9626     0.96263
   33          H           0.039385        0.9606     0.96061
   34          H           0.036960        0.9630     0.96304
 DIPOLE           X         Y         Z       TOTAL
 POINT-CHG.     0.035     0.088     0.028     0.099
 HYBRID        -0.015    -0.011     0.004     0.019
 SUM            0.021     0.078     0.031     0.086


          ATOMIC ORBITAL ELECTRON POPULATIONS

     Atom    s        px        py        pz   
    1  C   1.19278   0.93287   0.97803   0.98198
    2  C   1.19246   0.93397   0.97703   0.98172
    3  C   1.19451   0.96295   0.94330   0.99493
    4  C   1.19787   0.97082   0.98866   0.95029
    5  C   1.17373   0.96614   0.97689   0.99270
    6  C   1.17316   0.96637   0.97922   0.98892
    7  C   1.17304   0.96998   0.97424   0.99034
    8  C   1.17311   0.96913   0.97775   0.98735
    9  C   1.15686   0.98090   0.94139   1.00795
   10  C   1.15730   0.99896   0.98112   0.95163
   11  C   1.14196   0.99823   0.97601   1.00541
   12  C   1.13810   0.99608   0.97366   1.00200
   13  H   0.92267
   14  H   0.91362
   15  H   0.92173
   16  H   0.92304
   17  H   0.95034
   18  H   0.94892
   19  H   0.94855
   20  H   0.94960
   21  H   0.94535
   22  H   0.94208
   23  H   0.94073
   24  H   0.94586
   25  H   0.94112
   26  H   0.94132
   27  H   0.94531
   28  H   0.94541
   29  H   0.95147
   30  H   0.96114
   31  H   0.96162
   32  H   0.96263
   33  H   0.96061
   34  H   0.96304
 *******************************************************************************
 **                                                                           **
 **                              MOPAC v23.1.2                                **
 **                                                                           **
 *******************************************************************************
 **          Digital Object Identifier (DOI): 10.5281/zenodo.6511958          **
 **    Visit the DOI location for information on how to cite this program.    **
 *******************************************************************************

                              PM3 CALCULATION RESULTS

 *******************************************************************************
 *  CALCULATION DONE: (MAX THREADS = 1)              Tue Jun  3 16:43:17 2025  *
 *  PM3        - The PM3 Hamiltonian to be used
 *  OLDGEO     - PREVIOUS GEOMETRY TO BE USED
 *  PRECISE    - TIGHTER CRITERIA TO BE USED
 *  NOSYM      - POINT-GROUP SYMMETRY SET TO C1
 *  THREADS=1  - MULTI-THREADING NOT USED
 *  T=         - A TIME OF 172800.0 SECONDS REQUESTED
 *  DUMP=N     - RESTART FILE WRITTEN EVERY 7200.0 SECONDS REQUESTED
 *  THERMO     - THERMODYNAMIC QUANTITIES TO BE CALCULATED
 *******************************************************************************
oldgeo thermo nosym precise THREADS=1  pm3
 InChI=1S/C12H22/c1-3-9-5-7-11(9)12-8-6-10(12)4-2/h9-12H,3-8H2,1-2H3

   ATOM   CHEMICAL          X               Y               Z
  NUMBER   SYMBOL      (ANGSTROMS)     (ANGSTROMS)     (ANGSTROMS)

     1       C          0.73428009  *  -0.70937162  *  -0.96128616  *
     2       C         -0.58239492  *  -1.03908379  *  -0.30320088  *
     3       C          1.85639841  *  -0.25127784  *   0.01866479  *
     4       C         -1.38303447  *   0.20076021  *   0.19393264  *
     5       C          2.72338802  *  -1.45201475  *  -0.42932464  *
     6       C         -2.54671645  *  -0.18241366  *  -0.75026331  *
     7       C          1.59527645  *  -1.93242732  *  -1.35989273  *
     8       C         -1.73734893  *  -1.38212668  *  -1.27553389  *
     9       C          2.45780126  *   1.10866229  *  -0.26895759  *
    10       C         -1.69759935  *   0.18930233  *   1.67437219  *
    11       C          1.57031188  *   2.22893793  *   0.22624575  *
    12       C         -2.49796816  *   1.40384246  *   2.08759217  *
    13       H          1.54438998  *  -0.30948651  *   1.08458561  *
    14       H         -0.89120038  *   1.16708619  *  -0.07946152  *
    15       H          0.57525000  *   0.00296007  *  -1.80024215  *
    16       H         -0.43629254  *  -1.80659806  *   0.48773056  *
    17       H          3.45462640  *   1.17232491  *   0.21073658  *
    18       H          2.64323767  *   1.22210256  *  -1.35607785  *
    19       H         -2.24496317  *  -0.73608089  *   1.94392709  *
    20       H         -0.74344592  *   0.14960431  *   2.23870333  *
    21       H          2.98947445  *  -2.15139950  *   0.37681521  *
    22       H          3.65786962  *  -1.17573344  *  -0.94193876  *
    23       H         -3.48505049  *  -0.44532045  *  -0.23721824  *
    24       H         -2.79224915  *   0.57769626  *  -1.50646885  *
    25       H          1.16077241  *  -2.90790454  *  -1.09220681  *
    26       H         -1.47219231  *  -1.32803396  *  -2.34262808  *
    27       H          1.86080729  *  -1.97692364  *  -2.42636745  *
    28       H         -2.20126541  *  -2.36480851  *  -1.10543817  *
    29       H          0.54478730  *   2.13562727  *  -0.17226731  *
    30       H          1.48756394  *   2.22665148  *   1.32152024  *
    31       H          1.95715685  *   3.21032707  *  -0.07391838  *
    32       H         -1.95519839  *   2.33613952  *   1.88118805  *
    33       H         -3.45401143  *   1.45621335  *   1.54935035  *
    34       H         -2.72441118  *   1.38576756  *   3.16112344  *



          CARTESIAN COORDINATES 

    NO.       ATOM           X           Y           Z

     1         C          0.7343     -0.7094     -0.9613
     2         C         -0.5824     -1.0391     -0.3032
     3         C          1.8564     -0.2513      0.0187
     4         C         -1.3830      0.2008      0.1939
     5         C          2.7234     -1.4520     -0.4293
     6         C         -2.5467     -0.1824     -0.7503
     7         C          1.5953     -1.9324     -1.3599
     8         C         -1.7373     -1.3821     -1.2755
     9         C          2.4578      1.1087     -0.2690
    10         C         -1.6976      0.1893      1.6744
    11         C          1.5703      2.2289      0.2262
    12         C         -2.4980      1.4038      2.0876
    13         H          1.5444     -0.3095      1.0846
    14         H         -0.8912      1.1671     -0.0795
    15         H          0.5752      0.0030     -1.8002
    16         H         -0.4363     -1.8066      0.4877
    17         H          3.4546      1.1723      0.2107
    18         H          2.6432      1.2221     -1.3561
    19         H         -2.2450     -0.7361      1.9439
    20         H         -0.7434      0.1496      2.2387
    21         H          2.9895     -2.1514      0.3768
    22         H          3.6579     -1.1757     -0.9419
    23         H         -3.4851     -0.4453     -0.2372
    24         H         -2.7922      0.5777     -1.5065
    25         H          1.1608     -2.9079     -1.0922
    26         H         -1.4722     -1.3280     -2.3426
    27         H          1.8608     -1.9769     -2.4264
    28         H         -2.2013     -2.3648     -1.1054
    29         H          0.5448      2.1356     -0.1723
    30         H          1.4876      2.2267      1.3215
    31         H          1.9572      3.2103     -0.0739
    32         H         -1.9552      2.3361      1.8812
    33         H         -3.4540      1.4562      1.5494
    34         H         -2.7244      1.3858      3.1611

  H: (PM3): J. J. P. STEWART, J. COMP. CHEM. 10, 209 (1989).
  C: (PM3): J. J. P. STEWART, J. COMP. CHEM. 10, 209 (1989).

           Empirical Formula: C12 H22  =    34 atoms



      MOLECULAR POINT GROUP   :   C1  


      RHF CALCULATION, NO. OF DOUBLY OCCUPIED LEVELS = 35



          HEAT OF FORMATION =     -27.902225 KCALS/MOLE


          CARTESIAN COORDINATE DERIVATIVES

   NUMBER  ATOM         X            Y            Z

     1       C     -0.000428     0.000401    -0.000729
     2       C      0.000343    -0.000033     0.000261
     3       C      0.000087     0.000249     0.000283
     4       C     -0.000010    -0.000464    -0.000111
     5       C      0.000719    -0.000205    -0.000019
     6       C      0.000722     0.000631    -0.000085
     7       C     -0.000312    -0.000601    -0.000695
     8       C     -0.000481     0.000477     0.001021
     9       C     -0.000236     0.000095    -0.000409
    10       C      0.000532    -0.000754    -0.000667
    11       C      0.001673    -0.000229     0.000583
    12       C     -0.000221     0.000410     0.000758
    13       H     -0.000265    -0.000739     0.000117
    14       H      0.000193     0.000186    -0.000603
    15       H      0.000223     0.000352    -0.000590
    16       H      0.000023    -0.000295     0.000247
    17       H     -0.000097    -0.000138     0.000150
    18       H      0.000600     0.000127     0.000256
    19       H     -0.001034     0.000140    -0.000834
    20       H      0.000329    -0.000259    -0.000047
    21       H     -0.000088     0.000320     0.000335
    22       H      0.000245    -0.001062     0.000022
    23       H      0.000353    -0.000415     0.000070
    24       H      0.000168     0.000175    -0.000230
    25       H     -0.000130    -0.000566     0.000481
    26       H      0.000313     0.000179     0.000183
    27       H     -0.000426     0.001596    -0.000452
    28       H     -0.000601    -0.000027    -0.000567
    29       H     -0.001775     0.002032    -0.000356
    30       H     -0.001242    -0.001369     0.000348
    31       H      0.000769    -0.000316     0.000258
    32       H     -0.000232     0.001054    -0.000634
    33       H      0.000057    -0.000436     0.001298
    34       H      0.000228    -0.000514     0.000356



          GRADIENT NORM =   0.00607

          MOLECULAR WEIGHT =  166.31



          ROTATIONAL CONSTANTS IN CM(-1)

          A =    0.03913863   B =    0.02214926   C =    0.01647069



           PRINCIPAL MOMENTS OF INERTIA IN UNITS OF 10**(-40)*GRAM-CM**2

          A =      715.2206   B =     1263.8232   C =     1699.5496


          ORIENTATION OF MOLECULE IN FORCE CALCULATION

    NO.       ATOM         X         Y         Z

     1          C      -0.8700   -0.6478   -0.6685
     2          C       0.6384   -0.6478   -0.6685
     3          C      -1.5221    0.7678   -0.6685
     4          C       1.2831   -0.2402    0.6893
     5          C      -2.2119    0.4387   -2.0138
     6          C       1.9707   -1.6234    0.7687
     7          C      -1.5281   -0.9402   -2.0387
     8          C       1.2973   -2.0439   -0.5504
     9          C      -2.4698    1.0490    0.4790
    10          C       2.2061    0.9567    0.6088
    11          C      -1.7240    1.3944    1.7488
    12          C       2.8195    1.2839    1.9516
    13          H      -0.7720    1.5850   -0.7489
    14          H       0.5233   -0.0768    1.4933
    15          H      -1.2529   -1.3005    0.1464
    16          H       1.0237   -0.0554   -1.5267
    17          H      -3.1445    1.8810    0.1956
    18          H      -3.1307    0.1757    0.6513
    19          H       3.0037    0.7774   -0.1397
    20          H       1.6281    1.8246    0.2304
    21          H      -1.9396    1.1067   -2.8441
    22          H      -3.3116    0.4074   -1.9687
    23          H       3.0710   -1.5903    0.7374
    24          H       1.6890   -2.2253    1.6452
    25          H      -0.8189   -1.0883   -2.8675
    26          H       0.5885   -2.8813   -0.4600
    27          H      -2.2155   -1.7989   -2.0422
    28          H       1.9913   -2.2922   -1.3668
    29          H      -0.9823    0.6171    2.0036
    30          H      -1.1734    2.3398    1.6512
    31          H      -2.4071    1.4961    2.6008
    32          H       2.0519    1.5194    2.7011
    33          H       3.4077    0.4414    2.3397
    34          H       3.4895    2.1503    1.8834


    FIRST DERIVATIVES WILL BE USED IN THE CALCULATION OF SECOND DERIVATIVES

          ESTIMATED TIME TO COMPLETE CALCULATION =        6.38 SECONDS

    FOR POINT-GROUP C1   THERE ARE   1 UNIQUE SYMMETRY FUNCTIONS.

 STEP:   1 TIME =     0.04 SECS, INTEGRAL =      0.04 TIME LEFT: 172799.95
 STEP:   2 TIME =     0.04 SECS, INTEGRAL =      0.08 TIME LEFT: 172799.91
 STEP:   3 TIME =     0.04 SECS, INTEGRAL =      0.12 TIME LEFT: 172799.87
 STEP:   4 TIME =     0.04 SECS, INTEGRAL =      0.16 TIME LEFT: 172799.83
 STEP:   5 TIME =     0.04 SECS, INTEGRAL =      0.20 TIME LEFT: 172799.79
 STEP:   6 TIME =     0.04 SECS, INTEGRAL =      0.23 TIME LEFT: 172799.75
 STEP:   7 TIME =     0.04 SECS, INTEGRAL =      0.27 TIME LEFT: 172799.71
 STEP:   8 TIME =     0.04 SECS, INTEGRAL =      0.31 TIME LEFT: 172799.68
 STEP:   9 TIME =     0.04 SECS, INTEGRAL =      0.35 TIME LEFT: 172799.64
 STEP:  10 TIME =     0.04 SECS, INTEGRAL =      0.39 TIME LEFT: 172799.60
 STEP:  11 TIME =     0.04 SECS, INTEGRAL =      0.42 TIME LEFT: 172799.56
 STEP:  12 TIME =     0.04 SECS, INTEGRAL =      0.46 TIME LEFT: 172799.52
 STEP:  13 TIME =     0.04 SECS, INTEGRAL =      0.50 TIME LEFT: 172799.48
 STEP:  14 TIME =     0.04 SECS, INTEGRAL =      0.54 TIME LEFT: 172799.45
 STEP:  15 TIME =     0.04 SECS, INTEGRAL =      0.58 TIME LEFT: 172799.41
 STEP:  16 TIME =     0.04 SECS, INTEGRAL =      0.62 TIME LEFT: 172799.37
 STEP:  17 TIME =     0.04 SECS, INTEGRAL =      0.66 TIME LEFT: 172799.33
 STEP:  18 TIME =     0.04 SECS, INTEGRAL =      0.70 TIME LEFT: 172799.29
 STEP:  19 TIME =     0.04 SECS, INTEGRAL =      0.73 TIME LEFT: 172799.25
 STEP:  20 TIME =     0.04 SECS, INTEGRAL =      0.77 TIME LEFT: 172799.21
 STEP:  21 TIME =     0.04 SECS, INTEGRAL =      0.81 TIME LEFT: 172799.17
 STEP:  22 TIME =     0.04 SECS, INTEGRAL =      0.85 TIME LEFT: 172799.13
 STEP:  23 TIME =     0.04 SECS, INTEGRAL =      0.89 TIME LEFT: 172799.09
 STEP:  24 TIME =     0.04 SECS, INTEGRAL =      0.93 TIME LEFT: 172799.05
 STEP:  25 TIME =     0.04 SECS, INTEGRAL =      0.97 TIME LEFT: 172799.02
 STEP:  26 TIME =     0.04 SECS, INTEGRAL =      1.01 TIME LEFT: 172798.97
 STEP:  27 TIME =     0.04 SECS, INTEGRAL =      1.05 TIME LEFT: 172798.94
 STEP:  28 TIME =     0.04 SECS, INTEGRAL =      1.09 TIME LEFT: 172798.90
 STEP:  29 TIME =     0.04 SECS, INTEGRAL =      1.12 TIME LEFT: 172798.86
 STEP:  30 TIME =     0.04 SECS, INTEGRAL =      1.16 TIME LEFT: 172798.82
 STEP:  31 TIME =     0.04 SECS, INTEGRAL =      1.20 TIME LEFT: 172798.78
 STEP:  32 TIME =     0.04 SECS, INTEGRAL =      1.25 TIME LEFT: 172798.74
 STEP:  33 TIME =     0.04 SECS, INTEGRAL =      1.29 TIME LEFT: 172798.70
 STEP:  34 TIME =     0.04 SECS, INTEGRAL =      1.32 TIME LEFT: 172798.66
 STEP:  35 TIME =     0.04 SECS, INTEGRAL =      1.37 TIME LEFT: 172798.62
 STEP:  36 TIME =     0.04 SECS, INTEGRAL =      1.41 TIME LEFT: 172798.58
 STEP:  37 TIME =     0.04 SECS, INTEGRAL =      1.45 TIME LEFT: 172798.54
 STEP:  38 TIME =     0.04 SECS, INTEGRAL =      1.48 TIME LEFT: 172798.50
 STEP:  39 TIME =     0.04 SECS, INTEGRAL =      1.53 TIME LEFT: 172798.46
 STEP:  40 TIME =     0.04 SECS, INTEGRAL =      1.57 TIME LEFT: 172798.41
 STEP:  41 TIME =     0.04 SECS, INTEGRAL =      1.61 TIME LEFT: 172798.37
 STEP:  42 TIME =     0.04 SECS, INTEGRAL =      1.66 TIME LEFT: 172798.33
 STEP:  43 TIME =     0.04 SECS, INTEGRAL =      1.70 TIME LEFT: 172798.29
 STEP:  44 TIME =     0.04 SECS, INTEGRAL =      1.73 TIME LEFT: 172798.25
 STEP:  45 TIME =     0.04 SECS, INTEGRAL =      1.78 TIME LEFT: 172798.21
 STEP:  46 TIME =     0.04 SECS, INTEGRAL =      1.82 TIME LEFT: 172798.16
 STEP:  47 TIME =     0.04 SECS, INTEGRAL =      1.86 TIME LEFT: 172798.12
 STEP:  48 TIME =     0.04 SECS, INTEGRAL =      1.91 TIME LEFT: 172798.08
 STEP:  49 TIME =     0.04 SECS, INTEGRAL =      1.95 TIME LEFT: 172798.04
 STEP:  50 TIME =     0.04 SECS, INTEGRAL =      1.98 TIME LEFT: 172798.00
 STEP:  51 TIME =     0.04 SECS, INTEGRAL =      2.03 TIME LEFT: 172797.96
 STEP:  52 TIME =     0.04 SECS, INTEGRAL =      2.07 TIME LEFT: 172797.92
 STEP:  53 TIME =     0.04 SECS, INTEGRAL =      2.11 TIME LEFT: 172797.88
 STEP:  54 TIME =     0.04 SECS, INTEGRAL =      2.15 TIME LEFT: 172797.84
 STEP:  55 TIME =     0.04 SECS, INTEGRAL =      2.19 TIME LEFT: 172797.80
 STEP:  56 TIME =     0.04 SECS, INTEGRAL =      2.23 TIME LEFT: 172797.75
 STEP:  57 TIME =     0.04 SECS, INTEGRAL =      2.27 TIME LEFT: 172797.71
 STEP:  58 TIME =     0.04 SECS, INTEGRAL =      2.31 TIME LEFT: 172797.68
 STEP:  59 TIME =     0.04 SECS, INTEGRAL =      2.35 TIME LEFT: 172797.64
 STEP:  60 TIME =     0.04 SECS, INTEGRAL =      2.39 TIME LEFT: 172797.59
 STEP:  61 TIME =     0.04 SECS, INTEGRAL =      2.43 TIME LEFT: 172797.55
 STEP:  62 TIME =     0.04 SECS, INTEGRAL =      2.48 TIME LEFT: 172797.51
 STEP:  63 TIME =     0.04 SECS, INTEGRAL =      2.52 TIME LEFT: 172797.47
 STEP:  64 TIME =     0.04 SECS, INTEGRAL =      2.55 TIME LEFT: 172797.43
 STEP:  65 TIME =     0.04 SECS, INTEGRAL =      2.59 TIME LEFT: 172797.39
 STEP:  66 TIME =     0.05 SECS, INTEGRAL =      2.64 TIME LEFT: 172797.34
 STEP:  67 TIME =     0.04 SECS, INTEGRAL =      2.68 TIME LEFT: 172797.30
 STEP:  68 TIME =     0.04 SECS, INTEGRAL =      2.72 TIME LEFT: 172797.26
 STEP:  69 TIME =     0.04 SECS, INTEGRAL =      2.77 TIME LEFT: 172797.22
 STEP:  70 TIME =     0.04 SECS, INTEGRAL =      2.80 TIME LEFT: 172797.18
 STEP:  71 TIME =     0.04 SECS, INTEGRAL =      2.84 TIME LEFT: 172797.14
 STEP:  72 TIME =     0.04 SECS, INTEGRAL =      2.88 TIME LEFT: 172797.10
 STEP:  73 TIME =     0.04 SECS, INTEGRAL =      2.93 TIME LEFT: 172797.06
 STEP:  74 TIME =     0.04 SECS, INTEGRAL =      2.97 TIME LEFT: 172797.02
 STEP:  75 TIME =     0.04 SECS, INTEGRAL =      3.01 TIME LEFT: 172796.97
 STEP:  76 TIME =     0.04 SECS, INTEGRAL =      3.05 TIME LEFT: 172796.93
 STEP:  77 TIME =     0.04 SECS, INTEGRAL =      3.09 TIME LEFT: 172796.90
 STEP:  78 TIME =     0.04 SECS, INTEGRAL =      3.13 TIME LEFT: 172796.86
 STEP:  79 TIME =     0.04 SECS, INTEGRAL =      3.17 TIME LEFT: 172796.81
 STEP:  80 TIME =     0.04 SECS, INTEGRAL =      3.21 TIME LEFT: 172796.77
 STEP:  81 TIME =     0.04 SECS, INTEGRAL =      3.25 TIME LEFT: 172796.73
 STEP:  82 TIME =     0.04 SECS, INTEGRAL =      3.29 TIME LEFT: 172796.69
 STEP:  83 TIME =     0.04 SECS, INTEGRAL =      3.34 TIME LEFT: 172796.65
 STEP:  84 TIME =     0.04 SECS, INTEGRAL =      3.38 TIME LEFT: 172796.61
 STEP:  85 TIME =     0.04 SECS, INTEGRAL =      3.42 TIME LEFT: 172796.57
 STEP:  86 TIME =     0.04 SECS, INTEGRAL =      3.46 TIME LEFT: 172796.53
 STEP:  87 TIME =     0.04 SECS, INTEGRAL =      3.50 TIME LEFT: 172796.48
 STEP:  88 TIME =     0.04 SECS, INTEGRAL =      3.54 TIME LEFT: 172796.45
 STEP:  89 TIME =     0.04 SECS, INTEGRAL =      3.58 TIME LEFT: 172796.41
 STEP:  90 TIME =     0.04 SECS, INTEGRAL =      3.62 TIME LEFT: 172796.36
 STEP:  91 TIME =     0.04 SECS, INTEGRAL =      3.66 TIME LEFT: 172796.32
 STEP:  92 TIME =     0.04 SECS, INTEGRAL =      3.70 TIME LEFT: 172796.28
 STEP:  93 TIME =     0.04 SECS, INTEGRAL =      3.75 TIME LEFT: 172796.24
 STEP:  94 TIME =     0.04 SECS, INTEGRAL =      3.79 TIME LEFT: 172796.20
 STEP:  95 TIME =     0.04 SECS, INTEGRAL =      3.83 TIME LEFT: 172796.16
 STEP:  96 TIME =     0.04 SECS, INTEGRAL =      3.87 TIME LEFT: 172796.12
 STEP:  97 TIME =     0.04 SECS, INTEGRAL =      3.91 TIME LEFT: 172796.08
 STEP:  98 TIME =     0.04 SECS, INTEGRAL =      3.95 TIME LEFT: 172796.04
 STEP:  99 TIME =     0.04 SECS, INTEGRAL =      3.98 TIME LEFT: 172796.00
 STEP: 100 TIME =     0.04 SECS, INTEGRAL =      4.02 TIME LEFT: 172795.96
 STEP: 101 TIME =     0.04 SECS, INTEGRAL =      4.06 TIME LEFT: 172795.92
 STEP: 102 TIME =     0.04 SECS, INTEGRAL =      4.11 TIME LEFT: 172795.88

(To convert to Hartree/Bohr^2, multiply by (10^(-21) x N x a0^2)/(4.184 x 627.51) =  0.0642)


           FORCE MATRIX IN MILLIDYNES/ANGSTROM


                  C  1       C  2       C  3       C  4       C  5       C  6
 ------------------------------------------------------------------------------
     C    1  14.567342
     C    2   4.461979  14.582042
     C    3   3.140659   0.536438  14.418683
     C    4   0.544014   3.175523   0.026437  14.372911
     C    5   1.815913   0.041708   3.491704   0.003816  14.442517
     C    6   0.041697   1.815272   0.003338   3.496128   0.000296  14.436600
     C    7   3.471168   0.542162   1.813360   0.045860   3.757950   0.004584
     C    8   0.541704   3.463141   0.045173   1.817215   0.004583   3.749182
     C    9   0.529457   0.034890   4.308309   0.002897   0.540806   0.001062
     C   10   0.034756   0.539522   0.004556   4.336862   0.000474   0.532160
     C   11   0.026212   0.002690   0.663662   0.028643   0.050319   0.002733
     C   12   0.006833   0.050039   0.000958   0.661741   0.000360   0.030618
     H   13   0.438488   0.035425   4.373911   0.005180   0.428034   0.000823
     H   14   0.038401   0.437254   0.005690   4.169978   0.000953   0.426526
     H   15   4.377430   0.434813   0.436865   0.021574   0.026245   0.001627
     H   16   0.435684   4.384036   0.020871   0.437388   0.001586   0.026394
     H   17   0.046200   0.006147   0.433813   0.000702   0.021198   0.000334
     H   18   0.027356   0.001451   0.450457   0.000256   0.017438   0.000182
     H   19   0.000901   0.020726   0.000358   0.451707   0.000152   0.022158
     H   20   0.001629   0.021080   0.006370   0.433310   0.000449   0.047621
     H   21   0.030954   0.003756   0.443232   0.000790   4.707880   0.000150
     H   22   0.029308   0.001573   0.453586   0.000570   4.669016   0.000208
     H   23   0.001596   0.029253   0.000660   0.454279   0.000206   4.662552
     H   24   0.003723   0.030849   0.000782   0.441886   0.000147   4.705398
     H   25   0.453591   0.027879   0.029405   0.002854   0.446303   0.000643
     H   26   0.027607   0.453502   0.002804   0.029544   0.000652   0.445869
     H   27   0.442567   0.033353   0.031067   0.005313   0.445409   0.000385
     H   28   0.033610   0.442788   0.005263   0.030849   0.000385   0.445388
     H   29   0.006973   0.003849   0.026255   0.071150   0.002213   0.000971
     H   30   0.001753   0.000496   0.020779   0.001572   0.001406   0.000459
     H   31   0.001882   0.000814   0.051974   0.003277   0.008666   0.000738
     H   32   0.000496   0.001697   0.000139   0.023998   0.000083   0.002003
     H   33   0.000562   0.001867   0.000188   0.020235   0.000128   0.006285
     H   34   0.001388   0.008568   0.000258   0.052446   0.000082   0.001987


                  C  7       C  8       C  9       C 10       C 11       C 12
 ------------------------------------------------------------------------------
     C    7  14.433968
     C    8   0.019786  14.426899
     C    9   0.041716   0.005792  14.485458
     C   10   0.005650   0.041513   0.001440  14.493518
     C   11   0.004908   0.000523   4.455926   0.003560  14.302357
     C   12   0.001533   0.005627   0.000893   4.471651   0.000786  14.377027
     H   13   0.026240   0.002677   0.430498   0.007112   0.036320   0.000672
     H   14   0.002865   0.026135   0.003702   0.429305   0.073490   0.032394
     H   15   0.428710   0.027228   0.032206   0.000975   0.006673   0.000538
     H   16   0.026839   0.428355   0.000997   0.037083   0.000356   0.002774
     H   17   0.003593   0.001302   4.455113   0.000488   0.440084   0.000256
     H   18   0.001821   0.000523   4.437224   0.000257   0.437862   0.000245
     H   19   0.000433   0.001771   0.000456   4.443826   0.000320   0.437882
     H   20   0.000438   0.002975   0.000646   4.420366   0.001126   0.439859
     H   21   0.445074   0.000808   0.033181   0.000201   0.006013   0.000067
     H   22   0.445994   0.000620   0.029469   0.000132   0.002803   0.000092
     H   23   0.000645   0.445694   0.000157   0.024325   0.000352   0.007963
     H   24   0.000809   0.445380   0.000311   0.033525   0.000200   0.001606
     H   25   4.674718   0.003361   0.001885   0.000631   0.000511   0.000175
     H   26   0.003378   4.675565   0.000677   0.001885   0.000174   0.000509
     H   27   4.707199   0.001305   0.003844   0.000897   0.000792   0.000379
     H   28   0.001312   4.707577   0.001002   0.003815   0.000121   0.000787
     H   29   0.000668   0.000432   0.464007   0.001804   4.513246   0.001515
     H   30   0.000421   0.000182   0.462912   0.001635   4.718830   0.000593
     H   31   0.000646   0.000192   0.450980   0.000816   4.769558   0.000228
     H   32   0.000122   0.000415   0.000313   0.464318   0.001063   4.717187
     H   33   0.000121   0.000525   0.000287   0.463704   0.000185   4.717148
     H   34   0.000385   0.000780   0.000255   0.451471   0.000226   4.754014


                  H 13       H 14       H 15       H 16       H 17       H 18
 ------------------------------------------------------------------------------
     H   13   4.879437
     H   14   0.001028   4.888507
     H   15   0.029660   0.021647   4.882781
     H   16   0.020042   0.029480   0.040587   4.890871
     H   17   0.021829   0.000957   0.003061   0.000385   5.065838
     H   18   0.042968   0.000568   0.029058   0.000537   0.573275   5.053788
     H   19   0.000465   0.042798   0.000491   0.019310   0.000151   0.000125
     H   20   0.009346   0.026449   0.000326   0.012466   0.000168   0.000225
     H   21   0.026717   0.000387   0.001262   0.000761   0.002031   0.001143
     H   22   0.031870   0.000284   0.002616   0.000588   0.013741   0.012456
     H   23   0.000259   0.031072   0.000594   0.002599   0.000067   0.000045
     H   24   0.000292   0.026941   0.000807   0.001220   0.000063   0.000103
     H   25   0.002632   0.000650   0.031543   0.024632   0.000616   0.000531
     H   26   0.000616   0.002622   0.024687   0.031343   0.000133   0.000215
     H   27   0.001226   0.000595   0.027149   0.001493   0.000704   0.000783
     H   28   0.000515   0.001126   0.001509   0.027138   0.000271   0.000081
     H   29   0.003131   0.227845   0.006669   0.000414   0.048599   0.019832
     H   30   0.019968   0.001518   0.000513   0.000219   0.027887   0.048098
     H   31   0.002140   0.002321   0.000453   0.000185   0.024825   0.032926
     H   32   0.000163   0.022493   0.000170   0.000501   0.000094   0.000094
     H   33   0.000262   0.002186   0.000110   0.000465   0.000056   0.000076
     H   34   0.000161   0.002141   0.000119   0.000671   0.000081   0.000075


                  H 19       H 20       H 21       H 22       H 23       H 24
 ------------------------------------------------------------------------------
     H   19   5.057378
     H   20   0.565335   5.023892
     H   21   0.000082   0.000136   5.328577
     H   22   0.000049   0.000158   0.556478   5.298144
     H   23   0.022448   0.003439   0.000056   0.000060   5.292379
     H   24   0.001730   0.005913   0.000029   0.000056   0.556639   5.326659
     H   25   0.000184   0.000120   0.023098   0.033638   0.000204   0.000251
     H   26   0.000525   0.000620   0.000251   0.000205   0.033554   0.023071
     H   27   0.000060   0.000124   0.033035   0.023139   0.000157   0.000109
     H   28   0.000812   0.000687   0.000107   0.000150   0.022914   0.033237
     H   29   0.000498   0.000672   0.000466   0.000445   0.000449   0.000334
     H   30   0.000233   0.004419   0.000284   0.000420   0.000109   0.000166
     H   31   0.000250   0.000241   0.001165   0.000661   0.000158   0.000098
     H   32   0.048478   0.024772   0.000041   0.000024   0.000436   0.000354
     H   33   0.024061   0.049048   0.000033   0.000040   0.010348   0.000896
     H   34   0.030409   0.028272   0.000023   0.000019   0.000555   0.000320


                  H 25       H 26       H 27       H 28       H 29       H 30
 ------------------------------------------------------------------------------
     H   25   5.303402
     H   26   0.000702   5.304315
     H   27   0.557291   0.000784   5.328574
     H   28   0.000752   0.557121   0.000245   5.328758
     H   29   0.000287   0.000181   0.000284   0.000144   5.426154
     H   30   0.000087   0.000096   0.000172   0.000075   0.577262   5.457461
     H   31   0.000096   0.000056   0.000132   0.000055   0.550972   0.571195
     H   32   0.000056   0.000104   0.000044   0.000188   0.003038   0.001840
     H   33   0.000031   0.000277   0.000039   0.000253   0.000224   0.000173
     H   34   0.000055   0.000122   0.000107   0.000125   0.000251   0.000115


                  H 31       H 32       H 33       H 34
 ------------------------------------------------------
     H   31   5.492501
     H   32   0.000135   5.457165
     H   33   0.000101   0.575813   5.454168
     H   34   0.000096   0.573373   0.571155   5.489890


          HEAT OF FORMATION =     -27.902225 KCALS/MOLE

          ZERO POINT ENERGY     196.849 KCAL/MOL


           NORMAL COORDINATE ANALYSIS (Total motion = 1 Angstrom)


   Root No.       1         2         3         4         5         6         7         8

                 1 A       2 A       3 A       4 A       5 A       6 A       7 A       8 A   

                  41.3      57.2      85.0      94.5     121.2     166.9     183.8     200.4
  
           1    0.0005   -0.0011    0.0054    0.0018    0.0021    0.0003    0.0026   -0.0067
           2    0.0021    0.0061   -0.0014    0.0106    0.0016   -0.0132    0.0051   -0.0045
           3    0.0044    0.0036   -0.0073    0.0094   -0.0158    0.0020    0.0020    0.0068
           4    0.0004   -0.0010    0.0056    0.0021    0.0021    0.0006    0.0024   -0.0079
           5    0.0109    0.0149    0.0049    0.0135    0.0039    0.0007    0.0036    0.0016
           6   -0.0009    0.0061   -0.0058   -0.0009   -0.0027   -0.0118    0.0042    0.0201
           7   -0.0074   -0.0125   -0.0065   -0.0035   -0.0067    0.0134   -0.0017   -0.0045
           8   -0.0016    0.0007   -0.0069    0.0080   -0.0029   -0.0069    0.0034   -0.0028
           9   -0.0092   -0.0048    0.0074   -0.0067   -0.0090    0.0070   -0.0007    0.0034
          10    0.0008   -0.0022    0.0013    0.0089   -0.0092   -0.0161    0.0028   -0.0082
          11   -0.0058    0.0137    0.0030    0.0038    0.0102    0.0068   -0.0094   -0.0207
          12    0.0041    0.0073   -0.0032   -0.0012    0.0011   -0.0058    0.0081    0.0270
          13   -0.0187   -0.0032   -0.0090   -0.0042   -0.0279    0.0204   -0.0038    0.0043
          14   -0.0247   -0.0096   -0.0015   -0.0108   -0.0119    0.0081   -0.0033   -0.0008
          15    0.0022   -0.0071    0.0072   -0.0019    0.0038    0.0001    0.0018   -0.0013
          16    0.0096   -0.0095   -0.0177   -0.0105   -0.0183   -0.0236   -0.0140    0.0001
          17   -0.0027    0.0101   -0.0058   -0.0061    0.0072    0.0047   -0.0177   -0.0191
          18   -0.0188    0.0108    0.0092   -0.0022    0.0195    0.0126    0.0051   -0.0021
          19   -0.0047    0.0053    0.0082   -0.0055    0.0086   -0.0180    0.0082    0.0174
          20   -0.0180   -0.0055    0.0075   -0.0118    0.0066   -0.0116    0.0029    0.0058
          21    0.0113    0.0029   -0.0107    0.0178   -0.0202    0.0115   -0.0002   -0.0073
          22    0.0088    0.0013    0.0046   -0.0013   -0.0002    0.0248    0.0002    0.0120
          23    0.0131    0.0157    0.0042    0.0109    0.0037    0.0129    0.0017    0.0091
          24   -0.0234    0.0038   -0.0053   -0.0123    0.0115   -0.0151   -0.0087   -0.0178
          25    0.0042   -0.0212   -0.0053   -0.0052    0.0130    0.0100   -0.0014   -0.0043
          26    0.0112   -0.0058   -0.0234    0.0137    0.0027   -0.0030    0.0053    0.0104
          27   -0.0029   -0.0104    0.0127   -0.0094    0.0055    0.0030   -0.0010   -0.0005
          28   -0.0071    0.0085    0.0220    0.0298   -0.0019   -0.0120    0.0077   -0.0205
          29    0.0015    0.0055   -0.0127   -0.0121    0.0046    0.0033   -0.0133   -0.0119
          30    0.0222    0.0050   -0.0055   -0.0028    0.0019   -0.0045   -0.0012    0.0048
          31    0.0181   -0.0298   -0.0059   -0.0067    0.0309    0.0045   -0.0022    0.0008
          32    0.0318   -0.0052    0.0284   -0.0245   -0.0197    0.0026   -0.0005    0.0035
          33   -0.0166   -0.0055   -0.0011    0.0018    0.0009    0.0049    0.0010   -0.0013
          34   -0.0059    0.0614   -0.0017   -0.0040    0.0043   -0.0047    0.0010    0.0119
          35   -0.0184   -0.0345    0.0018    0.0094   -0.0032   -0.0070    0.0199    0.0223
          36    0.0266   -0.0094    0.0018    0.0076    0.0011   -0.0056   -0.0070   -0.0203
          37   -0.0126   -0.0192   -0.0134   -0.0075   -0.0109    0.0215   -0.0041    0.0001
          38    0.0011    0.0069   -0.0004    0.0106   -0.0007   -0.0129    0.0050   -0.0063
          39   -0.0293   -0.0028    0.0102   -0.0148   -0.0279    0.0172   -0.0049    0.0037
          40    0.0014   -0.0022   -0.0010    0.0116   -0.0144   -0.0240    0.0034    0.0005
          41   -0.0223    0.0215    0.0202    0.0161    0.0182    0.0164   -0.0032   -0.0310
          42    0.0080    0.0057   -0.0092   -0.0011   -0.0061   -0.0150    0.0074    0.0363
          43    0.0074    0.0017    0.0088    0.0091   -0.0024    0.0111    0.0008   -0.0170
          44    0.0091    0.0071   -0.0123    0.0211   -0.0046   -0.0120    0.0051   -0.0099
          45    0.0133    0.0058   -0.0143    0.0213   -0.0225    0.0076    0.0012   -0.0031
          46   -0.0056   -0.0031    0.0055   -0.0035    0.0094   -0.0111    0.0030   -0.0115
          47    0.0258    0.0180    0.0070    0.0185   -0.0006    0.0097    0.0110    0.0261
          48    0.0067    0.0074   -0.0042    0.0003   -0.0025   -0.0106    0.0094    0.0341
          49   -0.0018   -0.0237   -0.0402    0.0166    0.0249    0.0118    0.0024    0.0070
          50    0.0048   -0.0086   -0.0541    0.0339    0.0171   -0.0035    0.0086    0.0185
          51   -0.0071   -0.0127    0.0053   -0.0020    0.0193   -0.0028   -0.0003   -0.0034
          52    0.0092   -0.0179    0.0297   -0.0270   -0.0004    0.0089   -0.0053   -0.0155
          53    0.0114   -0.0094   -0.0455    0.0265    0.0130   -0.0018    0.0076    0.0192
          54    0.0171   -0.0161    0.0350   -0.0281    0.0065    0.0043   -0.0037    0.0003
          55   -0.0080   -0.0196    0.0351    0.0482   -0.0050   -0.0162    0.0125   -0.0355
          56    0.0199    0.0141   -0.0392   -0.0420    0.0014    0.0039   -0.0237   -0.0137
          57    0.0169   -0.0272    0.0147    0.0240   -0.0007   -0.0092    0.0065   -0.0114
          58   -0.0140    0.0054    0.0444    0.0548    0.0024   -0.0106    0.0062   -0.0387
          59    0.0043    0.0210   -0.0102   -0.0115    0.0092    0.0074   -0.0221   -0.0232
          60    0.0391    0.0457   -0.0336   -0.0391    0.0059    0.0027   -0.0201    0.0054
          61   -0.0352   -0.0025   -0.0223   -0.0032   -0.0678    0.0531   -0.0142   -0.0005
          62   -0.0317   -0.0118    0.0110   -0.0234    0.0015   -0.0025   -0.0010    0.0076
          63   -0.0089   -0.0086    0.0129   -0.0117    0.0017    0.0021    0.0003    0.0040
          64   -0.0178   -0.0033   -0.0084   -0.0043   -0.0260    0.0190   -0.0034    0.0045
          65   -0.0359   -0.0159   -0.0163   -0.0088   -0.0440    0.0418   -0.0139   -0.0130
          66    0.0150   -0.0131    0.0128   -0.0016    0.0307   -0.0157    0.0069   -0.0046
          67    0.0094   -0.0090   -0.0166   -0.0097   -0.0176   -0.0223   -0.0133    0.0000
          68    0.0047    0.0045   -0.0208   -0.0218    0.0001   -0.0008   -0.0306   -0.0122
          69   -0.0213    0.0217    0.0339    0.0120    0.0373    0.0582    0.0240    0.0089
          70    0.0158   -0.0213   -0.0455   -0.0303   -0.0364   -0.0634   -0.0366   -0.0051
          71   -0.0179    0.0098   -0.0031   -0.0076    0.0140    0.0017   -0.0227   -0.0432
          72   -0.0272    0.0068    0.0021   -0.0095    0.0185   -0.0021   -0.0054   -0.0203
          73   -0.0076    0.0090    0.0098   -0.0100    0.0131   -0.0303    0.0121    0.0335
          74   -0.0181   -0.0059    0.0276   -0.0271    0.0426   -0.0453    0.0124    0.0249
          75    0.0088    0.0061   -0.0130    0.0168   -0.0230    0.0073    0.0013    0.0027
          76    0.0136    0.0028    0.0045   -0.0030   -0.0016    0.0413   -0.0006    0.0254
          77    0.0079    0.0133    0.0022    0.0107    0.0040   -0.0050    0.0001   -0.0052
          78   -0.0342   -0.0066   -0.0251   -0.0290    0.0037   -0.0549   -0.0307   -0.0479
          79    0.0045    0.0105    0.0195   -0.0065    0.0334   -0.0446    0.0166    0.0270
          80   -0.0254   -0.0097   -0.0014   -0.0112   -0.0130    0.0094   -0.0038   -0.0015
          81    0.0232    0.0055   -0.0217    0.0365   -0.0366    0.0307   -0.0051   -0.0314
          82    0.0081    0.0083    0.0194    0.0052    0.0117    0.0578    0.0101    0.0206
          83    0.0293    0.0222    0.0124    0.0206    0.0011    0.0454    0.0150    0.0466
          84   -0.0289    0.0078    0.0048   -0.0097    0.0224    0.0027   -0.0044   -0.0222
          85    0.0198   -0.0188    0.0268   -0.0201   -0.0306   -0.0203    0.0012   -0.0082
          86    0.0350    0.0036    0.0617   -0.0413   -0.0685   -0.0126    0.0008   -0.0055
          87   -0.0114   -0.0101    0.0051   -0.0099    0.0280    0.0297   -0.0046   -0.0014
          88    0.0183   -0.0435   -0.0445    0.0091    0.1040    0.0323   -0.0064    0.0129
          89    0.0294    0.0037    0.0486   -0.0314   -0.0642   -0.0147    0.0025   -0.0037
          90   -0.0384    0.0034   -0.0231    0.0242   -0.0208   -0.0079    0.0073   -0.0035
          91    0.0273   -0.0334   -0.0012   -0.0098    0.0325   -0.0031   -0.0023    0.0031
          92    0.0470   -0.0219    0.0166   -0.0311    0.0549    0.0392   -0.0093    0.0137
          93   -0.0110   -0.0065    0.0041    0.0000   -0.0067   -0.0056    0.0020   -0.0008
          94   -0.0056    0.0917   -0.0141   -0.0217    0.0082   -0.0007   -0.0101    0.0336
          95   -0.0374   -0.0516    0.0330    0.0509    0.0017   -0.0166   -0.1437    0.0949
          96    0.0328    0.0267   -0.0206   -0.0235    0.0035    0.0014    0.0332   -0.0213
          97    0.0011    0.0725   -0.0281   -0.0387   -0.0016    0.0005    0.1550   -0.0213
          98   -0.0212   -0.0479   -0.0025    0.0048   -0.0088   -0.0087    0.0988    0.0143
          99    0.0098   -0.0550    0.0324    0.0499   -0.0021   -0.0170   -0.0701    0.0122
         100   -0.0122    0.0631    0.0178    0.0210    0.0113   -0.0079   -0.1454    0.0513
         101   -0.0124   -0.0360   -0.0134   -0.0102   -0.0086   -0.0043    0.1347   -0.0120
         102    0.0405   -0.0115   -0.0005    0.0046    0.0010   -0.0018    0.0109   -0.0731


   Root No.       9        10        11        12        13        14        15        16

                 9 A      10 A      11 A      12 A      13 A      14 A      15 A      16 A   

                 238.7     283.3     312.0     330.6     357.9     406.7     464.0     515.6
  
           1    0.0082    0.0148    0.0089    0.0214    0.0008   -0.0017   -0.0050   -0.0210
           2   -0.0045    0.0187    0.0064    0.0196   -0.0220    0.0047   -0.0162   -0.0004
           3   -0.0048   -0.0095    0.0191    0.0029   -0.0123   -0.0068    0.0180    0.0108
           4    0.0090    0.0131    0.0022    0.0208    0.0016   -0.0089   -0.0114   -0.0185
           5   -0.0110    0.0046    0.0139   -0.0054    0.0008    0.0120    0.0062   -0.0180
           6   -0.0093   -0.0072   -0.0082   -0.0100   -0.0148    0.0110    0.0147    0.0175
           7    0.0118    0.0104    0.0014    0.0064    0.0125    0.0180    0.0389    0.0016
           8   -0.0000    0.0156   -0.0010    0.0155   -0.0210    0.0085   -0.0042    0.0114
           9    0.0016   -0.0146    0.0103    0.0046    0.0070   -0.0161    0.0068   -0.0158
          10   -0.0029    0.0006   -0.0016    0.0042    0.0008   -0.0219    0.0009    0.0265
          11   -0.0020   -0.0070    0.0077   -0.0115    0.0050    0.0011    0.0080    0.0021
          12   -0.0084    0.0042   -0.0141   -0.0031   -0.0065    0.0183    0.0062   -0.0083
          13   -0.0166   -0.0082    0.0263   -0.0072    0.0020   -0.0002   -0.0028   -0.0059
          14   -0.0094   -0.0005   -0.0201    0.0030   -0.0044   -0.0080    0.0088    0.0004
          15    0.0173   -0.0022   -0.0003    0.0160    0.0074   -0.0085    0.0355   -0.0143
          16    0.0005   -0.0150   -0.0253    0.0094   -0.0106    0.0079   -0.0079    0.0008
          17    0.0010   -0.0143   -0.0054   -0.0103   -0.0026    0.0149    0.0019   -0.0151
          18    0.0079    0.0063   -0.0117   -0.0023   -0.0162   -0.0059   -0.0047   -0.0003
          19    0.0049   -0.0118    0.0472    0.0034   -0.0085    0.0004   -0.0005   -0.0012
          20    0.0024   -0.0028   -0.0098    0.0090   -0.0091   -0.0086    0.0103    0.0026
          21   -0.0042    0.0091    0.0100    0.0166   -0.0128   -0.0036    0.0087   -0.0023
          22    0.0204   -0.0089   -0.0333    0.0083   -0.0210   -0.0082   -0.0148    0.0053
          23   -0.0060   -0.0054   -0.0001   -0.0132   -0.0057    0.0157    0.0108   -0.0091
          24   -0.0004   -0.0002   -0.0099   -0.0017   -0.0093    0.0023   -0.0042   -0.0049
          25    0.0103    0.0157    0.0027   -0.0150    0.0105    0.0334    0.0089    0.0159
          26    0.0306   -0.0165    0.0037   -0.0059    0.0065   -0.0109   -0.0161   -0.0057
          27   -0.0066   -0.0018    0.0115   -0.0065   -0.0022    0.0009   -0.0297    0.0000
          28   -0.0089   -0.0179   -0.0141   -0.0074    0.0079   -0.0006    0.0017    0.0104
          29    0.0015    0.0071    0.0152   -0.0045    0.0067   -0.0197    0.0080    0.0241
          30   -0.0075    0.0122   -0.0126   -0.0036    0.0268   -0.0066   -0.0068   -0.0061
          31   -0.0203    0.0083    0.0027   -0.0302   -0.0179   -0.0118    0.0011   -0.0098
          32    0.0063   -0.0087    0.0035    0.0078    0.0100    0.0050   -0.0122    0.0037
          33    0.0170   -0.0002    0.0137   -0.0040    0.0133    0.0247   -0.0361    0.0146
          34   -0.0087    0.0066   -0.0139   -0.0042    0.0248   -0.0056   -0.0042    0.0012
          35   -0.0111    0.0140   -0.0097   -0.0024    0.0270   -0.0098   -0.0037    0.0037
          36   -0.0049   -0.0013   -0.0081   -0.0073    0.0179   -0.0096   -0.0016    0.0070
          37    0.0168   -0.0030   -0.0034   -0.0068    0.0253    0.0153    0.0558    0.0047
          38   -0.0066    0.0257    0.0039    0.0265   -0.0319    0.0086   -0.0194    0.0063
          39   -0.0143   -0.0226    0.0099    0.0039    0.0087   -0.0293    0.0131   -0.0270
          40   -0.0088   -0.0015   -0.0033   -0.0153   -0.0129   -0.0187    0.0146    0.0323
          41    0.0002   -0.0158    0.0110   -0.0072    0.0055    0.0010    0.0095    0.0166
          42   -0.0145    0.0025   -0.0148   -0.0168   -0.0170    0.0211    0.0176   -0.0009
          43    0.0061    0.0206    0.0135    0.0283    0.0067   -0.0091   -0.0122   -0.0427
          44   -0.0045    0.0299    0.0074    0.0265   -0.0322    0.0131   -0.0170    0.0127
          45   -0.0062    0.0038    0.0221    0.0127   -0.0180   -0.0029    0.0134    0.0104
          46    0.0089    0.0266   -0.0006    0.0303    0.0022   -0.0025   -0.0241   -0.0343
          47   -0.0141    0.0005    0.0097   -0.0126   -0.0017    0.0235    0.0163   -0.0215
          48   -0.0115   -0.0033   -0.0123   -0.0102   -0.0152    0.0210    0.0152    0.0069
          49    0.0431   -0.0118    0.0056   -0.0290    0.0331    0.0097    0.0035   -0.0102
          50    0.0529   -0.0340    0.0055   -0.0200    0.0175   -0.0295   -0.0253   -0.0242
          51   -0.0209    0.0122    0.0106   -0.0151   -0.0257    0.0028   -0.0444    0.0091
          52   -0.0215    0.0418    0.0001    0.0007   -0.0101    0.0567    0.0165    0.0406
          53    0.0511   -0.0377    0.0062   -0.0193    0.0217   -0.0309   -0.0255   -0.0260
          54   -0.0240   -0.0057    0.0133   -0.0128   -0.0050   -0.0051   -0.0435   -0.0020
          55   -0.0105   -0.0294   -0.0190   -0.0101    0.0081    0.0024    0.0011    0.0093
          56    0.0093    0.0297    0.0354    0.0058    0.0123   -0.0606    0.0062    0.0624
          57   -0.0110   -0.0054   -0.0220   -0.0090    0.0255    0.0052   -0.0067   -0.0145
          58   -0.0128   -0.0426   -0.0269   -0.0191    0.0070    0.0274    0.0038   -0.0139
          59    0.0023    0.0001    0.0155   -0.0094    0.0084   -0.0144    0.0095    0.0195
          60    0.0003    0.0324    0.0069    0.0019    0.0314   -0.0359   -0.0064    0.0198
          61   -0.0562   -0.0166    0.0284   -0.0269    0.0001   -0.0143   -0.0563   -0.0156
          62   -0.0021   -0.0141   -0.0180    0.0000    0.0032   -0.0179    0.0166   -0.0074
          63    0.0107   -0.0157    0.0021    0.0074    0.0130   -0.0206    0.0257   -0.0237
          64   -0.0151   -0.0078    0.0267   -0.0066    0.0020    0.0006   -0.0017   -0.0056
          65   -0.0322    0.0039   -0.0401   -0.0073    0.0025   -0.0106   -0.0033   -0.0048
          66    0.0502    0.0123   -0.0158    0.0325    0.0157    0.0094    0.0938   -0.0067
          67    0.0008   -0.0147   -0.0253    0.0092   -0.0108    0.0070   -0.0081    0.0014
          68    0.0035   -0.0269   -0.0256   -0.0048   -0.0084    0.0455   -0.0073   -0.0497
          69    0.0256    0.0165   -0.0137   -0.0064   -0.0291   -0.0357   -0.0084    0.0233
          70   -0.0124   -0.0311   -0.0378    0.0153   -0.0045    0.0498   -0.0118   -0.0392
          71    0.0043   -0.0126    0.0039   -0.0110   -0.0002   -0.0031   -0.0002   -0.0021
          72    0.0062    0.0026   -0.0093   -0.0012   -0.0128   -0.0058   -0.0074   -0.0034
          73    0.0038   -0.0301    0.0714   -0.0082   -0.0160    0.0005    0.0082    0.0194
          74    0.0284   -0.0218    0.0045    0.0097   -0.0068   -0.0131    0.0418    0.0128
          75   -0.0100   -0.0026    0.0270    0.0065   -0.0194   -0.0027    0.0102    0.0128
          76    0.0282   -0.0237   -0.0557   -0.0006   -0.0365   -0.0096   -0.0148    0.0319
          77   -0.0133    0.0062    0.0186   -0.0051    0.0079    0.0181    0.0100   -0.0331
          78   -0.0104   -0.0062   -0.0054    0.0035    0.0040    0.0160   -0.0086   -0.0296
          79    0.0211   -0.0154    0.0657    0.0106   -0.0152    0.0025    0.0056    0.0048
          80   -0.0104   -0.0004   -0.0242    0.0032   -0.0038   -0.0104    0.0064   -0.0016
          81   -0.0146    0.0416   -0.0098    0.0332   -0.0155    0.0029   -0.0221   -0.0254
          82    0.0347   -0.0051   -0.0419    0.0069   -0.0318   -0.0225   -0.0212    0.0155
          83    0.0024   -0.0182   -0.0230   -0.0263   -0.0303    0.0120    0.0189    0.0351
          84    0.0090    0.0071   -0.0098    0.0012   -0.0108   -0.0084   -0.0121   -0.0109
          85    0.0150    0.0452    0.0013   -0.0993   -0.0412   -0.0250    0.0087   -0.0237
          86    0.0312    0.0222    0.0027   -0.0417   -0.0034    0.0074   -0.0051   -0.0017
          87   -0.0110   -0.0175    0.0153    0.0573    0.0445    0.0708   -0.0375    0.0457
          88   -0.0687   -0.0410    0.0044    0.0601    0.0087   -0.0053   -0.0092    0.0074
          89    0.0395    0.0216    0.0026   -0.0488   -0.0053    0.0021   -0.0063   -0.0063
          90    0.0718    0.0189    0.0147   -0.0494    0.0141    0.0362   -0.0393    0.0159
          91   -0.0370    0.0073    0.0014   -0.0475   -0.0427   -0.0541    0.0026   -0.0375
          92   -0.0718   -0.0638    0.0049    0.1266    0.0428    0.0216   -0.0205    0.0303
          93    0.0134    0.0060    0.0126   -0.0328   -0.0105   -0.0103   -0.0345   -0.0106
          94   -0.0085    0.0229   -0.0138   -0.0019    0.0372   -0.0095   -0.0090   -0.0070
          95   -0.0075    0.0388   -0.0129    0.0033    0.0432   -0.0151   -0.0114   -0.0049
          96   -0.0057    0.0074   -0.0068   -0.0069    0.0250   -0.0119   -0.0039    0.0017
          97   -0.0188   -0.0016   -0.0262   -0.0070    0.0323    0.0021   -0.0093   -0.0116
          98   -0.0197    0.0097   -0.0240   -0.0036    0.0367   -0.0028   -0.0103   -0.0090
          99   -0.0080    0.0015   -0.0202   -0.0056    0.0265   -0.0058   -0.0079   -0.0011
         100    0.0006    0.0208   -0.0031   -0.0007    0.0237   -0.0142   -0.0019    0.0090
         101   -0.0179    0.0014   -0.0171   -0.0054    0.0264   -0.0035   -0.0046   -0.0004
         102    0.0019   -0.0254    0.0086   -0.0119   -0.0111   -0.0119    0.0140    0.0346


   Root No.      17        18        19        20        21        22        23        24

                17 A      18 A      19 A      20 A      21 A      22 A      23 A      24 A   

                 527.7     739.9     760.6     815.9     829.3     842.0     847.9     884.3
  
           1    0.0126   -0.0101   -0.0139    0.0019    0.0042   -0.0029   -0.0019    0.0085
           2   -0.0064   -0.0092   -0.0000    0.0108   -0.0069    0.0119   -0.0027    0.0106
           3   -0.0188    0.0236   -0.0121   -0.0033    0.0005   -0.0093    0.0044   -0.0056
           4    0.0155    0.0038   -0.0126   -0.0070    0.0063   -0.0045   -0.0000   -0.0099
           5    0.0247    0.0183    0.0088   -0.0013    0.0007    0.0003    0.0066   -0.0028
           6    0.0174   -0.0215   -0.0117    0.0020   -0.0006   -0.0033   -0.0095    0.0111
           7   -0.0035   -0.0086    0.0130    0.0017   -0.0031    0.0070   -0.0020   -0.0065
           8   -0.0194   -0.0160    0.0224   -0.0029   -0.0013    0.0095   -0.0046   -0.0092
           9    0.0039   -0.0068    0.0054    0.0022   -0.0005    0.0037   -0.0003    0.0061
          10    0.0276    0.0115    0.0119    0.0018   -0.0022    0.0025    0.0054    0.0062
          11   -0.0038   -0.0121   -0.0104   -0.0019    0.0008   -0.0020   -0.0040    0.0021
          12    0.0205   -0.0174   -0.0147   -0.0040    0.0064   -0.0035   -0.0104   -0.0109
          13   -0.0031   -0.0144    0.0192    0.0019   -0.0056   -0.0024    0.0018   -0.0059
          14    0.0012    0.0086   -0.0097    0.0006   -0.0018   -0.0098    0.0032   -0.0028
          15   -0.0013   -0.0114    0.0121   -0.0009    0.0048    0.0167   -0.0057    0.0116
          16    0.0071    0.0125    0.0118   -0.0071   -0.0112    0.0038    0.0011    0.0073
          17   -0.0202   -0.0016   -0.0014    0.0042    0.0001   -0.0060   -0.0160    0.0094
          18    0.0092    0.0122    0.0107    0.0036    0.0025    0.0041    0.0127   -0.0054
          19   -0.0155   -0.0032   -0.0017    0.0053   -0.0050   -0.0125    0.0041    0.0102
          20   -0.0050    0.0132   -0.0189    0.0014   -0.0009   -0.0150    0.0043    0.0036
          21   -0.0141    0.0151   -0.0175   -0.0018    0.0036   -0.0038    0.0007   -0.0013
          22   -0.0107    0.0029   -0.0015   -0.0084   -0.0040   -0.0038   -0.0116   -0.0093
          23    0.0161    0.0197    0.0194   -0.0002   -0.0046    0.0041    0.0074    0.0008
          24    0.0065    0.0092    0.0101    0.0040   -0.0001    0.0053    0.0126    0.0034
          25   -0.0002    0.0155   -0.0134    0.0021    0.0008    0.0006    0.0010    0.0100
          26    0.0032   -0.0071    0.0124   -0.0145    0.0142   -0.0088    0.0023    0.0035
[...]
 REDUCED MASS        0.4442         C  9 -- C 11          +1.1% ( 10.8%)      0.0%
 EFFECTIVE MASS      1.5331
 FORCE CONSTANT      2.2808

 VIBRATION         81   81A           ATOM PAIR      ENERGY CONTRIBUTION    RADIAL
 FREQUENCY          3024.48         C 10 -- H 19         +54.0% ( 72.5%)     98.3%
 TRANSITION DIPOLE   0.0185         C 10 -- H 20         +42.6% ( 64.4%)     96.9%
 TRAVEL (Ang.)       0.2176         C  6 -- H 23          +0.8% (  8.6%)     98.4%
 REDUCED MASS        0.4707         C 10 -- C 12          +0.6% (  7.8%)     26.6%
 EFFECTIVE MASS      1.2793
 FORCE CONSTANT      2.5369

 VIBRATION         82   82A           ATOM PAIR      ENERGY CONTRIBUTION    RADIAL
 FREQUENCY          3028.61         C  6 -- H 23         +31.7% ( 58.8%)     97.4%
 TRANSITION DIPOLE   0.0213         C  6 -- H 24         +23.7% ( 50.8%)     95.8%
 TRAVEL (Ang.)       0.2915         C  8 -- H 26         +21.9% ( 48.9%)     97.2%
 REDUCED MASS        0.2619         C  8 -- H 28         +17.7% ( 44.0%)     96.0%
 EFFECTIVE MASS      1.5504
 FORCE CONSTANT      1.4156

 VIBRATION         83   83A           ATOM PAIR      ENERGY CONTRIBUTION    RADIAL
 FREQUENCY          3029.27         C  5 -- H 22         +28.6% ( 56.0%)     97.4%
 TRANSITION DIPOLE   0.0082         C  7 -- H 25         +25.2% ( 52.5%)     97.3%
 TRAVEL (Ang.)       0.2915         C  5 -- H 21         +22.0% ( 49.0%)     95.8%
 REDUCED MASS        0.2619         C  7 -- H 27         +20.3% ( 47.1%)     96.0%
 EFFECTIVE MASS      1.5537
 FORCE CONSTANT      1.4160

 VIBRATION         84   84A           ATOM PAIR      ENERGY CONTRIBUTION    RADIAL
 FREQUENCY          3031.67         C  9 -- H 17         +52.1% ( 71.1%)     98.1%
 TRANSITION DIPOLE   0.0194         C  9 -- H 18         +45.8% ( 66.7%)     97.3%
 TRAVEL (Ang.)       0.2157         C  9 -- C 11          +0.6% (  7.8%)     25.9%
 REDUCED MASS        0.4779         C  3 -- C  9          +0.6% (  7.7%)     29.4%
 EFFECTIVE MASS      1.2759
 FORCE CONSTANT      2.5877

 VIBRATION         85   85A           ATOM PAIR      ENERGY CONTRIBUTION    RADIAL
 FREQUENCY          3043.34         C  8 -- H 26         +31.7% ( 58.5%)     97.6%
 TRANSITION DIPOLE   0.0982         C  8 -- H 28         +24.5% ( 51.4%)     96.1%
 TRAVEL (Ang.)       0.2883         C  6 -- H 23         +23.4% ( 50.2%)     97.9%
 REDUCED MASS        0.2666         C  6 -- H 24         +16.2% ( 41.8%)     95.8%
 EFFECTIVE MASS      1.5311
 FORCE CONSTANT      1.4547

 VIBRATION         86   86A           ATOM PAIR      ENERGY CONTRIBUTION    RADIAL
 FREQUENCY          3043.88         C  7 -- H 25         +28.6% ( 55.6%)     97.6%
 TRANSITION DIPOLE   0.0816         C  5 -- H 22         +26.3% ( 53.3%)     97.8%
 TRAVEL (Ang.)       0.2918         C  7 -- H 27         +21.9% ( 48.6%)     96.1%
 REDUCED MASS        0.2602         C  5 -- H 21         +19.0% ( 45.3%)     95.9%
 EFFECTIVE MASS      1.5310
 FORCE CONSTANT      1.4202

 VIBRATION         87   87A           ATOM PAIR      ENERGY CONTRIBUTION    RADIAL
 FREQUENCY          3067.11         C 11 -- H 29         +63.3% ( 81.7%)     98.7%
 TRANSITION DIPOLE   0.0424         C 11 -- H 30         +29.7% ( 55.9%)     93.6%
 TRAVEL (Ang.)       0.2081         C 11 -- H 31          +3.0% ( 17.7%)     41.4%
 REDUCED MASS        0.5076         C  4 -- H 14          +2.5% ( 16.1%)     98.9%
 EFFECTIVE MASS      1.4677
 FORCE CONSTANT      2.8135

 VIBRATION         88   88A           ATOM PAIR      ENERGY CONTRIBUTION    RADIAL
 FREQUENCY          3076.01         C 12 -- H 33         +49.1% ( 72.2%)     97.1%
 TRANSITION DIPOLE   0.0118         C 12 -- H 32         +48.6% ( 71.9%)     97.0%
 TRAVEL (Ang.)       0.2084         C 10 -- C 12          +1.0% ( 10.2%)      0.0%
 REDUCED MASS        0.5049         C 12 -- H 34          +0.9% ( 10.0%)      0.0%
 EFFECTIVE MASS      1.5017
 FORCE CONSTANT      2.8148

 VIBRATION         89   89A           ATOM PAIR      ENERGY CONTRIBUTION    RADIAL
 FREQUENCY          3083.88         C 12 -- H 34         +60.2% ( 80.0%)     98.7%
 TRANSITION DIPOLE   0.0070         C 12 -- H 33         +19.0% ( 45.0%)     86.2%
 TRAVEL (Ang.)       0.2172         C 12 -- H 32         +19.0% ( 44.9%)     86.2%
 REDUCED MASS        0.4635         C 10 -- C 12          +1.0% ( 10.3%)      0.0%
 EFFECTIVE MASS      1.5038
 FORCE CONSTANT      2.5973

 VIBRATION         90   90A           ATOM PAIR      ENERGY CONTRIBUTION    RADIAL
 FREQUENCY          3084.77         C 11 -- H 31         +55.1% ( 76.6%)     98.3%
 TRANSITION DIPOLE   0.0083         C 11 -- H 30         +35.6% ( 61.5%)     94.2%
 TRAVEL (Ang.)       0.2169         C 11 -- H 29          +7.3% ( 27.9%)     63.8%
 REDUCED MASS        0.4645         C  9 -- C 11          +1.0% ( 10.3%)      0.0%
 EFFECTIVE MASS      1.5038
 FORCE CONSTANT      2.6045

 VIBRATION         91   91A           ATOM PAIR      ENERGY CONTRIBUTION    RADIAL
 FREQUENCY          3102.87         C  6 -- H 24         +51.2% ( 70.9%)     98.1%
 TRANSITION DIPOLE   0.0656         C  6 -- H 23         +35.6% ( 59.2%)     95.8%
 TRAVEL (Ang.)       0.2339         C  8 -- H 28          +6.5% ( 25.4%)     98.1%
 REDUCED MASS        0.3971         C  8 -- H 26          +4.5% ( 21.2%)     95.7%
 EFFECTIVE MASS      1.2831
 FORCE CONSTANT      2.2524

 VIBRATION         92   92A           ATOM PAIR      ENERGY CONTRIBUTION    RADIAL
 FREQUENCY          3103.59         C  5 -- H 21         +42.3% ( 64.5%)     98.1%
 TRANSITION DIPOLE   0.0647         C  5 -- H 22         +30.3% ( 54.6%)     95.9%
 TRAVEL (Ang.)       0.2668         C  7 -- H 27         +14.7% ( 38.0%)     98.0%
 REDUCED MASS        0.3052         C  7 -- H 25         +10.7% ( 32.4%)     96.0%
 EFFECTIVE MASS      1.2816
 FORCE CONSTANT      1.7323

 VIBRATION         93   93A           ATOM PAIR      ENERGY CONTRIBUTION    RADIAL
 FREQUENCY          3105.27         C  8 -- H 28         +46.7% ( 67.8%)     97.9%
 TRANSITION DIPOLE   0.0633         C  8 -- H 26         +36.4% ( 59.9%)     96.3%
 TRAVEL (Ang.)       0.2455         C  6 -- H 24          +6.0% ( 24.4%)     98.0%
 REDUCED MASS        0.3602         C  6 -- H 23          +4.5% ( 21.1%)     96.2%
 EFFECTIVE MASS      1.2871
 FORCE CONSTANT      2.0462

 VIBRATION         94   94A           ATOM PAIR      ENERGY CONTRIBUTION    RADIAL
 FREQUENCY          3105.38         C  7 -- H 27         +39.0% ( 62.0%)     97.9%
 TRANSITION DIPOLE   0.0792         C  7 -- H 25         +30.5% ( 54.8%)     96.3%
 TRAVEL (Ang.)       0.2793         C  5 -- H 21         +13.7% ( 36.8%)     98.0%
 REDUCED MASS        0.2784         C  5 -- H 22         +10.4% ( 32.1%)     96.2%
 EFFECTIVE MASS      1.2882
 FORCE CONSTANT      1.5815

 VIBRATION         95   95A           ATOM PAIR      ENERGY CONTRIBUTION    RADIAL
 FREQUENCY          3174.69         C 11 -- H 31         +41.5% ( 62.0%)     98.2%
 TRANSITION DIPOLE   0.0349         C 11 -- H 30         +33.7% ( 55.9%)     97.1%
 TRAVEL (Ang.)       0.2517         C 11 -- H 29         +24.0% ( 47.2%)     95.3%
 REDUCED MASS        0.3353         C  4 -- H 14          +0.3% (  5.7%)     97.4%
 EFFECTIVE MASS      1.1395
 FORCE CONSTANT      1.9912

 VIBRATION         96   96A           ATOM PAIR      ENERGY CONTRIBUTION    RADIAL
 FREQUENCY          3178.60         C 12 -- H 34         +38.1% ( 59.4%)     97.8%
 TRANSITION DIPOLE   0.0110         C 12 -- H 32         +30.9% ( 53.5%)     96.7%
 TRAVEL (Ang.)       0.2541         C 12 -- H 33         +30.5% ( 53.1%)     96.6%
 REDUCED MASS        0.3285         C 10 -- C 12          +0.3% (  5.1%)     99.1%
 EFFECTIVE MASS      1.1370
 FORCE CONSTANT      1.9557

      SYMMETRY NUMBER FOR POINT-GROUP C1  =  1


          SYSTEM IS A GROUND STATE



 InChI=1S/C12H22/c1-3-9-5-7-11(9)12-8-6-10(12)4-2/h9-12H,3-8H2,1-2H3


          MOLECULE IS NOT LINEAR

          THERE ARE 96 GENUINE VIBRATIONS IN THIS SYSTEM
          THIS THERMODYNAMICS CALCULATION IS LIMITED TO
          MOLECULES WHICH HAVE NO INTERNAL ROTATIONS




                    CALCULATED THERMODYNAMIC PROPERTIES
                                          *
   TEMP. (K)   PARTITION FUNCTION   H.O.F.    ENTHALPY  HEAT CAPACITY ENTROPY
                                   KCAL/MOL   CAL/MOLE    CAL/K/MOL  CAL/K/MOL


 298.00  VIB.     0.1709D+05                  6377.2903    44.1779    40.7684
         ROT.     0.1398D+07                   888.2803     2.9808    31.1011
         INT.     0.2390D+11                  7265.5706    47.1587    71.8695
         TRA.     0.2073D+28                  1480.4672     4.9680    41.2320
         TOT.                      -27.902    8746.0378    52.1267   113.1015

 200.00  VIB.     0.4991D+03                  2886.8394    27.8907    26.7804
         ROT.     0.7688D+06                   596.1613     2.9808    29.9125
         INT.     0.3837D+09                  3483.0007    30.8715    56.6929
         TRA.     0.1140D+28                   993.6021     4.9680    39.2509
         TOT.                      -32.172    4476.6028    35.8395    95.9438

 210.00  VIB.     0.7173D+03                  3172.7648    29.3044    28.1752
         ROT.     0.8271D+06                   625.9693     2.9808    30.0579
         INT.     0.5933D+09                  3798.7341    32.2852    58.2331
         TRA.     0.1227D+28                  1043.2822     4.9680    39.4932
         TOT.                      -31.806    4842.0163    37.2532    97.7263

 220.00  VIB.     0.1030D+04                  3473.1322    30.7795    29.5722
         ROT.     0.8869D+06                   655.7774     2.9808    30.1966
         INT.     0.9133D+09                  4128.9096    33.7603    59.7688
         TRA.     0.1315D+28                  1092.9623     4.9680    39.7244
         TOT.                      -31.426    5221.8720    38.7283    99.4932

 230.00  VIB.     0.1477D+04                  3788.5613    32.3167    30.9741
         ROT.     0.9481D+06                   685.5855     2.9808    30.3291
         INT.     0.1400D+10                  4474.1468    35.2975    61.3032
         TRA.     0.1406D+28                  1142.6424     4.9680    39.9452
         TOT.                      -31.031    5616.7892    40.2655   101.2484

 240.00  VIB.     0.2117D+04                  4119.6694    33.9149    32.3831
         ROT.     0.1011D+07                   715.3935     2.9808    30.4559
         INT.     0.2140D+10                  4835.0629    36.8957    62.8390
         TRA.     0.1499D+28                  1192.3226     4.9680    40.1566
         TOT.                      -30.621    6027.3855    41.8637   102.9956

 250.00  VIB.     0.3034D+04                  4467.0538    35.5713    33.8009
         ROT.     0.1074D+07                   745.2016     2.9808    30.5776
         INT.     0.3260D+10                  5212.2554    38.5521    64.3785
         TRA.     0.1593D+28                  1242.0027     4.9680    40.3594
         TOT.                      -30.194    6454.2580    43.5202   104.7380

 260.00  VIB.     0.4347D+04                  4831.2765    37.2818    35.2292
         ROT.     0.1139D+07                   775.0097     2.9808    30.6945
         INT.     0.4954D+10                  5606.2862    40.2626    65.9237
         TRA.     0.1690D+28                  1291.6828     4.9680    40.5543
         TOT.                      -29.750    6897.9690    45.2306   106.4780

 270.00  VIB.     0.6229D+04                  5212.8536    39.0413    36.6691
         ROT.     0.1206D+07                   804.8177     2.9808    30.8070
         INT.     0.7512D+10                  6017.6713    42.0221    67.4761
         TRA.     0.1788D+28                  1341.3629     4.9680    40.7418
         TOT.                      -29.289    7359.0342    46.9901   108.2179

 280.00  VIB.     0.8929D+04                  5612.2462    40.8440    38.1214
         ROT.     0.1273D+07                   834.6258     2.9808    30.9154
         INT.     0.1137D+11                  6446.8720    43.8248    69.0368
         TRA.     0.1888D+28                  1391.0430     4.9680    40.9225
         TOT.                      -28.810    7837.9150    48.7928   109.9593

 290.00  VIB.     0.1280D+05                  6029.8561    42.6837    39.5867
         ROT.     0.1342D+07                   864.4339     2.9808    31.0200
         INT.     0.1719D+11                  6894.2900    45.6645    70.6067
         TRA.     0.1990D+28                  1440.7231     4.9680    41.0968
         TOT.                      -28.313    8335.0131    50.6325   111.7035

 300.00  VIB.     0.1837D+05                  6466.0221    44.5541    41.0651
         ROT.     0.1412D+07                   894.2419     2.9808    31.1211
         INT.     0.2595D+11                  7360.2641    47.5349    72.1862
         TRA.     0.2094D+28                  1490.4032     4.9680    41.2652
         TOT.                      -27.798    8850.6672    52.5029   113.4514

 310.00  VIB.     0.2639D+05                  6921.0196    46.4489    42.5569
         ROT.     0.1484D+07                   924.0500     2.9808    31.2188
         INT.     0.3915D+11                  7845.0696    49.4297    73.7757
         TRA.     0.2200D+28                  1540.0833     4.9680    41.4281
         TOT.                      -27.263    9385.1529    54.3977   115.2038

 320.00  VIB.     0.3793D+05                  7395.0612    48.3619    44.0618
         ROT.     0.1556D+07                   953.8580     2.9808    31.3135
         INT.     0.5902D+11                  8348.9193    51.3427    75.3752
         TRA.     0.2307D+28                  1589.7634     4.9680    41.5859
         TOT.                      -26.710    9938.6827    56.3107   116.9611

 330.00  VIB.     0.5458D+05                  7888.2989    50.2872    45.5794
         ROT.     0.1629D+07                   983.6661     2.9808    31.4052
         INT.     0.8894D+11                  8871.9650    53.2680    76.9846
         TRA.     0.2416D+28                  1639.4435     4.9680    41.7387
         TOT.                      -26.137   10511.4085    58.2360   118.7233

 340.00  VIB.     0.7864D+05                  8400.8268    52.2191    47.1093
         ROT.     0.1704D+07                  1013.4742     2.9808    31.4942
         INT.     0.1340D+12                  9414.3010    55.1999    78.6035
         TRA.     0.2527D+28                  1689.1236     4.9680    41.8870
         TOT.                      -25.545   11103.4246    60.1679   120.4905

 350.00  VIB.     0.1134D+06                  8932.6856    54.1525    48.6509
         ROT.     0.1780D+07                  1043.2822     2.9808    31.5806
         INT.     0.2019D+12                  9975.9679    57.1333    80.2315
         TRA.     0.2639D+28                  1738.8037     4.9680    42.0310
         TOT.                      -24.933   11714.7716    62.1013   122.2625

 360.00  VIB.     0.1638D+06                  9483.8660    56.0827    50.2035
         ROT.     0.1857D+07                  1073.0903     2.9808    31.6645
         INT.     0.3041D+12                 10556.9563    59.0635    81.8680
         TRA.     0.2753D+28                  1788.4838     4.9680    42.1710
         TOT.                      -24.303   12345.4401    64.0315   124.0390

 370.00  VIB.     0.2369D+06                 10054.3135    58.0053    51.7663
         ROT.     0.1934D+07                  1102.8984     2.9808    31.7462
         INT.     0.4583D+12                 11157.2118    60.9861    83.5125
         TRA.     0.2869D+28                  1838.1639     4.9680    42.3071
         TOT.                      -23.653   12995.3758    65.9541   125.8197

 380.00  VIB.     0.3431D+06                 10643.9330    59.9165    53.3386
         ROT.     0.2013D+07                  1132.7064     2.9808    31.8257
         INT.     0.6907D+12                 11776.6395    62.8973    85.1643
         TRA.     0.2986D+28                  1887.8440     4.9680    42.4396
         TOT.                      -22.984   13664.4835    67.8653   127.6039

 390.00  VIB.     0.4975D+06                 11252.5935    61.8129    54.9195
         ROT.     0.2093D+07                  1162.5145     2.9808    31.9031
         INT.     0.1041D+13                 12415.1080    64.7937    86.8227
         TRA.     0.3104D+28                  1937.5242     4.9680    42.5687
         TOT.                      -22.296   14352.6321    69.7617   129.3913

 400.00  VIB.     0.7223D+06                 11880.1319    63.6916    56.5082
         ROT.     0.2174D+07                  1192.3226     2.9808    31.9786
         INT.     0.1571D+13                 13072.4545    66.6724    88.4868
         TRA.     0.3224D+28                  1987.2043     4.9680    42.6944
         TOT.                      -21.589   15059.6588    71.6404   131.1813

   *: NOTE: HEATS OF FORMATION ARE RELATIVE TO THE
            ELEMENTS IN THEIR STANDARD STATE AT 298K
              (=  Standard Enthalpy of Formation).

            Hvib:  Zero-point energy is not included.
                   frequencies of less than zero cm-1 are not included.
            Hrot = (3/2)RT
            Htra = (3/2)RT + pV = (5/2)RT

            Heat capacity is Cp, not Cv

          For more information, see: HTTP://OpenMOPAC.net/Manual/thermochemistry.html


           FORCE CONSTANT IN CARTESIAN COORDINATES (Millidynes/A)

    ATOM   CHEMICAL       X               Y               Z
   NUMBER   SYMBOL  FORCE CONSTANT  FORCE CONSTANT  FORCE CONSTANT

      1       C        9.241452        7.296931        8.282826
      2       C        9.230079        7.380209        8.243861
      3       C        7.817527        8.454014        8.312571
      4       C        7.790795        8.963666        7.768932
      5       C        9.058691        7.445048        8.055409
      6       C        9.051987        7.093507        8.401434
      7       C        7.689751        8.838384        8.011103
      8       C        7.698482        8.849868        7.976184
      9       C        8.413720        8.293024        8.380970
     10       C        8.315581        8.298728        8.487270
     11       C        8.235788        8.114153        8.414945
     12       C        8.305162        8.362576        8.230948
     13       H        2.524007        2.946102        0.761931
     14       H        2.669810        0.893071        2.762977
     15       H        1.239401        2.121189        2.881942
     16       H        1.242209        1.842673        3.164916
     17       H        2.174279        3.203798        0.997655
     18       H        2.122147        3.429047        0.841010
     19       H        2.968417        0.851873        2.573252
     20       H        1.901321        3.289586        1.144272
     21       H        1.033610        2.340224        3.255380
     22       H        5.186618        0.698442        0.729467
     23       H        5.184836        0.707679        0.717384
     24       H        1.053648        2.025317        3.547438
     25       H        2.594450        0.783874        3.240328
     26       H        2.593150        3.287422        0.738726
     27       H        2.499164        3.424204        0.705955
     28       H        2.533611        0.924871        3.170620
     29       H        2.836281        3.032674        0.957344
     30       H        1.809543        4.177450        0.775266
     31       H        2.627048        0.699515        3.458363
     32       H        3.083887        0.885844        2.796078
     33       H        1.996839        3.517592        1.238168
     34       H        2.408427        3.628771        0.754341

 **********************
 *                    *
 * JOB ENDED NORMALLY *
 *                    *
 **********************



 TOTAL JOB TIME:             8.09 SECONDS

 == MOPAC DONE ==
