 *******************************************************************************
 **                                                                           **
 **                              MOPAC v23.1.2                                **
 **                                                                           **
 *******************************************************************************
 **          Digital Object Identifier (DOI): 10.5281/zenodo.6511958          **
 **    Visit the DOI location for information on how to cite this program.    **
 *******************************************************************************

                              PM3 CALCULATION RESULTS

 *******************************************************************************
 *  CALCULATION DONE: (MAX THREADS = 1)              Tue Jun  3 16:29:42 2025  *
 *  PM3        - The PM3 Hamiltonian to be used
 *  PRECISE    - TIGHTER CRITERIA TO BE USED
 *  NOSYM      - POINT-GROUP SYMMETRY SET TO C1
 *  THREADS=1  - MULTI-THREADING NOT USED
 *  T=         - A TIME OF 172800.0 SECONDS REQUESTED
 *  DUMP=N     - RESTART FILE WRITTEN EVERY 7200.0 SECONDS REQUESTED
 *******************************************************************************
pm3  precise nosym THREADS=1
 InChI=1S/C10H12/c1-8-6-7-9-4-2-3-5-10(8)9/h3-8,10H,2H2,1H3

   ATOM   CHEMICAL          X               Y               Z
  NUMBER   SYMBOL      (ANGSTROMS)     (ANGSTROMS)     (ANGSTROMS)

     1       C         -1.51040000  *   0.15310000  *  -0.33260000  *
     2       C         -0.15500000  *  -0.47320000  *   0.06880000  *
     3       C          2.71350000  *  -0.38410000  *   0.09500000  *
     4       C         -2.70050000  *  -0.68980000  *   0.12920000  *
     5       C          0.58120000  *   0.69180000  *   0.64470000  *
     6       C         -1.50320000  *   1.49760000  *   0.34330000  *
     7       C          0.62830000  *  -1.06830000  *  -1.08150000  *
     8       C          1.91540000  *   0.76310000  *   0.66380000  *
     9       C          1.97530000  *  -1.03450000  *  -1.06040000  *
    10       C         -0.32570000  *   1.79620000  *   0.86490000  *
    11       H         -1.57080000  *   0.31060000  *  -1.43260000  *
    12       H         -0.27340000  *  -1.24170000  *   0.86490000  *
    13       H          3.70600000  *  -0.02160000  *  -0.24610000  *
    14       H          2.86660000  *  -1.14280000  *   0.89130000  *
    15       H         -2.65710000  *  -1.69300000  *  -0.34560000  *
    16       H         -3.65100000  *  -0.19950000  *  -0.17070000  *
    17       H         -2.69280000  *  -0.81220000  *   1.23390000  *
    18       H          0.11070000  *  -1.56460000  *  -1.89680000  *
    19       H         -2.33670000  *   2.18820000  *   0.33060000  *
    20       H          2.53910000  *  -1.48940000  *  -1.86890000  *
    21       H          2.41600000  *   1.66880000  *   0.98360000  *
    22       H         -0.07540000  *   2.74520000  *   1.32110000  *



          CARTESIAN COORDINATES 

    NO.       ATOM           X           Y           Z

     1         C         -1.5104      0.1531     -0.3326
     2         C         -0.1550     -0.4732      0.0688
     3         C          2.7135     -0.3841      0.0950
     4         C         -2.7005     -0.6898      0.1292
     5         C          0.5812      0.6918      0.6447
     6         C         -1.5032      1.4976      0.3433
     7         C          0.6283     -1.0683     -1.0815
     8         C          1.9154      0.7631      0.6638
     9         C          1.9753     -1.0345     -1.0604
    10         C         -0.3257      1.7962      0.8649
    11         H         -1.5708      0.3106     -1.4326
    12         H         -0.2734     -1.2417      0.8649
    13         H          3.7060     -0.0216     -0.2461
    14         H          2.8666     -1.1428      0.8913
    15         H         -2.6571     -1.6930     -0.3456
    16         H         -3.6510     -0.1995     -0.1707
    17         H         -2.6928     -0.8122      1.2339
    18         H          0.1107     -1.5646     -1.8968
    19         H         -2.3367      2.1882      0.3306
    20         H          2.5391     -1.4894     -1.8689
    21         H          2.4160      1.6688      0.9836
    22         H         -0.0754      2.7452      1.3211

  H: (PM3): J. J. P. STEWART, J. COMP. CHEM. 10, 209 (1989).
  C: (PM3): J. J. P. STEWART, J. COMP. CHEM. 10, 209 (1989).

           Empirical Formula: C10 H12  =    22 atoms



      MOLECULAR POINT GROUP   :   C1  


      RHF CALCULATION, NO. OF DOUBLY OCCUPIED LEVELS = 26


          Geometry optimization using EF

          DIAGONAL MATRIX USED AS START HESSIAN

 CYCLE:     1 TIME:   0.008 TIME LEFT:  2.00D  GRAD.:    85.649 HEAT:  38.43230
 CYCLE:     2 TIME:   0.016 TIME LEFT:  2.00D  GRAD.:    60.298 HEAT:  36.85120
 CYCLE:     3 TIME:   0.008 TIME LEFT:  2.00D  GRAD.:    44.356 HEAT:  36.09277
 CYCLE:     4 TIME:   0.012 TIME LEFT:  2.00D  GRAD.:    24.720 HEAT:  35.65222
 CYCLE:     5 TIME:   0.008 TIME LEFT:  2.00D  GRAD.:    27.313 HEAT:  35.35190
 CYCLE:     6 TIME:   0.008 TIME LEFT:  2.00D  GRAD.:    31.978 HEAT:  35.09453
 CYCLE:     7 TIME:   0.012 TIME LEFT:  2.00D  GRAD.:    29.838 HEAT:  34.83935
 CYCLE:     8 TIME:   0.008 TIME LEFT:  2.00D  GRAD.:    17.774 HEAT:  34.67726
 CYCLE:     9 TIME:   0.008 TIME LEFT:  2.00D  GRAD.:    19.737 HEAT:  34.61449
 CYCLE:    10 TIME:   0.012 TIME LEFT:  2.00D  GRAD.:    23.761 HEAT:  34.57303
 CYCLE:    11 TIME:   0.004 TIME LEFT:  2.00D  GRAD.:    23.212 HEAT:  34.54484
 CYCLE:    12 TIME:   0.012 TIME LEFT:  2.00D  GRAD.:     9.193 HEAT:  34.42857
 CYCLE:    13 TIME:   0.012 TIME LEFT:  2.00D  GRAD.:     7.593 HEAT:  34.40683
 CYCLE:    14 TIME:   0.008 TIME LEFT:  2.00D  GRAD.:     7.257 HEAT:  34.38715
 CYCLE:    15 TIME:   0.004 TIME LEFT:  2.00D  GRAD.:     7.741 HEAT:  34.36307
 CYCLE:    16 TIME:   0.008 TIME LEFT:  2.00D  GRAD.:    11.923 HEAT:  34.35634
 CYCLE:    17 TIME:   0.008 TIME LEFT:  2.00D  GRAD.:     7.024 HEAT:  34.31032
 CYCLE:    18 TIME:   0.008 TIME LEFT:  2.00D  GRAD.:     8.188 HEAT:  34.30054
 CYCLE:    19 TIME:   0.008 TIME LEFT:  2.00D  GRAD.:     4.136 HEAT:  34.27390
 CYCLE:    20 TIME:   0.008 TIME LEFT:  2.00D  GRAD.:     9.840 HEAT:  34.27182
 CYCLE:    21 TIME:   0.008 TIME LEFT:  2.00D  GRAD.:     6.272 HEAT:  34.24916
 CYCLE:    22 TIME:   0.008 TIME LEFT:  2.00D  GRAD.:     8.642 HEAT:  34.24698
 CYCLE:    23 TIME:   0.008 TIME LEFT:  2.00D  GRAD.:     5.402 HEAT:  34.23145
 CYCLE:    24 TIME:   0.008 TIME LEFT:  2.00D  GRAD.:     6.594 HEAT:  34.22738
 CYCLE:    25 TIME:   0.004 TIME LEFT:  2.00D  GRAD.:     3.912 HEAT:  34.21776
 CYCLE:    26 TIME:   0.008 TIME LEFT:  2.00D  GRAD.:     3.242 HEAT:  34.21093
 CYCLE:    27 TIME:   0.008 TIME LEFT:  2.00D  GRAD.:     2.210 HEAT:  34.20397
 CYCLE:    28 TIME:   0.008 TIME LEFT:  2.00D  GRAD.:     4.382 HEAT:  34.19888
 CYCLE:    29 TIME:   0.004 TIME LEFT:  2.00D  GRAD.:     3.039 HEAT:  34.19129
 CYCLE:    30 TIME:   0.008 TIME LEFT:  2.00D  GRAD.:     3.100 HEAT:  34.18549
 CYCLE:    31 TIME:   0.008 TIME LEFT:  2.00D  GRAD.:     2.628 HEAT:  34.17866
 CYCLE:    32 TIME:   0.008 TIME LEFT:  2.00D  GRAD.:     2.969 HEAT:  34.16987
 CYCLE:    33 TIME:   0.008 TIME LEFT:  2.00D  GRAD.:     4.150 HEAT:  34.16469
 CYCLE:    34 TIME:   0.004 TIME LEFT:  2.00D  GRAD.:     1.694 HEAT:  34.15779
 CYCLE:    35 TIME:   0.008 TIME LEFT:  2.00D  GRAD.:     1.814 HEAT:  34.15326
 CYCLE:    36 TIME:   0.008 TIME LEFT:  2.00D  GRAD.:     2.275 HEAT:  34.14864
 CYCLE:    37 TIME:   0.008 TIME LEFT:  2.00D  GRAD.:     1.961 HEAT:  34.14281
 CYCLE:    38 TIME:   0.008 TIME LEFT:  2.00D  GRAD.:     1.666 HEAT:  34.13648
 CYCLE:    39 TIME:   0.008 TIME LEFT:  2.00D  GRAD.:     1.761 HEAT:  34.13210
 CYCLE:    40 TIME:   0.004 TIME LEFT:  2.00D  GRAD.:     1.721 HEAT:  34.12682
 CYCLE:    41 TIME:   0.008 TIME LEFT:  2.00D  GRAD.:     1.529 HEAT:  34.11999
 CYCLE:    42 TIME:   0.008 TIME LEFT:  2.00D  GRAD.:     1.361 HEAT:  34.11466
 CYCLE:    43 TIME:   0.004 TIME LEFT:  2.00D  GRAD.:     1.281 HEAT:  34.10970
 CYCLE:    44 TIME:   0.008 TIME LEFT:  2.00D  GRAD.:     1.181 HEAT:  34.10676
 CYCLE:    45 TIME:   0.008 TIME LEFT:  2.00D  GRAD.:     1.085 HEAT:  34.10406
 CYCLE:    46 TIME:   0.004 TIME LEFT:  2.00D  GRAD.:     1.048 HEAT:  34.10141
 CYCLE:    47 TIME:   0.008 TIME LEFT:  2.00D  GRAD.:     0.931 HEAT:  34.09856
 CYCLE:    48 TIME:   0.008 TIME LEFT:  2.00D  GRAD.:     0.749 HEAT:  34.09688
 CYCLE:    49 TIME:   0.008 TIME LEFT:  2.00D  GRAD.:     0.663 HEAT:  34.09575
 CYCLE:    50 TIME:   0.004 TIME LEFT:  2.00D  GRAD.:     0.685 HEAT:  34.09477
 CYCLE:    51 TIME:   0.008 TIME LEFT:  2.00D  GRAD.:     0.679 HEAT:  34.09383
 CYCLE:    52 TIME:   0.008 TIME LEFT:  2.00D  GRAD.:     0.567 HEAT:  34.09296
 CYCLE:    53 TIME:   0.008 TIME LEFT:  2.00D  GRAD.:     0.504 HEAT:  34.09218
 CYCLE:    54 TIME:   0.004 TIME LEFT:  2.00D  GRAD.:     0.553 HEAT:  34.09144
 CYCLE:    55 TIME:   0.008 TIME LEFT:  2.00D  GRAD.:     0.574 HEAT:  34.09064
 CYCLE:    56 TIME:   0.004 TIME LEFT:  2.00D  GRAD.:     0.499 HEAT:  34.08994
 CYCLE:    57 TIME:   0.012 TIME LEFT:  2.00D  GRAD.:     0.381 HEAT:  34.08937
 CYCLE:    58 TIME:   0.008 TIME LEFT:  2.00D  GRAD.:     0.319 HEAT:  34.08897
 CYCLE:    59 TIME:   0.004 TIME LEFT:  2.00D  GRAD.:     0.276 HEAT:  34.08871
 CYCLE:    60 TIME:   0.008 TIME LEFT:  2.00D  GRAD.:     0.232 HEAT:  34.08854
 CYCLE:    61 TIME:   0.008 TIME LEFT:  2.00D  GRAD.:     0.211 HEAT:  34.08841
 CYCLE:    62 TIME:   0.004 TIME LEFT:  2.00D  GRAD.:     0.215 HEAT:  34.08827
 CYCLE:    63 TIME:   0.012 TIME LEFT:  2.00D  GRAD.:     0.205 HEAT:  34.08814
 CYCLE:    64 TIME:   0.008 TIME LEFT:  2.00D  GRAD.:     0.170 HEAT:  34.08803
 CYCLE:    65 TIME:   0.008 TIME LEFT:  2.00D  GRAD.:     0.140 HEAT:  34.08797
 CYCLE:    66 TIME:   0.008 TIME LEFT:  2.00D  GRAD.:     0.132 HEAT:  34.08792
 CYCLE:    67 TIME:   0.008 TIME LEFT:  2.00D  GRAD.:     0.137 HEAT:  34.08789
 CYCLE:    68 TIME:   0.008 TIME LEFT:  2.00D  GRAD.:     0.087 HEAT:  34.08786
 CYCLE:    69 TIME:   0.004 TIME LEFT:  2.00D  GRAD.:     0.094 HEAT:  34.08784
 CYCLE:    70 TIME:   0.008 TIME LEFT:  2.00D  GRAD.:     0.068 HEAT:  34.08782
 CYCLE:    71 TIME:   0.004 TIME LEFT:  2.00D  GRAD.:     0.035 HEAT:  34.08781

     GRADIENT =  0.03455 IS LESS THAN CUTOFF =  0.05000



 -------------------------------------------------------------------------------
 pm3  precise nosym THREADS=1
 InChI=1S/C10H12/c1-8-6-7-9-4-2-3-5-10(8)9/h3-8,10H,2H2,1H3



     GEOMETRY OPTIMISED USING EIGENVECTOR FOLLOWING (EF).     
     SCF FIELD WAS ACHIEVED                                   


                              PM3 CALCULATION
                                                       MOPAC v23.1.2 MacOS
                                                       Tue Jun  3 16:29:43 2025




          FINAL HEAT OF FORMATION =         34.08781 KCAL/MOL =     142.62342 KJ/MOL


          COSMO AREA              =        177.04 SQUARE ANGSTROMS
          COSMO VOLUME            =        181.39 CUBIC ANGSTROMS

          GRADIENT NORM           =          0.03455          =       0.00737 PER ATOM
          IONIZATION POTENTIAL    =          8.842482 EV
          HOMO LUMO ENERGIES (EV) =         -8.842  0.309
          NO. OF FILLED LEVELS    =         26
          MOLECULAR WEIGHT        =        132.2048         POINT GROUP:  C1  

          MOLECULAR DIMENSIONS (Angstroms)

            Atom       Atom       Distance
            H    16    H    13     7.31740
            H    22    H    20     5.43718
            H    14    H    11     2.85591


          SCF CALCULATIONS        =         80

          WALL-CLOCK TIME         =      0.551 SECONDS
          COMPUTATION TIME        =      0.368 SECONDS




   ATOM   CHEMICAL          X               Y               Z
  NUMBER   SYMBOL      (ANGSTROMS)     (ANGSTROMS)     (ANGSTROMS)

     1       C         -1.51824088  *   0.17903691  *  -0.34131086  *
     2       C         -0.15510876  *  -0.43549367  *   0.07019024  *
     3       C          2.72633272  *  -0.35293243  *   0.03393981  *
     4       C         -2.69505597  *  -0.69223872  *   0.04176596  *
     5       C          0.61893433  *   0.74014130  *   0.61546791  *
     6       C         -1.53419227  *   1.50593550  *   0.37660227  *
     7       C          0.61095748  *  -1.12089914  *  -1.00621841  *
     8       C          1.95413664  *   0.77719877  *   0.62434712  *
     9       C          1.94699572  *  -1.09657884  *  -0.99997100  *
    10       C         -0.33991647  *   1.80234630  *   0.91804929  *
    11       H         -1.53804264  *   0.36508836  *  -1.44161742  *
    12       H         -0.30911883  *  -1.17872220  *   0.89251599  *
    13       H          3.66585501  *   0.03082004  *  -0.40949575  *
    14       H          3.03036935  *  -1.05654869  *   0.83644075  *
    15       H         -2.64558815  *  -1.66487575  *  -0.46466549  *
    16       H         -3.64525666  *  -0.21847222  *  -0.23657788  *
    17       H         -2.72863840  *  -0.88436355  *   1.12253840  *
    18       H          0.03723655  *  -1.65195373  *  -1.77222791  *
    19       H         -2.43825828  *   2.11266762  *   0.41540325  *
    20       H          2.52727381  *  -1.62596213  *  -1.76264643  *
    21       H          2.51003326  *   1.63337585  *   1.01712576  *
    22       H         -0.07065831  *   2.69840772  *   1.47597657  *

                             CARTESIAN COORDINATES

   1    C       -1.518240883     0.179036908    -0.341310861
   2    C       -0.155108763    -0.435493672     0.070190240
   3    C        2.726332718    -0.352932431     0.033939809
   4    C       -2.695055965    -0.692238725     0.041765956
   5    C        0.618934332     0.740141300     0.615467910
   6    C       -1.534192273     1.505935496     0.376602269
   7    C        0.610957479    -1.120899145    -1.006218408
   8    C        1.954136638     0.777198774     0.624347124
   9    C        1.946995725    -1.096578842    -0.999971004
  10    C       -0.339916472     1.802346303     0.918049294
  11    H       -1.538042642     0.365088357    -1.441617421
  12    H       -0.309118835    -1.178722203     0.892515987
  13    H        3.665855015     0.030820044    -0.409495750
  14    H        3.030369346    -1.056548688     0.836440751
  15    H       -2.645588146    -1.664875751    -0.464665491
  16    H       -3.645256664    -0.218472215    -0.236577877
  17    H       -2.728638397    -0.884363555     1.122538395
  18    H        0.037236547    -1.651953731    -1.772227913
  19    H       -2.438258285     2.112667617     0.415403249
  20    H        2.527273805    -1.625962130    -1.762646430
  21    H        2.510033256     1.633375849     1.017125760
  22    H       -0.070658308     2.698407720     1.475976568


           Empirical Formula: C10 H12  =    22 atoms



      MOLECULAR POINT GROUP   :   C1  


                  EIGENVALUES  
 -41.83852 -35.82088 -31.73136 -28.88808 -27.17675 -23.70627 -21.28708 -20.12674
 -19.29352 -17.17292 -16.82929 -15.95998 -15.68984 -14.93265 -14.61035 -14.40018
 -13.69820 -13.66283 -13.09715 -12.74457 -12.20322 -12.02926 -11.74853 -11.13010
  -9.83156  -8.84248   0.30899   1.07887   1.94914   3.22568   3.30336   3.44425
   3.52127   3.58928   3.67579   3.87542   3.94080   4.01658   4.11603   4.33683
   4.38839   4.46266   4.51578   4.57225   4.87165   4.97027   5.09318   5.42451
   5.63196   5.84151   6.08178   6.30005


              NET ATOMIC CHARGES AND DIPOLE CONTRIBUTIONS

  ATOM NO.   TYPE          CHARGE      No. of ELECS.   s-Pop       p-Pop       
    1          C          -0.043846        4.0438     1.17164     2.87221
    2          C          -0.013386        4.0134     1.16019     2.85319
    3          C          -0.019353        4.0194     1.13308     2.88627
    4          C          -0.104632        4.1046     1.13884     2.96580
    5          C          -0.098310        4.0983     1.19182     2.90649
    6          C          -0.140605        4.1406     1.20794     2.93267
    7          C          -0.138830        4.1388     1.19400     2.94483
    8          C          -0.135739        4.1357     1.18882     2.94692
    9          C          -0.148983        4.1490     1.19582     2.95316
   10          C          -0.098614        4.0986     1.18395     2.91466
   11          H           0.075866        0.9241     0.92413
   12          H           0.084372        0.9156     0.91563
   13          H           0.056016        0.9440     0.94398
   14          H           0.064026        0.9360     0.93597
   15          H           0.040019        0.9600     0.95998
   16          H           0.039898        0.9601     0.96010
   17          H           0.043341        0.9567     0.95666
   18          H           0.105069        0.8949     0.89493
   19          H           0.112863        0.8871     0.88714
   20          H           0.099749        0.9003     0.90025
   21          H           0.106509        0.8935     0.89349
   22          H           0.114571        0.8854     0.88543
 DIPOLE           X         Y         Z       TOTAL
 POINT-CHG.    -0.129    -0.178    -0.056     0.227
 HYBRID         0.011     0.019    -0.041     0.047
 SUM           -0.118    -0.159    -0.097     0.220


          ATOMIC ORBITAL ELECTRON POPULATIONS

     Atom    s        px        py        pz   
    1  C   1.17164   0.94085   0.93513   0.99623
    2  C   1.16019   0.93417   0.95315   0.96587
    3  C   1.13308   0.96614   0.95475   0.96538
    4  C   1.13884   0.96915   0.98717   1.00947
    5  C   1.19182   0.94759   0.95757   1.00132
    6  C   1.20794   0.97501   0.97379   0.98386
    7  C   1.19400   0.95640   1.00035   0.98809
    8  C   1.18882   0.94647   0.98945   1.01100
    9  C   1.19582   0.95821   1.00224   0.99271
   10  C   1.18395   0.94300   0.97207   0.99959
   11  H   0.92413
   12  H   0.91563
   13  H   0.94398
   14  H   0.93597
   15  H   0.95998
   16  H   0.96010
   17  H   0.95666
   18  H   0.89493
   19  H   0.88714
   20  H   0.90025
   21  H   0.89349
   22  H   0.88543
 *******************************************************************************
 **                                                                           **
 **                              MOPAC v23.1.2                                **
 **                                                                           **
 *******************************************************************************
 **          Digital Object Identifier (DOI): 10.5281/zenodo.6511958          **
 **    Visit the DOI location for information on how to cite this program.    **
 *******************************************************************************

                              PM3 CALCULATION RESULTS

 *******************************************************************************
 *  CALCULATION DONE: (MAX THREADS = 1)              Tue Jun  3 16:29:43 2025  *
 *  PM3        - The PM3 Hamiltonian to be used
 *  OLDGEO     - PREVIOUS GEOMETRY TO BE USED
 *  PRECISE    - TIGHTER CRITERIA TO BE USED
 *  NOSYM      - POINT-GROUP SYMMETRY SET TO C1
 *  THREADS=1  - MULTI-THREADING NOT USED
 *  T=         - A TIME OF 172800.0 SECONDS REQUESTED
 *  DUMP=N     - RESTART FILE WRITTEN EVERY 7200.0 SECONDS REQUESTED
 *  THERMO     - THERMODYNAMIC QUANTITIES TO BE CALCULATED
 *******************************************************************************
oldgeo thermo nosym precise THREADS=1  pm3
 InChI=1S/C10H12/c1-8-6-7-9-4-2-3-5-10(8)9/h3-8,10H,2H2,1H3

   ATOM   CHEMICAL          X               Y               Z
  NUMBER   SYMBOL      (ANGSTROMS)     (ANGSTROMS)     (ANGSTROMS)

     1       C         -1.51824088  *   0.17903691  *  -0.34131086  *
     2       C         -0.15510876  *  -0.43549367  *   0.07019024  *
     3       C          2.72633272  *  -0.35293243  *   0.03393981  *
     4       C         -2.69505597  *  -0.69223872  *   0.04176596  *
     5       C          0.61893433  *   0.74014130  *   0.61546791  *
     6       C         -1.53419227  *   1.50593550  *   0.37660227  *
     7       C          0.61095748  *  -1.12089914  *  -1.00621841  *
     8       C          1.95413664  *   0.77719877  *   0.62434712  *
     9       C          1.94699572  *  -1.09657884  *  -0.99997100  *
    10       C         -0.33991647  *   1.80234630  *   0.91804929  *
    11       H         -1.53804264  *   0.36508836  *  -1.44161742  *
    12       H         -0.30911883  *  -1.17872220  *   0.89251599  *
    13       H          3.66585501  *   0.03082004  *  -0.40949575  *
    14       H          3.03036935  *  -1.05654869  *   0.83644075  *
    15       H         -2.64558815  *  -1.66487575  *  -0.46466549  *
    16       H         -3.64525666  *  -0.21847222  *  -0.23657788  *
    17       H         -2.72863840  *  -0.88436355  *   1.12253840  *
    18       H          0.03723655  *  -1.65195373  *  -1.77222791  *
    19       H         -2.43825828  *   2.11266762  *   0.41540325  *
    20       H          2.52727381  *  -1.62596213  *  -1.76264643  *
    21       H          2.51003326  *   1.63337585  *   1.01712576  *
    22       H         -0.07065831  *   2.69840772  *   1.47597657  *



          CARTESIAN COORDINATES 

    NO.       ATOM           X           Y           Z

     1         C         -1.5182      0.1790     -0.3413
     2         C         -0.1551     -0.4355      0.0702
     3         C          2.7263     -0.3529      0.0339
     4         C         -2.6951     -0.6922      0.0418
     5         C          0.6189      0.7401      0.6155
     6         C         -1.5342      1.5059      0.3766
     7         C          0.6110     -1.1209     -1.0062
     8         C          1.9541      0.7772      0.6243
     9         C          1.9470     -1.0966     -1.0000
    10         C         -0.3399      1.8023      0.9180
    11         H         -1.5380      0.3651     -1.4416
    12         H         -0.3091     -1.1787      0.8925
    13         H          3.6659      0.0308     -0.4095
    14         H          3.0304     -1.0565      0.8364
    15         H         -2.6456     -1.6649     -0.4647
    16         H         -3.6453     -0.2185     -0.2366
    17         H         -2.7286     -0.8844      1.1225
    18         H          0.0372     -1.6520     -1.7722
    19         H         -2.4383      2.1127      0.4154
    20         H          2.5273     -1.6260     -1.7626
    21         H          2.5100      1.6334      1.0171
    22         H         -0.0707      2.6984      1.4760

  H: (PM3): J. J. P. STEWART, J. COMP. CHEM. 10, 209 (1989).
  C: (PM3): J. J. P. STEWART, J. COMP. CHEM. 10, 209 (1989).

           Empirical Formula: C10 H12  =    22 atoms



      MOLECULAR POINT GROUP   :   C1  


      RHF CALCULATION, NO. OF DOUBLY OCCUPIED LEVELS = 26



          HEAT OF FORMATION =      34.087814 KCALS/MOLE


          CARTESIAN COORDINATE DERIVATIVES

   NUMBER  ATOM         X            Y            Z

     1       C     -0.000636    -0.001301    -0.002613
     2       C     -0.001529     0.002271    -0.002818
     3       C     -0.006164     0.004839     0.004311
     4       C     -0.000540    -0.001324    -0.000815
     5       C     -0.001059     0.003943    -0.000361
     6       C      0.001671    -0.004686     0.000238
     7       C     -0.001932     0.006736    -0.002846
     8       C     -0.003801    -0.001456     0.002228
     9       C     -0.001672     0.001949     0.002443
    10       C      0.001078     0.004992     0.002111
    11       H     -0.004249    -0.004232    -0.000585
    12       H      0.006455    -0.000583    -0.006538
    13       H      0.004755     0.002081     0.001032
    14       H     -0.012270    -0.001343     0.003828
    15       H     -0.010392    -0.004439    -0.002037
    16       H     -0.001815     0.003520     0.004884
    17       H      0.007484     0.001759    -0.003717
    18       H      0.003800    -0.010643    -0.002996
    19       H      0.003242    -0.002887     0.000862
    20       H      0.007510    -0.001763    -0.001506
    21       H      0.005651    -0.006374     0.002627
    22       H      0.004414     0.008942     0.002268



          GRADIENT NORM =   0.03511

          MOLECULAR WEIGHT =  132.20



          ROTATIONAL CONSTANTS IN CM(-1)

          A =    0.08536281   B =    0.03900934   C =    0.02854025



           PRINCIPAL MOMENTS OF INERTIA IN UNITS OF 10**(-40)*GRAM-CM**2

          A =      327.9268   B =      717.5909   C =      980.8165


          ORIENTATION OF MOLECULE IN FORCE CALCULATION

    NO.       ATOM         X         Y         Z

     1          C      -1.5789   -0.5585   -0.2609
     2          C      -0.0280   -0.5585   -0.2609
     3          C       2.4623    0.8938   -0.2609
     4          C      -2.1663   -1.9451   -0.4123
     5          C       0.3312    0.4146    0.8358
     6          C      -1.9282    0.0664    1.0672
     7          C       0.6313   -0.1812   -1.5409
     8          C       1.4924    1.0744    0.8566
     9          C       1.7977    0.4708   -1.5292
    10          C      -0.8522    0.5943    1.6763
    11          H      -1.9619    0.0972   -1.0788
    12          H       0.3493   -1.5739    0.0199
    13          H       3.0184    1.8372   -0.4261
    14          H       3.2213    0.1355    0.0227
    15          H      -1.8718   -2.3946   -1.3694
    16          H      -3.2631   -1.9157   -0.3803
    17          H      -1.8330   -2.6213    0.3863
    18          H       0.1342   -0.4782   -2.4696
    19          H      -2.9530    0.0635    1.4371
    20          H       2.3151    0.7238   -2.4603
    21          H       1.7460    1.7814    1.6517
    22          H      -0.8226    1.1147    2.6328


    FIRST DERIVATIVES WILL BE USED IN THE CALCULATION OF SECOND DERIVATIVES

          ESTIMATED TIME TO COMPLETE CALCULATION =        2.06 SECONDS

    FOR POINT-GROUP C1   THERE ARE   1 UNIQUE SYMMETRY FUNCTIONS.

 STEP:   1 TIME =     0.02 SECS, INTEGRAL =      0.02 TIME LEFT: 172799.97
 STEP:   2 TIME =     0.02 SECS, INTEGRAL =      0.04 TIME LEFT: 172799.95
 STEP:   3 TIME =     0.02 SECS, INTEGRAL =      0.06 TIME LEFT: 172799.93
 STEP:   4 TIME =     0.02 SECS, INTEGRAL =      0.08 TIME LEFT: 172799.91
 STEP:   5 TIME =     0.02 SECS, INTEGRAL =      0.10 TIME LEFT: 172799.89
 STEP:   6 TIME =     0.02 SECS, INTEGRAL =      0.12 TIME LEFT: 172799.87
 STEP:   7 TIME =     0.02 SECS, INTEGRAL =      0.14 TIME LEFT: 172799.85
 STEP:   8 TIME =     0.02 SECS, INTEGRAL =      0.17 TIME LEFT: 172799.82
 STEP:   9 TIME =     0.02 SECS, INTEGRAL =      0.19 TIME LEFT: 172799.80
 STEP:  10 TIME =     0.02 SECS, INTEGRAL =      0.21 TIME LEFT: 172799.78
 STEP:  11 TIME =     0.02 SECS, INTEGRAL =      0.24 TIME LEFT: 172799.75
 STEP:  12 TIME =     0.02 SECS, INTEGRAL =      0.26 TIME LEFT: 172799.73
 STEP:  13 TIME =     0.02 SECS, INTEGRAL =      0.29 TIME LEFT: 172799.71
 STEP:  14 TIME =     0.02 SECS, INTEGRAL =      0.30 TIME LEFT: 172799.69
 STEP:  15 TIME =     0.02 SECS, INTEGRAL =      0.32 TIME LEFT: 172799.67
 STEP:  16 TIME =     0.02 SECS, INTEGRAL =      0.35 TIME LEFT: 172799.64
 STEP:  17 TIME =     0.02 SECS, INTEGRAL =      0.37 TIME LEFT: 172799.62
 STEP:  18 TIME =     0.02 SECS, INTEGRAL =      0.39 TIME LEFT: 172799.60
 STEP:  19 TIME =     0.02 SECS, INTEGRAL =      0.41 TIME LEFT: 172799.58
 STEP:  20 TIME =     0.02 SECS, INTEGRAL =      0.44 TIME LEFT: 172799.55
 STEP:  21 TIME =     0.02 SECS, INTEGRAL =      0.46 TIME LEFT: 172799.53
 STEP:  22 TIME =     0.02 SECS, INTEGRAL =      0.48 TIME LEFT: 172799.51
 STEP:  23 TIME =     0.02 SECS, INTEGRAL =      0.51 TIME LEFT: 172799.48
 STEP:  24 TIME =     0.02 SECS, INTEGRAL =      0.53 TIME LEFT: 172799.46
 STEP:  25 TIME =     0.02 SECS, INTEGRAL =      0.55 TIME LEFT: 172799.44
 STEP:  26 TIME =     0.02 SECS, INTEGRAL =      0.57 TIME LEFT: 172799.42
 STEP:  27 TIME =     0.02 SECS, INTEGRAL =      0.60 TIME LEFT: 172799.39
 STEP:  28 TIME =     0.02 SECS, INTEGRAL =      0.62 TIME LEFT: 172799.37
 STEP:  29 TIME =     0.02 SECS, INTEGRAL =      0.64 TIME LEFT: 172799.35
 STEP:  30 TIME =     0.02 SECS, INTEGRAL =      0.67 TIME LEFT: 172799.32
 STEP:  31 TIME =     0.02 SECS, INTEGRAL =      0.69 TIME LEFT: 172799.30
 STEP:  32 TIME =     0.02 SECS, INTEGRAL =      0.71 TIME LEFT: 172799.28
 STEP:  33 TIME =     0.02 SECS, INTEGRAL =      0.73 TIME LEFT: 172799.26
 STEP:  34 TIME =     0.02 SECS, INTEGRAL =      0.76 TIME LEFT: 172799.23
 STEP:  35 TIME =     0.02 SECS, INTEGRAL =      0.78 TIME LEFT: 172799.21
 STEP:  36 TIME =     0.02 SECS, INTEGRAL =      0.80 TIME LEFT: 172799.19
 STEP:  37 TIME =     0.02 SECS, INTEGRAL =      0.82 TIME LEFT: 172799.17
 STEP:  38 TIME =     0.02 SECS, INTEGRAL =      0.84 TIME LEFT: 172799.15
 STEP:  39 TIME =     0.02 SECS, INTEGRAL =      0.86 TIME LEFT: 172799.13
 STEP:  40 TIME =     0.02 SECS, INTEGRAL =      0.89 TIME LEFT: 172799.11
 STEP:  41 TIME =     0.02 SECS, INTEGRAL =      0.91 TIME LEFT: 172799.08
 STEP:  42 TIME =     0.02 SECS, INTEGRAL =      0.93 TIME LEFT: 172799.06
 STEP:  43 TIME =     0.02 SECS, INTEGRAL =      0.95 TIME LEFT: 172799.04
 STEP:  44 TIME =     0.02 SECS, INTEGRAL =      0.97 TIME LEFT: 172799.02
 STEP:  45 TIME =     0.02 SECS, INTEGRAL =      1.00 TIME LEFT: 172799.00
 STEP:  46 TIME =     0.02 SECS, INTEGRAL =      1.01 TIME LEFT: 172798.98
 STEP:  47 TIME =     0.02 SECS, INTEGRAL =      1.04 TIME LEFT: 172798.96
 STEP:  48 TIME =     0.03 SECS, INTEGRAL =      1.06 TIME LEFT: 172798.93
 STEP:  49 TIME =     0.02 SECS, INTEGRAL =      1.09 TIME LEFT: 172798.91
 STEP:  50 TIME =     0.02 SECS, INTEGRAL =      1.11 TIME LEFT: 172798.88
 STEP:  51 TIME =     0.02 SECS, INTEGRAL =      1.13 TIME LEFT: 172798.86
 STEP:  52 TIME =     0.02 SECS, INTEGRAL =      1.15 TIME LEFT: 172798.84
 STEP:  53 TIME =     0.02 SECS, INTEGRAL =      1.17 TIME LEFT: 172798.82
 STEP:  54 TIME =     0.02 SECS, INTEGRAL =      1.20 TIME LEFT: 172798.80
 STEP:  55 TIME =     0.02 SECS, INTEGRAL =      1.21 TIME LEFT: 172798.78
 STEP:  56 TIME =     0.02 SECS, INTEGRAL =      1.23 TIME LEFT: 172798.76
 STEP:  57 TIME =     0.02 SECS, INTEGRAL =      1.26 TIME LEFT: 172798.73
 STEP:  58 TIME =     0.02 SECS, INTEGRAL =      1.28 TIME LEFT: 172798.71
 STEP:  59 TIME =     0.02 SECS, INTEGRAL =      1.30 TIME LEFT: 172798.69
 STEP:  60 TIME =     0.02 SECS, INTEGRAL =      1.32 TIME LEFT: 172798.67
 STEP:  61 TIME =     0.02 SECS, INTEGRAL =      1.34 TIME LEFT: 172798.65
 STEP:  62 TIME =     0.02 SECS, INTEGRAL =      1.37 TIME LEFT: 172798.62
 STEP:  63 TIME =     0.02 SECS, INTEGRAL =      1.39 TIME LEFT: 172798.60
 STEP:  64 TIME =     0.02 SECS, INTEGRAL =      1.41 TIME LEFT: 172798.58
 STEP:  65 TIME =     0.02 SECS, INTEGRAL =      1.44 TIME LEFT: 172798.55
 STEP:  66 TIME =     0.02 SECS, INTEGRAL =      1.46 TIME LEFT: 172798.53

(To convert to Hartree/Bohr^2, multiply by (10^(-21) x N x a0^2)/(4.184 x 627.51) =  0.0642)


           FORCE MATRIX IN MILLIDYNES/ANGSTROM


                  C  1       C  2       C  3       C  4       C  5       C  6
 ------------------------------------------------------------------------------
     C    1  14.585878
     C    2   3.264798  15.044312
     C    3   0.015213   0.197937  14.907745
     C    4   4.373059   0.574353   0.001053  14.431581
     C    5   0.847285   4.177760   0.941154   0.050233  19.566412
     C    6   4.270262   0.895140   0.016593   0.650080   1.504991  18.085156
     C    7   0.541191   4.884756   0.852544   0.026067   0.747469   0.041483
     C    8   0.049870   0.768933   4.817180   0.008154  10.339995   0.103105
     C    9   0.047754   0.909664   4.750469   0.004135   0.100020   0.008524
     C   10   1.110437   0.900323   0.132607   0.045979   5.305127  10.179646
     H   11   4.245801   0.435077   0.001238   0.427263   0.018136   0.399347
     H   12   0.443426   4.139938   0.018570   0.057495   0.412108   0.015294
     H   13   0.001594   0.012987   4.466821   0.000236   0.046623   0.002326
     H   14   0.002458   0.020329   4.360836   0.000619   0.029287   0.001905
     H   15   0.453795   0.016574   0.000294   4.741801   0.003331   0.050740
     H   16   0.452506   0.046365   0.000228   4.744840   0.007882   0.020889
     H   17   0.468053   0.023050   0.000247   4.727825   0.002144   0.014360
     H   18   0.018858   0.434984   0.121827   0.002788   0.039081   0.002602
     H   19   0.414480   0.040178   0.009291   0.012138   0.115132   5.023946
     H   20   0.011485   0.120882   0.428998   0.001039   0.006163   0.001807
     H   21   0.012182   0.110392   0.429093   0.001576   0.460701   0.008491
     H   22   0.114491   0.039902   0.003653   0.016029   0.431093   0.446217


                  C  7       C  8       C  9       C 10       H 11       H 12
 ------------------------------------------------------------------------------
     C    7  18.159371
     C    8   0.080507  18.089019
     C    9  10.548749   0.747638  18.029774
     C   10   0.045119   0.845089   0.005600  18.519738
     H   11   0.031745   0.002875   0.003558   0.035370   4.724182
     H   12   0.393999   0.024317   0.031381   0.018178   0.032935   4.606912
     H   13   0.047157   0.427168   0.429246   0.014309   0.000275   0.002231
     H   14   0.028304   0.419040   0.419600   0.018970   0.000469   0.007573
     H   15   0.002407   0.000927   0.000636   0.008030   0.028112   0.007271
     H   16   0.003587   0.001907   0.001082   0.002892   0.030196   0.002740
     H   17   0.001309   0.000712   0.000644   0.002587   0.046333   0.028864
     H   18   4.860763   0.006065   0.447211   0.005752   0.017863   0.012628
     H   19   0.005958   0.009647   0.001819   0.444128   0.010329   0.001456
     H   20   0.445245   0.041511   4.853403   0.002202   0.000676   0.015798
     H   21   0.009461   4.885079   0.041382   0.072331   0.001587   0.014642
     H   22   0.005596   0.011694   0.000899   5.027154   0.015037   0.001037


                  H 13       H 14       H 15       H 16       H 17       H 18
 ------------------------------------------------------------------------------
     H   13   5.041896
     H   14   0.564608   4.955104
     H   15   0.000138   0.000237   5.468769
     H   16   0.000056   0.000125   0.566068   5.475386
     H   17   0.000076   0.000135   0.571140   0.573883   5.464259
     H   18   0.012472   0.017369   0.005753   0.000614   0.000707   5.240587
     H   19   0.000990   0.001486   0.001826   0.008602   0.002369   0.000627
     H   20   0.036658   0.013575   0.000253   0.000270   0.000146   0.068155
     H   21   0.035406   0.012737   0.000238   0.000337   0.000168   0.001983
     H   22   0.000663   0.000675   0.002637   0.000640   0.000744   0.001217


                  H 19       H 20       H 21       H 22
 ------------------------------------------------------
     H   19   5.417938
     H   20   0.000586   5.226700
     H   21   0.003932   0.005459   5.262844
     H   22   0.046804   0.000354   0.006925   5.420744


          HEAT OF FORMATION =      34.087814 KCALS/MOLE

          ZERO POINT ENERGY     118.940 KCAL/MOL


           NORMAL COORDINATE ANALYSIS (Total motion = 1 Angstrom)


   Root No.       1         2         3         4         5         6         7         8

                 1 A       2 A       3 A       4 A       5 A       6 A       7 A       8 A   

                  81.2     156.6     172.0     244.2     267.7     313.7     408.3     435.4
  
           1   -0.0036    0.0023    0.0013   -0.0218   -0.0104   -0.0067   -0.0023    0.0252
           2   -0.0111    0.0021   -0.0031    0.0136    0.0159   -0.0298   -0.0171   -0.0104
           3   -0.0045   -0.0128   -0.0079   -0.0064    0.0027    0.0151    0.0141   -0.0170
           4   -0.0040    0.0039    0.0025   -0.0201   -0.0149   -0.0042   -0.0020    0.0188
           5    0.0118   -0.0170   -0.0086    0.0306    0.0195   -0.0013   -0.0160    0.0194
           6   -0.0154   -0.0049   -0.0049   -0.0340    0.0038   -0.0044    0.0054    0.0233
           7    0.0116   -0.0071   -0.0013    0.0062   -0.0105    0.0152    0.0074    0.0011
           8   -0.0376    0.0331    0.0179    0.0125    0.0092    0.0192    0.0087   -0.0045
           9    0.0138   -0.0046    0.0029    0.0091   -0.0144    0.0016    0.0009   -0.0197
          10    0.0201   -0.0147   -0.0140   -0.0052    0.0496   -0.0401   -0.0035   -0.0168
          11   -0.0267    0.0039   -0.0001    0.0005   -0.0072   -0.0143   -0.0152    0.0042
          12    0.0390    0.0297    0.0184    0.0312   -0.0167   -0.0092   -0.0162    0.0066
          13   -0.0041    0.0099    0.0030   -0.0125   -0.0043   -0.0001    0.0139    0.0007
          14    0.0011   -0.0324   -0.0142    0.0100    0.0032    0.0146   -0.0315    0.0295
          15   -0.0056    0.0062    0.0001   -0.0203    0.0103   -0.0178    0.0122    0.0260
          16   -0.0074   -0.0012   -0.0015   -0.0036   -0.0111    0.0070    0.0031   -0.0052
          17    0.0120    0.0269    0.0132   -0.0177    0.0176   -0.0284    0.0222   -0.0190
          18   -0.0166   -0.0256   -0.0163    0.0149    0.0019    0.0182   -0.0037   -0.0267
          19   -0.0145    0.0080    0.0098    0.0153   -0.0151    0.0049   -0.0269   -0.0162
          20    0.0433   -0.0063   -0.0040    0.0149   -0.0071    0.0099    0.0444    0.0206
          21   -0.0124   -0.0000   -0.0002   -0.0206   -0.0001    0.0022    0.0095    0.0094
          22    0.0088    0.0039   -0.0001   -0.0103    0.0184    0.0240   -0.0108    0.0195
          23   -0.0216   -0.0221   -0.0091    0.0044   -0.0375   -0.0275    0.0145    0.0019
          24    0.0094    0.0124    0.0072   -0.0049    0.0197    0.0153   -0.0164    0.0058
          25   -0.0028   -0.0054    0.0043    0.0429   -0.0069    0.0086    0.0153    0.0039
          26    0.0228    0.0174    0.0060   -0.0329   -0.0238    0.0059   -0.0309   -0.0196
          27    0.0005    0.0001    0.0041    0.0053   -0.0050    0.0092    0.0110   -0.0149
          28   -0.0090    0.0062    0.0004    0.0035   -0.0085   -0.0021    0.0113   -0.0245
          29    0.0150   -0.0155   -0.0033   -0.0284    0.0123    0.0453    0.0036   -0.0178
          30   -0.0167   -0.0028   -0.0064    0.0101    0.0047   -0.0295   -0.0007    0.0093
          31   -0.0215    0.0145    0.0034   -0.0508   -0.0239   -0.0150    0.0004    0.0449
          32   -0.0396   -0.0160   -0.0130    0.0053    0.0102   -0.0153   -0.0188   -0.0191
          33   -0.0187   -0.0324   -0.0167    0.0026    0.0048    0.0292    0.0098   -0.0342
          34    0.0133   -0.0090    0.0005   -0.0217   -0.0154    0.0061    0.0078    0.0398
          35    0.0129   -0.0246   -0.0104    0.0265    0.0192    0.0042   -0.0252    0.0309
          36   -0.0345   -0.0165   -0.0090   -0.0412    0.0089    0.0004   -0.0450    0.0349
          37    0.0573   -0.0581   -0.0286   -0.0281   -0.0806   -0.0423   -0.0285   -0.0224
          38   -0.0601    0.0639    0.0344    0.0308    0.0488    0.0538    0.0251    0.0063
          39    0.0410   -0.0029    0.0032   -0.0059   -0.0305   -0.0006   -0.0314   -0.0410
          40   -0.0265    0.0366    0.0215    0.0318    0.0503    0.0649    0.0351    0.0222
          41   -0.0807    0.0687    0.0384    0.0497    0.0617    0.0607    0.0502    0.0162
          42    0.0008   -0.0275   -0.0041    0.0395   -0.0389   -0.0234    0.0343   -0.0225
          43    0.0212    0.0457   -0.2000    0.0012    0.0727   -0.0373    0.0090   -0.0507
          44   -0.0496   -0.0632    0.0616   -0.0280    0.0273   -0.0136    0.0102   -0.0289
          45    0.0502    0.0800   -0.0674    0.0470   -0.0265   -0.0085   -0.0251    0.0127
          46    0.0198   -0.0164   -0.0083   -0.0057    0.0488   -0.0403   -0.0038   -0.0159
          47   -0.0458    0.0281   -0.0100   -0.0120   -0.0652    0.0214   -0.0162    0.0539
          48    0.0462   -0.0517    0.2367    0.0295   -0.0146   -0.0310   -0.0312    0.0211
          49    0.0380   -0.0863    0.1471    0.0014    0.0862   -0.0781   -0.0137   -0.0362
          50    0.0026    0.0489   -0.0494    0.0311   -0.0068   -0.0335   -0.0371    0.0076
          51    0.0566    0.0977   -0.0902    0.0548   -0.0312   -0.0105   -0.0312    0.0173
          52   -0.0299    0.0188    0.0190    0.0349   -0.0149    0.0110   -0.0655   -0.0544
          53    0.0858   -0.0178   -0.0098    0.0181   -0.0234    0.0193    0.1223    0.0428
          54   -0.0176   -0.0023   -0.0033   -0.0319    0.0049   -0.0040    0.0050    0.0226
          55   -0.0095   -0.0087   -0.0058    0.0042   -0.0126    0.0176   -0.0035   -0.0139
          56    0.0219    0.0659    0.0331   -0.0421    0.0283   -0.0628    0.0790   -0.0430
          57   -0.0224   -0.0463   -0.0274    0.0368   -0.0025    0.0476   -0.0220   -0.0494
          58   -0.0059   -0.0119    0.0057    0.0914    0.0058    0.0093    0.0341    0.0075
          59    0.0493    0.0256    0.0066   -0.0912   -0.0582    0.0014   -0.0771   -0.0516
          60    0.0062   -0.0015    0.0048    0.0160   -0.0076    0.0079    0.0087   -0.0215
          61    0.0169   -0.0006   -0.0057   -0.0117    0.0560    0.0377   -0.0491    0.0658
          62   -0.0307   -0.0380   -0.0166   -0.0133   -0.0835   -0.0668    0.0633   -0.0142
          63    0.0147    0.0283    0.0159    0.0116    0.0490    0.0463   -0.0473    0.0054
          64   -0.0135    0.0079   -0.0004    0.0204   -0.0106   -0.0088    0.0132   -0.0641
          65    0.0265   -0.0238   -0.0027   -0.0645    0.0163    0.1073    0.0305   -0.0529
          66   -0.0227    0.0017   -0.0067    0.0291    0.0027   -0.0627   -0.0152    0.0293


   Root No.       9        10        11        12        13        14        15        16

                 9 A      10 A      11 A      12 A      13 A      14 A      15 A      16 A   

                 511.6     533.1     558.2     651.2     734.4     758.7     779.8     795.8
  
           1   -0.0401    0.0036    0.0075   -0.0234   -0.0029   -0.0061   -0.0246    0.0043
           2   -0.0099   -0.0105   -0.0303    0.0081    0.0014    0.0008    0.0091    0.0009
           3   -0.0039   -0.0227    0.0283   -0.0207   -0.0465   -0.0023   -0.0003   -0.0097
           4   -0.0269   -0.0066    0.0103   -0.0153   -0.0178    0.0003    0.0100   -0.0109
           5    0.0109    0.0094    0.0235    0.0283   -0.0021    0.0204   -0.0137    0.0064
           6    0.0152   -0.0141   -0.0114   -0.0013    0.0072   -0.0143    0.0113   -0.0041
           7    0.0426   -0.0286   -0.0244   -0.0076   -0.0203    0.0119   -0.0324    0.0070
           8    0.0082    0.0014   -0.0030    0.0067   -0.0087   -0.0222    0.0039    0.0081
           9   -0.0103    0.0328   -0.0020   -0.0073   -0.0023    0.0077   -0.0060   -0.0027
          10   -0.0157   -0.0075   -0.0178   -0.0089   -0.0072   -0.0064   -0.0076    0.0050
          11   -0.0324   -0.0140   -0.0245   -0.0101   -0.0210   -0.0092   -0.0023    0.0072
          12   -0.0124   -0.0076   -0.0111   -0.0021   -0.0125   -0.0020    0.0001   -0.0013
          13    0.0086    0.0244   -0.0081    0.0349   -0.0298    0.0080    0.0150   -0.0079
          14    0.0250    0.0325    0.0085   -0.0327    0.0028    0.0002   -0.0013    0.0041
          15   -0.0093   -0.0280    0.0120    0.0485    0.0085    0.0269   -0.0008   -0.0040
          16   -0.0121    0.0448    0.0005    0.0097    0.0646    0.0020   -0.0123    0.0154
          17    0.0201    0.0080    0.0294   -0.0203    0.0110   -0.0008    0.0010   -0.0298
          18   -0.0107   -0.0238    0.0047   -0.0057   -0.0118    0.0012    0.0037    0.0067
          19    0.0094   -0.0479    0.0190    0.0016    0.0128    0.0098    0.0239   -0.0008
          20   -0.0049   -0.0182   -0.0013    0.0032    0.0072   -0.0273   -0.0074   -0.0063
          21    0.0351   -0.0243   -0.0280    0.0034    0.0291   -0.0326    0.0114    0.0067
          22    0.0256    0.0163   -0.0064    0.0144   -0.0282    0.0080    0.0018   -0.0085
          23    0.0081    0.0393    0.0017    0.0152   -0.0214    0.0056    0.0228    0.0061
          24   -0.0193    0.0510    0.0134    0.0145   -0.0175    0.0068    0.0266   -0.0169
          25   -0.0001   -0.0462    0.0153   -0.0016    0.0137    0.0014    0.0283   -0.0008
          26    0.0164   -0.0265    0.0070    0.0067    0.0025   -0.0130   -0.0128   -0.0065
          27    0.0128    0.0417   -0.0275   -0.0101   -0.0129    0.0043   -0.0353    0.0099
          28    0.0078    0.0480    0.0022    0.0004    0.0205   -0.0085    0.0075    0.0050
          29   -0.0272   -0.0090   -0.0007    0.0085    0.0395    0.0053   -0.0083   -0.0220
          30    0.0036   -0.0145    0.0286   -0.0100    0.0462    0.0162   -0.0243    0.0192
          31   -0.0499   -0.0075   -0.0042   -0.0508   -0.0135   -0.0324   -0.0218   -0.0143
          32   -0.0343   -0.0267   -0.0430    0.0041   -0.0205   -0.0050    0.0145    0.0272
          33   -0.0178   -0.0312    0.0219   -0.0098   -0.0577    0.0057    0.0044    0.0196
          34   -0.0437    0.0065    0.0402   -0.0450   -0.0357   -0.0135   -0.0226   -0.0142
          35    0.0137    0.0219    0.0331    0.0041   -0.0008    0.0175   -0.0162    0.0118
          36    0.0491    0.0147   -0.0152   -0.0454    0.0368   -0.0084    0.0429    0.0226
          37    0.0637   -0.0201    0.0095    0.0482   -0.0426   -0.0861   -0.0006    0.0350
          38   -0.0041   -0.0125   -0.0199   -0.0267    0.0093    0.0309   -0.0172   -0.0098
          39   -0.0101   -0.0156    0.0220   -0.0018    0.0274   -0.0374   -0.0084   -0.0083
          40    0.0310   -0.0349   -0.0561   -0.0510   -0.0127    0.0983   -0.0720   -0.0172
          41   -0.0079   -0.0015   -0.0354   -0.0432    0.0048    0.0695   -0.0184   -0.0042
          42   -0.0209    0.0423    0.0002   -0.0189    0.0114    0.0113    0.0410    0.0323
          43    0.0042   -0.0174   -0.0138   -0.0090   -0.0255   -0.0058    0.0178   -0.0113
          44   -0.0130   -0.0284    0.0080   -0.0308   -0.0706   -0.0108    0.0073   -0.0235
          45   -0.0162   -0.0039   -0.0261    0.0080    0.0054   -0.0011    0.0032    0.0092
          46   -0.0167   -0.0072   -0.0183   -0.0093   -0.0068   -0.0068   -0.0085    0.0058
          47   -0.0673   -0.0018    0.0062   -0.0339   -0.0318   -0.0140   -0.0572    0.0200
          48   -0.0216   -0.0034   -0.0353    0.0082    0.0101   -0.0034   -0.0030    0.0155
          49   -0.0026   -0.0118   -0.0546    0.0108    0.0123   -0.0064    0.0225    0.0095
          50   -0.0353   -0.0092   -0.0705    0.0169    0.0183   -0.0089    0.0147    0.0312
          51   -0.0206   -0.0022   -0.0367    0.0132    0.0137   -0.0019    0.0028    0.0179
          52    0.0234   -0.0357    0.0468    0.0500   -0.0143   -0.0309   -0.0895   -0.0146
          53   -0.0201   -0.0165   -0.0623   -0.1010    0.0424    0.0706    0.1521    0.0324
          54    0.0321   -0.0309   -0.0230    0.0105    0.0323   -0.0422    0.0212    0.0016
          55   -0.0098    0.0526   -0.0162    0.0163    0.0788   -0.0034    0.0043   -0.0281
          56    0.0637    0.0197    0.1152   -0.0312   -0.0743    0.0093   -0.0016    0.1693
          57   -0.0031   -0.0036   -0.0409    0.0138    0.0243   -0.0123    0.0497   -0.1129
          58   -0.0412   -0.0161    0.0588    0.0426   -0.0085   -0.0898   -0.0215   -0.0369
          59    0.0300   -0.0406   -0.0224   -0.0772    0.0257    0.1933    0.0814    0.0298
          60   -0.0064    0.0546   -0.0113   -0.0083   -0.0184    0.0090   -0.0376   -0.0000
          61    0.0399    0.0282    0.0268    0.0010   -0.0185   -0.0229    0.0574    0.0442
          62   -0.0039   -0.0032   -0.0314    0.0710   -0.0409    0.1073   -0.0517   -0.0889
          63   -0.0128    0.0842    0.0321   -0.0304   -0.0036   -0.0727    0.0752    0.0503
          64    0.0144    0.0606    0.0049   -0.0520    0.0235   -0.0421    0.0190   -0.0494
          65   -0.0911   -0.0495    0.0013    0.0854    0.0016    0.0185   -0.0017    0.1841
          66    0.0383    0.0071    0.0278   -0.0497    0.0671    0.0106   -0.0282   -0.0909


   Root No.      17        18        19        20        21        22        23        24

                17 A      18 A      19 A      20 A      21 A      22 A      23 A      24 A   

                 861.7     916.5     932.0     951.9     965.8     979.3     997.7    1025.4
  
           1    0.0071    0.0113    0.0088   -0.0060   -0.0035    0.0025   -0.0028    0.0050
           2   -0.0017   -0.0064   -0.0034   -0.0010    0.0028    0.0022   -0.0018   -0.0059
           3    0.0040    0.0085    0.0005    0.0122   -0.0032   -0.0020    0.0033    0.0036
           4   -0.0055   -0.0151   -0.0146   -0.0091    0.0125   -0.0124    0.0083    0.0011
           5   -0.0056    0.0367    0.0172   -0.0109    0.0111   -0.0123    0.0236    0.0126
           6   -0.0141    0.0017   -0.0043   -0.0056    0.0084   -0.0057    0.0091   -0.0022
           7    0.0198   -0.0098    0.0005   -0.0064    0.0079   -0.0138   -0.0056   -0.0373
           8    0.0326   -0.0102    0.0297   -0.0049    0.0027   -0.0218   -0.0086    0.0104
           9   -0.0076    0.0023   -0.0059   -0.0010    0.0044   -0.0039    0.0061   -0.0185
          10    0.0019    0.0174    0.0145   -0.0074   -0.0085    0.0181   -0.0071   -0.0109
          11   -0.0027    0.0035   -0.0006    0.0178   -0.0020   -0.0062    0.0031    0.0054
          12    0.0020    0.0102    0.0015    0.0347    0.0037   -0.0026    0.0011   -0.0015
          13    0.0045    0.0060   -0.0036   -0.0025   -0.0030    0.0045    0.0097   -0.0022
          14   -0.0158   -0.0177   -0.0015    0.0099   -0.0022    0.0051   -0.0218    0.0020
          15    0.0210   -0.0006   -0.0066   -0.0025   -0.0022    0.0027    0.0167    0.0006
          16   -0.0028   -0.0017    0.0018    0.0293   -0.0104   -0.0092    0.0053   -0.0035
          17    0.0143    0.0034   -0.0051   -0.0129    0.0287    0.0081   -0.0168    0.0008
          18   -0.0061   -0.0100    0.0020   -0.0305   -0.0088    0.0053   -0.0007    0.0002
          19   -0.0052   -0.0008    0.0075    0.0066   -0.0023    0.0159    0.0050    0.0072
          20   -0.0161    0.0084   -0.0226   -0.0027   -0.0076   -0.0090   -0.0147    0.0075
          21   -0.0205    0.0235    0.0029    0.0067   -0.0158    0.0058   -0.0143    0.0147
          22   -0.0022   -0.0127    0.0079    0.0016   -0.0036    0.0024   -0.0103    0.0060
          23    0.0127    0.0009   -0.0252    0.0003   -0.0079    0.0185   -0.0029   -0.0175
          24   -0.0181   -0.0138    0.0161    0.0021   -0.0074   -0.0051   -0.0355   -0.0134
          25   -0.0043    0.0067   -0.0007    0.0005   -0.0068   -0.0070   -0.0129    0.0082
          26   -0.0139   -0.0104   -0.0047    0.0068    0.0068    0.0215    0.0200   -0.0195
          27    0.0191   -0.0020   -0.0007   -0.0001    0.0020    0.0125    0.0136    0.0429
          28   -0.0164    0.0109   -0.0000   -0.0001    0.0093   -0.0007    0.0014    0.0040
          29    0.0186   -0.0090    0.0037   -0.0027   -0.0348   -0.0062    0.0163   -0.0046
          30    0.0162   -0.0228   -0.0022    0.0042    0.0152    0.0048   -0.0249   -0.0064
          31    0.0014   -0.0233   -0.0266   -0.0575    0.0356   -0.0127   -0.0214    0.0536
          32   -0.0153   -0.0502   -0.0203   -0.0212   -0.0442   -0.0209    0.0215   -0.0018
          33   -0.0049   -0.0126    0.0022    0.0179   -0.0591   -0.0136    0.0310   -0.0161
          34   -0.0101   -0.0179   -0.0343   -0.0375    0.0415   -0.0742    0.0266    0.0738
          35   -0.0190    0.0338    0.0230   -0.0248    0.0516   -0.0423    0.0703    0.0313
          36   -0.0556    0.0011    0.0480   -0.0172    0.1148   -0.0299    0.1546   -0.0337
          37    0.1180   -0.0347    0.0773   -0.0192    0.0077   -0.0636   -0.0353   -0.0047
          38   -0.0287    0.0025   -0.0090    0.0041    0.0074    0.0037    0.0136   -0.0131
          39   -0.0226   -0.0064    0.0433    0.0071    0.0289   -0.0323    0.0272   -0.0343
          40   -0.0545   -0.0026   -0.0579    0.0032    0.0116    0.0289    0.0089   -0.0773
          41   -0.0237    0.0197   -0.0501   -0.0061    0.0011   -0.0029    0.0165   -0.0602
          42    0.0513    0.0605   -0.0566   -0.0314   -0.0087   -0.0714    0.0347   -0.0976
          43    0.0008   -0.0152   -0.0277    0.1054    0.0197   -0.0419    0.0126    0.0219
          44    0.0118    0.0372   -0.0099    0.2034    0.0316   -0.0374    0.0116    0.0123
          45   -0.0057   -0.0160   -0.0064   -0.0216   -0.0049   -0.0056    0.0035    0.0051
          46    0.0018    0.0180    0.0155   -0.0102   -0.0097    0.0195   -0.0077   -0.0114
          47    0.0127    0.1167    0.0908   -0.0567   -0.0385    0.0986   -0.0312   -0.0587
          48   -0.0068   -0.0080    0.0052   -0.0535   -0.0159    0.0113   -0.0018   -0.0045
          49   -0.0142   -0.0635   -0.0405   -0.0140    0.0020   -0.0424    0.0139    0.0330
          50   -0.0247   -0.0746   -0.0354   -0.0878   -0.0177   -0.0352    0.0166    0.0341
          51   -0.0106   -0.0255   -0.0065   -0.0551   -0.0146   -0.0030    0.0041    0.0054
          52   -0.0088    0.0123   -0.0731    0.0027   -0.0350    0.0282   -0.0348    0.0981
          53    0.0528   -0.0673    0.1171    0.0331    0.0282    0.0915    0.0615    0.0400
          54   -0.0413    0.0410    0.0011   -0.0025   -0.0100   -0.0317   -0.0165   -0.0415
          55    0.0063    0.0115   -0.0081    0.0117    0.0276   -0.0018    0.0002    0.0011
          56   -0.1108   -0.0436    0.0218   -0.0323   -0.1212   -0.0173    0.0583   -0.0009
          57    0.0203    0.0247   -0.0258   -0.0793    0.0951    0.0264   -0.0152    0.0120
          58   -0.0380   -0.0675   -0.0036    0.0221    0.0376    0.0726    0.0863   -0.0139
          59    0.0241    0.0827   -0.0400   -0.0243   -0.0347   -0.0584   -0.0457    0.0832
          60    0.0106   -0.0170   -0.0116    0.0033    0.0154    0.0343    0.0511    0.0590
          61    0.0758   -0.0005   -0.1048    0.0086   -0.0356    0.0935    0.0370    0.0604
          62   -0.1173   -0.0468    0.0838    0.0151    0.0010   -0.0070   -0.0595    0.0334
          63    0.0725    0.0239   -0.0452   -0.0131   -0.0056   -0.0109   -0.0015   -0.0772
          64   -0.0428    0.0386    0.0199   -0.0912   -0.0024   -0.0096    0.0197    0.0317
          65   -0.0299   -0.0002   -0.0220    0.0010    0.1635    0.0291   -0.0931    0.0067
          66    0.0437   -0.0296    0.0110    0.0037   -0.0917   -0.0137    0.0330   -0.0137


   Root No.      25        26        27        28        29        30        31        32

                25 A      26 A      27 A      28 A      29 A      30 A      31 A      32 A   

                1039.9    1054.0    1058.7    1073.4    1091.7    1116.2    1122.7    1145.3
  
           1   -0.0053    0.0067    0.0021    0.0157    0.0045    0.0197    0.0061    0.0024
           2    0.0030   -0.0034   -0.0045    0.0048    0.0109   -0.0134    0.0383   -0.0057
           3   -0.0067    0.0097    0.0221    0.0015   -0.0019    0.0231   -0.0201    0.0123
           4   -0.0088    0.0031   -0.0057   -0.0116   -0.0008   -0.0373    0.0215   -0.0032
           5   -0.0240    0.0142   -0.0095    0.0056   -0.0003    0.0140    0.0105    0.0075
           6    0.0046   -0.0070    0.0003   -0.0038    0.0082   -0.0020    0.0045    0.0104
           7   -0.0099   -0.0080   -0.0063    0.0048   -0.0082    0.0002   -0.0021   -0.0033
           8    0.0088   -0.0029    0.0030   -0.0078    0.0106   -0.0051    0.0006    0.0007
           9   -0.0056   -0.0005   -0.0005   -0.0052    0.0112    0.0027   -0.0043   -0.0049
          10    0.0090   -0.0059    0.0059   -0.0103   -0.0028   -0.0068   -0.0053   -0.0013
          11    0.0006   -0.0018   -0.0064   -0.0083   -0.0103    0.0029   -0.0420    0.0073
          12    0.0045   -0.0052   -0.0099    0.0024    0.0026   -0.0054    0.0204   -0.0077
          13    0.0006   -0.0032    0.0037    0.0037    0.0055    0.0083   -0.0046    0.0033
          14    0.0053    0.0062    0.0011   -0.0117    0.0098   -0.0001    0.0020    0.0003
          15   -0.0008   -0.0065   -0.0053   -0.0029    0.0004   -0.0025   -0.0022   -0.0094
          16   -0.0012   -0.0006    0.0082   -0.0082   -0.0066    0.0030   -0.0002    0.0021
          17   -0.0047    0.0097    0.0186    0.0003   -0.0017    0.0015   -0.0038    0.0007
          18    0.0068   -0.0094   -0.0262    0.0051    0.0043   -0.0018    0.0023    0.0006
          19   -0.0078    0.0133   -0.0060    0.0029   -0.0097    0.0013    0.0016    0.0005
          20    0.0187   -0.0171    0.0120    0.0055   -0.0032   -0.0055    0.0026   -0.0011
          21   -0.0158    0.0178   -0.0037    0.0015   -0.0078    0.0030   -0.0012   -0.0034
          22    0.0170    0.0092    0.0020   -0.0033    0.0127    0.0023   -0.0044    0.0044
          23   -0.0183   -0.0197   -0.0009    0.0118   -0.0059    0.0031   -0.0074   -0.0031
          24    0.0046   -0.0023   -0.0025    0.0131   -0.0182   -0.0012   -0.0037   -0.0042
          25    0.0049   -0.0134    0.0087    0.0004    0.0025   -0.0013   -0.0025    0.0032
          26    0.0020    0.0209   -0.0088    0.0034   -0.0069    0.0033   -0.0009    0.0026
          27   -0.0028    0.0025    0.0004   -0.0011   -0.0054   -0.0127    0.0116    0.0026
          28   -0.0019    0.0021    0.0037   -0.0030    0.0012    0.0069   -0.0015    0.0025
          29    0.0022   -0.0079   -0.0116    0.0065   -0.0016   -0.0036   -0.0008   -0.0000
          30    0.0044    0.0009   -0.0005    0.0077    0.0015   -0.0083   -0.0054    0.0017
          31    0.0165   -0.0210   -0.0831    0.0415    0.0369    0.2137    0.1130    0.0071
          32   -0.0316    0.0494    0.1444    0.0359    0.0164    0.0260    0.1803   -0.0565
          33   -0.0446    0.0652    0.1824    0.0144   -0.0126   -0.0374    0.0443   -0.0305
          34   -0.0649    0.0431   -0.0284   -0.0648   -0.0721   -0.0983   -0.0446   -0.0686
          35   -0.0087    0.0012    0.0072    0.0072   -0.0443   -0.0093   -0.0209   -0.0300
          36    0.1374   -0.1090    0.0947    0.0778   -0.0554   -0.0010   -0.0245   -0.0348
          37    0.0228   -0.0059   -0.0052    0.0020   -0.0134   -0.0194    0.0087    0.0143
          38   -0.0238   -0.0199    0.0092   -0.0210    0.0450    0.0156   -0.0186   -0.0290
          39   -0.0830   -0.0874    0.0402   -0.0892    0.1839    0.0583   -0.0743   -0.1191
          40   -0.0528   -0.0322   -0.0105    0.0197   -0.0233    0.0043   -0.0080   -0.0043
          41    0.0297    0.0412   -0.0152   -0.0007    0.0035    0.0102   -0.0100   -0.0089
          42    0.1665    0.1812   -0.0378   -0.0278    0.0344    0.0307   -0.0173   -0.0271
          43   -0.0023   -0.0039   -0.0350    0.0113   -0.0033    0.0146   -0.0097   -0.0016
          44    0.0148   -0.0230   -0.0678    0.0050   -0.0038   -0.0118    0.0137   -0.0172
          45   -0.0060    0.0061    0.0094    0.0022   -0.0013    0.0085   -0.0090    0.0039
          46    0.0094   -0.0060    0.0072   -0.0113   -0.0033   -0.0054   -0.0067   -0.0011
          47    0.0394   -0.0264    0.0300   -0.0559   -0.0164   -0.0492   -0.0189   -0.0121
          48   -0.0017    0.0049    0.0240   -0.0071   -0.0041    0.0082   -0.0256    0.0095
          49   -0.0205    0.0163    0.0011    0.0068   -0.0124    0.0412   -0.0735    0.0210
          50   -0.0303    0.0279    0.0313   -0.0098   -0.0284    0.0458   -0.1481    0.0403
          51   -0.0102    0.0118    0.0260   -0.0047   -0.0082    0.0137   -0.0418    0.0122
          52    0.0827   -0.0466    0.0327    0.0423   -0.0742    0.0485   -0.0204   -0.1046
          53   -0.0223    0.0379   -0.0258    0.0152   -0.0382    0.0476   -0.0110   -0.0520
          54   -0.0508    0.0326   -0.0115   -0.0222    0.0366   -0.0398    0.0154    0.0691
          55   -0.0003   -0.0060    0.0090   -0.0744   -0.0353    0.0160    0.0247   -0.0069
          56    0.0244   -0.0486   -0.0817   -0.1054   -0.0367    0.0103    0.0616   -0.0158
          57    0.0098   -0.0243   -0.0240   -0.1760   -0.0736    0.0315    0.0695   -0.0241
          58    0.0330   -0.0041    0.0134   -0.0145    0.0544   -0.0261    0.0072    0.1603
          59    0.0366   -0.0682    0.0445   -0.0128    0.0472   -0.0230    0.0077    0.1048
          60    0.0206   -0.0156    0.0170   -0.0148    0.0391   -0.0339    0.0196    0.1159
          61    0.0395    0.0211   -0.0041   -0.0279    0.0974   -0.0373   -0.0576   -0.0918
          62    0.0512    0.0322    0.0053   -0.0060    0.0209   -0.0057   -0.0203   -0.0256
          63   -0.0641   -0.0528   -0.0061    0.0367   -0.0670    0.0196    0.0228    0.0444
          64   -0.0227    0.0076   -0.0904    0.1776    0.0695   -0.1082   -0.0349   -0.0510
          65   -0.0005    0.0183    0.0032    0.0246    0.0178   -0.0224   -0.0058   -0.0061
          66    0.0068   -0.0140   -0.0070   -0.0070   -0.0109    0.0042   -0.0021    0.0063


   Root No.      33        34        35        36        37        38        39        40

                33 A      34 A      35 A      36 A      37 A      38 A      39 A      40 A   

                1187.1    1193.7    1202.6    1272.5    1300.4    1358.2    1371.9    1386.4
  
           1    0.0142   -0.0321   -0.0031    0.0599    0.0211   -0.0139    0.0208   -0.0086
           2   -0.0244   -0.0078   -0.0124   -0.0076    0.0261   -0.0272   -0.0151    0.0014
           3   -0.0020   -0.0072   -0.0008   -0.0382    0.0100   -0.0244   -0.0343    0.0052
           4   -0.0142   -0.0432    0.0012   -0.0268   -0.0009    0.0292   -0.0198    0.0251
           5    0.0002   -0.0150    0.0021   -0.0104    0.0086    0.0168    0.0019    0.0188
           6   -0.0132    0.0023    0.0294   -0.0304    0.0137   -0.0021    0.0414   -0.0031
           7    0.0106    0.0079    0.0064   -0.0008    0.0073   -0.0139    0.0096    0.0469
           8    0.0066   -0.0001   -0.0007   -0.0069    0.0045   -0.0046    0.0155    0.0041
           9    0.0058   -0.0010   -0.0101   -0.0157    0.0015   -0.0117    0.0508   -0.0120
          10   -0.0016    0.0132    0.0022   -0.0133   -0.0041   -0.0058   -0.0083   -0.0024
          11    0.0090   -0.0032    0.0063    0.0020   -0.0012   -0.0154   -0.0083   -0.0097
          12    0.0028    0.0084    0.0012    0.0080   -0.0025    0.0007    0.0039   -0.0036
          13   -0.0193    0.0012   -0.0072    0.0163   -0.0160    0.0018   -0.0026   -0.0046
          14   -0.0042   -0.0052    0.0205   -0.0035   -0.0092   -0.0090    0.0057   -0.0239
          15    0.0098    0.0028    0.0231   -0.0046   -0.0074   -0.0140    0.0050   -0.0281
          16    0.0033    0.0053    0.0031   -0.0227    0.0066   -0.0070   -0.0114    0.0058
          17   -0.0019   -0.0025   -0.0076    0.0091    0.0007    0.0106    0.0128   -0.0022
          18   -0.0166   -0.0045   -0.0235    0.0206    0.0041    0.0183    0.0261   -0.0057
          19    0.0019   -0.0033   -0.0083   -0.0064   -0.0127   -0.0029   -0.0038   -0.0134
          20    0.0016   -0.0106   -0.0074   -0.0023   -0.0083   -0.0002   -0.0040   -0.0071
          21   -0.0060    0.0054   -0.0055    0.0269    0.0123    0.0118   -0.0188    0.0197
          22   -0.0161    0.0026    0.0028    0.0204   -0.0263   -0.0042   -0.0038   -0.0152
          23    0.0018    0.0092   -0.0045    0.0124   -0.0031    0.0009   -0.0101    0.0069
          24    0.0153    0.0096   -0.0051    0.0007    0.0178    0.0057   -0.0147    0.0223
          25    0.0061    0.0014   -0.0078   -0.0072   -0.0096   -0.0089    0.0062   -0.0143
          26    0.0031    0.0025   -0.0031   -0.0036   -0.0057   -0.0051    0.0018   -0.0072
          27   -0.0007   -0.0190   -0.0109   -0.0077   -0.0210    0.0012   -0.0197   -0.0129
          28   -0.0086    0.0026   -0.0063   -0.0147    0.0122    0.0069    0.0245   -0.0118
          29   -0.0030    0.0041   -0.0070    0.0027   -0.0044    0.0047   -0.0038    0.0054
          30   -0.0020    0.0045   -0.0042    0.0112   -0.0161    0.0058   -0.0140    0.0120
          31    0.0323    0.1268   -0.0342   -0.1009   -0.0476    0.0161   -0.0529    0.0134
          32    0.0448    0.0974    0.0238    0.0095   -0.0429    0.0398    0.0231   -0.0001
          33    0.0443   -0.0018    0.0430    0.0511   -0.0118    0.0159    0.0312   -0.0058
          34   -0.0657    0.2260   -0.0433    0.0469    0.0203   -0.0589    0.0106   -0.0307
          35   -0.0077    0.0811   -0.0431    0.0321    0.0065   -0.0167   -0.0111   -0.0013
          36    0.0318   -0.0232   -0.0765    0.0335   -0.0210   -0.0010   -0.0467    0.0035
          37    0.0452    0.0189    0.0118   -0.0248    0.1014    0.0928   -0.0554   -0.1473
          38   -0.0215   -0.0043    0.0037    0.0206   -0.0422   -0.0473    0.0189    0.1024
          39   -0.0560   -0.0014    0.0295    0.0653    0.0019    0.0485   -0.1083   -0.0121
          40    0.0300    0.0243    0.0049   -0.0106    0.0791    0.0769   -0.0496   -0.1234
          41    0.0063    0.0167    0.0143    0.0057    0.0614    0.0800   -0.0722   -0.1254
          42   -0.0415    0.0041    0.0358    0.0416   -0.0143    0.0050   -0.0517    0.0358
          43    0.0277    0.0027    0.0107    0.0253   -0.0303    0.0629    0.0432    0.0169
          44    0.0343    0.0264    0.0185    0.0311   -0.0539    0.1078    0.0627    0.0326
          45    0.0007   -0.0072   -0.0007    0.0031    0.0106   -0.0275   -0.0108   -0.0128
          46    0.0001    0.0163    0.0031   -0.0151   -0.0090    0.0042   -0.0031    0.0008
          47   -0.0056    0.0864    0.0142   -0.0703   -0.0668    0.1009    0.0342    0.0299
          48    0.0037   -0.0016    0.0059   -0.0225   -0.0111    0.0215   -0.0002    0.0212
          49    0.0235   -0.0128    0.0079    0.0079   -0.0213    0.0425    0.0308    0.0012
          50    0.0278   -0.0244    0.0169   -0.0192   -0.0341    0.0713    0.0261    0.0300
          51    0.0086   -0.0022    0.0077   -0.0182   -0.0196    0.0449    0.0119    0.0256
          52   -0.0864   -0.0101    0.1044    0.0096    0.0687    0.0288    0.0173    0.0480
          53   -0.0453    0.0082    0.0574    0.0027    0.0393    0.0158    0.0125    0.0253
          54    0.0546    0.0024   -0.0856    0.0175   -0.0456   -0.0087   -0.0372   -0.0222
          55    0.0493   -0.0085    0.0347   -0.0014    0.0013   -0.0234   -0.0306    0.0115
          56    0.0512   -0.0237    0.0330    0.0377   -0.0029   -0.0203   -0.0211    0.0069
          57    0.1061   -0.0422    0.0616    0.0808   -0.0150   -0.0234   -0.0264    0.0095
          58    0.0063    0.1034    0.0561    0.0715    0.0626    0.0133   -0.0184    0.0600
          59    0.0043    0.0600    0.0316    0.0412    0.0365    0.0072   -0.0068    0.0325
          60   -0.0009    0.0510    0.0325    0.0482    0.0290    0.0181   -0.0379    0.0383
          61    0.1267    0.0190   -0.0961   -0.0519    0.0848    0.0104    0.0264    0.0666
          62    0.0353    0.0124   -0.0268    0.0009    0.0207    0.0054   -0.0096    0.0254
          63   -0.0586    0.0031    0.0460    0.0356   -0.0389   -0.0037   -0.0255   -0.0187
          64    0.0935    0.0218    0.1426   -0.0109   -0.0458   -0.0439   -0.0544   -0.0071
          65    0.0086    0.0041    0.0205    0.0051   -0.0155   -0.0040   -0.0141    0.0035
          66   -0.0116    0.0044   -0.0234    0.0115   -0.0108    0.0133   -0.0068    0.0131


   Root No.      41        42        43        44        45        46        47        48

                41 A      42 A      43 A      44 A      45 A      46 A      47 A      48 A   

                1400.6    1410.0    1411.3    1422.8    1457.6    1797.9    1857.3    1925.9
  
           1    0.0032   -0.0058   -0.0103   -0.0261    0.0198    0.0098    0.0004   -0.0054
           2    0.0099   -0.0107   -0.0066   -0.0592    0.0037    0.0108    0.0013   -0.0066
           3    0.0041   -0.0064    0.0040   -0.0353   -0.0111    0.0148    0.0041   -0.0051
           4   -0.0026    0.0057    0.0111    0.0160   -0.0395    0.0047   -0.0208   -0.0174
           5   -0.0024    0.0011    0.0168    0.0136    0.0135   -0.0039   -0.0086   -0.0170
           6   -0.0007   -0.0012    0.0110    0.0082    0.0977   -0.0104    0.0234   -0.0082
           7   -0.0011    0.0101   -0.0259    0.0067   -0.0047    0.0042    0.0167    0.0202
           8   -0.0004   -0.0029    0.0103   -0.0012   -0.0188   -0.0005    0.0118    0.0047
           9   -0.0009   -0.0191    0.0613   -0.0093   -0.0596   -0.0036    0.0204   -0.0087
          10   -0.0290   -0.0186   -0.0008    0.0304   -0.0038   -0.0015    0.0001    0.0008
          11    0.0052    0.0138    0.0159    0.0649   -0.0030    0.0014   -0.0001    0.0018
          12   -0.0307    0.0231    0.0076    0.0059    0.0016    0.0027   -0.0002    0.0004
          13    0.0001   -0.0090    0.0327   -0.0037    0.0115   -0.0052   -0.0404    0.2372
          14    0.0009    0.0039   -0.0271   -0.0042   -0.0386    0.0023   -0.0181    0.1122
          15    0.0011    0.0093   -0.0522   -0.0033   -0.0636    0.0008    0.0005   -0.0076
          16    0.0009   -0.0001   -0.0013   -0.0072    0.0013   -0.1846    0.0043   -0.0103
          17   -0.0015    0.0053   -0.0128    0.0132   -0.0065   -0.1047    0.0006   -0.0013
          18   -0.0023    0.0088   -0.0242    0.0198   -0.0100   -0.1296   -0.0003    0.0006
          19    0.0007    0.0010   -0.0080   -0.0005    0.0217    0.0018    0.1943    0.0360
          20    0.0003    0.0007   -0.0039   -0.0007    0.0080    0.0010    0.1075    0.0209
          21   -0.0007   -0.0020    0.0137   -0.0008   -0.0568    0.0023   -0.0323   -0.0041
          22    0.0005   -0.0100    0.0301   -0.0064   -0.0067   -0.0173    0.0315   -0.1940
          23    0.0001   -0.0003    0.0033    0.0005    0.0142   -0.0041    0.0149   -0.0918
          24   -0.0002    0.0090   -0.0239    0.0065    0.0299    0.0078   -0.0049    0.0221
          25    0.0008   -0.0007   -0.0051   -0.0033    0.0252   -0.0034   -0.1935   -0.0361
          26    0.0005    0.0005   -0.0060   -0.0013    0.0175   -0.0018   -0.1099   -0.0196
          27    0.0009    0.0070   -0.0269    0.0027    0.0425   -0.0006   -0.0338   -0.0049
          28   -0.0013    0.0120   -0.0430    0.0153   -0.0184    0.2091    0.0052   -0.0370
          29   -0.0006   -0.0021    0.0128    0.0032    0.0073    0.0906   -0.0022    0.0016
          30   -0.0008   -0.0089    0.0422    0.0011    0.0214    0.0909   -0.0057    0.0210
          31   -0.0080    0.0016    0.0070    0.0347   -0.0540   -0.0225   -0.0029    0.0002
          32   -0.0077    0.0120    0.0092    0.0642    0.0003    0.0032   -0.0038    0.0041
          33   -0.0059    0.0088    0.0082    0.0352    0.0205    0.0161    0.0043   -0.0006
          34    0.0138   -0.0232   -0.0088   -0.0431    0.0418    0.0017    0.0087    0.0126
          35    0.0041   -0.0098    0.0039   -0.0143   -0.0013   -0.0024    0.0053    0.0014
          36    0.0005   -0.0003   -0.0034   -0.0132   -0.0652    0.0047    0.0120   -0.0079
          37    0.0028   -0.0168    0.0378   -0.0104   -0.0009    0.0007    0.0139    0.0268
          38   -0.0019    0.0174   -0.0429    0.0109    0.0039    0.0019    0.0148   -0.0060
          39    0.0017    0.0168   -0.0505    0.0097    0.0732    0.0001    0.0419   -0.0216
          40    0.0025   -0.0159    0.0376   -0.0093    0.0059    0.0010   -0.0013    0.0010
          41    0.0030   -0.0119    0.0242   -0.0081    0.0281   -0.0019   -0.0002   -0.0035
          42    0.0003    0.0188   -0.0549    0.0101    0.0459    0.0001    0.0166   -0.0095
          43    0.3447    0.0209   -0.0094   -0.0470    0.0027   -0.0005   -0.0008    0.0004
          44   -0.1009   -0.1413   -0.0729   -0.0853    0.0122    0.0033   -0.0010    0.0012
          45    0.1453    0.0853    0.0375    0.0425   -0.0033    0.0041    0.0001    0.0003
          46    0.0011   -0.0069   -0.0011    0.0105   -0.0037   -0.0022    0.0002    0.0006
          47    0.0831    0.1173    0.0046   -0.1697   -0.0081   -0.0011    0.0001    0.0002
          48    0.3208   -0.1866   -0.0535    0.0451   -0.0049   -0.0005   -0.0002    0.0000
          49   -0.0241    0.2517    0.0542   -0.1484    0.0034    0.0017    0.0004   -0.0006
          50   -0.1204   -0.0734   -0.0463   -0.1209    0.0037   -0.0005    0.0007   -0.0003
          51   -0.1057   -0.1664   -0.0644   -0.0536    0.0029    0.0004    0.0003   -0.0006
          52   -0.0027   -0.0062    0.0467    0.0071   -0.0519    0.0010    0.0203   -0.0011
          53   -0.0017   -0.0046    0.0291    0.0050   -0.0243    0.0000    0.0185   -0.0024
          54    0.0017    0.0036   -0.0248   -0.0061   -0.0080    0.0038    0.1322    0.0321
          55    0.0022   -0.0105    0.0264   -0.0260    0.0170   -0.1462    0.0053   -0.0146
          56    0.0022   -0.0134    0.0336   -0.0260    0.0195    0.0301   -0.0011    0.0050
          57    0.0018   -0.0205    0.0560   -0.0288    0.0310    0.1106   -0.0034    0.0100
          58   -0.0017    0.0047   -0.0016    0.0036   -0.0636    0.0026   -0.0235    0.0030
          59   -0.0010    0.0009    0.0048    0.0016   -0.0350    0.0011   -0.0083   -0.0000
          60   -0.0009    0.0103   -0.0221    0.0076   -0.0216    0.0039    0.1311    0.0305
          61   -0.0024    0.0016    0.0201    0.0103    0.0396    0.0053    0.0097    0.0163
          62   -0.0006    0.0037   -0.0037    0.0051    0.0268    0.0022    0.0120   -0.0784
          63    0.0013    0.0019   -0.0149   -0.0030    0.0046   -0.0061    0.0145   -0.1140
          64    0.0043   -0.0161    0.0366   -0.0355   -0.0124   -0.0530   -0.0031    0.0262
          65    0.0008   -0.0074    0.0260   -0.0066    0.0077    0.0693   -0.0052    0.0216
          66   -0.0019   -0.0057    0.0359    0.0094    0.0211    0.1597   -0.0064    0.0167


   Root No.      49        50        51        52        53        54        55        56

                49 A      50 A      51 A      52 A      53 A      54 A      55 A      56 A   

                2854.9    2891.3    2937.9    3018.7    3057.1    3076.2    3078.1    3079.7
  
           1   -0.0011   -0.0225    0.0000    0.0000   -0.0001    0.0000    0.0000   -0.0005
           2    0.0036    0.0380   -0.0000   -0.0000    0.0000    0.0000    0.0001    0.0008
           3   -0.0050   -0.0478    0.0000   -0.0000    0.0001   -0.0001   -0.0002   -0.0010
           4    0.0223   -0.0032    0.0001    0.0000   -0.0001   -0.0000   -0.0004    0.0002
           5   -0.0602    0.0058   -0.0006   -0.0003   -0.0001   -0.0000   -0.0004    0.0001
           6    0.0161   -0.0017    0.0002    0.0001    0.0002    0.0001   -0.0000    0.0000
           7    0.0001   -0.0000   -0.0124   -0.0378    0.0018   -0.0003    0.0024   -0.0003
           8   -0.0004    0.0001    0.0561   -0.0139    0.0014   -0.0005    0.0017   -0.0002
           9    0.0001   -0.0000   -0.0155   -0.0012   -0.0003    0.0001   -0.0001    0.0000
          10    0.0004    0.0013    0.0000   -0.0000   -0.0002   -0.0000   -0.0012   -0.0208
          11    0.0001   -0.0002   -0.0000   -0.0000    0.0001    0.0002    0.0011    0.0135
          12    0.0005    0.0018    0.0000    0.0000    0.0006   -0.0022   -0.0049   -0.0371
          13   -0.0005    0.0003    0.0001    0.0005    0.0001    0.0026   -0.0021    0.0002
          14   -0.0009    0.0002    0.0004    0.0001    0.0000    0.0014   -0.0010    0.0001
          15   -0.0006    0.0002    0.0000   -0.0002   -0.0002    0.0001    0.0004   -0.0001
          16   -0.0002   -0.0000    0.0000   -0.0000   -0.0000   -0.0001    0.0001   -0.0003
          17   -0.0001   -0.0005    0.0000    0.0000   -0.0000    0.0000    0.0000    0.0002
          18    0.0000   -0.0009    0.0000    0.0000   -0.0000    0.0000    0.0000    0.0002
          19   -0.0009   -0.0005    0.0001    0.0001    0.0135   -0.0131   -0.0130    0.0023
          20   -0.0005   -0.0001    0.0003    0.0001    0.0082   -0.0077   -0.0077    0.0014
          21    0.0007   -0.0000   -0.0002   -0.0000    0.0267   -0.0193   -0.0190    0.0035
          22    0.0006   -0.0001   -0.0009    0.0003   -0.0006   -0.0102    0.0075   -0.0006
          23    0.0001   -0.0000   -0.0008    0.0020   -0.0012   -0.0230    0.0169   -0.0013
          24    0.0000   -0.0000   -0.0006    0.0025   -0.0010   -0.0244    0.0180   -0.0014
          25    0.0007    0.0000   -0.0010    0.0017    0.0192    0.0106    0.0118   -0.0019
          26    0.0001    0.0001   -0.0005    0.0008    0.0094    0.0055    0.0059   -0.0010
          27    0.0002    0.0000    0.0006   -0.0038   -0.0336   -0.0138   -0.0160    0.0025
          28    0.0001    0.0004   -0.0001   -0.0001   -0.0000   -0.0002    0.0001   -0.0000
          29    0.0000    0.0004    0.0000    0.0000   -0.0000   -0.0001    0.0001   -0.0000
          30    0.0003    0.0001   -0.0000    0.0000   -0.0000   -0.0001    0.0000   -0.0000
          31    0.0248    0.2758   -0.0001   -0.0001   -0.0003    0.0005    0.0007    0.0033
          32   -0.0492   -0.4653    0.0002    0.0001   -0.0001   -0.0004   -0.0014   -0.0114
          33    0.0604    0.5793   -0.0002   -0.0001    0.0008   -0.0001    0.0007    0.0099
          34   -0.2792    0.0311   -0.0023   -0.0010   -0.0001   -0.0002   -0.0007    0.0009
          35    0.7358   -0.0704    0.0046    0.0021    0.0008   -0.0001    0.0008    0.0016
          36   -0.2005    0.0188   -0.0013   -0.0006    0.0004   -0.0002   -0.0006   -0.0005
          37    0.0012   -0.0002   -0.2010    0.2234   -0.0153    0.0045   -0.0171    0.0020
          38    0.0010   -0.0002   -0.3183    0.4348   -0.0279    0.0056   -0.0292    0.0035
          39   -0.0001    0.0000    0.0539   -0.0801    0.0018   -0.0045    0.0055   -0.0005
          40   -0.0055    0.0008    0.3595    0.2292   -0.0073    0.0001   -0.0075    0.0010
          41    0.0047   -0.0007   -0.3573   -0.2712    0.0098   -0.0008    0.0106   -0.0013
          42   -0.0018    0.0003    0.1339    0.0961   -0.0042   -0.0004   -0.0035    0.0005
          43    0.0014    0.0047    0.0000    0.0000    0.0017   -0.0053   -0.0106   -0.0712
          44   -0.0005   -0.0014   -0.0000    0.0000   -0.0028    0.0077    0.0146    0.0912
          45   -0.0018   -0.0101   -0.0000   -0.0000   -0.0056    0.0156    0.0289    0.1710
          46    0.0016   -0.0115    0.0000    0.0000    0.0014    0.0004    0.0113    0.1936
          47    0.0004    0.0043    0.0000    0.0000   -0.0000    0.0001   -0.0001   -0.0034
          48    0.0001    0.0008    0.0000   -0.0000    0.0003   -0.0012   -0.0029   -0.0253
          49   -0.0003   -0.0079    0.0000   -0.0000   -0.0011    0.0056    0.0142    0.1249
          50    0.0034    0.0075    0.0000    0.0000    0.0019   -0.0105   -0.0274   -0.2492
          51   -0.0039   -0.0147   -0.0000   -0.0000   -0.0020    0.0120    0.0320    0.2975
          52    0.0009   -0.0012   -0.0003    0.0021   -0.1662    0.1222    0.1197   -0.0222
          53   -0.0018    0.0007    0.0006    0.0013   -0.0996    0.0730    0.0715   -0.0132
          54   -0.0005    0.0011    0.0004    0.0030   -0.3195    0.2295    0.2244   -0.0413
          55   -0.0016   -0.0024    0.0001    0.0002   -0.0001   -0.0000    0.0002    0.0032
          56    0.0001    0.0009   -0.0000    0.0000    0.0000    0.0000    0.0000   -0.0000
          57    0.0007   -0.0006   -0.0000   -0.0001    0.0000    0.0000   -0.0001   -0.0014
          58    0.0016    0.0000    0.0066   -0.0239   -0.2192   -0.0930   -0.1043    0.0163
          59   -0.0003    0.0001    0.0050   -0.0113   -0.1069   -0.0456   -0.0511    0.0080
          60   -0.0019   -0.0002   -0.0093    0.0379    0.4027    0.1667    0.1872   -0.0292
          61    0.0009    0.0000    0.0043   -0.0103    0.0050    0.0916   -0.0666    0.0053
[...]
 REDUCED MASS        1.6563         C  2 -- C  5          +7.9% ( 43.9%)     74.7%
 EFFECTIVE MASS     10.1306
 FORCE CONSTANT      1.9437

 VIBRATION         44   44A           ATOM PAIR      ENERGY CONTRIBUTION    RADIAL
 FREQUENCY          1422.79         C  1 -- C  4         +22.3% ( 67.8%)     96.2%
 TRANSITION DIPOLE   0.1006         C  4 -- H 17         +14.3% ( 54.3%)      3.5%
 TRAVEL (Ang.)       0.1660         C  4 -- H 16         +12.6% ( 51.0%)      4.4%
 REDUCED MASS        1.7207         C  1 -- C  6         +11.1% ( 47.9%)     63.6%
 EFFECTIVE MASS      7.3895         C  1 -- H 11         +10.5% ( 46.5%)      0.0%
 FORCE CONSTANT      2.0522         C  1 -- C  2         +10.0% ( 45.4%)     19.7%

 VIBRATION         45   45A           ATOM PAIR      ENERGY CONTRIBUTION    RADIAL
 FREQUENCY          1457.60         C  2 -- C  7         +16.2% ( 64.8%)     91.0%
 TRANSITION DIPOLE   0.0182         C  2 -- C  5         +16.1% ( 64.7%)     61.3%
 TRAVEL (Ang.)       0.1440         C  2 -- H 12          +9.8% ( 50.4%)      0.0%
 REDUCED MASS        2.2303         C  1 -- C  2          +9.6% ( 49.9%)     22.8%
 EFFECTIVE MASS     11.0904
 FORCE CONSTANT      2.7919

 VIBRATION         46   46A           ATOM PAIR      ENERGY CONTRIBUTION    RADIAL
 FREQUENCY          1797.88         C  6 -- C 10         +40.2% (100.5%)    100.0%
 TRANSITION DIPOLE   0.1716         C  1 -- C  6         +12.5% ( 56.0%)     23.4%
 TRAVEL (Ang.)       0.0834         C  5 -- C  6         +12.1% ( 55.2%)     53.1%
 REDUCED MASS        5.3896         C  5 -- C 10         +11.8% ( 54.5%)     19.9%
 EFFECTIVE MASS     11.9274         C  6 -- H 19         +11.6% ( 54.0%)     10.6%
 FORCE CONSTANT     10.2644         C 10 -- H 22         +11.2% ( 53.0%)     10.9%

 VIBRATION         47   47A           ATOM PAIR      ENERGY CONTRIBUTION    RADIAL
 FREQUENCY          1857.35         C  7 -- C  9         +42.9% ( 97.2%)    100.0%
 TRANSITION DIPOLE   0.1197         C  2 -- C  7         +13.7% ( 54.8%)     47.4%
 TRAVEL (Ang.)       0.0842         C  3 -- C  9         +13.6% ( 54.7%)     49.0%
 REDUCED MASS        5.1182         C  9 -- H 20         +12.6% ( 52.7%)      5.2%
 EFFECTIVE MASS     11.8871         C  7 -- H 18         +12.5% ( 52.5%)      5.6%
 FORCE CONSTANT     10.4029

 VIBRATION         48   48A           ATOM PAIR      ENERGY CONTRIBUTION    RADIAL
 FREQUENCY          1925.93         C  5 -- C  8         +36.0% ( 96.1%)     98.8%
 TRANSITION DIPOLE   0.1985         C  5 -- C 10         +15.3% ( 62.6%)     57.2%
 TRAVEL (Ang.)       0.0806         C  2 -- C  5         +14.5% ( 61.0%)     25.6%
 REDUCED MASS        5.3940         C  5 -- C  6         +14.2% ( 60.4%)     92.1%
 EFFECTIVE MASS     11.9194
 FORCE CONSTANT     11.7881

 VIBRATION         49   49A           ATOM PAIR      ENERGY CONTRIBUTION    RADIAL
 FREQUENCY          2854.87         C  2 -- H 12         +96.0% ( 99.5%)    100.0%
 TRANSITION DIPOLE   0.1202         C  1 -- C  2          +1.0% ( 10.2%)     10.8%
 TRAVEL (Ang.)       0.1610         C  1 -- H 11          +1.0% ( 10.1%)     99.5%
 REDUCED MASS        0.9113         C  2 -- C  7          +1.0% ( 10.0%)      7.6%
 EFFECTIVE MASS      1.4324
 FORCE CONSTANT      4.3763

 VIBRATION         50   50A           ATOM PAIR      ENERGY CONTRIBUTION    RADIAL
 FREQUENCY          2891.33         C  1 -- H 11         +95.9% ( 99.4%)    100.0%
 TRANSITION DIPOLE   0.1078         C  1 -- C  4          +1.0% ( 10.2%)      9.6%
 TRAVEL (Ang.)       0.1601         C  1 -- C  6          +1.0% ( 10.2%)      9.7%
 REDUCED MASS        0.9097         C  1 -- C  2          +1.0% ( 10.1%)     10.6%
 EFFECTIVE MASS      1.4377
 FORCE CONSTANT      4.4808

 VIBRATION         51   51A           ATOM PAIR      ENERGY CONTRIBUTION    RADIAL
 FREQUENCY          2937.92         C  3 -- H 14         +62.8% ( 82.1%)     97.8%
 TRANSITION DIPOLE   0.0434         C  3 -- H 13         +34.9% ( 61.3%)     94.6%
 TRAVEL (Ang.)       0.2032         C  3 -- C  8          +1.1% ( 10.8%)      0.3%
 REDUCED MASS        0.5557         C  3 -- C  9          +1.1% ( 10.8%)      0.2%
 EFFECTIVE MASS      1.5317
 FORCE CONSTANT      2.8260

 VIBRATION         52   52A           ATOM PAIR      ENERGY CONTRIBUTION    RADIAL
 FREQUENCY          3018.67         C  3 -- H 13         +63.8% ( 78.9%)     99.0%
 TRANSITION DIPOLE   0.0976         C  3 -- H 14         +33.9% ( 57.5%)     95.1%
 TRAVEL (Ang.)       0.2086         C  3 -- C  9          +0.7% (  8.2%)     21.5%
 REDUCED MASS        0.5131         C  3 -- C  8          +0.7% (  8.2%)     23.4%
 EFFECTIVE MASS      1.2900
 FORCE CONSTANT      2.7549

 VIBRATION         53   53A           ATOM PAIR      ENERGY CONTRIBUTION    RADIAL
 FREQUENCY          3057.13         C  9 -- H 20         +59.6% ( 78.4%)    100.0%
 TRANSITION DIPOLE   0.2901         C  7 -- H 18         +37.6% ( 62.2%)    100.0%
 TRAVEL (Ang.)       0.2133         C  7 -- C  9          +1.1% ( 10.6%)      0.7%
 REDUCED MASS        0.4847         C  3 -- C  9          +0.8% (  9.1%)     22.7%
 EFFECTIVE MASS      1.4584
 FORCE CONSTANT      2.6691

 VIBRATION         54   54A           ATOM PAIR      ENERGY CONTRIBUTION    RADIAL
 FREQUENCY          3076.19         C  8 -- H 21         +56.9% ( 76.6%)    100.0%
 TRANSITION DIPOLE   0.4260         C  7 -- H 18         +25.9% ( 51.7%)     99.9%
 TRAVEL (Ang.)       0.2323         C  9 -- H 20         +13.7% ( 37.5%)     99.8%
 REDUCED MASS        0.4061         C  5 -- C  8          +0.9% (  9.8%)     40.9%
 EFFECTIVE MASS      1.5452
 FORCE CONSTANT      2.2641

 VIBRATION         55   55A           ATOM PAIR      ENERGY CONTRIBUTION    RADIAL
 FREQUENCY          3078.06         C  8 -- H 21         +39.3% ( 63.6%)    100.0%
 TRANSITION DIPOLE   0.2165         C  7 -- H 18         +32.5% ( 57.8%)     99.9%
 TRAVEL (Ang.)       0.2655         C  9 -- H 20         +22.6% ( 48.3%)     99.9%
 REDUCED MASS        0.3107         C  7 -- C  9          +1.2% ( 11.1%)     99.0%
 EFFECTIVE MASS      1.5748
 FORCE CONSTANT      1.7345

 VIBRATION         56   56A           ATOM PAIR      ENERGY CONTRIBUTION    RADIAL
 FREQUENCY          3079.65         C  4 -- H 17         +64.7% ( 83.0%)     98.9%
 TRANSITION DIPOLE   0.0130         C  4 -- H 15         +17.2% ( 42.8%)     85.1%
 TRAVEL (Ang.)       0.2094         C  4 -- H 16         +15.5% ( 40.6%)     83.2%
 REDUCED MASS        0.4992         C  1 -- C  4          +1.0% ( 10.3%)      0.0%
 EFFECTIVE MASS      1.5062
 FORCE CONSTANT      2.7895

 VIBRATION         57   57A           ATOM PAIR      ENERGY CONTRIBUTION    RADIAL
 FREQUENCY          3084.08         C  4 -- H 16         +49.3% ( 72.5%)     97.2%
 TRANSITION DIPOLE   0.0220         C  4 -- H 15         +48.4% ( 71.8%)     96.9%
 TRAVEL (Ang.)       0.2075         C  1 -- C  4          +1.0% ( 10.5%)      0.0%
 REDUCED MASS        0.5080         C  4 -- H 17          +1.0% ( 10.4%)      1.2%
 EFFECTIVE MASS      1.5086
 FORCE CONSTANT      2.8468

 VIBRATION         58   58A           ATOM PAIR      ENERGY CONTRIBUTION    RADIAL
 FREQUENCY          3117.53         C  6 -- H 19         +53.3% ( 74.4%)    100.0%
 TRANSITION DIPOLE   0.3862         C 10 -- H 22         +43.3% ( 67.1%)    100.0%
 TRAVEL (Ang.)       0.2146         C  6 -- C 10          +1.1% ( 10.9%)      0.2%
 REDUCED MASS        0.4698         C  5 -- C  6          +0.8% (  9.1%)     92.7%
 EFFECTIVE MASS      1.4679
 FORCE CONSTANT      2.6904

 VIBRATION         59   59A           ATOM PAIR      ENERGY CONTRIBUTION    RADIAL
 FREQUENCY          3135.63         C 10 -- H 22         +52.3% ( 74.0%)     99.9%
 TRANSITION DIPOLE   0.3805         C  6 -- H 19         +42.5% ( 66.7%)     99.9%
 TRAVEL (Ang.)       0.2133         C  6 -- C 10          +2.4% ( 16.0%)     99.6%
 REDUCED MASS        0.4725         C  5 -- C 10          +1.0% ( 10.5%)     24.0%
 EFFECTIVE MASS      1.6504
 FORCE CONSTANT      2.7370

 VIBRATION         60   60A           ATOM PAIR      ENERGY CONTRIBUTION    RADIAL
 FREQUENCY          3178.33         C  4 -- H 16         +34.5% ( 56.5%)     97.3%
 TRANSITION DIPOLE   0.0363         C  4 -- H 15         +32.9% ( 55.2%)     97.0%
 TRAVEL (Ang.)       0.2546         C  4 -- H 17         +32.4% ( 54.8%)     97.0%
 REDUCED MASS        0.3272         C  1 -- C  4          +0.3% (  5.1%)     99.9%
 EFFECTIVE MASS      1.1353
 FORCE CONSTANT      1.9476

      SYMMETRY NUMBER FOR POINT-GROUP C1  =  1


          SYSTEM IS A GROUND STATE



 InChI=1S/C10H12/c1-8-6-7-9-4-2-3-5-10(8)9/h3-8,10H,2H2,1H3


          MOLECULE IS NOT LINEAR

          THERE ARE 60 GENUINE VIBRATIONS IN THIS SYSTEM
          THIS THERMODYNAMICS CALCULATION IS LIMITED TO
          MOLECULES WHICH HAVE NO INTERNAL ROTATIONS




                    CALCULATED THERMODYNAMIC PROPERTIES
                                          *
   TEMP. (K)   PARTITION FUNCTION   H.O.F.    ENTHALPY  HEAT CAPACITY ENTROPY
                                   KCAL/MOL   CAL/MOLE    CAL/K/MOL  CAL/K/MOL


 298.00  VIB.     0.5915D+02                  3599.7378    28.6377    20.1875
         ROT.     0.5420D+06                   888.2803     2.9808    29.2177
         INT.     0.3206D+08                  4488.0181    31.6186    49.4052
         TRA.     0.1470D+28                  1480.4672     4.9680    40.5480
         TOT.                       34.088    5968.4853    36.5866    89.9532

 200.00  VIB.     0.9126D+01                  1403.4543    16.5114    11.4111
         ROT.     0.2980D+06                   596.1613     2.9808    28.0291
         INT.     0.2719D+07                  1999.6156    19.4922    39.4402
         TRA.     0.8080D+27                   993.6021     4.9680    38.5668
         TOT.                       31.113    2993.2177    24.4603    78.0070

 210.00  VIB.     0.1090D+02                  1574.1872    17.6406    12.2439
         ROT.     0.3206D+06                   625.9693     2.9808    28.1745
         INT.     0.3496D+07                  2200.1566    20.6214    40.4184
         TRA.     0.8694D+27                  1043.2822     4.9680    38.8092
         TOT.                       31.363    3243.4388    25.5894    79.2276

 220.00  VIB.     0.1307D+02                  1756.3730    18.8017    13.0912
         ROT.     0.3438D+06                   655.7774     2.9808    28.3132
         INT.     0.4493D+07                  2412.1504    21.7825    41.4044
         TRA.     0.9322D+27                  1092.9623     4.9680    39.0403
         TOT.                       31.624    3505.1127    26.7506    80.4447

 230.00  VIB.     0.1571D+02                  1950.3218    19.9928    13.9532
         ROT.     0.3675D+06                   685.5855     2.9808    28.4457
         INT.     0.5774D+07                  2635.9073    22.9736    42.3988
         TRA.     0.9965D+27                  1142.6424     4.9680    39.2612
         TOT.                       31.898    3778.5498    27.9416    81.6600

 240.00  VIB.     0.1894D+02                  2156.3200    21.2111    14.8297
         ROT.     0.3917D+06                   715.3935     2.9808    28.5725
         INT.     0.7419D+07                  2871.7136    24.1919    43.4022
         TRA.     0.1062D+28                  1192.3226     4.9680    39.4726
         TOT.                       32.183    4064.0361    29.1599    82.8749

 250.00  VIB.     0.2290D+02                  2374.6244    22.4535    15.7207
         ROT.     0.4164D+06                   745.2016     2.9808    28.6942
         INT.     0.9536D+07                  3119.8260    25.4343    44.4149
         TRA.     0.1129D+28                  1242.0027     4.9680    39.6754
         TOT.                       32.481    4361.8286    30.4023    84.0903

 260.00  VIB.     0.2776D+02                  2605.4581    23.7164    16.6259
         ROT.     0.4417D+06                   775.0097     2.9808    28.8111
         INT.     0.1226D+08                  3380.4678    26.6972    45.4370
         TRA.     0.1198D+28                  1291.6828     4.9680    39.8703
         TOT.                       32.791    4672.1505    31.6652    85.3073

 270.00  VIB.     0.3375D+02                  2849.0086    24.9962    17.5449
         ROT.     0.4674D+06                   804.8177     2.9808    28.9236
         INT.     0.1578D+08                  3653.8263    27.9770    46.4685
         TRA.     0.1267D+28                  1341.3629     4.9680    40.0578
         TOT.                       33.115    4995.1892    32.9450    86.5263

 280.00  VIB.     0.4114D+02                  3105.4259    26.2891    18.4773
         ROT.     0.4936D+06                   834.6258     2.9808    29.0320
         INT.     0.2031D+08                  3940.0517    29.2699    47.5093
         TRA.     0.1338D+28                  1391.0430     4.9680    40.2384
         TOT.                       33.450    5331.0946    34.2380    87.7477

 290.00  VIB.     0.5028D+02                  3374.8227    27.5915    19.4225
         ROT.     0.5203D+06                   864.4339     2.9808    29.1366
         INT.     0.2616D+08                  4239.2566    30.5723    48.5591
         TRA.     0.1411D+28                  1440.7231     4.9680    40.4128
         TOT.                       33.799    5679.9796    35.5403    88.9719

 300.00  VIB.     0.6161D+02                  3657.2752    28.8997    20.3799
         ROT.     0.5474D+06                   894.2419     2.9808    29.2377
         INT.     0.3373D+08                  4551.5171    31.8805    49.6176
         TRA.     0.1484D+28                  1490.4032     4.9680    40.5812
         TOT.                       34.161    6041.9203    36.8485    90.1988

 310.00  VIB.     0.7569D+02                  3952.8243    30.2103    21.3489
         ROT.     0.5750D+06                   924.0500     2.9808    29.3354
         INT.     0.4352D+08                  4876.8743    33.1911    50.6843
         TRA.     0.1559D+28                  1540.0833     4.9680    40.7441
         TOT.                       34.536    6416.9576    38.1591    91.4284

 320.00  VIB.     0.9321D+02                  4261.4776    31.5200    22.3288
         ROT.     0.6031D+06                   953.8580     2.9808    29.4300
         INT.     0.5621D+08                  5215.3357    34.5008    51.7588
         TRA.     0.1635D+28                  1589.7634     4.9680    40.9018
         TOT.                       34.924    6805.0991    39.4688    92.6606

 330.00  VIB.     0.1151D+03                  4583.2120    32.8260    23.3187
         ROT.     0.6316D+06                   983.6661     2.9808    29.5218
         INT.     0.7267D+08                  5566.8781    35.8068    52.8405
         TRA.     0.1713D+28                  1639.4435     4.9680    41.0547
         TOT.                       35.326    7206.3216    40.7748    93.8952

 340.00  VIB.     0.1424D+03                  4917.9757    34.1255    24.3180
         ROT.     0.6605D+06                  1013.4742     2.9808    29.6108
         INT.     0.9403D+08                  5931.4499    37.1063    53.9287
         TRA.     0.1791D+28                  1689.1236     4.9680    41.2030
         TOT.                       35.740    7620.5735    42.0743    95.1317

 350.00  VIB.     0.1765D+03                  5265.6915    35.4160    25.3258
         ROT.     0.6898D+06                  1043.2822     2.9808    29.6972
         INT.     0.1218D+09                  6308.9737    38.3968    55.0230
         TRA.     0.1871D+28                  1738.8037     4.9680    41.3470
         TOT.                       36.167    8047.7775    43.3648    96.3700

 360.00  VIB.     0.2194D+03                  5626.2590    36.6955    26.3415
         ROT.     0.7196D+06                  1073.0903     2.9808    29.7811
         INT.     0.1579D+09                  6699.3493    39.6763    56.1226
         TRA.     0.1951D+28                  1788.4838     4.9680    41.4870
         TOT.                       36.607    8487.8332    44.6443    97.6096

 370.00  VIB.     0.2733D+03                  5999.5577    37.9619    27.3642
         ROT.     0.7498D+06                  1102.8984     2.9808    29.8628
         INT.     0.2049D+09                  7102.4560    40.9428    57.2270
         TRA.     0.2033D+28                  1838.1639     4.9680    41.6231
         TOT.                       37.060    8940.6200    45.9108    98.8501

 380.00  VIB.     0.3410D+03                  6385.4492    39.2138    28.3932
         ROT.     0.7804D+06                  1132.7064     2.9808    29.9423
         INT.     0.2661D+09                  7518.1556    42.1946    58.3355
         TRA.     0.2116D+28                  1887.8440     4.9680    41.7556
         TOT.                       37.525    9405.9996    47.1626   100.0911

 390.00  VIB.     0.4265D+03                  6783.7800    40.4496    29.4278
         ROT.     0.8114D+06                  1162.5145     2.9808    30.0197
         INT.     0.3460D+09                  7946.2945    43.4304    59.4476
         TRA.     0.2200D+28                  1937.5242     4.9680    41.8846
         TOT.                       38.003    9883.8186    48.3984   101.3322

 400.00  VIB.     0.5343D+03                  7194.3839    41.6682    30.4673
         ROT.     0.8428D+06                  1192.3226     2.9808    30.0952
         INT.     0.4503D+09                  8386.7064    44.6490    60.5625
         TRA.     0.2285D+28                  1987.2043     4.9680    42.0104
         TOT.                       38.493   10373.9107    49.6170   102.5729

   *: NOTE: HEATS OF FORMATION ARE RELATIVE TO THE
            ELEMENTS IN THEIR STANDARD STATE AT 298K
              (=  Standard Enthalpy of Formation).

            Hvib:  Zero-point energy is not included.
                   frequencies of less than zero cm-1 are not included.
            Hrot = (3/2)RT
            Htra = (3/2)RT + pV = (5/2)RT

            Heat capacity is Cp, not Cv

          For more information, see: HTTP://OpenMOPAC.net/Manual/thermochemistry.html


           FORCE CONSTANT IN CARTESIAN COORDINATES (Millidynes/A)

    ATOM   CHEMICAL       X               Y               Z
   NUMBER   SYMBOL  FORCE CONSTANT  FORCE CONSTANT  FORCE CONSTANT

      1       C        7.688380        8.655366        8.772087
      2       C        8.318672        8.272588        9.267401
      3       C        8.890335        8.086358        8.773123
      4       C        8.402955        8.270970        8.321014
      5       C       15.046253        6.726724        7.063074
      6       C       14.280311        4.692583        8.021710
      7       C       12.124250        5.450938        9.692868
      8       C       12.305760        7.009763        7.798183
      9       C       12.119580        5.427072        9.477694
     10       C       11.754839        5.287681       10.701357
     11       H        1.185351        2.046380        2.770902
     12       H        1.179598        3.820411        0.836817
     13       H        1.632059        3.856247        0.815865
     14       H        2.511842        2.713118        0.895146
     15       H        1.033376        1.425758        4.293331
     16       H        5.372958        0.726723        0.666965
     17       H        1.158426        2.391533        3.219735
     18       H        1.551004        0.755061        3.959058
     19       H        4.803382        0.428791        1.178020
     20       H        1.623311        0.679794        3.961296
     21       H        0.887548        2.376043        3.008167
     22       H        0.686356        1.493128        4.231967

 **********************
 *                    *
 * JOB ENDED NORMALLY *
 *                    *
 **********************



 TOTAL JOB TIME:             2.70 SECONDS

 == MOPAC DONE ==
