 *******************************************************************************
 **                                                                           **
 **                              MOPAC v23.1.2                                **
 **                                                                           **
 *******************************************************************************
 **          Digital Object Identifier (DOI): 10.5281/zenodo.6511958          **
 **    Visit the DOI location for information on how to cite this program.    **
 *******************************************************************************

                              PM3 CALCULATION RESULTS

 *******************************************************************************
 *  CALCULATION DONE: (MAX THREADS = 1)              Tue Jun  3 16:30:26 2025  *
 *  PM3        - The PM3 Hamiltonian to be used
 *  PRECISE    - TIGHTER CRITERIA TO BE USED
 *  NOSYM      - POINT-GROUP SYMMETRY SET TO C1
 *  THREADS=1  - MULTI-THREADING NOT USED
 *  T=         - A TIME OF 172800.0 SECONDS REQUESTED
 *  DUMP=N     - RESTART FILE WRITTEN EVERY 7200.0 SECONDS REQUESTED
 *******************************************************************************
pm3  precise nosym THREADS=1
 InChI=1S/C9H12/c1-2-6-9-7-4-3-5-8-9/h2-4,7H,1,5-6,8H2

   ATOM   CHEMICAL          X               Y               Z
  NUMBER   SYMBOL      (ANGSTROMS)     (ANGSTROMS)     (ANGSTROMS)

     1       C         -0.35070000  *  -1.13930000  *  -0.79820000  *
     2       C         -1.50390000  *  -1.52470000  *   0.14230000  *
     3       C          1.52380000  *   0.68370000  *  -0.83210000  *
     4       C          0.09400000  *   0.28940000  *  -0.56710000  *
     5       C         -2.55400000  *  -0.44690000  *   0.18260000  *
     6       C          2.22830000  *   1.04350000  *   0.44650000  *
     7       C         -0.81160000  *   1.21820000  *  -0.21330000  *
     8       C         -2.20940000  *   0.83940000  *   0.06790000  *
     9       C          2.51170000  *   0.12360000  *   1.37360000  *
    10       H          0.49670000  *  -1.84090000  *  -0.64170000  *
    11       H         -0.69060000  *  -1.23700000  *  -1.85190000  *
    12       H         -1.10540000  *  -1.66980000  *   1.16970000  *
    13       H         -1.96030000  *  -2.48010000  *  -0.19360000  *
    14       H          1.54320000  *   1.55520000  *  -1.52180000  *
    15       H          2.07380000  *  -0.14240000  *  -1.33300000  *
    16       H          2.52340000  *   2.07500000  *   0.61450000  *
    17       H         -3.58460000  *  -0.71220000  *   0.38220000  *
    18       H         -0.52430000  *   2.25880000  *  -0.12290000  *
    19       H         -2.95950000  *   1.61160000  *   0.18000000  *
    20       H          2.23410000  *  -0.91640000  *   1.23120000  *
    21       H          3.02530000  *   0.41150000  *   2.28500000  *



          CARTESIAN COORDINATES 

    NO.       ATOM           X           Y           Z

     1         C         -0.3507     -1.1393     -0.7982
     2         C         -1.5039     -1.5247      0.1423
     3         C          1.5238      0.6837     -0.8321
     4         C          0.0940      0.2894     -0.5671
     5         C         -2.5540     -0.4469      0.1826
     6         C          2.2283      1.0435      0.4465
     7         C         -0.8116      1.2182     -0.2133
     8         C         -2.2094      0.8394      0.0679
     9         C          2.5117      0.1236      1.3736
    10         H          0.4967     -1.8409     -0.6417
    11         H         -0.6906     -1.2370     -1.8519
    12         H         -1.1054     -1.6698      1.1697
    13         H         -1.9603     -2.4801     -0.1936
    14         H          1.5432      1.5552     -1.5218
    15         H          2.0738     -0.1424     -1.3330
    16         H          2.5234      2.0750      0.6145
    17         H         -3.5846     -0.7122      0.3822
    18         H         -0.5243      2.2588     -0.1229
    19         H         -2.9595      1.6116      0.1800
    20         H          2.2341     -0.9164      1.2312
    21         H          3.0253      0.4115      2.2850

  H: (PM3): J. J. P. STEWART, J. COMP. CHEM. 10, 209 (1989).
  C: (PM3): J. J. P. STEWART, J. COMP. CHEM. 10, 209 (1989).

           Empirical Formula: C9 H12  =    21 atoms



      MOLECULAR POINT GROUP   :   C1  


      RHF CALCULATION, NO. OF DOUBLY OCCUPIED LEVELS = 24


          Geometry optimization using EF

          DIAGONAL MATRIX USED AS START HESSIAN

 CYCLE:     1 TIME:   0.008 TIME LEFT:  2.00D  GRAD.:    62.798 HEAT:  35.22708
 CYCLE:     2 TIME:   0.016 TIME LEFT:  2.00D  GRAD.:    54.621 HEAT:  34.44963
 CYCLE:     3 TIME:   0.008 TIME LEFT:  2.00D  GRAD.:    30.168 HEAT:  34.02252
 CYCLE:     4 TIME:   0.008 TIME LEFT:  2.00D  GRAD.:    31.395 HEAT:  33.83758
 CYCLE:     5 TIME:   0.008 TIME LEFT:  2.00D  GRAD.:    30.194 HEAT:  33.60573
 CYCLE:     6 TIME:   0.008 TIME LEFT:  2.00D  GRAD.:    38.535 HEAT:  33.53429
 CYCLE:     7 TIME:   0.012 TIME LEFT:  2.00D  GRAD.:    33.311 HEAT:  33.33662
 CYCLE:     8 TIME:   0.008 TIME LEFT:  2.00D  GRAD.:    21.663 HEAT:  33.18224
 CYCLE:     9 TIME:   0.008 TIME LEFT:  2.00D  GRAD.:    24.772 HEAT:  33.15248
 CYCLE:    10 TIME:   0.004 TIME LEFT:  2.00D  GRAD.:    23.878 HEAT:  33.11066
 CYCLE:    11 TIME:   0.012 TIME LEFT:  2.00D  GRAD.:    17.181 HEAT:  33.04361
 CYCLE:    12 TIME:   0.012 TIME LEFT:  2.00D  GRAD.:     8.257 HEAT:  32.97233
 CYCLE:    13 TIME:   0.012 TIME LEFT:  2.00D  GRAD.:    10.902 HEAT:  32.95953
 CYCLE:    14 TIME:   0.004 TIME LEFT:  2.00D  GRAD.:     9.026 HEAT:  32.92032
 CYCLE:    15 TIME:   0.008 TIME LEFT:  2.00D  GRAD.:    13.561 HEAT:  32.91337
 CYCLE:    16 TIME:   0.008 TIME LEFT:  2.00D  GRAD.:    13.540 HEAT:  32.88685
 CYCLE:    17 TIME:   0.008 TIME LEFT:  2.00D  GRAD.:     8.563 HEAT:  32.84597
 CYCLE:    18 TIME:   0.004 TIME LEFT:  2.00D  GRAD.:     6.455 HEAT:  32.82609
 CYCLE:    19 TIME:   0.008 TIME LEFT:  2.00D  GRAD.:     5.697 HEAT:  32.80103
 CYCLE:    20 TIME:   0.004 TIME LEFT:  2.00D  GRAD.:     5.930 HEAT:  32.77748
 CYCLE:    21 TIME:   0.004 TIME LEFT:  2.00D  GRAD.:     6.452 HEAT:  32.75040
 CYCLE:    22 TIME:   0.008 TIME LEFT:  2.00D  GRAD.:     3.964 HEAT:  32.71478
 CYCLE:    23 TIME:   0.004 TIME LEFT:  2.00D  GRAD.:     6.931 HEAT:  32.69890
 CYCLE:    24 TIME:   0.008 TIME LEFT:  2.00D  GRAD.:     5.838 HEAT:  32.67721
 CYCLE:    25 TIME:   0.004 TIME LEFT:  2.00D  GRAD.:     4.156 HEAT:  32.65666
 CYCLE:    26 TIME:   0.004 TIME LEFT:  2.00D  GRAD.:     4.779 HEAT:  32.63332
 CYCLE:    27 TIME:   0.004 TIME LEFT:  2.00D  GRAD.:     4.899 HEAT:  32.60566
 CYCLE:    28 TIME:   0.008 TIME LEFT:  2.00D  GRAD.:     3.888 HEAT:  32.57541
 CYCLE:    29 TIME:   0.004 TIME LEFT:  2.00D  GRAD.:     4.443 HEAT:  32.54127
 CYCLE:    30 TIME:   0.008 TIME LEFT:  2.00D  GRAD.:     4.804 HEAT:  32.52251
 CYCLE:    31 TIME:   0.004 TIME LEFT:  2.00D  GRAD.:     4.134 HEAT:  32.50543
 CYCLE:    32 TIME:   0.004 TIME LEFT:  2.00D  GRAD.:     3.541 HEAT:  32.47957
 CYCLE:    33 TIME:   0.008 TIME LEFT:  2.00D  GRAD.:     4.155 HEAT:  32.44916
 CYCLE:    34 TIME:   0.004 TIME LEFT:  2.00D  GRAD.:     3.925 HEAT:  32.42797
 CYCLE:    35 TIME:   0.008 TIME LEFT:  2.00D  GRAD.:     3.176 HEAT:  32.40880
 CYCLE:    36 TIME:   0.004 TIME LEFT:  2.00D  GRAD.:     3.228 HEAT:  32.39349
 CYCLE:    37 TIME:   0.008 TIME LEFT:  2.00D  GRAD.:     2.435 HEAT:  32.38261
 CYCLE:    38 TIME:   0.008 TIME LEFT:  2.00D  GRAD.:     2.035 HEAT:  32.37322
 CYCLE:    39 TIME:   0.008 TIME LEFT:  2.00D  GRAD.:     2.058 HEAT:  32.36290
 CYCLE:    40 TIME:   0.004 TIME LEFT:  2.00D  GRAD.:     1.992 HEAT:  32.35711
 CYCLE:    41 TIME:   0.008 TIME LEFT:  2.00D  GRAD.:     2.019 HEAT:  32.35087
 CYCLE:    42 TIME:   0.008 TIME LEFT:  2.00D  GRAD.:     2.240 HEAT:  32.34177
 CYCLE:    43 TIME:   0.008 TIME LEFT:  2.00D  GRAD.:     2.540 HEAT:  32.32931
 CYCLE:    44 TIME:   0.008 TIME LEFT:  2.00D  GRAD.:     2.550 HEAT:  32.31532
 CYCLE:    45 TIME:   0.008 TIME LEFT:  2.00D  GRAD.:     2.602 HEAT:  32.30073
 CYCLE:    46 TIME:   0.008 TIME LEFT:  2.00D  GRAD.:     2.996 HEAT:  32.28224
 CYCLE:    47 TIME:   0.008 TIME LEFT:  2.00D  GRAD.:     3.462 HEAT:  32.26035
 CYCLE:    48 TIME:   0.012 TIME LEFT:  2.00D  GRAD.:     3.457 HEAT:  32.23440
 CYCLE:    49 TIME:   0.008 TIME LEFT:  2.00D  GRAD.:     3.758 HEAT:  32.20943
 CYCLE:    50 TIME:   0.004 TIME LEFT:  2.00D  GRAD.:     3.664 HEAT:  32.18696
 CYCLE:    51 TIME:   0.012 TIME LEFT:  2.00D  GRAD.:     3.769 HEAT:  32.16483
 CYCLE:    52 TIME:   0.004 TIME LEFT:  2.00D  GRAD.:     2.681 HEAT:  32.14330
 CYCLE:    53 TIME:   0.008 TIME LEFT:  2.00D  GRAD.:     2.514 HEAT:  32.12468
 CYCLE:    54 TIME:   0.008 TIME LEFT:  2.00D  GRAD.:     2.297 HEAT:  32.11177
 CYCLE:    55 TIME:   0.008 TIME LEFT:  2.00D  GRAD.:     3.156 HEAT:  32.09213
 CYCLE:    56 TIME:   0.008 TIME LEFT:  2.00D  GRAD.:     3.100 HEAT:  32.07299
 CYCLE:    57 TIME:   0.008 TIME LEFT:  2.00D  GRAD.:     4.684 HEAT:  32.06207
 CYCLE:    58 TIME:   0.008 TIME LEFT:  2.00D  GRAD.:     2.720 HEAT:  32.04186
 CYCLE:    59 TIME:   0.012 TIME LEFT:  2.00D  GRAD.:     2.668 HEAT:  32.02872
 CYCLE:    60 TIME:   0.008 TIME LEFT:  2.00D  GRAD.:     2.909 HEAT:  32.00520
 CYCLE:    61 TIME:   0.008 TIME LEFT:  2.00D  GRAD.:     3.255 HEAT:  31.97923
 CYCLE:    62 TIME:   0.008 TIME LEFT:  2.00D  GRAD.:     9.407 HEAT:  31.96440
 CYCLE:    63 TIME:   0.008 TIME LEFT:  2.00D  GRAD.:     7.399 HEAT:  31.94242
 CYCLE:    64 TIME:   0.008 TIME LEFT:  2.00D  GRAD.:     3.533 HEAT:  31.91478
 CYCLE:    65 TIME:   0.008 TIME LEFT:  2.00D  GRAD.:     3.484 HEAT:  31.89196
 CYCLE:    66 TIME:   0.008 TIME LEFT:  2.00D  GRAD.:     7.001 HEAT:  31.86562
 CYCLE:    67 TIME:   0.008 TIME LEFT:  2.00D  GRAD.:     6.770 HEAT:  31.82870
 CYCLE:    68 TIME:   0.008 TIME LEFT:  2.00D  GRAD.:     5.892 HEAT:  31.77387
 CYCLE:    69 TIME:   0.008 TIME LEFT:  2.00D  GRAD.:     9.393 HEAT:  31.70585
 CYCLE:    70 TIME:   0.008 TIME LEFT:  2.00D  GRAD.:    11.782 HEAT:  31.69101
 CYCLE:    71 TIME:   0.004 TIME LEFT:  2.00D  GRAD.:     6.006 HEAT:  31.59828
 CYCLE:    72 TIME:   0.008 TIME LEFT:  2.00D  GRAD.:     8.718 HEAT:  31.52992
 CYCLE:    73 TIME:   0.004 TIME LEFT:  2.00D  GRAD.:     7.226 HEAT:  31.46066
 CYCLE:    74 TIME:   0.008 TIME LEFT:  2.00D  GRAD.:     7.858 HEAT:  31.40972
 CYCLE:    75 TIME:   0.008 TIME LEFT:  2.00D  GRAD.:     4.326 HEAT:  31.38978
 CYCLE:    76 TIME:   0.008 TIME LEFT:  2.00D  GRAD.:     5.651 HEAT:  31.37366
 CYCLE:    77 TIME:   0.008 TIME LEFT:  2.00D  GRAD.:     4.124 HEAT:  31.35868
 CYCLE:    78 TIME:   0.004 TIME LEFT:  2.00D  GRAD.:     2.755 HEAT:  31.34680
 CYCLE:    79 TIME:   0.008 TIME LEFT:  2.00D  GRAD.:     2.170 HEAT:  31.33409
 CYCLE:    80 TIME:   0.008 TIME LEFT:  2.00D  GRAD.:     2.263 HEAT:  31.32612
 CYCLE:    81 TIME:   0.008 TIME LEFT:  2.00D  GRAD.:     2.859 HEAT:  31.32078
 CYCLE:    82 TIME:   0.008 TIME LEFT:  2.00D  GRAD.:     2.784 HEAT:  31.31482
 CYCLE:    83 TIME:   0.008 TIME LEFT:  2.00D  GRAD.:     4.928 HEAT:  31.30694
 CYCLE:    84 TIME:   0.004 TIME LEFT:  2.00D  GRAD.:     3.186 HEAT:  31.29927
 CYCLE:    85 TIME:   0.012 TIME LEFT:  2.00D  GRAD.:     3.004 HEAT:  31.28606
 CYCLE:    86 TIME:   0.016 TIME LEFT:  2.00D  GRAD.:     2.932 HEAT:  31.27166
 CYCLE:    87 TIME:   0.004 TIME LEFT:  2.00D  GRAD.:     2.361 HEAT:  31.26216
 CYCLE:    88 TIME:   0.008 TIME LEFT:  2.00D  GRAD.:     2.099 HEAT:  31.25169
 CYCLE:    89 TIME:   0.012 TIME LEFT:  2.00D  GRAD.:     2.711 HEAT:  31.24430
 CYCLE:    90 TIME:   0.008 TIME LEFT:  2.00D  GRAD.:     2.505 HEAT:  31.23586
 CYCLE:    91 TIME:   0.012 TIME LEFT:  2.00D  GRAD.:     3.618 HEAT:  31.22711
 CYCLE:    92 TIME:   0.008 TIME LEFT:  2.00D  GRAD.:     2.874 HEAT:  31.21322
 CYCLE:    93 TIME:   0.008 TIME LEFT:  2.00D  GRAD.:     3.362 HEAT:  31.20158
 CYCLE:    94 TIME:   0.008 TIME LEFT:  2.00D  GRAD.:     3.972 HEAT:  31.19118
 CYCLE:    95 TIME:   0.008 TIME LEFT:  2.00D  GRAD.:     3.015 HEAT:  31.18572
 CYCLE:    96 TIME:   0.008 TIME LEFT:  2.00D  GRAD.:     3.959 HEAT:  31.17725
 CYCLE:    97 TIME:   0.008 TIME LEFT:  2.00D  GRAD.:     2.049 HEAT:  31.17149
 CYCLE:    98 TIME:   0.008 TIME LEFT:  2.00D  GRAD.:     1.331 HEAT:  31.16825
 CYCLE:    99 TIME:   0.008 TIME LEFT:  2.00D  GRAD.:     4.806 HEAT:  31.17503
 CYCLE:   100 TIME:   0.012 TIME LEFT:  2.00D  GRAD.:     1.470 HEAT:  31.16314
 CYCLE:   101 TIME:   0.004 TIME LEFT:  2.00D  GRAD.:     0.729 HEAT:  31.16174
 CYCLE:   102 TIME:   0.008 TIME LEFT:  2.00D  GRAD.:     1.264 HEAT:  31.15946
 CYCLE:   103 TIME:   0.008 TIME LEFT:  2.00D  GRAD.:     1.834 HEAT:  31.15738
 CYCLE:   104 TIME:   0.012 TIME LEFT:  2.00D  GRAD.:     0.984 HEAT:  31.15461
 CYCLE:   105 TIME:   0.008 TIME LEFT:  2.00D  GRAD.:     0.827 HEAT:  31.15278
 CYCLE:   106 TIME:   0.008 TIME LEFT:  2.00D  GRAD.:     0.700 HEAT:  31.15138
 CYCLE:   107 TIME:   0.008 TIME LEFT:  2.00D  GRAD.:     1.271 HEAT:  31.15053
 CYCLE:   108 TIME:   0.008 TIME LEFT:  2.00D  GRAD.:     1.020 HEAT:  31.14872
 CYCLE:   109 TIME:   0.008 TIME LEFT:  2.00D  GRAD.:     1.075 HEAT:  31.14754
 CYCLE:   110 TIME:   0.008 TIME LEFT:  2.00D  GRAD.:     1.537 HEAT:  31.14505
 CYCLE:   111 TIME:   0.004 TIME LEFT:  2.00D  GRAD.:     0.900 HEAT:  31.14337
 CYCLE:   112 TIME:   0.012 TIME LEFT:  2.00D  GRAD.:     2.020 HEAT:  31.14372
 CYCLE:   113 TIME:   0.008 TIME LEFT:  2.00D  GRAD.:     1.738 HEAT:  31.14116
 CYCLE:   114 TIME:   0.008 TIME LEFT:  2.00D  GRAD.:     1.196 HEAT:  31.14005
 CYCLE:   115 TIME:   0.008 TIME LEFT:  2.00D  GRAD.:     0.958 HEAT:  31.13832
 CYCLE:   116 TIME:   0.008 TIME LEFT:  2.00D  GRAD.:     0.821 HEAT:  31.13537
 CYCLE:   117 TIME:   0.008 TIME LEFT:  2.00D  GRAD.:     1.332 HEAT:  31.13388
 CYCLE:   118 TIME:   0.004 TIME LEFT:  2.00D  GRAD.:     0.918 HEAT:  31.13203
 CYCLE:   119 TIME:   0.008 TIME LEFT:  2.00D  GRAD.:     1.646 HEAT:  31.12907
 CYCLE:   120 TIME:   0.004 TIME LEFT:  2.00D  GRAD.:     1.311 HEAT:  31.12793
 CYCLE:   121 TIME:   0.008 TIME LEFT:  2.00D  GRAD.:     1.817 HEAT:  31.12647
 CYCLE:   122 TIME:   0.008 TIME LEFT:  2.00D  GRAD.:     1.394 HEAT:  31.12432
 CYCLE:   123 TIME:   0.008 TIME LEFT:  2.00D  GRAD.:     1.177 HEAT:  31.12213
 CYCLE:   124 TIME:   0.008 TIME LEFT:  2.00D  GRAD.:     3.398 HEAT:  31.12261
 CYCLE:   125 TIME:   0.008 TIME LEFT:  2.00D  GRAD.:     3.740 HEAT:  31.11738
 CYCLE:   126 TIME:   0.004 TIME LEFT:  2.00D  GRAD.:     1.401 HEAT:  31.11330
 CYCLE:   127 TIME:   0.008 TIME LEFT:  2.00D  GRAD.:     0.822 HEAT:  31.11000
 CYCLE:   128 TIME:   0.008 TIME LEFT:  2.00D  GRAD.:     2.850 HEAT:  31.10507
 CYCLE:   129 TIME:   0.008 TIME LEFT:  2.00D  GRAD.:     1.120 HEAT:  31.10098
 CYCLE:   130 TIME:   0.008 TIME LEFT:  2.00D  GRAD.:     1.076 HEAT:  31.09599
 CYCLE:   131 TIME:   0.008 TIME LEFT:  2.00D  GRAD.:     0.701 HEAT:  31.09149
 CYCLE:   132 TIME:   0.008 TIME LEFT:  2.00D  GRAD.:     0.977 HEAT:  31.08870
 CYCLE:   133 TIME:   0.008 TIME LEFT:  2.00D  GRAD.:     1.794 HEAT:  31.08811
 CYCLE:   134 TIME:   0.012 TIME LEFT:  2.00D  GRAD.:     0.782 HEAT:  31.08727
 CYCLE:   135 TIME:   0.008 TIME LEFT:  2.00D  GRAD.:     2.747 HEAT:  31.09058
 CYCLE:   136 TIME:   0.008 TIME LEFT:  2.00D  GRAD.:     0.457 HEAT:  31.08666
 CYCLE:   137 TIME:   0.008 TIME LEFT:  2.00D  GRAD.:     0.456 HEAT:  31.08642
 CYCLE:   138 TIME:   0.008 TIME LEFT:  2.00D  GRAD.:     0.906 HEAT:  31.08666
 CYCLE:   139 TIME:   0.012 TIME LEFT:  2.00D  GRAD.:     0.701 HEAT:  31.08553
 CYCLE:   140 TIME:   0.008 TIME LEFT:  2.00D  GRAD.:     0.797 HEAT:  31.08526
 CYCLE:   141 TIME:   0.008 TIME LEFT:  2.00D  GRAD.:     0.775 HEAT:  31.08514
 CYCLE:   142 TIME:   0.008 TIME LEFT:  2.00D  GRAD.:     0.924 HEAT:  31.08437
 CYCLE:   143 TIME:   0.008 TIME LEFT:  2.00D  GRAD.:     1.041 HEAT:  31.08412
 CYCLE:   144 TIME:   0.008 TIME LEFT:  2.00D  GRAD.:     0.852 HEAT:  31.08254
 CYCLE:   145 TIME:   0.008 TIME LEFT:  2.00D  GRAD.:     0.775 HEAT:  31.08164
 CYCLE:   146 TIME:   0.008 TIME LEFT:  2.00D  GRAD.:     1.562 HEAT:  31.08268
 CYCLE:   147 TIME:   0.008 TIME LEFT:  2.00D  GRAD.:     0.697 HEAT:  31.07994
 CYCLE:   148 TIME:   0.008 TIME LEFT:  2.00D  GRAD.:     0.630 HEAT:  31.07923
 CYCLE:   149 TIME:   0.008 TIME LEFT:  2.00D  GRAD.:     2.129 HEAT:  31.07806
 CYCLE:   150 TIME:   0.008 TIME LEFT:  2.00D  GRAD.:     1.077 HEAT:  31.07530
 CYCLE:   151 TIME:   0.008 TIME LEFT:  2.00D  GRAD.:     0.824 HEAT:  31.07411
 CYCLE:   152 TIME:   0.004 TIME LEFT:  2.00D  GRAD.:     2.932 HEAT:  31.07756
 CYCLE:   153 TIME:   0.012 TIME LEFT:  2.00D  GRAD.:     0.763 HEAT:  31.07170
 CYCLE:   154 TIME:   0.004 TIME LEFT:  2.00D  GRAD.:     0.497 HEAT:  31.07117
 CYCLE:   155 TIME:   0.008 TIME LEFT:  2.00D  GRAD.:     1.708 HEAT:  31.07149
 CYCLE:   156 TIME:   0.008 TIME LEFT:  2.00D  GRAD.:     0.429 HEAT:  31.07011
 CYCLE:   157 TIME:   0.008 TIME LEFT:  2.00D  GRAD.:     0.403 HEAT:  31.06985
 CYCLE:   158 TIME:   0.008 TIME LEFT:  2.00D  GRAD.:     0.886 HEAT:  31.06989
 CYCLE:   159 TIME:   0.008 TIME LEFT:  2.00D  GRAD.:     0.270 HEAT:  31.06909
 CYCLE:   160 TIME:   0.004 TIME LEFT:  2.00D  GRAD.:     0.213 HEAT:  31.06898
 CYCLE:   161 TIME:   0.008 TIME LEFT:  2.00D  GRAD.:     0.190 HEAT:  31.06886
 CYCLE:   162 TIME:   0.012 TIME LEFT:  2.00D  GRAD.:     0.453 HEAT:  31.06887
 CYCLE:   163 TIME:   0.008 TIME LEFT:  2.00D  GRAD.:     0.237 HEAT:  31.06876
 CYCLE:   164 TIME:   0.008 TIME LEFT:  2.00D  GRAD.:     0.898 HEAT:  31.06950
 CYCLE:   165 TIME:   0.008 TIME LEFT:  2.00D  GRAD.:     0.131 HEAT:  31.06873
 CYCLE:   166 TIME:   0.008 TIME LEFT:  2.00D  GRAD.:     0.104 HEAT:  31.06872
 CYCLE:   167 TIME:   0.008 TIME LEFT:  2.00D  GRAD.:     0.069 HEAT:  31.06872
 CYCLE:   168 TIME:   0.004 TIME LEFT:  2.00D  GRAD.:     0.064 HEAT:  31.06871
 CYCLE:   169 TIME:   0.008 TIME LEFT:  2.00D  GRAD.:     0.039 HEAT:  31.06871

     GRADIENT =  0.03935 IS LESS THAN CUTOFF =  0.05000



 -------------------------------------------------------------------------------
 pm3  precise nosym THREADS=1
 InChI=1S/C9H12/c1-2-6-9-7-4-3-5-8-9/h2-4,7H,1,5-6,8H2



     GEOMETRY OPTIMISED USING EIGENVECTOR FOLLOWING (EF).     
     SCF FIELD WAS ACHIEVED                                   


                              PM3 CALCULATION
                                                       MOPAC v23.1.2 MacOS
                                                       Tue Jun  3 16:30:27 2025




          FINAL HEAT OF FORMATION =         31.06871 KCAL/MOL =     129.99147 KJ/MOL


          COSMO AREA              =        175.35 SQUARE ANGSTROMS
          COSMO VOLUME            =        174.72 CUBIC ANGSTROMS

          GRADIENT NORM           =          0.03935          =       0.00859 PER ATOM
          IONIZATION POTENTIAL    =          8.823726 EV
          HOMO LUMO ENERGIES (EV) =         -8.824  0.233
          NO. OF FILLED LEVELS    =         24
          MOLECULAR WEIGHT        =        120.1938         POINT GROUP:  C1  

          MOLECULAR DIMENSIONS (Angstroms)

            Atom       Atom       Distance
            H    21    H    17     7.78711
            H    18    H    13     4.71185
            H    15    H    12     3.17710


          SCF CALCULATIONS        =        178

          WALL-CLOCK TIME         =      1.297 SECONDS
          COMPUTATION TIME        =      0.781 SECONDS




   ATOM   CHEMICAL          X               Y               Z
  NUMBER   SYMBOL      (ANGSTROMS)     (ANGSTROMS)     (ANGSTROMS)

     1       C         -0.30778496  *  -1.09065417  *  -0.31783582  *
     2       C         -1.65621792  *  -1.39566687  *   0.32172413  *
     3       C          1.41640363  *   0.75739918  *  -0.58727744  *
     4       C         -0.01969029  *   0.36898205  *  -0.44462750  *
     5       C         -2.70446977  *  -0.38783542  *   0.01349984  *
     6       C          2.13143428  *   0.65317662  *   0.71678280  *
     7       C         -1.01004687  *   1.27703559  *  -0.47272547  *
     8       C         -2.39484927  *   0.86402374  *  -0.34766018  *
     9       C          3.30451561  *   0.04638786  *   0.85304706  *
    10       H          0.50013116  *  -1.58057374  *   0.26197245  *
    11       H         -0.25464434  *  -1.52871267  *  -1.33587065  *
    12       H         -1.55821431  *  -1.44756889  *   1.42574159  *
    13       H         -1.99620082  *  -2.40102645  *   0.00497480  *
    14       H          1.50720215  *   1.80101146  *  -0.95219649  *
    15       H          1.89155482  *   0.12146123  *  -1.36206819  *
    16       H          1.63047596  *   1.12080386  *   1.57287983  *
    17       H         -3.74565438  *  -0.70714170  *   0.12659029  *
    18       H         -0.80608230  *   2.34664018  *  -0.59315243  *
    19       H         -3.16771538  *   1.61158374  *  -0.55211809  *
    20       H          3.82720677  *  -0.43373059  *   0.03005742  *
    21       H          3.82681623  *  -0.00998138  *   1.80311986  *

                             CARTESIAN COORDINATES

   1    C       -0.307784958    -1.090654174    -0.317835821
   2    C       -1.656217921    -1.395666869     0.321724127
   3    C        1.416403629     0.757399179    -0.587277439
   4    C       -0.019690292     0.368982049    -0.444627503
   5    C       -2.704469770    -0.387835419     0.013499840
   6    C        2.131434275     0.653176617     0.716782795
   7    C       -1.010046871     1.277035591    -0.472725467
   8    C       -2.394849271     0.864023738    -0.347660183
   9    C        3.304515610     0.046387861     0.853047055
  10    H        0.500131160    -1.580573736     0.261972447
  11    H       -0.254644341    -1.528712666    -1.335870655
  12    H       -1.558214312    -1.447568887     1.425741593
  13    H       -1.996200818    -2.401026454     0.004974798
  14    H        1.507202148     1.801011456    -0.952196489
  15    H        1.891554815     0.121461233    -1.362068195
  16    H        1.630475964     1.120803865     1.572879827
  17    H       -3.745654379    -0.707141703     0.126590295
  18    H       -0.806082297     2.346640179    -0.593152429
  19    H       -3.167715379     1.611583739    -0.552118092
  20    H        3.827206775    -0.433730593     0.030057422
  21    H        3.826816227    -0.009981376     1.803119858


           Empirical Formula: C9 H12  =    21 atoms



      MOLECULAR POINT GROUP   :   C1  


                  EIGENVALUES  
 -40.49871 -35.31304 -30.33282 -29.97376 -25.21876 -22.49743 -20.44744 -19.62655
 -17.55918 -16.54469 -16.23949 -15.68645 -15.34979 -14.91618 -14.29451 -13.82266
 -12.99283 -12.75093 -12.24813 -12.18750 -11.78671 -11.25829 -10.21140  -8.82373
   0.23346   1.12112   2.05016   3.19316   3.41852   3.49193   3.56325   3.77206
   3.82278   3.93561   3.99563   4.08924   4.09988   4.27649   4.40344   4.56025
   4.78276   4.82550   5.07034   5.50397   5.54855   5.80583   6.04092   6.25154


              NET ATOMIC CHARGES AND DIPOLE CONTRIBUTIONS

  ATOM NO.   TYPE          CHARGE      No. of ELECS.   s-Pop       p-Pop       
    1          C          -0.053489        4.0535     1.14627     2.90722
    2          C          -0.057418        4.0574     1.14567     2.91175
    3          C          -0.025748        4.0257     1.13697     2.88878
    4          C          -0.109950        4.1100     1.20056     2.90939
    5          C          -0.137254        4.1373     1.19627     2.94098
    6          C          -0.132252        4.1323     1.19513     2.93712
    7          C          -0.114624        4.1146     1.17799     2.93663
    8          C          -0.111327        4.1113     1.17809     2.93324
    9          C          -0.169209        4.1692     1.18290     2.98630
   10          H           0.060495        0.9395     0.93950
   11          H           0.055108        0.9449     0.94489
   12          H           0.055453        0.9445     0.94455
   13          H           0.053491        0.9465     0.94651
   14          H           0.060143        0.9399     0.93986
   15          H           0.058545        0.9415     0.94145
   16          H           0.101418        0.8986     0.89858
   17          H           0.098671        0.9013     0.90133
   18          H           0.104968        0.8950     0.89503
   19          H           0.101339        0.8987     0.89866
   20          H           0.081442        0.9186     0.91856
   21          H           0.080198        0.9198     0.91980
 DIPOLE           X         Y         Z       TOTAL
 POINT-CHG.     0.110    -0.292    -0.001     0.313
 HYBRID         0.011     0.002     0.013     0.017
 SUM            0.121    -0.291     0.013     0.315


          ATOMIC ORBITAL ELECTRON POPULATIONS

     Atom    s        px        py        pz   
    1  C   1.14627   0.96736   0.93488   1.00498
    2  C   1.14567   0.94072   0.97185   0.99918
    3  C   1.13697   0.92604   1.01002   0.95271
    4  C   1.20056   0.95046   0.96092   0.99800
    5  C   1.19627   0.98245   0.95803   1.00051
    6  C   1.19513   0.96711   0.99129   0.97871
    7  C   1.17799   0.93516   0.97687   1.02461
    8  C   1.17809   0.95627   0.96305   1.01392
    9  C   1.18290   0.97064   1.00404   1.01163
   10  H   0.93950
   11  H   0.94489
   12  H   0.94455
   13  H   0.94651
   14  H   0.93986
   15  H   0.94145
   16  H   0.89858
   17  H   0.90133
   18  H   0.89503
   19  H   0.89866
   20  H   0.91856
   21  H   0.91980
 *******************************************************************************
 **                                                                           **
 **                              MOPAC v23.1.2                                **
 **                                                                           **
 *******************************************************************************
 **          Digital Object Identifier (DOI): 10.5281/zenodo.6511958          **
 **    Visit the DOI location for information on how to cite this program.    **
 *******************************************************************************

                              PM3 CALCULATION RESULTS

 *******************************************************************************
 *  CALCULATION DONE: (MAX THREADS = 1)              Tue Jun  3 16:30:27 2025  *
 *  PM3        - The PM3 Hamiltonian to be used
 *  OLDGEO     - PREVIOUS GEOMETRY TO BE USED
 *  PRECISE    - TIGHTER CRITERIA TO BE USED
 *  NOSYM      - POINT-GROUP SYMMETRY SET TO C1
 *  THREADS=1  - MULTI-THREADING NOT USED
 *  T=         - A TIME OF 172800.0 SECONDS REQUESTED
 *  DUMP=N     - RESTART FILE WRITTEN EVERY 7200.0 SECONDS REQUESTED
 *  THERMO     - THERMODYNAMIC QUANTITIES TO BE CALCULATED
 *******************************************************************************
oldgeo thermo nosym precise THREADS=1  pm3
 InChI=1S/C9H12/c1-2-6-9-7-4-3-5-8-9/h2-4,7H,1,5-6,8H2

   ATOM   CHEMICAL          X               Y               Z
  NUMBER   SYMBOL      (ANGSTROMS)     (ANGSTROMS)     (ANGSTROMS)

     1       C         -0.30778496  *  -1.09065417  *  -0.31783582  *
     2       C         -1.65621792  *  -1.39566687  *   0.32172413  *
     3       C          1.41640363  *   0.75739918  *  -0.58727744  *
     4       C         -0.01969029  *   0.36898205  *  -0.44462750  *
     5       C         -2.70446977  *  -0.38783542  *   0.01349984  *
     6       C          2.13143428  *   0.65317662  *   0.71678280  *
     7       C         -1.01004687  *   1.27703559  *  -0.47272547  *
     8       C         -2.39484927  *   0.86402374  *  -0.34766018  *
     9       C          3.30451561  *   0.04638786  *   0.85304706  *
    10       H          0.50013116  *  -1.58057374  *   0.26197245  *
    11       H         -0.25464434  *  -1.52871267  *  -1.33587065  *
    12       H         -1.55821431  *  -1.44756889  *   1.42574159  *
    13       H         -1.99620082  *  -2.40102645  *   0.00497480  *
    14       H          1.50720215  *   1.80101146  *  -0.95219649  *
    15       H          1.89155482  *   0.12146123  *  -1.36206819  *
    16       H          1.63047596  *   1.12080386  *   1.57287983  *
    17       H         -3.74565438  *  -0.70714170  *   0.12659029  *
    18       H         -0.80608230  *   2.34664018  *  -0.59315243  *
    19       H         -3.16771538  *   1.61158374  *  -0.55211809  *
    20       H          3.82720677  *  -0.43373059  *   0.03005742  *
    21       H          3.82681623  *  -0.00998138  *   1.80311986  *



          CARTESIAN COORDINATES 

    NO.       ATOM           X           Y           Z

     1         C         -0.3078     -1.0907     -0.3178
     2         C         -1.6562     -1.3957      0.3217
     3         C          1.4164      0.7574     -0.5873
     4         C         -0.0197      0.3690     -0.4446
     5         C         -2.7045     -0.3878      0.0135
     6         C          2.1314      0.6532      0.7168
     7         C         -1.0100      1.2770     -0.4727
     8         C         -2.3948      0.8640     -0.3477
     9         C          3.3045      0.0464      0.8530
    10         H          0.5001     -1.5806      0.2620
    11         H         -0.2546     -1.5287     -1.3359
    12         H         -1.5582     -1.4476      1.4257
    13         H         -1.9962     -2.4010      0.0050
    14         H          1.5072      1.8010     -0.9522
    15         H          1.8916      0.1215     -1.3621
    16         H          1.6305      1.1208      1.5729
    17         H         -3.7457     -0.7071      0.1266
    18         H         -0.8061      2.3466     -0.5932
    19         H         -3.1677      1.6116     -0.5521
    20         H          3.8272     -0.4337      0.0301
    21         H          3.8268     -0.0100      1.8031

  H: (PM3): J. J. P. STEWART, J. COMP. CHEM. 10, 209 (1989).
  C: (PM3): J. J. P. STEWART, J. COMP. CHEM. 10, 209 (1989).

           Empirical Formula: C9 H12  =    21 atoms



      MOLECULAR POINT GROUP   :   C1  


      RHF CALCULATION, NO. OF DOUBLY OCCUPIED LEVELS = 24



          HEAT OF FORMATION =      31.068706 KCALS/MOLE


          CARTESIAN COORDINATE DERIVATIVES

   NUMBER  ATOM         X            Y            Z

     1       C     -0.000611     0.000886     0.006341
     2       C      0.005085    -0.008737     0.010408
     3       C     -0.001043     0.004787     0.005101
     4       C     -0.000443    -0.001992    -0.000337
     5       C      0.010283    -0.011047    -0.003377
     6       C      0.005776    -0.011269    -0.000103
     7       C      0.003861     0.004408     0.001100
     8       C     -0.004239     0.008499     0.005325
     9       C     -0.008061     0.002694    -0.002841
    10       H     -0.000939     0.000129    -0.002616
    11       H     -0.000617     0.003515     0.000801
    12       H      0.004114     0.006203    -0.004092
    13       H     -0.006580     0.009675    -0.003410
    14       H      0.001932    -0.005893     0.000293
    15       H     -0.002867     0.002036    -0.001424
    16       H      0.006980     0.006835    -0.001750
    17       H      0.000857    -0.001498    -0.002942
    18       H     -0.004273    -0.000688    -0.001465
    19       H     -0.002867    -0.004303    -0.002221
    20       H     -0.007189    -0.004648     0.000360
    21       H      0.000843     0.000410    -0.003149



          GRADIENT NORM =   0.03849

          MOLECULAR WEIGHT =  120.19



          ROTATIONAL CONSTANTS IN CM(-1)

          A =    0.12368266   B =    0.03239201   C =    0.02802986



           PRINCIPAL MOMENTS OF INERTIA IN UNITS OF 10**(-40)*GRAM-CM**2

          A =      226.3272   B =      864.1869   C =      998.6762


          ORIENTATION OF MOLECULE IN FORCE CALCULATION

    NO.       ATOM         X         Y         Z

     1          C       0.2895   -1.2077   -0.0350
     2          C       1.8128   -1.2077   -0.0350
     3          C      -1.7199    0.3488   -0.0350
     4          C      -0.3110    0.0911    0.3917
     5          C       2.4095   -0.3485    1.0211
     6          C      -1.7845    0.7081   -1.4805
     7          C       0.3721    0.9589    1.1575
     8          C       1.7331    0.6701    1.5673
     9          C      -2.6442    0.1536   -2.3269
    10          H      -0.0841   -1.4772   -1.0433
    11          H      -0.0972   -1.9920    0.6479
    12          H       2.2000   -0.8520   -1.0121
    13          H       2.1821   -2.2464    0.0718
    14          H      -2.1625    1.1803    0.5509
    15          H      -2.3385   -0.5443    0.1887
    16          H      -1.0752    1.4758   -1.8122
    17          H       3.4426   -0.5668    1.3107
    18          H      -0.0732    1.9008    1.4963
    19          H       2.1818    1.3161    2.3285
    20          H      -3.3563   -0.6143   -2.0366
    21          H      -2.6964    0.4334   -3.3745


    FIRST DERIVATIVES WILL BE USED IN THE CALCULATION OF SECOND DERIVATIVES

          ESTIMATED TIME TO COMPLETE CALCULATION =        1.97 SECONDS

    FOR POINT-GROUP C1   THERE ARE   1 UNIQUE SYMMETRY FUNCTIONS.

 STEP:   1 TIME =     0.02 SECS, INTEGRAL =      0.02 TIME LEFT: 172799.97
 STEP:   2 TIME =     0.02 SECS, INTEGRAL =      0.04 TIME LEFT: 172799.95
 STEP:   3 TIME =     0.02 SECS, INTEGRAL =      0.06 TIME LEFT: 172799.93
 STEP:   4 TIME =     0.02 SECS, INTEGRAL =      0.08 TIME LEFT: 172799.91
 STEP:   5 TIME =     0.02 SECS, INTEGRAL =      0.10 TIME LEFT: 172799.89
 STEP:   6 TIME =     0.02 SECS, INTEGRAL =      0.12 TIME LEFT: 172799.88
 STEP:   7 TIME =     0.02 SECS, INTEGRAL =      0.14 TIME LEFT: 172799.86
 STEP:   8 TIME =     0.02 SECS, INTEGRAL =      0.16 TIME LEFT: 172799.84
 STEP:   9 TIME =     0.02 SECS, INTEGRAL =      0.17 TIME LEFT: 172799.82
 STEP:  10 TIME =     0.02 SECS, INTEGRAL =      0.19 TIME LEFT: 172799.80
 STEP:  11 TIME =     0.02 SECS, INTEGRAL =      0.21 TIME LEFT: 172799.78
 STEP:  12 TIME =     0.02 SECS, INTEGRAL =      0.23 TIME LEFT: 172799.76
 STEP:  13 TIME =     0.02 SECS, INTEGRAL =      0.25 TIME LEFT: 172799.74
 STEP:  14 TIME =     0.02 SECS, INTEGRAL =      0.27 TIME LEFT: 172799.72
 STEP:  15 TIME =     0.02 SECS, INTEGRAL =      0.29 TIME LEFT: 172799.71
 STEP:  16 TIME =     0.02 SECS, INTEGRAL =      0.30 TIME LEFT: 172799.69
 STEP:  17 TIME =     0.02 SECS, INTEGRAL =      0.32 TIME LEFT: 172799.67
 STEP:  18 TIME =     0.02 SECS, INTEGRAL =      0.34 TIME LEFT: 172799.65
 STEP:  19 TIME =     0.02 SECS, INTEGRAL =      0.36 TIME LEFT: 172799.63
 STEP:  20 TIME =     0.02 SECS, INTEGRAL =      0.38 TIME LEFT: 172799.62
 STEP:  21 TIME =     0.02 SECS, INTEGRAL =      0.39 TIME LEFT: 172799.60
 STEP:  22 TIME =     0.02 SECS, INTEGRAL =      0.42 TIME LEFT: 172799.57
 STEP:  23 TIME =     0.02 SECS, INTEGRAL =      0.44 TIME LEFT: 172799.55
 STEP:  24 TIME =     0.02 SECS, INTEGRAL =      0.46 TIME LEFT: 172799.54
 STEP:  25 TIME =     0.02 SECS, INTEGRAL =      0.47 TIME LEFT: 172799.52
 STEP:  26 TIME =     0.02 SECS, INTEGRAL =      0.49 TIME LEFT: 172799.50
 STEP:  27 TIME =     0.02 SECS, INTEGRAL =      0.51 TIME LEFT: 172799.48
 STEP:  28 TIME =     0.02 SECS, INTEGRAL =      0.53 TIME LEFT: 172799.46
 STEP:  29 TIME =     0.02 SECS, INTEGRAL =      0.55 TIME LEFT: 172799.44
 STEP:  30 TIME =     0.02 SECS, INTEGRAL =      0.57 TIME LEFT: 172799.42
 STEP:  31 TIME =     0.02 SECS, INTEGRAL =      0.59 TIME LEFT: 172799.41
 STEP:  32 TIME =     0.02 SECS, INTEGRAL =      0.61 TIME LEFT: 172799.39
 STEP:  33 TIME =     0.02 SECS, INTEGRAL =      0.62 TIME LEFT: 172799.37
 STEP:  34 TIME =     0.02 SECS, INTEGRAL =      0.64 TIME LEFT: 172799.35
 STEP:  35 TIME =     0.02 SECS, INTEGRAL =      0.66 TIME LEFT: 172799.33
 STEP:  36 TIME =     0.02 SECS, INTEGRAL =      0.68 TIME LEFT: 172799.31
 STEP:  37 TIME =     0.02 SECS, INTEGRAL =      0.70 TIME LEFT: 172799.29
 STEP:  38 TIME =     0.02 SECS, INTEGRAL =      0.71 TIME LEFT: 172799.28
 STEP:  39 TIME =     0.02 SECS, INTEGRAL =      0.73 TIME LEFT: 172799.26
 STEP:  40 TIME =     0.02 SECS, INTEGRAL =      0.75 TIME LEFT: 172799.24
 STEP:  41 TIME =     0.02 SECS, INTEGRAL =      0.77 TIME LEFT: 172799.22
 STEP:  42 TIME =     0.02 SECS, INTEGRAL =      0.79 TIME LEFT: 172799.20
 STEP:  43 TIME =     0.02 SECS, INTEGRAL =      0.81 TIME LEFT: 172799.18
 STEP:  44 TIME =     0.02 SECS, INTEGRAL =      0.83 TIME LEFT: 172799.16
 STEP:  45 TIME =     0.02 SECS, INTEGRAL =      0.85 TIME LEFT: 172799.14
 STEP:  46 TIME =     0.02 SECS, INTEGRAL =      0.87 TIME LEFT: 172799.12
 STEP:  47 TIME =     0.02 SECS, INTEGRAL =      0.89 TIME LEFT: 172799.11
 STEP:  48 TIME =     0.02 SECS, INTEGRAL =      0.91 TIME LEFT: 172799.09
 STEP:  49 TIME =     0.02 SECS, INTEGRAL =      0.93 TIME LEFT: 172799.07
 STEP:  50 TIME =     0.02 SECS, INTEGRAL =      0.95 TIME LEFT: 172799.04
 STEP:  51 TIME =     0.02 SECS, INTEGRAL =      0.97 TIME LEFT: 172799.02
 STEP:  52 TIME =     0.02 SECS, INTEGRAL =      0.99 TIME LEFT: 172799.00
 STEP:  53 TIME =     0.02 SECS, INTEGRAL =      1.01 TIME LEFT: 172798.98
 STEP:  54 TIME =     0.02 SECS, INTEGRAL =      1.03 TIME LEFT: 172798.96
 STEP:  55 TIME =     0.02 SECS, INTEGRAL =      1.05 TIME LEFT: 172798.94
 STEP:  56 TIME =     0.02 SECS, INTEGRAL =      1.07 TIME LEFT: 172798.92
 STEP:  57 TIME =     0.02 SECS, INTEGRAL =      1.09 TIME LEFT: 172798.90
 STEP:  58 TIME =     0.02 SECS, INTEGRAL =      1.11 TIME LEFT: 172798.88
 STEP:  59 TIME =     0.02 SECS, INTEGRAL =      1.13 TIME LEFT: 172798.86
 STEP:  60 TIME =     0.02 SECS, INTEGRAL =      1.14 TIME LEFT: 172798.85
 STEP:  61 TIME =     0.02 SECS, INTEGRAL =      1.16 TIME LEFT: 172798.83
 STEP:  62 TIME =     0.02 SECS, INTEGRAL =      1.18 TIME LEFT: 172798.81
 STEP:  63 TIME =     0.02 SECS, INTEGRAL =      1.20 TIME LEFT: 172798.79

(To convert to Hartree/Bohr^2, multiply by (10^(-21) x N x a0^2)/(4.184 x 627.51) =  0.0642)


           FORCE MATRIX IN MILLIDYNES/ANGSTROM


                  C  1       C  2       C  3       C  4       C  5       C  6
 ------------------------------------------------------------------------------
     C    1  14.635484
     C    2   4.109827  14.671151
     C    3   0.586742   0.046117  14.934177
     C    4   4.726911   0.639116   4.706085  18.221049
     C    5   0.656307   4.981723   0.019172   0.159428  18.003604
     C    6   0.035763   0.003495   4.853062   0.736372   0.003162  18.115917
     C    7   0.827445   0.118201   0.791550   9.949915   1.147177   0.036026
     C    8   0.106303   0.869644   0.139047   1.131305  10.273979   0.022487
     C    9   0.005561   0.001387   0.830386   0.043963   0.001646  11.075056
     H   10   4.442346   0.430575   0.044819   0.448544   0.047698   0.009623
     H   11   4.396957   0.441239   0.016569   0.412723   0.011103   0.002773
     H   12   0.441951   4.393801   0.004648   0.010971   0.405437   0.001297
     H   13   0.429420   4.469514   0.008477   0.047473   0.436332   0.000778
     H   14   0.042805   0.007857   4.408900   0.459109   0.001361   0.410212
     H   15   0.031187   0.002022   4.412384   0.430261   0.001806   0.468433
     H   16   0.003661   0.000614   0.433211   0.021970   0.000515   4.805912
     H   17   0.043537   0.427043   0.010475   0.011072   4.852295   0.001732
     H   18   0.111828   0.005563   0.073619   0.458440   0.046841   0.011525
     H   19   0.005464   0.122428   0.009209   0.046881   0.445892   0.001349
     H   20   0.000837   0.000478   0.100225   0.010510   0.000439   0.490312
     H   21   0.000913   0.000330   0.140651   0.018288   0.000418   0.462194


                  C  7       C  8       C  9       H 10       H 11       H 12
 ------------------------------------------------------------------------------
     C    7  18.409248
     C    8   5.637155  18.384558
     C    9   0.006750   0.004072  18.025103
     H   10   0.045025   0.009864   0.004910   5.033842
     H   11   0.031094   0.017216   0.000803   0.569098   4.984546
     H   12   0.017628   0.033993   0.000396   0.034082   0.044865   4.986123
     H   13   0.009458   0.047379   0.000374   0.020358   0.034188   0.574750
     H   14   0.052554   0.002751   0.033397   0.002248   0.001077   0.000415
     H   15   0.037213   0.016058   0.044115   0.007559   0.007954   0.000262
     H   16   0.004235   0.001202   0.452654   0.001301   0.000606   0.000346
     H   17   0.124724   0.444745   0.000706   0.007473   0.004516   0.017198
     H   18   4.830850   0.432873   0.002746   0.012756   0.016015   0.000794
     H   19   0.433154   4.863575   0.000601   0.000912   0.000726   0.017144
     H   20   0.001740   0.000717   5.069239   0.000664   0.000268   0.000123
     H   21   0.001639   0.001241   5.107424   0.000555   0.000233   0.000144


                  H 13       H 14       H 15       H 16       H 17       H 18
 ------------------------------------------------------------------------------
     H   13   5.061927
     H   14   0.001353   4.993557
     H   15   0.000739   0.554334   5.006249
     H   16   0.000161   0.016674   0.039838   5.172540
     H   17   0.035477   0.000356   0.000992   0.000326   5.228034
     H   18   0.000765   0.029952   0.006632   0.001195   0.007638   5.205210
     H   19   0.013251   0.000591   0.001561   0.000450   0.065897   0.031176
     H   20   0.000119   0.012619   0.028550   0.121078   0.000174   0.000485
     H   21   0.000069   0.018593   0.003745   0.081277   0.000174   0.000667


                  H 19       H 20       H 21
 ------------------------------------------
     H   19   5.230491
     H   20   0.000153   5.465683
     H   21   0.000147   0.424499   5.496075


          HEAT OF FORMATION =      31.068706 KCALS/MOLE

          ZERO POINT ENERGY     113.568 KCAL/MOL


           NORMAL COORDINATE ANALYSIS (Total motion = 1 Angstrom)


   Root No.       1         2         3         4         5         6         7         8

                 1 A       2 A       3 A       4 A       5 A       6 A       7 A       8 A   

                  32.0      36.8      95.2     155.4     249.5     331.6     402.7     424.8
  
           1    0.0054   -0.0203   -0.0135   -0.0076    0.0071   -0.0079   -0.0121    0.0048
           2   -0.0270   -0.0014   -0.0152    0.0105   -0.0138    0.0359    0.0024    0.0061
           3    0.0275    0.0086    0.0416   -0.0234    0.0245    0.0137   -0.0050    0.0014
           4    0.0055   -0.0204   -0.0140   -0.0072    0.0086   -0.0122   -0.0199    0.0078
           5   -0.0159   -0.0027    0.0253   -0.0216   -0.0107   -0.0042   -0.0070   -0.0112
           6    0.0209   -0.0145   -0.0320    0.0155    0.0118   -0.0007   -0.0100   -0.0025
           7   -0.0061   -0.0146   -0.0012   -0.0057    0.0145   -0.0035    0.0279   -0.0078
           8   -0.0417    0.0053    0.0044    0.0044    0.0213   -0.0360   -0.0306   -0.0007
           9   -0.0003    0.0216   -0.0015    0.0084   -0.0278   -0.0095   -0.0265    0.0147
          10   -0.0027   -0.0117   -0.0115   -0.0093    0.0057    0.0068    0.0147    0.0037
          11   -0.0221    0.0021   -0.0074   -0.0043   -0.0027    0.0416    0.0115    0.0124
          12    0.0006    0.0104    0.0227    0.0160   -0.0095    0.0140   -0.0027   -0.0189
          13    0.0046   -0.0046    0.0008    0.0047    0.0195    0.0105   -0.0287    0.0057
          14    0.0161   -0.0018    0.0109    0.0223    0.0210   -0.0127    0.0024    0.0242
          15   -0.0048   -0.0241   -0.0276   -0.0285   -0.0202   -0.0085   -0.0119   -0.0305
          16   -0.0016   -0.0138    0.0336    0.0216   -0.0239   -0.0205    0.0460   -0.0002
          17    0.0156    0.0382   -0.0213   -0.0145    0.0298   -0.0238    0.0240   -0.0074
          18    0.0137    0.0295   -0.0099    0.0019   -0.0247   -0.0084   -0.0121    0.0165
          19   -0.0057   -0.0003   -0.0061   -0.0151   -0.0078    0.0194   -0.0099    0.0041
          20    0.0019    0.0027   -0.0057   -0.0140   -0.0256    0.0195    0.0190    0.0206
          21   -0.0239   -0.0005    0.0163    0.0314    0.0296    0.0293    0.0082   -0.0318
          22   -0.0005    0.0043   -0.0012    0.0033   -0.0003    0.0245   -0.0147   -0.0295
          23    0.0241    0.0004   -0.0060    0.0133   -0.0113   -0.0120    0.0039   -0.0356
          24   -0.0260   -0.0170    0.0023   -0.0143    0.0152    0.0091    0.0049    0.0363
          25    0.0004    0.0780    0.0123    0.0127   -0.0208   -0.0126    0.0062    0.0080
          26    0.0500   -0.0391    0.0100    0.0041   -0.0072    0.0021   -0.0081    0.0019
          27   -0.0108   -0.0130   -0.0085   -0.0010   -0.0053   -0.0351    0.0500    0.0040
          28    0.0033   -0.0360   -0.0564    0.0147   -0.0027   -0.0215   -0.0238   -0.0026
          29   -0.0532   -0.0070   -0.0646    0.0620   -0.0576    0.0375    0.0049   -0.0111
          30    0.0354    0.0159    0.0709   -0.0459    0.0406    0.0178   -0.0019    0.0091
          31    0.0142   -0.0107    0.0389   -0.0410    0.0184   -0.0199   -0.0214    0.0051
          32   -0.0143    0.0032    0.0043   -0.0142    0.0126    0.0480    0.0106    0.0211
          33    0.0471    0.0192    0.0934   -0.0706    0.0618    0.0216   -0.0003    0.0191
          34   -0.0015   -0.0347   -0.0695    0.0244    0.0005   -0.0087   -0.0172    0.0214
          35   -0.0391   -0.0041    0.0688   -0.0950   -0.0493   -0.0245   -0.0200   -0.0986
          36    0.0097   -0.0207   -0.0381    0.0013   -0.0052   -0.0065   -0.0135   -0.0273
          37    0.0135   -0.0196    0.0200   -0.0347    0.0094   -0.0404   -0.0218   -0.0120
          38   -0.0104   -0.0029    0.0325   -0.0242   -0.0069   -0.0137   -0.0064   -0.0106
          39    0.0467   -0.0188   -0.0823    0.0899    0.0498    0.0067    0.0040    0.0842
          40   -0.0310   -0.0174    0.0018   -0.0015    0.0282   -0.0687   -0.0442   -0.0054
          41   -0.0758   -0.0111    0.0224    0.0175    0.0266   -0.0778   -0.0935   -0.0045
          42    0.0294    0.0424   -0.0249   -0.0073   -0.0237   -0.0018    0.0061    0.0216
          43    0.0127   -0.0099   -0.0191   -0.0188    0.0043    0.0579    0.0767    0.0028
          44   -0.0652   -0.0031    0.0182    0.0149    0.0292   -0.0855   -0.0841   -0.0056
          45   -0.0421    0.0011    0.0033    0.0128   -0.0223   -0.0334   -0.0935    0.0234
          46   -0.0003   -0.0899    0.0797    0.0540   -0.0739   -0.0301    0.0261    0.0250
          47    0.0286    0.1270   -0.0671   -0.0458    0.0712   -0.0073    0.0362   -0.0289
          48    0.0463    0.0725   -0.0178   -0.0016   -0.0341    0.0077   -0.0195    0.0191
          49    0.0084   -0.0012    0.0077    0.0233    0.0409    0.0133   -0.0281    0.0197
          50    0.0324   -0.0031    0.0151    0.0566    0.0629   -0.0233   -0.0002    0.0578
          51   -0.0060   -0.0374   -0.0496   -0.0676   -0.0644   -0.0258   -0.0154   -0.0540
          52   -0.0124    0.0064    0.0004   -0.0291   -0.0157    0.0346   -0.0197    0.0326
          53    0.0057    0.0050   -0.0011   -0.0322   -0.0369    0.0165    0.0136    0.0524
          54   -0.0433    0.0016    0.0118    0.0640    0.0511    0.0553    0.0084   -0.0837
          55   -0.0009    0.0154    0.0019    0.0218   -0.0011    0.0448   -0.0034   -0.0740
          56    0.0472    0.0009   -0.0170    0.0332   -0.0100   -0.0280   -0.0110   -0.1076
          57   -0.0453   -0.0239    0.0096   -0.0419    0.0147    0.0110    0.0107    0.1236
          58   -0.0009    0.1564   -0.0339   -0.0201    0.0316   -0.0105    0.0514   -0.0226
          59    0.0389   -0.1281    0.0555    0.0355   -0.0509   -0.0150   -0.0226    0.0274
          60   -0.0434   -0.0559   -0.0015    0.0013    0.0090   -0.0766    0.1278   -0.0047
          61    0.0036    0.0809    0.0397    0.0378   -0.0717   -0.0041   -0.0888    0.0491
          62    0.0917   -0.0192   -0.0072   -0.0100    0.0006    0.0483   -0.0374   -0.0126
          63    0.0002   -0.0080   -0.0144   -0.0059   -0.0007   -0.0238    0.0483   -0.0019


   Root No.       9        10        11        12        13        14        15        16

                 9 A      10 A      11 A      12 A      13 A      14 A      15 A      16 A   

                 498.8     524.2     557.3     636.1     731.2     783.1     851.5     884.6
  
           1   -0.0256   -0.0069    0.0276   -0.0100    0.0033    0.0080   -0.0077   -0.0065
           2   -0.0167   -0.0238    0.0138    0.0176   -0.0008    0.0111    0.0231   -0.0108
           3   -0.0074   -0.0139    0.0145   -0.0037    0.0124   -0.0200   -0.0052   -0.0042
           4   -0.0247   -0.0177    0.0304   -0.0074    0.0017    0.0047   -0.0185    0.0053
           5    0.0193   -0.0097   -0.0206    0.0151   -0.0151    0.0003    0.0361    0.0031
           6    0.0133   -0.0120   -0.0207    0.0145    0.0199   -0.0177    0.0027   -0.0021
           7    0.0115    0.0461    0.0040   -0.0204    0.0110   -0.0141    0.0430    0.0074
           8   -0.0050    0.0017    0.0053   -0.0044    0.0022   -0.0000   -0.0110    0.0436
           9   -0.0087    0.0166   -0.0026    0.0037    0.0011    0.0003   -0.0087    0.0086
          10   -0.0058    0.0475   -0.0152   -0.0152    0.0083   -0.0083    0.0021   -0.0033
          11   -0.0263    0.0018   -0.0096    0.0137    0.0127   -0.0044   -0.0155    0.0024
          12    0.0358   -0.0209    0.0495   -0.0326   -0.0100    0.0043    0.0091   -0.0001
          13    0.0118   -0.0452   -0.0129    0.0263    0.0064   -0.0280    0.0240    0.0082
          14    0.0188    0.0102   -0.0123   -0.0017   -0.0136   -0.0095   -0.0078    0.0035
          15   -0.0032   -0.0066   -0.0094    0.0078    0.0042    0.0148    0.0090   -0.0002
          16    0.0029   -0.0067    0.0098    0.0335   -0.0014    0.0025   -0.0034   -0.0027
          17   -0.0042   -0.0333   -0.0098   -0.0275   -0.0033   -0.0001   -0.0022   -0.0012
          18   -0.0115    0.0164   -0.0089    0.0033    0.0055   -0.0019    0.0073    0.0030
          19    0.0262   -0.0026   -0.0185   -0.0019   -0.0164    0.0114   -0.0182   -0.0069
          20   -0.0031    0.0123    0.0297   -0.0176    0.0155   -0.0144   -0.0081   -0.0101
          21   -0.0164    0.0140    0.0054   -0.0146    0.0026    0.0030    0.0025    0.0092
          22    0.0164   -0.0092   -0.0208   -0.0002   -0.0264    0.0068   -0.0195   -0.0058
          23    0.0033    0.0241   -0.0097   -0.0126   -0.0283    0.0031   -0.0219   -0.0032
          24    0.0276    0.0149   -0.0202   -0.0083   -0.0059    0.0354   -0.0241   -0.0074
          25   -0.0074   -0.0021   -0.0055    0.0060    0.0010    0.0005   -0.0014   -0.0050
          26    0.0008    0.0076    0.0033    0.0066    0.0001    0.0004   -0.0019   -0.0106
          27   -0.0062   -0.0138   -0.0030    0.0143    0.0022   -0.0002    0.0072    0.0085
          28    0.0058   -0.0285    0.0101   -0.0015    0.0463   -0.0468   -0.0382   -0.0072
          29    0.0771   -0.0461    0.0615   -0.0406    0.0570   -0.0623   -0.0089   -0.0173
          30   -0.0465    0.0002    0.0082    0.0095   -0.0207    0.0224    0.0152   -0.0022
          31   -0.0487   -0.0127    0.0480   -0.0140   -0.0496    0.0779    0.0225    0.0068
          32   -0.0822    0.0022   -0.0198    0.0568   -0.0224    0.0439    0.0415   -0.0190
          33   -0.0984    0.0138   -0.0136    0.0405   -0.0454    0.0600    0.0359   -0.0061
          34   -0.0431   -0.0186    0.0466   -0.0036   -0.0471    0.0758    0.0282    0.0062
          35    0.0292   -0.0085   -0.0492    0.0144    0.1172   -0.0389   -0.0399   -0.0117
          36    0.0092   -0.0120   -0.0240    0.0159    0.0451   -0.0028   -0.0039   -0.0065
          37   -0.0052    0.0047    0.0154   -0.0294    0.0464   -0.0323   -0.1009    0.0119
          38    0.0263   -0.0006   -0.0248    0.0073   -0.0098   -0.0103    0.0133    0.0073
          39    0.0086   -0.0008   -0.0002    0.0108   -0.1117    0.0257    0.0709    0.0168
          40    0.0160    0.0921    0.0197   -0.0084    0.0087   -0.0191    0.0816   -0.0938
          41    0.0094    0.0462    0.0470    0.0358   -0.0015   -0.0008    0.0081   -0.0688
          42   -0.0255   -0.0089   -0.0474   -0.0427    0.0048   -0.0028   -0.0055    0.0866
          43   -0.0073    0.0339   -0.0338   -0.0416    0.0273   -0.0189    0.0340    0.0996
          44    0.0079    0.0302    0.0380    0.0207   -0.0061    0.0014    0.0018   -0.0500
          45   -0.0084    0.0896    0.0185    0.0413    0.0130   -0.0063    0.0148   -0.0955
          46   -0.0311   -0.0397   -0.0317    0.0066   -0.0025    0.0086   -0.0504    0.0601
          47    0.0288    0.0024    0.0322    0.0106   -0.0032   -0.0036    0.0382   -0.0957
          48   -0.0074    0.0226   -0.0007    0.0331    0.0024    0.0038   -0.0014   -0.0818
          49    0.0229   -0.0459   -0.0277    0.0312    0.0741    0.0221    0.0176   -0.0091
          50    0.0179    0.0030   -0.0148    0.0057    0.1316    0.0680   -0.0193   -0.0152
          51   -0.0438   -0.0086    0.0422   -0.0054   -0.1284   -0.1041    0.0215    0.0474
          52    0.0573   -0.0434    0.0106   -0.0112    0.0119    0.0532    0.0080    0.0189
          53    0.0442   -0.0135    0.0570   -0.0407    0.0413    0.0466    0.0281    0.0262
          54   -0.1066    0.0327   -0.0335    0.0375   -0.0319   -0.1122   -0.0643   -0.0583
          55   -0.0012    0.0106   -0.0124   -0.0233    0.0214    0.0834   -0.0323   -0.0132
          56   -0.0090    0.0168   -0.0335    0.0007    0.0500    0.1191    0.0224    0.0131
          57    0.0479    0.0089   -0.0045   -0.0060   -0.1008   -0.1080   -0.0553   -0.0170
          58    0.0355    0.0232    0.0573    0.0984   -0.0061    0.0115   -0.0493    0.0142
          59   -0.0428   -0.0427   -0.0617   -0.0874    0.0023   -0.0070    0.0309   -0.0668
          60   -0.0158   -0.0901   -0.0208   -0.0076   -0.0110    0.0082   -0.0280   -0.0993
          61   -0.0634   -0.0139   -0.0888   -0.1317    0.0163   -0.0194    0.0763    0.0156
          62    0.0508    0.1183    0.0855    0.1475    0.0086    0.0040   -0.0075    0.1003
          63    0.0097    0.0152    0.0228    0.0593    0.0036    0.0020    0.0012    0.0351


   Root No.      17        18        19        20        21        22        23        24

                17 A      18 A      19 A      20 A      21 A      22 A      23 A      24 A   

                 920.7     934.8     943.2     950.1     976.0     997.9    1017.0    1025.5
  
           1   -0.0026    0.0001    0.0130    0.0102   -0.0186    0.0238   -0.0072   -0.0112
           2   -0.0023   -0.0006    0.0088    0.0220   -0.0324   -0.0136   -0.0060   -0.0084
           3   -0.0139    0.0033    0.0391   -0.0013   -0.0234    0.0077    0.0152    0.0071
           4   -0.0038   -0.0075   -0.0032   -0.0057    0.0086   -0.0178    0.0064    0.0066
           5    0.0086    0.0155    0.0144   -0.0140    0.0050    0.0362    0.0045    0.0026
           6    0.0003   -0.0000   -0.0127    0.0091   -0.0022    0.0197   -0.0174   -0.0179
           7    0.0097    0.0060   -0.0005    0.0040   -0.0116   -0.0093    0.0004   -0.0062
           8    0.0097   -0.0122   -0.0050   -0.0162   -0.0163    0.0042    0.0065   -0.0126
           9    0.0054    0.0171   -0.0125   -0.0181   -0.0210   -0.0010   -0.0031   -0.0080
          10   -0.0047    0.0118   -0.0013   -0.0032    0.0021    0.0012    0.0005    0.0090
          11   -0.0153   -0.0039    0.0001   -0.0080    0.0139    0.0059    0.0090    0.0068
          12    0.0283   -0.0001   -0.0138    0.0016    0.0039   -0.0113   -0.0116   -0.0119
          13   -0.0047    0.0068   -0.0144   -0.0109    0.0212   -0.0288   -0.0033    0.0091
          14   -0.0156   -0.0031   -0.0002   -0.0008    0.0018   -0.0198   -0.0141   -0.0110
          15    0.0195    0.0013   -0.0067   -0.0031    0.0041   -0.0099    0.0229    0.0243
          16   -0.0015   -0.0215   -0.0021   -0.0099   -0.0042    0.0006    0.0041   -0.0130
          17    0.0039    0.0182    0.0054    0.0150    0.0088   -0.0005   -0.0097    0.0169
          18   -0.0042   -0.0017    0.0050    0.0074    0.0066    0.0007    0.0027    0.0041
          19    0.0156   -0.0053    0.0110   -0.0005   -0.0068   -0.0074   -0.0019   -0.0083
          20    0.0276    0.0068   -0.0087   -0.0119    0.0351    0.0039   -0.0152    0.0045
          21   -0.0373    0.0031   -0.0221    0.0036    0.0125    0.0142    0.0058    0.0133
          22   -0.0034   -0.0085   -0.0044    0.0113   -0.0006    0.0082    0.0073    0.0077
          23   -0.0030   -0.0112   -0.0107    0.0177   -0.0130   -0.0022    0.0154    0.0115
          24   -0.0043   -0.0049    0.0208   -0.0060    0.0060   -0.0227   -0.0144   -0.0078
          25   -0.0046   -0.0020   -0.0028   -0.0078   -0.0084    0.0043   -0.0114    0.0224
          26   -0.0037    0.0183   -0.0036    0.0000    0.0044   -0.0045    0.0179   -0.0265
          27   -0.0009   -0.0284    0.0154    0.0189    0.0206    0.0008    0.0054   -0.0029
          28   -0.0439   -0.0036    0.0488    0.0139   -0.0313    0.1247   -0.0417   -0.0633
          29   -0.0323    0.0114    0.1122    0.0004   -0.0781   -0.0484    0.0657    0.0518
          30    0.0104    0.0011   -0.0032    0.0039   -0.0072   -0.0198    0.0081    0.0089
          31    0.0594    0.0038   -0.0133   -0.0099    0.0094    0.0647    0.0226   -0.0010
          32   -0.0057   -0.0110   -0.0505    0.0591   -0.0389   -0.0640   -0.0593   -0.0400
          33    0.0196   -0.0061   -0.0473    0.0303   -0.0136   -0.0268   -0.0303   -0.0239
          34    0.0523   -0.0017   -0.0295    0.0017    0.0063    0.0471    0.0122   -0.0101
          35    0.0009   -0.0194   -0.0582    0.0454   -0.0153    0.0217   -0.0475   -0.0527
          36    0.0208   -0.0095   -0.0494    0.0321   -0.0093    0.0405   -0.0334   -0.0438
          37   -0.0330   -0.0263   -0.0093   -0.0256    0.0528    0.0017   -0.0067   -0.0030
          38   -0.0005    0.0125    0.0172   -0.0277    0.0252    0.0508    0.0027    0.0019
          39    0.0191    0.0364    0.0465   -0.0611    0.0425    0.1044    0.0191    0.0137
          40   -0.0080    0.0623    0.0238    0.0572   -0.0150   -0.0168   -0.0676    0.0564
          41   -0.0199   -0.0090    0.0092    0.0190    0.0448    0.0017    0.0194    0.0008
          42    0.0328    0.0563   -0.0139   -0.0267   -0.1094   -0.0030   -0.0742    0.0218
          43    0.0092    0.0039   -0.0277   -0.0585   -0.0536   -0.0045    0.0725   -0.0634
          44   -0.0041    0.0011    0.0126    0.0266    0.0207    0.0008   -0.0288    0.0250
          45   -0.0483    0.0614   -0.0198   -0.0234    0.0055   -0.0022    0.0537   -0.0169
          46    0.0059    0.1521    0.0233    0.0703    0.0325   -0.0020   -0.0119    0.0461
          47   -0.0200   -0.1469   -0.0280   -0.0772   -0.0251    0.0045    0.0188   -0.0433
          48   -0.0430   -0.0110   -0.0187   -0.0355    0.0053    0.0069    0.0331   -0.0087
          49    0.0560    0.0030   -0.0268    0.0022    0.0099   -0.0056    0.0332    0.0376
          50    0.0934   -0.0134   -0.0400    0.0101   -0.0108   -0.0460    0.0667    0.0550
          51   -0.1142    0.0071    0.0060   -0.0429    0.0400   -0.1100   -0.0465   -0.0256
          52   -0.0772   -0.0013   -0.0325    0.0042    0.0269    0.0468   -0.0080    0.0052
          53   -0.0960    0.0097   -0.0604    0.0077    0.0410    0.0388   -0.0039    0.0235
          54    0.1850    0.0012    0.0621   -0.0457    0.0447   -0.0122   -0.0346   -0.0190
          55   -0.0266    0.0070    0.0438   -0.0267    0.0577    0.0756   -0.0629   -0.0313
          56   -0.0312    0.0128    0.0754   -0.0555    0.0102   -0.1146   -0.0198   -0.0143
          57    0.0330   -0.0350   -0.0813    0.0787   -0.0472    0.0304    0.0572    0.0383
          58   -0.0031    0.1461   -0.0016    0.0350    0.0284   -0.0180    0.0594   -0.0836
          59   -0.0171   -0.0842   -0.0283   -0.0718   -0.0542    0.0175   -0.0490    0.0784
          60   -0.0337    0.0746   -0.0519   -0.0716   -0.0493    0.0040    0.0012    0.0141
          61    0.0091   -0.1062    0.0577    0.0836    0.0938   -0.0138    0.0588   -0.0801
          62    0.0141   -0.0964    0.0341    0.0182   -0.0045    0.0237   -0.0649    0.1079
          63    0.0022   -0.0524    0.0220    0.0187    0.0133    0.0094   -0.0194    0.0380


   Root No.      25        26        27        28        29        30        31        32

                25 A      26 A      27 A      28 A      29 A      30 A      31 A      32 A   

                1056.3    1073.3    1082.9    1109.9    1122.9    1157.8    1161.9    1192.7
  
           1   -0.0035   -0.0031   -0.0223    0.0228    0.0152    0.0056    0.0030   -0.0103
           2   -0.0017    0.0100    0.0010    0.0219   -0.0072    0.0063    0.0010    0.0026
           3    0.0007   -0.0068    0.0074   -0.0242   -0.0023   -0.0019   -0.0012   -0.0003
           4    0.0051    0.0096    0.0102   -0.0219   -0.0169   -0.0086   -0.0018    0.0111
           5    0.0056    0.0065    0.0001   -0.0165   -0.0044    0.0033    0.0007   -0.0061
           6   -0.0074   -0.0024    0.0095    0.0313   -0.0059    0.0036    0.0016   -0.0027
           7   -0.0088    0.0106    0.0038   -0.0009   -0.0017   -0.0002    0.0168    0.0025
           8   -0.0022   -0.0025   -0.0085   -0.0004   -0.0026    0.0059    0.0303    0.0042
           9    0.0121   -0.0035   -0.0040    0.0001   -0.0015   -0.0028   -0.0314   -0.0155
          10    0.0053   -0.0106   -0.0052   -0.0007   -0.0062    0.0031    0.0078   -0.0307
          11    0.0022   -0.0038    0.0106    0.0023    0.0098   -0.0085   -0.0034    0.0013
          12   -0.0076    0.0155   -0.0080   -0.0033    0.0020   -0.0041    0.0038   -0.0001
          13   -0.0014   -0.0202   -0.0212    0.0009   -0.0012   -0.0015   -0.0015    0.0050
          14   -0.0077   -0.0088    0.0107   -0.0003    0.0059    0.0045   -0.0010    0.0042
          15    0.0120    0.0058   -0.0172   -0.0002    0.0051    0.0045   -0.0023    0.0078
          16    0.0221   -0.0088    0.0007    0.0011    0.0005   -0.0019   -0.0181    0.0071
          17   -0.0151    0.0067    0.0004    0.0008    0.0008   -0.0036   -0.0290    0.0062
          18   -0.0130    0.0042   -0.0008   -0.0015   -0.0010    0.0032    0.0281   -0.0197
          19   -0.0032    0.0154    0.0199   -0.0013    0.0130    0.0027    0.0039   -0.0146
          20    0.0038   -0.0146   -0.0215   -0.0042   -0.0026   -0.0027    0.0004    0.0027
          21    0.0093   -0.0054   -0.0021   -0.0020    0.0055   -0.0029    0.0002   -0.0085
          22    0.0021   -0.0047   -0.0111   -0.0011   -0.0088   -0.0011   -0.0025    0.0051
          23    0.0027   -0.0036   -0.0083   -0.0030    0.0039   -0.0015   -0.0021    0.0096
          24   -0.0060   -0.0127   -0.0134   -0.0021   -0.0036   -0.0025   -0.0028    0.0093
          25   -0.0182    0.0058    0.0000   -0.0003   -0.0001   -0.0005   -0.0046   -0.0111
          26    0.0124   -0.0040   -0.0004   -0.0001   -0.0005    0.0001   -0.0011   -0.0106
          27    0.0021   -0.0019    0.0012    0.0009    0.0009   -0.0006   -0.0069    0.0049
          28    0.0008    0.0548   -0.1229   -0.1387    0.1153    0.0161   -0.0135    0.0184
          29    0.0031   -0.0433    0.0777    0.0545   -0.0792   -0.0103    0.0116   -0.0249
          30   -0.0027   -0.0131    0.0258    0.0269   -0.0216   -0.0025    0.0024   -0.0041
          31   -0.0520   -0.1147    0.0532    0.2419    0.0630    0.0529   -0.0074    0.0065
          32    0.0217    0.0980   -0.0441   -0.0594   -0.0545   -0.0239    0.0144   -0.0140
          33   -0.0009    0.0291   -0.0025    0.0057   -0.0273   -0.0083    0.0075   -0.0095
          34   -0.0483   -0.0905    0.1474   -0.2218   -0.0547   -0.0861    0.0044   -0.0044
          35   -0.0342   -0.0247    0.0809   -0.0060   -0.0388   -0.0292    0.0102   -0.0244
          36   -0.0428   -0.0538    0.0953   -0.0438   -0.0347   -0.0386    0.0077   -0.0169
          37    0.0492    0.1431    0.0516    0.1399   -0.1151   -0.1066    0.0163    0.0136
          38    0.0264    0.0642    0.0185    0.0416   -0.0469   -0.0354    0.0088   -0.0097
          39    0.0379    0.0794    0.0258    0.0364   -0.0625   -0.0452    0.0136   -0.0286
          40    0.0906   -0.0141    0.0547    0.0062    0.0169   -0.0183   -0.0086    0.1050
          41   -0.0492    0.0169   -0.0065    0.0000    0.0016    0.0020    0.0057   -0.0275
          42    0.1564   -0.0514    0.0307    0.0048    0.0055   -0.0112   -0.0179    0.1085
          43   -0.1132    0.0480   -0.0038    0.0062    0.0003   -0.0012   -0.0609    0.1077
          44    0.0423   -0.0186   -0.0002   -0.0023   -0.0021    0.0013    0.0332   -0.0329
          45   -0.0912    0.0333    0.0077    0.0106    0.0036   -0.0247   -0.2388    0.1196
          46   -0.0582    0.0199    0.0039   -0.0012    0.0015    0.0093    0.0942    0.0686
          47    0.0509   -0.0207   -0.0012    0.0011    0.0006    0.0003   -0.0031    0.0241
          48   -0.0291    0.0012    0.0021   -0.0059    0.0007    0.0358    0.3252    0.1455
          49    0.0139   -0.0059   -0.0375   -0.0042   -0.0036   -0.0060   -0.0020    0.0090
          50    0.0377    0.0812    0.0758   -0.0498    0.0504    0.2040   -0.0227   -0.0446
          51   -0.0071    0.0200    0.0850   -0.0191    0.0379    0.1645   -0.0173   -0.0381
          52    0.0393    0.0640    0.1393    0.0083    0.1863   -0.0361    0.0098    0.0249
          53    0.0277   -0.0047    0.0081   -0.0005    0.0458   -0.0156   -0.0009    0.0087
          54    0.0008    0.0272    0.0680   -0.0003    0.1012   -0.0227    0.0113    0.0298
          55    0.0080   -0.0100    0.0084   -0.0244   -0.1371    0.2042   -0.0488    0.0700
          56   -0.0185   -0.0123   -0.0231    0.0124    0.0827   -0.1349    0.0277   -0.0323
          57    0.0090   -0.0030   -0.0132   -0.0021    0.0076   -0.0104   -0.0012    0.0079
          58    0.0333   -0.0105   -0.0008   -0.0006   -0.0013    0.0025    0.0148   -0.0196
          59   -0.0506    0.0165   -0.0006   -0.0010   -0.0004   -0.0007   -0.0037   -0.0151
          60   -0.0358    0.0114   -0.0018   -0.0029   -0.0020    0.0057    0.0457   -0.0302
          61    0.0416   -0.0133    0.0047    0.0039    0.0029   -0.0032   -0.0327    0.0305
          62   -0.0567    0.0149    0.0027    0.0026    0.0024   -0.0032   -0.0310    0.0251
          63   -0.0205    0.0044    0.0019    0.0013    0.0015   -0.0010   -0.0106    0.0123


   Root No.      33        34        35        36        37        38        39        40

                33 A      34 A      35 A      36 A      37 A      38 A      39 A      40 A   

                1218.9    1230.9    1305.3    1343.7    1359.4    1386.9    1394.4    1398.6
  
           1   -0.0060    0.0266    0.0228   -0.0163   -0.0195   -0.0013   -0.0004   -0.0373
           2    0.0011   -0.0150   -0.0138    0.0133    0.0004    0.0215   -0.0141   -0.0230
           3    0.0004   -0.0047   -0.0046    0.0010    0.0015    0.0100   -0.0048   -0.0095
           4    0.0146    0.0024   -0.0128    0.0336   -0.0238   -0.0021    0.0057    0.0470
           5   -0.0037    0.0092    0.0013    0.0137   -0.0040   -0.0247    0.0075   -0.0031
           6    0.0001    0.0061   -0.0035    0.0214   -0.0044   -0.0289    0.0082   -0.0019
           7    0.0159   -0.0118   -0.0214    0.0063    0.0119    0.0219   -0.0299    0.0058
           8    0.0052    0.0040    0.0111   -0.0057   -0.0033   -0.0073   -0.0074   -0.0025
           9   -0.0136    0.0126   -0.0289    0.0089    0.0169    0.0352    0.0401   -0.0054
          10   -0.0248    0.0224    0.0062    0.0108    0.0092   -0.0065   -0.0009   -0.0027
          11   -0.0034   -0.0230   -0.0076    0.0094   -0.0086   -0.0060    0.0074    0.0106
          12   -0.0092   -0.0040    0.0058    0.0068   -0.0041   -0.0103   -0.0002    0.0034
          13    0.0042   -0.0005    0.0008   -0.0143    0.0107    0.0108   -0.0039   -0.0086
          14    0.0103    0.0097   -0.0066    0.0075    0.0057    0.0005   -0.0009    0.0018
          15    0.0128    0.0082   -0.0062    0.0008    0.0093    0.0061   -0.0027   -0.0009
          16   -0.0144    0.0069   -0.0118   -0.0041   -0.0019   -0.0001    0.0037   -0.0007
          17   -0.0224    0.0110   -0.0149    0.0024    0.0045    0.0083    0.0067   -0.0005
          18    0.0322   -0.0143   -0.0045   -0.0146   -0.0137   -0.0176   -0.0171    0.0020
          19   -0.0193   -0.0061    0.0003    0.0247   -0.0065   -0.0209    0.0071    0.0112
          20   -0.0025   -0.0002    0.0099   -0.0115   -0.0014   -0.0020    0.0012   -0.0018
          21   -0.0118   -0.0024    0.0042    0.0047   -0.0029   -0.0090    0.0050    0.0041
          22   -0.0022   -0.0140    0.0097   -0.0225   -0.0057    0.0063   -0.0017   -0.0069
          23    0.0127    0.0030   -0.0043   -0.0030    0.0037    0.0083   -0.0029    0.0003
          24    0.0073   -0.0047    0.0017   -0.0134    0.0004    0.0096   -0.0026   -0.0037
          25    0.0168   -0.0074   -0.0001   -0.0080   -0.0081   -0.0113   -0.0094    0.0011
          26    0.0165   -0.0070    0.0017   -0.0060   -0.0062   -0.0086   -0.0067    0.0006
          27   -0.0036    0.0012   -0.0017   -0.0060   -0.0062   -0.0089   -0.0053    0.0005
          28   -0.0219   -0.1081   -0.0321   -0.0348    0.1009    0.0014    0.0061    0.1035
          29    0.0096    0.0884    0.0398   -0.0887    0.0798   -0.0613    0.0412    0.1242
          30    0.0033    0.0178    0.0023    0.0288   -0.0539    0.0249   -0.0181   -0.0848
          31   -0.0099   -0.0850   -0.0337   -0.0155    0.0778   -0.0088    0.0103    0.1072
          32   -0.0006    0.0733    0.0388   -0.0562    0.0421   -0.0443    0.0232    0.0567
          33   -0.0039    0.0325    0.0223   -0.0678    0.0890   -0.0606    0.0381    0.1379
          34   -0.0154   -0.0370   -0.0075   -0.0329    0.0765   -0.0331   -0.0058   -0.1174
          35   -0.0322   -0.0005    0.0420   -0.0533   -0.0850    0.1363   -0.0221    0.1152
          36   -0.0238   -0.0119    0.0169   -0.0330   -0.0036    0.0311   -0.0089   -0.0091
          37   -0.0068   -0.0730   -0.0246   -0.0316    0.0968   -0.0252   -0.0143   -0.1264
          38   -0.0178   -0.0179    0.0059   -0.0219    0.0224   -0.0035   -0.0044   -0.0405
          39   -0.0426   -0.0111    0.0475   -0.0691   -0.0770    0.1409   -0.0237    0.1086
          40    0.0323   -0.0784    0.0173   -0.0382   -0.0622   -0.0376    0.1950   -0.0128
          41    0.0141    0.0015   -0.0340   -0.0215   -0.0162    0.0166    0.1739   -0.0228
          42   -0.0185   -0.0346    0.0681    0.0025   -0.0168   -0.0458   -0.0859    0.0143
          43    0.0273   -0.0016    0.0237   -0.0532   -0.0438   -0.0257    0.1347   -0.0247
          44   -0.0153   -0.0010   -0.0013    0.0303    0.0269    0.0059   -0.1504    0.0217
          45   -0.0663    0.0241    0.0581    0.0040   -0.0026   -0.0460   -0.1766    0.0195
          46   -0.0698    0.0271   -0.0230    0.0093    0.0125    0.0194    0.0090   -0.0003
          47   -0.0360    0.0164   -0.0104    0.0025    0.0044    0.0079    0.0114   -0.0020
          48   -0.1095    0.0379   -0.0135    0.0141    0.0155    0.0203    0.0033   -0.0004
          49    0.0090    0.0010   -0.0012   -0.0132    0.0111    0.0127   -0.0042   -0.0068
          50   -0.0741   -0.0510    0.0399   -0.0529   -0.0065    0.0003   -0.0004   -0.0289
          51   -0.0628   -0.0441    0.0346   -0.0535    0.0015    0.0055   -0.0030   -0.0307
          52    0.0976    0.1161   -0.0147   -0.0235    0.0306    0.0398   -0.0267   -0.0165
          53    0.0259    0.0332    0.0047   -0.0251    0.0089    0.0158   -0.0051   -0.0095
          54    0.0634    0.0623    0.0019   -0.0270    0.0156    0.0217   -0.0193   -0.0109
          55    0.0952    0.0432   -0.0340    0.0031    0.0258    0.0251   -0.0093   -0.0055
          56   -0.0512   -0.0339    0.0246   -0.0217   -0.0164   -0.0018    0.0022   -0.0008
          57    0.0054   -0.0077    0.0036   -0.0164   -0.0007    0.0099   -0.0033   -0.0046
          58    0.0493   -0.0233    0.0753    0.0294    0.0180    0.0129    0.0127   -0.0015
          59    0.0219   -0.0102    0.0094    0.0007   -0.0011   -0.0030   -0.0055    0.0009
          60    0.0869   -0.0437    0.1787    0.0911    0.0628    0.0579    0.0468   -0.0045
          61   -0.0066   -0.0023    0.1296    0.0795    0.0581    0.0569    0.0478   -0.0047
          62   -0.0064   -0.0010    0.1169    0.0706    0.0517    0.0504    0.0448   -0.0049
          63   -0.0059    0.0011    0.0303    0.0136    0.0081    0.0049    0.0070   -0.0008


   Root No.      41        42        43        44        45        46        47        48

                41 A      42 A      43 A      44 A      45 A      46 A      47 A      48 A   

                1441.1    1470.1    1846.9    1858.5    1872.8    2933.6    2938.1    2946.8
  
           1   -0.0001    0.0668   -0.0015    0.0005    0.0011   -0.0015   -0.0002    0.0009
           2   -0.0130   -0.0665   -0.0020   -0.0038   -0.0180   -0.0108    0.0011    0.0085
           3   -0.0060   -0.0176   -0.0006   -0.0021   -0.0099    0.0304   -0.0019   -0.0253
           4    0.0303   -0.0333   -0.0040    0.0009    0.0024    0.0017   -0.0002    0.0019
           5    0.0325   -0.0052   -0.0184    0.0039    0.0098    0.0190   -0.0030    0.0247
           6    0.0398   -0.0125   -0.0181    0.0035    0.0083   -0.0173    0.0027   -0.0218
           7    0.0376    0.0549   -0.0088   -0.0125   -0.0187   -0.0004   -0.0048   -0.0001
           8   -0.0065   -0.0189    0.0004    0.0019   -0.0029   -0.0031   -0.0522   -0.0015
           9    0.0250    0.0227   -0.0063   -0.0307   -0.0033   -0.0006   -0.0112   -0.0003
          10   -0.0345   -0.0823    0.0395    0.0169    0.0948    0.0002   -0.0002    0.0001
          11   -0.0011    0.0865    0.0369    0.0216    0.1114   -0.0003   -0.0004    0.0001
          12   -0.0185    0.0108    0.0359    0.0169    0.1015   -0.0001   -0.0003   -0.0000
          13   -0.0226    0.0086   -0.0743    0.0113    0.0195    0.0002   -0.0000    0.0005
          14   -0.0351    0.0191    0.1487   -0.0247   -0.0480   -0.0004    0.0000   -0.0003
          15   -0.0406    0.0193    0.0928   -0.0157   -0.0313   -0.0001    0.0000   -0.0001
          16    0.0001   -0.0013    0.0131    0.1080   -0.0248    0.0000    0.0010    0.0001
          17    0.0054    0.0058    0.0074    0.0580   -0.0120    0.0001    0.0012    0.0000
          18   -0.0074   -0.0051    0.0168    0.1412   -0.0322   -0.0001   -0.0009   -0.0000
          19   -0.0451    0.0313   -0.0679   -0.0146   -0.0978    0.0001    0.0007    0.0000
          20    0.0153   -0.0207   -0.0195   -0.0178   -0.0901   -0.0001   -0.0002    0.0000
          21   -0.0096    0.0017   -0.0379   -0.0164   -0.0915    0.0002    0.0002   -0.0000
          22    0.0612   -0.0219    0.1307   -0.0156   -0.0146   -0.0001   -0.0001   -0.0001
          23   -0.0096    0.0016   -0.1378    0.0224    0.0422    0.0002    0.0000    0.0001
          24    0.0207   -0.0095   -0.0549    0.0113    0.0277   -0.0001    0.0000   -0.0001
          25   -0.0061   -0.0055   -0.0128   -0.1035    0.0230    0.0000    0.0000    0.0000
          26   -0.0047   -0.0045   -0.0081   -0.0655    0.0145    0.0000   -0.0002   -0.0000
          27   -0.0062   -0.0067   -0.0128   -0.1047    0.0237    0.0000    0.0003   -0.0000
          28   -0.0505   -0.0657    0.0203    0.0010    0.0152   -0.0750    0.0033    0.0664
          29    0.0362    0.0634   -0.0166   -0.0053   -0.0318   -0.0580    0.0036    0.0501
          30    0.0009   -0.0013   -0.0038   -0.0016   -0.0075   -0.1986    0.0107    0.1713
          31   -0.0136   -0.0637    0.0052    0.0013    0.0072    0.0930   -0.0071   -0.0785
          32    0.0160    0.0408   -0.0045   -0.0011   -0.0048    0.1918   -0.0138   -0.1527
          33    0.0166    0.0251   -0.0026    0.0004    0.0023   -0.1659    0.0123    0.1313
          34   -0.0223    0.0215   -0.0052    0.0004   -0.0004   -0.0767    0.0121   -0.1010
          35   -0.0643   -0.0057   -0.0006   -0.0007   -0.0035   -0.0724    0.0111   -0.0894
          36   -0.0227    0.0082   -0.0059    0.0007    0.0009    0.1992   -0.0306    0.2477
          37   -0.0308   -0.0140   -0.0180    0.0003   -0.0064    0.0562   -0.0090    0.0768
          38   -0.0054    0.0005   -0.0215    0.0033    0.0055   -0.1545    0.0246   -0.2054
          39   -0.0691   -0.0019   -0.0265    0.0035    0.0045    0.0120   -0.0019    0.0158
          40   -0.0523   -0.0060    0.0127    0.0132    0.0308   -0.0105   -0.1695   -0.0044
          41   -0.0176   -0.0286    0.0052    0.0045    0.0078    0.0188    0.3064    0.0080
          42   -0.0211    0.0030    0.0063   -0.0053    0.0205    0.0134    0.2191    0.0058
          43   -0.0355   -0.0748   -0.0045    0.0106   -0.0275    0.0137    0.2257    0.0062
          44    0.0315    0.0565    0.0025    0.0031    0.0065    0.0191    0.3185    0.0090
          45   -0.0088   -0.0114    0.0014    0.0317   -0.0126   -0.0050   -0.0856   -0.0025
          46    0.0138    0.0152    0.0047    0.0416   -0.0107   -0.0008   -0.0141   -0.0005
          47    0.0031    0.0004    0.0084    0.0663   -0.0147   -0.0009   -0.0159   -0.0006
          48    0.0135    0.0144   -0.0103   -0.0802    0.0164    0.0002    0.0038    0.0002
          49   -0.0260    0.0087   -0.0968    0.0151    0.0271   -0.0042    0.0006   -0.0044
          50    0.0750   -0.0146   -0.0066    0.0034    0.0123    0.0017   -0.0003    0.0023
          51    0.0517   -0.0088   -0.0563    0.0109    0.0248   -0.0013    0.0002   -0.0015
          52    0.0143   -0.0790   -0.0172    0.0196    0.0817    0.0002   -0.0002    0.0000
          53    0.0348   -0.0494   -0.0154   -0.0133   -0.0675   -0.0009    0.0036    0.0006
          54    0.0256   -0.0662   -0.0140    0.0013   -0.0005    0.0001    0.0015   -0.0001
          55   -0.0651    0.0373   -0.0650    0.0190    0.0577    0.0000    0.0000    0.0004
          56    0.0746   -0.0400   -0.0378    0.0042    0.0029    0.0000    0.0000    0.0004
          57    0.0282   -0.0115   -0.0662    0.0129    0.0300   -0.0004    0.0001   -0.0001
          58    0.0011   -0.0012   -0.0062   -0.0508    0.0114    0.0001    0.0021    0.0000
          59   -0.0013    0.0005   -0.0094   -0.0757    0.0167    0.0001    0.0024    0.0001
          60    0.0187    0.0165    0.0110    0.0877   -0.0190    0.0000    0.0002    0.0000
          61    0.0192    0.0155    0.0039    0.0300   -0.0059    0.0000    0.0006    0.0000
          62    0.0155    0.0101    0.0077    0.0589   -0.0124   -0.0000   -0.0007   -0.0000
          63   -0.0021   -0.0041   -0.0122   -0.1018    0.0237    0.0001    0.0019    0.0000


   Root No.      49        50        51        52        53        54        55        56

                49 A      50 A      51 A      52 A      53 A      54 A      55 A      56 A   

                3012.6    3018.7    3027.3    3046.6    3053.9    3059.4    3077.1    3135.0
  
           1   -0.0009   -0.0167   -0.0061   -0.0001    0.0007    0.0000    0.0005    0.0000
           2   -0.0014   -0.0219   -0.0085   -0.0001    0.0009    0.0003    0.0006    0.0000
           3   -0.0005   -0.0104   -0.0048   -0.0001    0.0006    0.0001    0.0005   -0.0000
           4   -0.0003   -0.0070    0.0160    0.0000   -0.0009    0.0012   -0.0014    0.0000
           5    0.0002    0.0071   -0.0194    0.0000    0.0012   -0.0017    0.0021   -0.0000
           6    0.0003    0.0067   -0.0152   -0.0000    0.0005   -0.0008    0.0012   -0.0000
           7   -0.0309    0.0012    0.0002   -0.0024   -0.0005   -0.0006   -0.0002    0.0000
           8   -0.0026   -0.0002   -0.0001   -0.0027    0.0001    0.0001    0.0001    0.0002
[...]
 FREQUENCY          1398.57         C  1 -- C  2         +17.0% ( 47.6%)     94.0%
 TRANSITION DIPOLE   0.0647         C  1 -- H 11         +16.0% ( 46.3%)      5.2%
 TRAVEL (Ang.)       0.2919         C  2 -- H 13         +15.8% ( 46.0%)      3.4%
 REDUCED MASS        0.5658         C  1 -- H 10         +15.6% ( 45.6%)      6.6%
 EFFECTIVE MASS      4.1147         C  2 -- H 12         +15.1% ( 44.9%)      3.2%
 FORCE CONSTANT      0.6520

 VIBRATION         41   41A           ATOM PAIR      ENERGY CONTRIBUTION    RADIAL
 FREQUENCY          1441.14         C  7 -- C  8         +15.1% ( 58.9%)     99.9%
 TRANSITION DIPOLE   0.1847         C  2 -- C  5         +14.1% ( 56.9%)     99.7%
 TRAVEL (Ang.)       0.1795         C  5 -- C  8         +10.5% ( 49.0%)      0.0%
 REDUCED MASS        1.4528         C  8 -- H 19          +7.9% ( 42.6%)      7.1%
 EFFECTIVE MASS     10.0377
 FORCE CONSTANT      1.7778

 VIBRATION         42   42A           ATOM PAIR      ENERGY CONTRIBUTION    RADIAL
 FREQUENCY          1470.06         C  1 -- C  4         +24.8% ( 76.1%)     87.1%
 TRANSITION DIPOLE   0.0706         C  3 -- C  4         +17.9% ( 64.5%)     75.8%
 TRAVEL (Ang.)       0.1237         C  4 -- C  7         +13.2% ( 55.5%)      1.1%
 REDUCED MASS        2.9986         C  1 -- C  2          +8.5% ( 44.5%)     72.6%
 EFFECTIVE MASS     10.7512
 FORCE CONSTANT      3.8180

 VIBRATION         43   43A           ATOM PAIR      ENERGY CONTRIBUTION    RADIAL
 FREQUENCY          1846.92         C  5 -- C  8         +38.5% ( 92.0%)     99.8%
 TRANSITION DIPOLE   0.3270         C  7 -- C  8         +15.5% ( 58.4%)     78.3%
 TRAVEL (Ang.)       0.0920         C  2 -- C  5         +12.0% ( 51.4%)     48.0%
 REDUCED MASS        4.3119         C  8 -- H 19         +11.9% ( 51.1%)      3.7%
 EFFECTIVE MASS     11.9005         C  5 -- H 17         +11.0% ( 49.3%)      5.5%
 FORCE CONSTANT      8.6659

 VIBRATION         44   44A           ATOM PAIR      ENERGY CONTRIBUTION    RADIAL
 FREQUENCY          1858.50         C  6 -- C  9         +42.7% ( 96.5%)     99.0%
 TRANSITION DIPOLE   0.2736         C  3 -- C  6         +15.7% ( 58.5%)     53.1%
 TRAVEL (Ang.)       0.0878         C  6 -- H 16         +14.4% ( 56.1%)      4.1%
 REDUCED MASS        4.7090         C  9 -- H 20         +10.4% ( 47.6%)     11.0%
 EFFECTIVE MASS     11.7983         C  9 -- H 21         +10.2% ( 47.2%)     12.8%
 FORCE CONSTANT      9.5831

 VIBRATION         45   45A           ATOM PAIR      ENERGY CONTRIBUTION    RADIAL
 FREQUENCY          1872.78         C  4 -- C  7         +37.9% ( 90.3%)     99.4%
 TRANSITION DIPOLE   0.4356         C  1 -- C  4         +13.4% ( 53.7%)     30.0%
 TRAVEL (Ang.)       0.0929         C  3 -- C  4         +13.4% ( 53.6%)     37.2%
 REDUCED MASS        4.1735         C  7 -- C  8         +11.5% ( 49.8%)     18.9%
 EFFECTIVE MASS     11.8075         C  7 -- H 18         +10.2% ( 46.9%)      5.6%
 FORCE CONSTANT      8.6242

 VIBRATION         46   46A           ATOM PAIR      ENERGY CONTRIBUTION    RADIAL
 FREQUENCY          2933.63         C  1 -- H 11         +35.0% ( 61.6%)     97.2%
 TRANSITION DIPOLE   0.0319         C  2 -- H 12         +24.3% ( 51.3%)     97.6%
 TRAVEL (Ang.)       0.2866         C  1 -- H 10         +24.0% ( 51.0%)     95.2%
 REDUCED MASS        0.2799         C  2 -- H 13         +13.7% ( 38.5%)     94.4%
 EFFECTIVE MASS      1.5476
 FORCE CONSTANT      1.4194

 VIBRATION         47   47A           ATOM PAIR      ENERGY CONTRIBUTION    RADIAL
 FREQUENCY          2938.07         C  3 -- H 14         +49.8% ( 73.3%)     96.7%
 TRANSITION DIPOLE   0.0560         C  3 -- H 15         +46.9% ( 71.2%)     96.3%
 TRAVEL (Ang.)       0.2119         C  3 -- C  6          +1.2% ( 11.3%)      0.2%
 REDUCED MASS        0.5112         C  3 -- C  4          +1.2% ( 11.3%)      0.1%
 EFFECTIVE MASS      1.5509
 FORCE CONSTANT      2.5998

 VIBRATION         48   48A           ATOM PAIR      ENERGY CONTRIBUTION    RADIAL
 FREQUENCY          2946.79         C  2 -- H 12         +36.3% ( 62.3%)     97.6%
 TRANSITION DIPOLE   0.0549         C  2 -- H 13         +23.0% ( 49.7%)     95.1%
 TRAVEL (Ang.)       0.2860         C  1 -- H 11         +21.4% ( 47.9%)     97.1%
 REDUCED MASS        0.2798         C  1 -- H 10         +17.0% ( 42.7%)     96.0%
 EFFECTIVE MASS      1.5278
 FORCE CONSTANT      1.4314

 VIBRATION         49   49A           ATOM PAIR      ENERGY CONTRIBUTION    RADIAL
 FREQUENCY          3012.62         C  3 -- H 15         +50.6% ( 70.1%)     97.8%
 TRANSITION DIPOLE   0.0583         C  3 -- H 14         +47.6% ( 68.0%)     97.4%
 TRAVEL (Ang.)       0.2160         C  3 -- C  6          +0.6% (  7.9%)     30.3%
 REDUCED MASS        0.4795         C  3 -- C  4          +0.6% (  7.8%)     31.4%
 EFFECTIVE MASS      1.2766
 FORCE CONSTANT      2.5643

 VIBRATION         50   50A           ATOM PAIR      ENERGY CONTRIBUTION    RADIAL
 FREQUENCY          3018.66         C  1 -- H 10         +49.3% ( 69.2%)     98.5%
 TRANSITION DIPOLE   0.0765         C  1 -- H 11         +35.5% ( 58.8%)     96.6%
 TRAVEL (Ang.)       0.2440         C  2 -- H 13          +8.0% ( 27.8%)     98.6%
 REDUCED MASS        0.3753         C  2 -- H 12          +5.6% ( 23.3%)     96.4%
 EFFECTIVE MASS      1.2809
 FORCE CONSTANT      2.0151

 VIBRATION         51   51A           ATOM PAIR      ENERGY CONTRIBUTION    RADIAL
 FREQUENCY          3027.26         C  2 -- H 13         +53.8% ( 72.3%)     99.0%
 TRANSITION DIPOLE   0.0891         C  2 -- H 12         +30.3% ( 54.2%)     95.6%
 TRAVEL (Ang.)       0.2406         C  1 -- H 10          +8.3% ( 28.5%)     98.8%
 REDUCED MASS        0.3848         C  1 -- H 11          +5.1% ( 22.2%)     96.1%
 EFFECTIVE MASS      1.2823
 FORCE CONSTANT      2.0778

 VIBRATION         52   52A           ATOM PAIR      ENERGY CONTRIBUTION    RADIAL
 FREQUENCY          3046.61         C  6 -- H 16         +95.9% ( 99.3%)    100.0%
 TRANSITION DIPOLE   0.2481         C  6 -- C  9          +1.4% ( 12.0%)     30.6%
 TRAVEL (Ang.)       0.1564         C  3 -- C  6          +1.3% ( 11.6%)     13.9%
 REDUCED MASS        0.9045         C  9 -- H 21          +1.0% ( 10.1%)     95.8%
 EFFECTIVE MASS      1.5001
 FORCE CONSTANT      4.9464

 VIBRATION         53   53A           ATOM PAIR      ENERGY CONTRIBUTION    RADIAL
 FREQUENCY          3053.94         C  7 -- H 18         +40.4% ( 64.6%)    100.0%
 TRANSITION DIPOLE   0.0866         C  8 -- H 19         +36.4% ( 61.4%)    100.0%
 TRAVEL (Ang.)       0.2584         C  5 -- H 17         +20.1% ( 45.5%)    100.0%
 REDUCED MASS        0.3308         C  7 -- C  8          +1.1% ( 10.7%)      0.0%
 EFFECTIVE MASS      1.4943
 FORCE CONSTANT      1.8177

 VIBRATION         54   54A           ATOM PAIR      ENERGY CONTRIBUTION    RADIAL
 FREQUENCY          3059.42         C  7 -- H 18         +50.0% ( 71.8%)    100.0%
 TRANSITION DIPOLE   0.4057         C  5 -- H 17         +38.7% ( 63.1%)    100.0%
 TRAVEL (Ang.)       0.2345         C  8 -- H 19          +8.0% ( 28.7%)     99.8%
 REDUCED MASS        0.4007         C  7 -- C  8          +0.9% (  9.6%)     52.1%
 EFFECTIVE MASS      1.4968
 FORCE CONSTANT      2.2096

 VIBRATION         55   55A           ATOM PAIR      ENERGY CONTRIBUTION    RADIAL
 FREQUENCY          3077.13         C  8 -- H 19         +52.5% ( 73.5%)     99.9%
 TRANSITION DIPOLE   0.3760         C  5 -- H 17         +37.1% ( 61.8%)     99.9%
 TRAVEL (Ang.)       0.2287         C  7 -- H 18          +6.3% ( 25.4%)    100.0%
 REDUCED MASS        0.4190         C  5 -- C  8          +1.9% ( 14.1%)     98.6%
 EFFECTIVE MASS      1.5980
 FORCE CONSTANT      2.3374

 VIBRATION         56   56A           ATOM PAIR      ENERGY CONTRIBUTION    RADIAL
 FREQUENCY          3135.04         C  9 -- H 20         +91.7% ( 97.5%)     99.9%
 TRANSITION DIPOLE   0.2005         C  9 -- H 21          +7.0% ( 26.8%)     71.9%
 TRAVEL (Ang.)       0.1589         C  6 -- C  9          +1.3% ( 11.7%)     21.9%
 REDUCED MASS        0.8516
 EFFECTIVE MASS      1.5386
 FORCE CONSTANT      4.9317

 VIBRATION         57   57A           ATOM PAIR      ENERGY CONTRIBUTION    RADIAL
 FREQUENCY          3147.52         C  9 -- H 21         +91.6% ( 96.3%)     99.7%
 TRANSITION DIPOLE   0.2703         C  9 -- H 20          +5.9% ( 24.5%)     42.3%
 TRAVEL (Ang.)       0.1621         C  6 -- C  9          +1.6% ( 12.7%)     73.9%
 REDUCED MASS        0.8152         C  6 -- H 16          +0.8% (  9.3%)     95.2%
 EFFECTIVE MASS      1.4655
 FORCE CONSTANT      4.7581

      SYMMETRY NUMBER FOR POINT-GROUP C1  =  1


          SYSTEM IS A GROUND STATE



 InChI=1S/C9H12/c1-2-6-9-7-4-3-5-8-9/h2-4,7H,1,5-6,8H2


          MOLECULE IS NOT LINEAR

          THERE ARE 57 GENUINE VIBRATIONS IN THIS SYSTEM
          THIS THERMODYNAMICS CALCULATION IS LIMITED TO
          MOLECULES WHICH HAVE NO INTERNAL ROTATIONS




                    CALCULATED THERMODYNAMIC PROPERTIES
                                          *
   TEMP. (K)   PARTITION FUNCTION   H.O.F.    ENTHALPY  HEAT CAPACITY ENTROPY
                                   KCAL/MOL   CAL/MOLE    CAL/K/MOL  CAL/K/MOL


 298.00  VIB.     0.8767D+03                  3922.6880    27.8830    26.6291
         ROT.     0.4986D+06                   888.2803     2.9808    29.0519
         INT.     0.4371D+09                  4810.9683    30.8638    55.6810
         TRA.     0.1274D+28                  1480.4672     4.9680    40.2640
         TOT.                       31.069    6291.4355    35.8319    95.9451

 200.00  VIB.     0.1019D+03                  1743.7437    16.9238    17.9078
         ROT.     0.2741D+06                   596.1613     2.9808    27.8633
         INT.     0.2794D+08                  2339.9050    19.9046    45.7711
         TRA.     0.7004D+27                   993.6021     4.9680    38.2829
         TOT.                       28.111    3333.5071    24.8726    84.0540

 210.00  VIB.     0.1269D+03                  1917.9887    17.9308    18.7578
         ROT.     0.2949D+06                   625.9693     2.9808    28.0087
         INT.     0.3742D+08                  2543.9580    20.9116    46.7665
         TRA.     0.7536D+27                  1043.2822     4.9680    38.5253
         TOT.                       28.365    3587.2402    25.8796    85.2918

 220.00  VIB.     0.1579D+03                  2102.4693    18.9706    19.6158
         ROT.     0.3163D+06                   655.7774     2.9808    28.1474
         INT.     0.4994D+08                  2758.2467    21.9514    47.7632
         TRA.     0.8081D+27                  1092.9623     4.9680    38.7564
         TOT.                       28.628    3851.2090    26.9194    86.5196

 230.00  VIB.     0.1965D+03                  2297.5027    20.0410    20.4826
         ROT.     0.3381D+06                   685.5855     2.9808    28.2799
         INT.     0.6642D+08                  2983.0882    23.0218    48.7624
         TRA.     0.8638D+27                  1142.6424     4.9680    38.9773
         TOT.                       28.903    4125.7306    27.9898    87.7397

 240.00  VIB.     0.2445D+03                  2503.3811    21.1391    21.3586
         ROT.     0.3603D+06                   715.3935     2.9808    28.4067
         INT.     0.8810D+08                  3218.7747    24.1199    49.7653
         TRA.     0.9207D+27                  1192.3226     4.9680    39.1887
         TOT.                       29.188    4411.0972    29.0879    88.9540

 250.00  VIB.     0.3043D+03                  2720.3671    22.2619    22.2443
         ROT.     0.3831D+06                   745.2016     2.9808    28.5284
         INT.     0.1166D+09                  3465.5687    25.2427    50.7727
         TRA.     0.9789D+27                  1242.0027     4.9680    39.3915
         TOT.                       29.485    4707.5714    30.2107    90.1642

 260.00  VIB.     0.3789D+03                  2948.6901    23.4059    23.1396
         ROT.     0.4063D+06                   775.0097     2.9808    28.6453
         INT.     0.1539D+09                  3723.6998    26.3867    51.7849
         TRA.     0.1038D+28                  1291.6828     4.9680    39.5863
         TOT.                       29.793    5015.3826    31.3547    91.3713

 270.00  VIB.     0.4720D+03                  3188.5443    24.5675    24.0447
         ROT.     0.4300D+06                   804.8177     2.9808    28.7578
         INT.     0.2030D+09                  3993.3620    27.5483    52.8025
         TRA.     0.1099D+28                  1341.3629     4.9680    39.7738
         TOT.                       30.112    5334.7249    32.5164    92.5763

 280.00  VIB.     0.5884D+03                  3440.0876    25.7431    24.9594
         ROT.     0.4541D+06                   834.6258     2.9808    28.8662
         INT.     0.2672D+09                  4274.7134    28.7239    53.8256
         TRA.     0.1160D+28                  1391.0430     4.9680    39.9545
         TOT.                       30.443    5665.7564    33.6920    93.7801

 290.00  VIB.     0.7341D+03                  3703.4417    26.9291    25.8834
         ROT.     0.4786D+06                   864.4339     2.9808    28.9708
         INT.     0.3514D+09                  4567.8756    29.9099    54.8542
         TRA.     0.1223D+28                  1440.7231     4.9680    40.1289
         TOT.                       30.786    6008.5987    34.8779    94.9830

 300.00  VIB.     0.9166D+03                  3978.6930    28.1220    26.8164
         ROT.     0.5036D+06                   894.2419     2.9808    29.0719
         INT.     0.4616D+09                  4872.9349    31.1028    55.8883
         TRA.     0.1287D+28                  1490.4032     4.9680    40.2973
         TOT.                       31.141    6363.3381    36.0708    96.1856

 310.00  VIB.     0.1146D+04                  4265.8939    29.3185    27.7580
         ROT.     0.5290D+06                   924.0500     2.9808    29.1696
         INT.     0.6060D+09                  5189.9439    32.2993    56.9276
         TRA.     0.1352D+28                  1540.0833     4.9680    40.4602
         TOT.                       31.507    6730.0272    37.2673    97.3878

 320.00  VIB.     0.1433D+04                  4565.0648    30.5155    28.7078
         ROT.     0.5548D+06                   953.8580     2.9808    29.2642
         INT.     0.7950D+09                  5518.9228    33.4963    57.9720
         TRA.     0.1418D+28                  1589.7634     4.9680    40.6179
         TOT.                       31.886    7108.6862    38.4643    98.5899

 330.00  VIB.     0.1794D+04                  4876.1963    31.7102    29.6651
         ROT.     0.5810D+06                   983.6661     2.9808    29.3560
         INT.     0.1042D+10                  5859.8624    34.6910    59.0210
         TRA.     0.1485D+28                  1639.4435     4.9680    40.7708
         TOT.                       32.277    7499.3059    39.6590    99.7918

 340.00  VIB.     0.2249D+04                  5199.2520    32.8999    30.6294
         ROT.     0.6076D+06                  1013.4742     2.9808    29.4450
         INT.     0.1366D+10                  6212.7261    35.8807    60.0743
         TRA.     0.1553D+28                  1689.1236     4.9680    40.9191
         TOT.                       32.679    7901.8498    40.8487   100.9934

 350.00  VIB.     0.2821D+04                  5534.1705    34.0824    31.6002
         ROT.     0.6346D+06                  1043.2822     2.9808    29.5314
         INT.     0.1790D+10                  6577.4528    37.0632    61.1315
         TRA.     0.1622D+28                  1738.8037     4.9680    41.0631
         TOT.                       33.094    8316.2565    42.0312   102.1946

 360.00  VIB.     0.3543D+04                  5880.8689    35.2555    32.5768
         ROT.     0.6620D+06                  1073.0903     2.9808    29.6153
         INT.     0.2346D+10                  6953.9592    38.2364    62.1921
         TRA.     0.1692D+28                  1788.4838     4.9680    41.2031
         TOT.                       33.520    8742.4430    43.2044   103.3952

 370.00  VIB.     0.4454D+04                  6239.2443    36.4175    33.5586
         ROT.     0.6898D+06                  1102.8984     2.9808    29.6970
         INT.     0.3072D+10                  7342.1427    39.3984    63.2556
         TRA.     0.1762D+28                  1838.1639     4.9680    41.3392
         TOT.                       33.958    9180.3066    44.3664   104.5948

 380.00  VIB.     0.5605D+04                  6609.1774    37.5668    34.5451
         ROT.     0.7179D+06                  1132.7064     2.9808    29.7765
         INT.     0.4024D+10                  7741.8838    40.5476    64.3216
         TRA.     0.1834D+28                  1887.8440     4.9680    41.4717
         TOT.                       34.407    9629.7279    45.5156   105.7932

 390.00  VIB.     0.7061D+04                  6990.5341    38.7021    35.5356
         ROT.     0.7464D+06                  1162.5145     2.9808    29.8539
         INT.     0.5270D+10                  8153.0485    41.6829    65.3895
         TRA.     0.1907D+28                  1937.5242     4.9680    41.6007
         TOT.                       34.868   10090.5727    46.6509   106.9902

 400.00  VIB.     0.8902D+04                  7383.1680    39.8221    36.5296
         ROT.     0.7753D+06                  1192.3226     2.9808    29.9294
         INT.     0.6902D+10                  8575.4906    42.8029    66.4590
         TRA.     0.1981D+28                  1987.2043     4.9680    41.7265
         TOT.                       35.340   10562.6948    47.7709   108.1855

   *: NOTE: HEATS OF FORMATION ARE RELATIVE TO THE
            ELEMENTS IN THEIR STANDARD STATE AT 298K
              (=  Standard Enthalpy of Formation).

            Hvib:  Zero-point energy is not included.
                   frequencies of less than zero cm-1 are not included.
            Hrot = (3/2)RT
            Htra = (3/2)RT + pV = (5/2)RT

            Heat capacity is Cp, not Cv

          For more information, see: HTTP://OpenMOPAC.net/Manual/thermochemistry.html


           FORCE CONSTANT IN CARTESIAN COORDINATES (Millidynes/A)

    ATOM   CHEMICAL       X               Y               Z
   NUMBER   SYMBOL  FORCE CONSTANT  FORCE CONSTANT  FORCE CONSTANT

      1       C        8.468029        8.565232        8.280876
      2       C        8.332244        8.754700        8.272389
      3       C        8.774869        8.352038        8.723444
      4       C       10.606901       10.273777        6.842995
      5       C       10.495332        9.841988        6.652424
      6       C        8.868528        6.769519       11.358635
      7       C       10.778460       10.575555        6.351206
      8       C       10.525689       10.112769        6.983385
      9       C        8.458146        6.530622       11.465054
     10       H        1.174843        0.867454        4.282931
     11       H        1.175140        2.690030        2.360762
     12       H        1.175110        1.143131        3.906652
     13       H        1.170730        4.465380        0.711820
     14       H        1.345142        3.133113        1.789042
     15       H        1.930374        3.509167        0.868695
     16       H        2.382333        2.683314        1.151879
     17       H        4.628536        0.777832        0.860566
     18       H        1.440075        3.910624        0.902674
     19       H        1.452448        2.136775        2.675186
     20       H        2.551790        2.869511        1.035310
     21       H        0.541676        0.842528        5.090473

 **********************
 *                    *
 * JOB ENDED NORMALLY *
 *                    *
 **********************



 TOTAL JOB TIME:             3.96 SECONDS

 == MOPAC DONE ==
