 *******************************************************************************
 **                                                                           **
 **                              MOPAC v23.1.2                                **
 **                                                                           **
 *******************************************************************************
 **          Digital Object Identifier (DOI): 10.5281/zenodo.6511958          **
 **    Visit the DOI location for information on how to cite this program.    **
 *******************************************************************************

                              PM3 CALCULATION RESULTS

 *******************************************************************************
 *  CALCULATION DONE: (MAX THREADS = 1)              Tue Jun  3 16:29:34 2025  *
 *  PM3        - The PM3 Hamiltonian to be used
 *  PRECISE    - TIGHTER CRITERIA TO BE USED
 *  NOSYM      - POINT-GROUP SYMMETRY SET TO C1
 *  THREADS=1  - MULTI-THREADING NOT USED
 *  T=         - A TIME OF 172800.0 SECONDS REQUESTED
 *  DUMP=N     - RESTART FILE WRITTEN EVERY 7200.0 SECONDS REQUESTED
 *******************************************************************************
pm3  precise nosym THREADS=1
 InChI=1S/C10H10/c1-2-5-9-7-4-8-10(9)6-3-1/h1-5,7-8,10H,6H2

   ATOM   CHEMICAL          X               Y               Z
  NUMBER   SYMBOL      (ANGSTROMS)     (ANGSTROMS)     (ANGSTROMS)

     1       C         -0.52420000  *  -0.56770000  *   0.55040000  *
     2       C          0.44590000  *  -1.38010000  *  -0.30090000  *
     3       C         -0.63200000  *   0.82490000  *   0.02360000  *
     4       C         -1.93770000  *  -1.03960000  *   0.40970000  *
     5       C          1.85820000  *  -1.09170000  *   0.10560000  *
     6       C          0.48880000  *   1.74390000  *  -0.23330000  *
     7       C         -1.89040000  *   1.10860000  *  -0.28320000  *
     8       C          2.41780000  *   0.12590000  *   0.15490000  *
     9       C         -2.70870000  *  -0.06410000  *  -0.04030000  *
    10       C          1.79270000  *   1.43220000  *  -0.17320000  *
    11       H         -0.23660000  *  -0.56670000  *   1.62540000  *
    12       H          0.31330000  *  -1.16280000  *  -1.38430000  *
    13       H          0.25380000  *  -2.46480000  *  -0.14820000  *
    14       H          2.47410000  *  -1.93990000  *   0.38090000  *
    15       H         -2.29610000  *  -2.02710000  *   0.66990000  *
    16       H          3.46620000  *   0.16670000  *   0.42420000  *
    17       H          2.48940000  *   2.24300000  *  -0.34840000  *
    18       H          0.23640000  *   2.76280000  *  -0.50410000  *
    19       H         -2.23820000  *   2.04060000  *  -0.71020000  *
    20       H         -3.77260000  *  -0.14420000  *  -0.21850000  *



          CARTESIAN COORDINATES 

    NO.       ATOM           X           Y           Z

     1         C         -0.5242     -0.5677      0.5504
     2         C          0.4459     -1.3801     -0.3009
     3         C         -0.6320      0.8249      0.0236
     4         C         -1.9377     -1.0396      0.4097
     5         C          1.8582     -1.0917      0.1056
     6         C          0.4888      1.7439     -0.2333
     7         C         -1.8904      1.1086     -0.2832
     8         C          2.4178      0.1259      0.1549
     9         C         -2.7087     -0.0641     -0.0403
    10         C          1.7927      1.4322     -0.1732
    11         H         -0.2366     -0.5667      1.6254
    12         H          0.3133     -1.1628     -1.3843
    13         H          0.2538     -2.4648     -0.1482
    14         H          2.4741     -1.9399      0.3809
    15         H         -2.2961     -2.0271      0.6699
    16         H          3.4662      0.1667      0.4242
    17         H          2.4894      2.2430     -0.3484
    18         H          0.2364      2.7628     -0.5041
    19         H         -2.2382      2.0406     -0.7102
    20         H         -3.7726     -0.1442     -0.2185

  H: (PM3): J. J. P. STEWART, J. COMP. CHEM. 10, 209 (1989).
  C: (PM3): J. J. P. STEWART, J. COMP. CHEM. 10, 209 (1989).

           Empirical Formula: C10 H10  =    20 atoms



      MOLECULAR POINT GROUP   :   C1  


      RHF CALCULATION, NO. OF DOUBLY OCCUPIED LEVELS = 25


          Geometry optimization using EF

          DIAGONAL MATRIX USED AS START HESSIAN

 CYCLE:     1 TIME:   0.008 TIME LEFT:  2.00D  GRAD.:   140.735 HEAT:  68.93430
 CYCLE:     2 TIME:   0.016 TIME LEFT:  2.00D  GRAD.:    48.313 HEAT:  65.59179
 CYCLE:     3 TIME:   0.008 TIME LEFT:  2.00D  GRAD.:    37.666 HEAT:  64.96153
 CYCLE:     4 TIME:   0.008 TIME LEFT:  2.00D  GRAD.:    41.125 HEAT:  64.57313
 CYCLE:     5 TIME:   0.008 TIME LEFT:  2.00D  GRAD.:    29.976 HEAT:  64.30936
 CYCLE:     6 TIME:   0.008 TIME LEFT:  2.00D  GRAD.:    26.524 HEAT:  64.14831
 CYCLE:     7 TIME:   0.004 TIME LEFT:  2.00D  GRAD.:    24.709 HEAT:  64.01278
 CYCLE:     8 TIME:   0.008 TIME LEFT:  2.00D  GRAD.:    21.810 HEAT:  63.87216
 CYCLE:     9 TIME:   0.008 TIME LEFT:  2.00D  GRAD.:    24.450 HEAT:  63.83762
 CYCLE:    10 TIME:   0.008 TIME LEFT:  2.00D  GRAD.:    14.068 HEAT:  63.72711
 CYCLE:    11 TIME:   0.008 TIME LEFT:  2.00D  GRAD.:    14.776 HEAT:  63.70028
 CYCLE:    12 TIME:   0.008 TIME LEFT:  2.00D  GRAD.:     8.508 HEAT:  63.65127
 CYCLE:    13 TIME:   0.004 TIME LEFT:  2.00D  GRAD.:     9.619 HEAT:  63.62661
 CYCLE:    14 TIME:   0.008 TIME LEFT:  2.00D  GRAD.:    10.029 HEAT:  63.60259
 CYCLE:    15 TIME:   0.008 TIME LEFT:  2.00D  GRAD.:    11.889 HEAT:  63.59562
 CYCLE:    16 TIME:   0.008 TIME LEFT:  2.00D  GRAD.:    11.758 HEAT:  63.58400
 CYCLE:    17 TIME:   0.008 TIME LEFT:  2.00D  GRAD.:    12.881 HEAT:  63.57632
 CYCLE:    18 TIME:   0.004 TIME LEFT:  2.00D  GRAD.:     9.058 HEAT:  63.54748
 CYCLE:    19 TIME:   0.008 TIME LEFT:  2.00D  GRAD.:     6.530 HEAT:  63.52547
 CYCLE:    20 TIME:   0.004 TIME LEFT:  2.00D  GRAD.:     5.327 HEAT:  63.50677
 CYCLE:    21 TIME:   0.008 TIME LEFT:  2.00D  GRAD.:     4.037 HEAT:  63.48792
 CYCLE:    22 TIME:   0.008 TIME LEFT:  2.00D  GRAD.:     3.526 HEAT:  63.47314
 CYCLE:    23 TIME:   0.004 TIME LEFT:  2.00D  GRAD.:     3.803 HEAT:  63.46508
 CYCLE:    24 TIME:   0.004 TIME LEFT:  2.00D  GRAD.:     3.049 HEAT:  63.46051
 CYCLE:    25 TIME:   0.008 TIME LEFT:  2.00D  GRAD.:     1.745 HEAT:  63.45480
 CYCLE:    26 TIME:   0.008 TIME LEFT:  2.00D  GRAD.:     1.575 HEAT:  63.45073
 CYCLE:    27 TIME:   0.004 TIME LEFT:  2.00D  GRAD.:     1.711 HEAT:  63.44804
 CYCLE:    28 TIME:   0.008 TIME LEFT:  2.00D  GRAD.:     1.123 HEAT:  63.44656
 CYCLE:    29 TIME:   0.008 TIME LEFT:  2.00D  GRAD.:     1.124 HEAT:  63.44517
 CYCLE:    30 TIME:   0.004 TIME LEFT:  2.00D  GRAD.:     1.153 HEAT:  63.44341
 CYCLE:    31 TIME:   0.008 TIME LEFT:  2.00D  GRAD.:     0.938 HEAT:  63.44100
 CYCLE:    32 TIME:   0.004 TIME LEFT:  2.00D  GRAD.:     1.012 HEAT:  63.43936
 CYCLE:    33 TIME:   0.008 TIME LEFT:  2.00D  GRAD.:     1.429 HEAT:  63.43680
 CYCLE:    34 TIME:   0.008 TIME LEFT:  2.00D  GRAD.:     1.449 HEAT:  63.43455
 CYCLE:    35 TIME:   0.004 TIME LEFT:  2.00D  GRAD.:     1.027 HEAT:  63.43291
 CYCLE:    36 TIME:   0.008 TIME LEFT:  2.00D  GRAD.:     0.873 HEAT:  63.43175
 CYCLE:    37 TIME:   0.008 TIME LEFT:  2.00D  GRAD.:     0.841 HEAT:  63.43051
 CYCLE:    38 TIME:   0.008 TIME LEFT:  2.00D  GRAD.:     0.803 HEAT:  63.42916
 CYCLE:    39 TIME:   0.004 TIME LEFT:  2.00D  GRAD.:     0.616 HEAT:  63.42841
 CYCLE:    40 TIME:   0.008 TIME LEFT:  2.00D  GRAD.:     0.518 HEAT:  63.42777
 CYCLE:    41 TIME:   0.008 TIME LEFT:  2.00D  GRAD.:     0.493 HEAT:  63.42716
 CYCLE:    42 TIME:   0.008 TIME LEFT:  2.00D  GRAD.:     0.446 HEAT:  63.42672
 CYCLE:    43 TIME:   0.004 TIME LEFT:  2.00D  GRAD.:     0.409 HEAT:  63.42627
 CYCLE:    44 TIME:   0.008 TIME LEFT:  2.00D  GRAD.:     0.337 HEAT:  63.42593
 CYCLE:    45 TIME:   0.004 TIME LEFT:  2.00D  GRAD.:     0.256 HEAT:  63.42574
 CYCLE:    46 TIME:   0.008 TIME LEFT:  2.00D  GRAD.:     0.187 HEAT:  63.42563
 CYCLE:    47 TIME:   0.008 TIME LEFT:  2.00D  GRAD.:     0.175 HEAT:  63.42555
 CYCLE:    48 TIME:   0.008 TIME LEFT:  2.00D  GRAD.:     0.180 HEAT:  63.42549
 CYCLE:    49 TIME:   0.004 TIME LEFT:  2.00D  GRAD.:     0.156 HEAT:  63.42542
 CYCLE:    50 TIME:   0.008 TIME LEFT:  2.00D  GRAD.:     0.123 HEAT:  63.42537
 CYCLE:    51 TIME:   0.008 TIME LEFT:  2.00D  GRAD.:     0.166 HEAT:  63.42531
 CYCLE:    52 TIME:   0.004 TIME LEFT:  2.00D  GRAD.:     0.142 HEAT:  63.42527
 CYCLE:    53 TIME:   0.008 TIME LEFT:  2.00D  GRAD.:     0.165 HEAT:  63.42521
 CYCLE:    54 TIME:   0.008 TIME LEFT:  2.00D  GRAD.:     0.088 HEAT:  63.42517
 CYCLE:    55 TIME:   0.004 TIME LEFT:  2.00D  GRAD.:     0.048 HEAT:  63.42515

     GRADIENT =  0.04799 IS LESS THAN CUTOFF =  0.05000



 -------------------------------------------------------------------------------
 pm3  precise nosym THREADS=1
 InChI=1S/C10H10/c1-2-5-9-7-4-8-10(9)6-3-1/h1-5,7-8,10H,6H2



     GEOMETRY OPTIMISED USING EIGENVECTOR FOLLOWING (EF).     
     SCF FIELD WAS ACHIEVED                                   


                              PM3 CALCULATION
                                                       MOPAC v23.1.2 MacOS
                                                       Tue Jun  3 16:29:35 2025




          FINAL HEAT OF FORMATION =         63.42515 KCAL/MOL =     265.37085 KJ/MOL


          COSMO AREA              =        169.97 SQUARE ANGSTROMS
          COSMO VOLUME            =        174.23 CUBIC ANGSTROMS

          GRADIENT NORM           =          0.04799          =       0.01073 PER ATOM
          IONIZATION POTENTIAL    =          8.453129 EV
          HOMO LUMO ENERGIES (EV) =         -8.453 -0.540
          NO. OF FILLED LEVELS    =         25
          MOLECULAR WEIGHT        =        130.1890         POINT GROUP:  C1  

          MOLECULAR DIMENSIONS (Angstroms)

            Atom       Atom       Distance
            H    20    H    16     7.32451
            H    18    H    13     5.27480
            H    11    H    12     3.03002


          SCF CALCULATIONS        =         63

          WALL-CLOCK TIME         =      0.391 SECONDS
          COMPUTATION TIME        =      0.262 SECONDS




   ATOM   CHEMICAL          X               Y               Z
  NUMBER   SYMBOL      (ANGSTROMS)     (ANGSTROMS)     (ANGSTROMS)

     1       C         -0.52131224  *  -0.55801661  *   0.52331755  *
     2       C          0.45989983  *  -1.41649300  *  -0.25503501  *
     3       C         -0.61999305  *   0.84871815  *  -0.02130968  *
     4       C         -1.94648869  *  -1.04739568  *   0.41885307  *
     5       C          1.87056658  *  -1.08481806  *   0.07019247  *
     6       C          0.49839438  *   1.73785214  *  -0.19605190  *
     7       C         -1.91763094  *   1.12404016  *  -0.32453990  *
     8       C          2.41580836  *   0.13558596  *   0.12969128  *
     9       C         -2.73567098  *  -0.05564682  *  -0.04998044  *
    10       C          1.80005573  *   1.41986002  *  -0.12646182  *
    11       H         -0.23161316  *  -0.51785438  *   1.60087008  *
    12       H          0.29773918  *  -1.30350436  *  -1.34607050  *
    13       H          0.26360641  *  -2.48364390  *  -0.02950271  *
    14       H          2.51665803  *  -1.95137942  *   0.26137355  *
    15       H         -2.23569746  *  -2.05656925  *   0.70429452  *
    16       H          3.48351750  *   0.20259471  *   0.38165570  *
    17       H          2.52485894  *   2.23102841  *  -0.28306249  *
    18       H          0.22171633  *   2.77866344  *  -0.41469072  *
    19       H         -2.31697551  *   2.05746551  *  -0.71776486  *
    20       H         -3.81073616  *  -0.08850704  *  -0.21635560  *

                             CARTESIAN COORDINATES

   1    C       -0.521312236    -0.558016612     0.523317554
   2    C        0.459899825    -1.416493001    -0.255035005
   3    C       -0.619993046     0.848718154    -0.021309684
   4    C       -1.946488689    -1.047395678     0.418853070
   5    C        1.870566582    -1.084818060     0.070192471
   6    C        0.498394381     1.737852143    -0.196051905
   7    C       -1.917630944     1.124040157    -0.324539905
   8    C        2.415808360     0.135585962     0.129691279
   9    C       -2.735670980    -0.055646823    -0.049980438
  10    C        1.800055730     1.419860019    -0.126461825
  11    H       -0.231613160    -0.517854383     1.600870075
  12    H        0.297739181    -1.303504363    -1.346070503
  13    H        0.263606407    -2.483643899    -0.029502712
  14    H        2.516658032    -1.951379424     0.261373552
  15    H       -2.235697459    -2.056569247     0.704294517
  16    H        3.483517496     0.202594705     0.381655703
  17    H        2.524858936     2.231028407    -0.283062494
  18    H        0.221716330     2.778663441    -0.414690724
  19    H       -2.316975510     2.057465512    -0.717764856
  20    H       -3.810736164    -0.088507037    -0.216355599


           Empirical Formula: C10 H10  =    20 atoms



      MOLECULAR POINT GROUP   :   C1  


                  EIGENVALUES  
 -41.37939 -35.47396 -32.37535 -28.38434 -26.54293 -23.56353 -21.57211 -19.30752
 -18.62767 -18.28110 -16.78938 -16.66698 -15.28566 -14.95839 -14.19339 -14.04407
 -13.69466 -13.25102 -12.66283 -12.17248 -11.89610 -11.81240 -10.91241  -9.96420
  -8.45313  -0.54033   0.82080   1.73960   2.46900   3.12993   3.20085   3.33889
   3.46734   3.59034   3.64894   3.73359   3.94310   4.07670   4.13732   4.35168
   4.42111   4.63681   4.68742   4.93821   5.34534   5.66772   5.78419   5.83128
   6.18285   6.33000


              NET ATOMIC CHARGES AND DIPOLE CONTRIBUTIONS

  ATOM NO.   TYPE          CHARGE      No. of ELECS.   s-Pop       p-Pop       
    1          C          -0.019444        4.0194     1.16029     2.85915
    2          C          -0.036617        4.0366     1.14066     2.89595
    3          C          -0.101664        4.1017     1.19288     2.90878
    4          C          -0.155543        4.1555     1.21020     2.94535
    5          C          -0.130621        4.1306     1.19591     2.93471
    6          C          -0.068097        4.0681     1.16912     2.89898
    7          C          -0.104878        4.1049     1.19248     2.91239
    8          C          -0.106588        4.1066     1.17654     2.93004
    9          C          -0.117801        4.1178     1.19112     2.92668
   10          C          -0.096136        4.0961     1.17685     2.91929
   11          H           0.097380        0.9026     0.90262
   12          H           0.068164        0.9318     0.93184
   13          H           0.053468        0.9465     0.94653
   14          H           0.092961        0.9070     0.90704
   15          H           0.117222        0.8828     0.88278
   16          H           0.091497        0.9085     0.90850
   17          H           0.091268        0.9087     0.90873
   18          H           0.095131        0.9049     0.90487
   19          H           0.115750        0.8843     0.88425
   20          H           0.114549        0.8855     0.88545
 DIPOLE           X         Y         Z       TOTAL
 POINT-CHG.     0.110    -0.382     0.047     0.401
 HYBRID        -0.009     0.057     0.047     0.074
 SUM            0.101    -0.325     0.094     0.353


          ATOMIC ORBITAL ELECTRON POPULATIONS

     Atom    s        px        py        pz   
    1  C   1.16029   0.93845   0.92525   0.99546
    2  C   1.14066   0.91701   0.97911   0.99984
    3  C   1.19288   0.94669   0.95884   1.00325
    4  C   1.21020   0.95789   0.98245   1.00500
    5  C   1.19591   0.96843   0.96845   0.99783
    6  C   1.16912   0.92724   0.97266   0.99907
    7  C   1.19248   0.93882   0.97491   0.99866
    8  C   1.17654   0.98441   0.93173   1.01391
    9  C   1.19112   0.97855   0.94666   1.00146
   10  C   1.17685   0.95365   0.95961   1.00602
   11  H   0.90262
   12  H   0.93184
   13  H   0.94653
   14  H   0.90704
   15  H   0.88278
   16  H   0.90850
   17  H   0.90873
   18  H   0.90487
   19  H   0.88425
   20  H   0.88545
 *******************************************************************************
 **                                                                           **
 **                              MOPAC v23.1.2                                **
 **                                                                           **
 *******************************************************************************
 **          Digital Object Identifier (DOI): 10.5281/zenodo.6511958          **
 **    Visit the DOI location for information on how to cite this program.    **
 *******************************************************************************

                              PM3 CALCULATION RESULTS

 *******************************************************************************
 *  CALCULATION DONE: (MAX THREADS = 1)              Tue Jun  3 16:29:35 2025  *
 *  PM3        - The PM3 Hamiltonian to be used
 *  OLDGEO     - PREVIOUS GEOMETRY TO BE USED
 *  PRECISE    - TIGHTER CRITERIA TO BE USED
 *  NOSYM      - POINT-GROUP SYMMETRY SET TO C1
 *  THREADS=1  - MULTI-THREADING NOT USED
 *  T=         - A TIME OF 172800.0 SECONDS REQUESTED
 *  DUMP=N     - RESTART FILE WRITTEN EVERY 7200.0 SECONDS REQUESTED
 *  THERMO     - THERMODYNAMIC QUANTITIES TO BE CALCULATED
 *******************************************************************************
oldgeo thermo nosym precise THREADS=1  pm3
 InChI=1S/C10H10/c1-2-5-9-7-4-8-10(9)6-3-1/h1-5,7-8,10H,6H2

   ATOM   CHEMICAL          X               Y               Z
  NUMBER   SYMBOL      (ANGSTROMS)     (ANGSTROMS)     (ANGSTROMS)

     1       C         -0.52131224  *  -0.55801661  *   0.52331755  *
     2       C          0.45989983  *  -1.41649300  *  -0.25503501  *
     3       C         -0.61999305  *   0.84871815  *  -0.02130968  *
     4       C         -1.94648869  *  -1.04739568  *   0.41885307  *
     5       C          1.87056658  *  -1.08481806  *   0.07019247  *
     6       C          0.49839438  *   1.73785214  *  -0.19605190  *
     7       C         -1.91763094  *   1.12404016  *  -0.32453990  *
     8       C          2.41580836  *   0.13558596  *   0.12969128  *
     9       C         -2.73567098  *  -0.05564682  *  -0.04998044  *
    10       C          1.80005573  *   1.41986002  *  -0.12646182  *
    11       H         -0.23161316  *  -0.51785438  *   1.60087008  *
    12       H          0.29773918  *  -1.30350436  *  -1.34607050  *
    13       H          0.26360641  *  -2.48364390  *  -0.02950271  *
    14       H          2.51665803  *  -1.95137942  *   0.26137355  *
    15       H         -2.23569746  *  -2.05656925  *   0.70429452  *
    16       H          3.48351750  *   0.20259471  *   0.38165570  *
    17       H          2.52485894  *   2.23102841  *  -0.28306249  *
    18       H          0.22171633  *   2.77866344  *  -0.41469072  *
    19       H         -2.31697551  *   2.05746551  *  -0.71776486  *
    20       H         -3.81073616  *  -0.08850704  *  -0.21635560  *



          CARTESIAN COORDINATES 

    NO.       ATOM           X           Y           Z

     1         C         -0.5213     -0.5580      0.5233
     2         C          0.4599     -1.4165     -0.2550
     3         C         -0.6200      0.8487     -0.0213
     4         C         -1.9465     -1.0474      0.4189
     5         C          1.8706     -1.0848      0.0702
     6         C          0.4984      1.7379     -0.1961
     7         C         -1.9176      1.1240     -0.3245
     8         C          2.4158      0.1356      0.1297
     9         C         -2.7357     -0.0556     -0.0500
    10         C          1.8001      1.4199     -0.1265
    11         H         -0.2316     -0.5179      1.6009
    12         H          0.2977     -1.3035     -1.3461
    13         H          0.2636     -2.4836     -0.0295
    14         H          2.5167     -1.9514      0.2614
    15         H         -2.2357     -2.0566      0.7043
    16         H          3.4835      0.2026      0.3817
    17         H          2.5249      2.2310     -0.2831
    18         H          0.2217      2.7787     -0.4147
    19         H         -2.3170      2.0575     -0.7178
    20         H         -3.8107     -0.0885     -0.2164

  H: (PM3): J. J. P. STEWART, J. COMP. CHEM. 10, 209 (1989).
  C: (PM3): J. J. P. STEWART, J. COMP. CHEM. 10, 209 (1989).

           Empirical Formula: C10 H10  =    20 atoms



      MOLECULAR POINT GROUP   :   C1  


      RHF CALCULATION, NO. OF DOUBLY OCCUPIED LEVELS = 25



          HEAT OF FORMATION =      63.425154 KCALS/MOLE


          CARTESIAN COORDINATE DERIVATIVES

   NUMBER  ATOM         X            Y            Z

     1       C      0.001478     0.004598    -0.000806
     2       C      0.002842    -0.000114    -0.000329
     3       C      0.000685     0.001017    -0.002321
     4       C      0.008683     0.005019     0.001571
     5       C      0.002203    -0.007072     0.003053
     6       C      0.005738     0.000671     0.000719
     7       C     -0.004739     0.006007     0.003786
     8       C      0.005261    -0.004497    -0.000694
     9       C      0.002927     0.005729     0.004824
    10       C      0.002730    -0.002594    -0.001454
    11       H     -0.014158     0.002258    -0.010404
    12       H     -0.016228    -0.001651    -0.013318
    13       H      0.006891    -0.000546     0.008674
    14       H      0.000630    -0.008482     0.001209
    15       H      0.004762     0.004080     0.004149
    16       H     -0.006602     0.007870     0.002873
    17       H      0.004496    -0.002651    -0.003454
    18       H     -0.005813    -0.006043    -0.012058
    19       H     -0.014170     0.004986     0.012102
    20       H      0.012384    -0.008586     0.001876



          GRADIENT NORM =   0.04924

          MOLECULAR WEIGHT =  130.19



          ROTATIONAL CONSTANTS IN CM(-1)

          A =    0.09083000   B =    0.04147863   C =    0.02965097



           PRINCIPAL MOMENTS OF INERTIA IN UNITS OF 10**(-40)*GRAM-CM**2

          A =      308.1884   B =      674.8716   C =      944.0754


          ORIENTATION OF MOLECULE IN FORCE CALCULATION

    NO.       ATOM         X         Y         Z

     1          C      -0.1913   -0.9011   -0.2181
     2          C       1.3271   -0.9011   -0.2181
     3          C      -0.7713    0.4949   -0.2181
     4          C      -0.7821   -1.4981   -1.4735
     5          C       1.8844   -0.5620    1.1161
     6          C      -0.4617    1.5086    0.7558
     7          C      -1.6100    0.6340   -1.2805
     8          C       1.5163    0.4531    1.9063
     9          C      -1.6124   -0.6050   -2.0558
    10          C       0.5236    1.4783    1.6661
    11          H      -0.5792   -1.4626    0.6656
    12          H       1.7177   -0.1879   -0.9719
    13          H       1.6880   -1.9006   -0.5326
    14          H       2.6939   -1.2192    1.4593
    15          H      -0.5447   -2.5073   -1.8032
    16          H       2.0392    0.5641    2.8666
    17          H       0.6136    2.3429    2.3386
    18          H      -1.1168    2.3901    0.7184
    19          H      -2.1942    1.5135   -1.5461
    20          H      -2.2033   -0.7427   -2.9594


    FIRST DERIVATIVES WILL BE USED IN THE CALCULATION OF SECOND DERIVATIVES

          ESTIMATED TIME TO COMPLETE CALCULATION =        0.94 SECONDS

    FOR POINT-GROUP C1   THERE ARE   1 UNIQUE SYMMETRY FUNCTIONS.

 STEP:   1 TIME =     0.02 SECS, INTEGRAL =      0.02 TIME LEFT: 172799.98
 STEP:   2 TIME =     0.02 SECS, INTEGRAL =      0.04 TIME LEFT: 172799.96
 STEP:   3 TIME =     0.02 SECS, INTEGRAL =      0.06 TIME LEFT: 172799.93
 STEP:   4 TIME =     0.02 SECS, INTEGRAL =      0.08 TIME LEFT: 172799.91
 STEP:   5 TIME =     0.02 SECS, INTEGRAL =      0.10 TIME LEFT: 172799.89
 STEP:   6 TIME =     0.02 SECS, INTEGRAL =      0.12 TIME LEFT: 172799.88
 STEP:   7 TIME =     0.02 SECS, INTEGRAL =      0.14 TIME LEFT: 172799.86
 STEP:   8 TIME =     0.02 SECS, INTEGRAL =      0.16 TIME LEFT: 172799.84
 STEP:   9 TIME =     0.02 SECS, INTEGRAL =      0.18 TIME LEFT: 172799.82
 STEP:  10 TIME =     0.02 SECS, INTEGRAL =      0.20 TIME LEFT: 172799.80
 STEP:  11 TIME =     0.02 SECS, INTEGRAL =      0.22 TIME LEFT: 172799.78
 STEP:  12 TIME =     0.02 SECS, INTEGRAL =      0.24 TIME LEFT: 172799.76
 STEP:  13 TIME =     0.02 SECS, INTEGRAL =      0.26 TIME LEFT: 172799.73
 STEP:  14 TIME =     0.02 SECS, INTEGRAL =      0.28 TIME LEFT: 172799.71
 STEP:  15 TIME =     0.02 SECS, INTEGRAL =      0.30 TIME LEFT: 172799.70
 STEP:  16 TIME =     0.02 SECS, INTEGRAL =      0.32 TIME LEFT: 172799.68
 STEP:  17 TIME =     0.02 SECS, INTEGRAL =      0.34 TIME LEFT: 172799.66
 STEP:  18 TIME =     0.02 SECS, INTEGRAL =      0.36 TIME LEFT: 172799.64
 STEP:  19 TIME =     0.02 SECS, INTEGRAL =      0.38 TIME LEFT: 172799.62
 STEP:  20 TIME =     0.02 SECS, INTEGRAL =      0.40 TIME LEFT: 172799.59
 STEP:  21 TIME =     0.02 SECS, INTEGRAL =      0.43 TIME LEFT: 172799.57
 STEP:  22 TIME =     0.02 SECS, INTEGRAL =      0.45 TIME LEFT: 172799.55
 STEP:  23 TIME =     0.02 SECS, INTEGRAL =      0.46 TIME LEFT: 172799.53
 STEP:  24 TIME =     0.02 SECS, INTEGRAL =      0.48 TIME LEFT: 172799.51
 STEP:  25 TIME =     0.02 SECS, INTEGRAL =      0.50 TIME LEFT: 172799.49
 STEP:  26 TIME =     0.02 SECS, INTEGRAL =      0.52 TIME LEFT: 172799.47
 STEP:  27 TIME =     0.02 SECS, INTEGRAL =      0.54 TIME LEFT: 172799.46
 STEP:  28 TIME =     0.02 SECS, INTEGRAL =      0.56 TIME LEFT: 172799.44
 STEP:  29 TIME =     0.02 SECS, INTEGRAL =      0.58 TIME LEFT: 172799.42
 STEP:  30 TIME =     0.02 SECS, INTEGRAL =      0.60 TIME LEFT: 172799.40
 STEP:  31 TIME =     0.02 SECS, INTEGRAL =      0.62 TIME LEFT: 172799.38
 STEP:  32 TIME =     0.02 SECS, INTEGRAL =      0.64 TIME LEFT: 172799.36
 STEP:  33 TIME =     0.02 SECS, INTEGRAL =      0.66 TIME LEFT: 172799.34
 STEP:  34 TIME =     0.02 SECS, INTEGRAL =      0.68 TIME LEFT: 172799.32
 STEP:  35 TIME =     0.02 SECS, INTEGRAL =      0.70 TIME LEFT: 172799.30
 STEP:  36 TIME =     0.02 SECS, INTEGRAL =      0.72 TIME LEFT: 172799.28
 STEP:  37 TIME =     0.02 SECS, INTEGRAL =      0.74 TIME LEFT: 172799.26
 STEP:  38 TIME =     0.02 SECS, INTEGRAL =      0.76 TIME LEFT: 172799.24
 STEP:  39 TIME =     0.02 SECS, INTEGRAL =      0.78 TIME LEFT: 172799.22
 STEP:  40 TIME =     0.02 SECS, INTEGRAL =      0.80 TIME LEFT: 172799.20
 STEP:  41 TIME =     0.02 SECS, INTEGRAL =      0.82 TIME LEFT: 172799.18
 STEP:  42 TIME =     0.02 SECS, INTEGRAL =      0.84 TIME LEFT: 172799.16
 STEP:  43 TIME =     0.02 SECS, INTEGRAL =      0.86 TIME LEFT: 172799.13
 STEP:  44 TIME =     0.02 SECS, INTEGRAL =      0.88 TIME LEFT: 172799.11
 STEP:  45 TIME =     0.02 SECS, INTEGRAL =      0.91 TIME LEFT: 172799.09
 STEP:  46 TIME =     0.02 SECS, INTEGRAL =      0.93 TIME LEFT: 172799.07
 STEP:  47 TIME =     0.02 SECS, INTEGRAL =      0.95 TIME LEFT: 172799.04
 STEP:  48 TIME =     0.02 SECS, INTEGRAL =      0.97 TIME LEFT: 172799.02
 STEP:  49 TIME =     0.02 SECS, INTEGRAL =      0.99 TIME LEFT: 172799.00
 STEP:  50 TIME =     0.02 SECS, INTEGRAL =      1.01 TIME LEFT: 172798.98
 STEP:  51 TIME =     0.02 SECS, INTEGRAL =      1.03 TIME LEFT: 172798.96
 STEP:  52 TIME =     0.02 SECS, INTEGRAL =      1.05 TIME LEFT: 172798.95
 STEP:  53 TIME =     0.02 SECS, INTEGRAL =      1.07 TIME LEFT: 172798.93
 STEP:  54 TIME =     0.02 SECS, INTEGRAL =      1.09 TIME LEFT: 172798.90
 STEP:  55 TIME =     0.02 SECS, INTEGRAL =      1.11 TIME LEFT: 172798.88
 STEP:  56 TIME =     0.02 SECS, INTEGRAL =      1.13 TIME LEFT: 172798.86
 STEP:  57 TIME =     0.02 SECS, INTEGRAL =      1.15 TIME LEFT: 172798.84
 STEP:  58 TIME =     0.02 SECS, INTEGRAL =      1.18 TIME LEFT: 172798.82
 STEP:  59 TIME =     0.02 SECS, INTEGRAL =      1.20 TIME LEFT: 172798.80
 STEP:  60 TIME =     0.02 SECS, INTEGRAL =      1.21 TIME LEFT: 172798.78

(To convert to Hartree/Bohr^2, multiply by (10^(-21) x N x a0^2)/(4.184 x 627.51) =  0.0642)


           FORCE MATRIX IN MILLIDYNES/ANGSTROM


                  C  1       C  2       C  3       C  4       C  5       C  6
 ------------------------------------------------------------------------------
     C    1  14.954653
     C    2   4.155669  14.730508
     C    3   4.074251   0.623317  18.705765
     C    4   4.145590   0.587130   1.062763  17.848304
     C    5   0.677175   5.031211   0.067185   0.054367  17.872118
     C    6   0.496008   0.035509   5.909612   0.059652   0.159580  18.374998
     C    7   1.162209   0.059184   9.004020   1.629082   0.018848   1.022379
     C    8   0.053224   0.735464   0.162393   0.015302  10.257749   0.969098
     C    9   1.206892   0.049779   1.612731   9.703718   0.022208   0.153923
     C   10   0.038118   0.105067   1.067579   0.022275   0.960542   9.911705
     H   11   4.224598   0.444279   0.397967   0.385293   0.033247   0.011236
     H   12   0.450025   4.425813   0.025815   0.009058   0.414743   0.008645
     H   13   0.436615   4.456045   0.046278   0.036465   0.438390   0.002131
     H   14   0.034273   0.428981   0.009744   0.007993   4.769800   0.011842
     H   15   0.403409   0.013004   0.041702   5.073214   0.001785   0.012466
     H   16   0.010601   0.124518   0.006711   0.001405   0.436442   0.047315
     H   17   0.005211   0.004072   0.125576   0.001968   0.045889   0.430349
     H   18   0.037985   0.006521   0.441344   0.007125   0.008634   4.724487
     H   19   0.105625   0.016611   0.452497   0.049134   0.002775   0.052341
     H   20   0.115419   0.016761   0.048760   0.446726   0.002711   0.007941


                  C  7       C  8       C  9       C 10       H 11       H 12
 ------------------------------------------------------------------------------
     C    7  18.035503
     C    8   0.049138  18.240426
     C    9   5.194208   0.010522  18.262952
     C   10   0.160829   5.646647   0.045666  18.114068
     H   11   0.050315   0.008016   0.051505   0.005087   4.704581
     H   12   0.004758   0.025411   0.004710   0.017000   0.043238   5.021705
     H   13   0.007721   0.049386   0.006884   0.004766   0.017977   0.564450
     H   14   0.006541   0.435198   0.006574   0.128417   0.003442   0.019269
     H   15   0.102569   0.001392   0.443454   0.001516   0.011496   0.001894
     H   16   0.002402   4.723504   0.001125   0.426593   0.000551   0.015013
     H   17   0.008809   0.426410   0.008375   4.726676   0.000771   0.000805
     H   18   0.033136   0.123979   0.004289   0.433371   0.000958   0.001092
     H   19   5.052510   0.003239   0.419101   0.006095   0.013899   0.001444
     H   20   0.421900   0.000791   5.064709   0.002050   0.014739   0.000485


                  H 13       H 14       H 15       H 16       H 17       H 18
 ------------------------------------------------------------------------------
     H   13   5.037232
     H   14   0.033421   5.112828
     H   15   0.011863   0.000597   5.472870
     H   16   0.007671   0.075992   0.000304   5.053786
     H   17   0.000307   0.008521   0.000570   0.037661   5.054739
     H   18   0.000600   0.007945   0.001796   0.008077   0.073608   5.067373
     H   19   0.002907   0.000521   0.005563   0.000444   0.002713   0.011241
     H   20   0.000604   0.000534   0.042547   0.000203   0.000564   0.000636


                  H 19       H 20
 ------------------------------
     H   19   5.447710
     H   20   0.009347   5.454274


          HEAT OF FORMATION =      63.425154 KCALS/MOLE

          ZERO POINT ENERGY     104.891 KCAL/MOL


           NORMAL COORDINATE ANALYSIS (Total motion = 1 Angstrom)


   Root No.       1         2         3         4         5         6         7         8

                 1 A       2 A       3 A       4 A       5 A       6 A       7 A       8 A   

                  93.8     162.3     217.8     325.4     346.5     364.8     454.2     493.9
  
           1   -0.0199    0.0042   -0.0214    0.0125   -0.0000   -0.0336    0.0082   -0.0179
           2   -0.0102    0.0150   -0.0184   -0.0347    0.0301   -0.0167    0.0059    0.0003
           3    0.0165    0.0100    0.0236   -0.0286   -0.0096    0.0024   -0.0022    0.0093
           4   -0.0199    0.0057   -0.0191    0.0135   -0.0007   -0.0322    0.0211   -0.0262
           5   -0.0300    0.0349    0.0437    0.0113    0.0197    0.0280    0.0033   -0.0006
           6    0.0069   -0.0272   -0.0166   -0.0031    0.0192    0.0288    0.0232   -0.0003
           7   -0.0013    0.0154   -0.0281    0.0318   -0.0089   -0.0160   -0.0287   -0.0096
           8   -0.0024    0.0195   -0.0205   -0.0271    0.0240   -0.0126   -0.0118    0.0052
           9    0.0050   -0.0197    0.0307   -0.0011   -0.0305   -0.0082    0.0011    0.0130
          10   -0.0145   -0.0251   -0.0022   -0.0351    0.0032   -0.0078   -0.0192    0.0490
          11   -0.0055   -0.0205   -0.0117   -0.0130    0.0034   -0.0025    0.0109    0.0107
          12    0.0106    0.0427    0.0115   -0.0218    0.0035   -0.0232    0.0031   -0.0243
          13    0.0166    0.0102   -0.0179   -0.0220   -0.0018    0.0224    0.0537   -0.0072
          14    0.0209    0.0072   -0.0127    0.0125   -0.0342    0.0294    0.0154    0.0053
          15   -0.0224   -0.0218   -0.0032    0.0174    0.0336    0.0083    0.0114   -0.0165
          16   -0.0258    0.0074   -0.0073    0.0033   -0.0169    0.0497   -0.0282   -0.0016
          17   -0.0156    0.0087   -0.0090   -0.0239   -0.0215   -0.0113   -0.0238    0.0069
          18    0.0262   -0.0058    0.0140    0.0055    0.0205   -0.0294    0.0051    0.0158
          19    0.0319    0.0278    0.0180    0.0388   -0.0124   -0.0178    0.0025    0.0318
          20    0.0149    0.0085   -0.0019    0.0116    0.0028   -0.0087    0.0181    0.0048
          21   -0.0187   -0.0302   -0.0027   -0.0005   -0.0323   -0.0083   -0.0203   -0.0203
          22    0.0243   -0.0183    0.0056    0.0038    0.0481    0.0315   -0.0124   -0.0064
          23    0.0244   -0.0279   -0.0032    0.0292    0.0142    0.0074   -0.0222   -0.0088
          24   -0.0235    0.0108   -0.0049    0.0094   -0.0064    0.0404    0.0265    0.0005
          25    0.0243   -0.0045    0.0377   -0.0368   -0.0154   -0.0092   -0.0176   -0.0283
          26    0.0131   -0.0202    0.0061    0.0077   -0.0184   -0.0017    0.0109   -0.0293
          27   -0.0157    0.0139   -0.0169    0.0097   -0.0036   -0.0215   -0.0040    0.0293
          28   -0.0165   -0.0210    0.0289   -0.0014    0.0119    0.0045    0.0153    0.0102
          29   -0.0067   -0.0262    0.0163    0.0214   -0.0186   -0.0258   -0.0096    0.0081
          30    0.0161    0.0246   -0.0240    0.0100   -0.0066    0.0222   -0.0437    0.0045
          31   -0.0255    0.0299    0.0097    0.0210   -0.0150   -0.0478    0.0146   -0.0388
          32   -0.0015    0.0397   -0.0381   -0.0565    0.0473   -0.0282   -0.0037   -0.0277
          33    0.0187    0.0366    0.0226   -0.0387   -0.0043   -0.0127   -0.0050   -0.0185
          34   -0.0177   -0.0193   -0.0720    0.0035    0.0154   -0.0625    0.0338   -0.0367
          35   -0.0710    0.0627    0.1139    0.0417    0.0567    0.0500   -0.0252   -0.0144
          36   -0.0312   -0.0138    0.0220    0.0202    0.0620    0.0322    0.0039   -0.0192
          37   -0.0400    0.0173    0.0229    0.0574   -0.0028   -0.0069    0.0022   -0.0353
          38   -0.0505    0.0500    0.0835    0.0323    0.0340    0.0431   -0.0129   -0.0078
          39    0.0474   -0.0607   -0.0924   -0.0166   -0.0270    0.0109    0.0524    0.0090
          40    0.0542    0.0236   -0.0558   -0.0475   -0.0424    0.0752    0.0940    0.0048
          41    0.0552    0.0130   -0.0553   -0.0070   -0.0761    0.0613    0.0537    0.0102
          42   -0.0442   -0.0430    0.0026    0.0409    0.0476   -0.0551   -0.0107   -0.0353
          43   -0.0342   -0.0557   -0.0102   -0.0817    0.0132    0.0066   -0.0510    0.1385
          44   -0.0141   -0.0403   -0.0161   -0.0212   -0.0001    0.0054   -0.0003    0.0466
          45    0.0230    0.0816    0.0193   -0.0293    0.0214   -0.0369    0.0152   -0.0707
          46    0.0696   -0.0331   -0.0104    0.0103    0.0798    0.0651   -0.0869   -0.0090
          47    0.0529   -0.0534   -0.0190    0.0318    0.0580    0.0330   -0.0338   -0.0303
          48   -0.0512    0.0217    0.0053    0.0055   -0.0288    0.0185    0.0682    0.0043
          49   -0.0406   -0.0387    0.0707   -0.0269   -0.0194   -0.0303    0.0821    0.0401
          50   -0.0211   -0.0487    0.0432    0.0264   -0.0310   -0.0230    0.0425    0.0159
          51    0.0379    0.0560   -0.0644    0.0061    0.0146    0.0237   -0.1191   -0.0095
          52   -0.0547    0.0187   -0.0063   -0.0301   -0.0579    0.1041   -0.0247    0.0042
          53   -0.0359    0.0167   -0.0083   -0.0484   -0.0487    0.0281   -0.0207    0.0111
          54    0.0535   -0.0074    0.0142    0.0011    0.0952   -0.0719    0.0171    0.0178
          55    0.0563    0.0483    0.0433    0.0822   -0.0232   -0.0077    0.0369    0.1121
          56    0.0264    0.0128    0.0089    0.0419   -0.0093   -0.0033    0.0364    0.0355
          57   -0.0343   -0.0605   -0.0225    0.0037   -0.0479   -0.0130   -0.0355   -0.0947
          58    0.0444   -0.0147    0.0764   -0.0897   -0.0324    0.0052   -0.0370   -0.1045
          59    0.0240   -0.0399    0.0238    0.0196   -0.0489    0.0084   -0.0018   -0.0694
          60   -0.0305    0.0235   -0.0448    0.0423    0.0120   -0.0326    0.0104    0.0853


   Root No.       9        10        11        12        13        14        15        16

                 9 A      10 A      11 A      12 A      13 A      14 A      15 A      16 A   

                 520.1     637.9     677.4     731.8     774.6     801.8     818.9     838.9
  
           1   -0.0040   -0.0193   -0.0057    0.0077    0.0038    0.0009    0.0038   -0.0076
           2    0.0158   -0.0180   -0.0016    0.0073   -0.0018   -0.0022   -0.0028   -0.0171
           3   -0.0242    0.0211   -0.0235   -0.0105    0.0106    0.0186   -0.0224   -0.0211
           4   -0.0090   -0.0263   -0.0048   -0.0097    0.0187    0.0058   -0.0002    0.0036
           5   -0.0019    0.0047   -0.0027   -0.0013   -0.0142   -0.0194   -0.0038   -0.0137
           6   -0.0153    0.0163    0.0212   -0.0061   -0.0058    0.0079    0.0010    0.0066
           7    0.0050    0.0637    0.0090    0.0115    0.0021   -0.0144   -0.0215   -0.0152
           8    0.0172    0.0114    0.0214    0.0007    0.0005   -0.0125    0.0021    0.0141
           9   -0.0127   -0.0405    0.0162   -0.0095   -0.0091   -0.0072    0.0019   -0.0179
          10   -0.0097    0.0051   -0.0139    0.0133   -0.0246    0.0174    0.0078    0.0049
          11   -0.0191    0.0006   -0.0247   -0.0021    0.0089    0.0332   -0.0234   -0.0409
          12   -0.0044   -0.0003   -0.0284    0.0070    0.0161    0.0057   -0.0004   -0.0047
          13   -0.0222    0.0135    0.0273   -0.0353   -0.0011    0.0081   -0.0175    0.0244
          14    0.0301    0.0048   -0.0210   -0.0039   -0.0093   -0.0111   -0.0065    0.0036
          15   -0.0147   -0.0045    0.0111    0.0007    0.0054   -0.0025    0.0058   -0.0031
          16    0.0155   -0.0077   -0.0164   -0.0109    0.0056    0.0284    0.0209   -0.0042
          17   -0.0169   -0.0139    0.0526   -0.0218   -0.0100   -0.0325    0.0054   -0.0125
          18    0.0381   -0.0033    0.0253    0.0056    0.0107    0.0014   -0.0158    0.0141
          19   -0.0108    0.0004    0.0150    0.0040   -0.0088   -0.0133   -0.0222   -0.0212
          20   -0.0173    0.0026   -0.0242    0.0136   -0.0075    0.0051    0.0186    0.0408
          21   -0.0098    0.0144    0.0054    0.0017   -0.0098   -0.0181    0.0076   -0.0093
          22    0.0003   -0.0134   -0.0122   -0.0100   -0.0136   -0.0238   -0.0149    0.0053
          23   -0.0009   -0.0086   -0.0137   -0.0071   -0.0027    0.0001   -0.0078    0.0103
          24    0.0349   -0.0013   -0.0145    0.0157   -0.0037   -0.0273    0.0071   -0.0181
          25    0.0064    0.0009   -0.0021    0.0149   -0.0286    0.0045    0.0162    0.0211
          26   -0.0180    0.0068   -0.0143    0.0060   -0.0088    0.0066    0.0032    0.0048
          27   -0.0216    0.0124   -0.0213    0.0160   -0.0082   -0.0203    0.0292    0.0418
          28    0.0369    0.0072    0.0005   -0.0075    0.0005    0.0063    0.0191   -0.0107
          29    0.0286    0.0053    0.0170   -0.0148    0.0185    0.0392    0.0123    0.0065
          30    0.0221   -0.0242    0.0117   -0.0016    0.0201    0.0281   -0.0157    0.0224
          31   -0.0101   -0.0673   -0.0381   -0.0011    0.0341   -0.0152    0.0111   -0.0420
          32    0.0375    0.0294   -0.0152    0.0250    0.0213   -0.0099   -0.0168    0.0065
          33   -0.0121    0.0283   -0.0469   -0.0019    0.0380    0.0070   -0.0276   -0.0224
          34    0.0208   -0.0891   -0.0134    0.0095    0.0155   -0.0321    0.0289   -0.0336
          35   -0.0681    0.0519    0.0613    0.0156    0.0271    0.0483    0.0127    0.0250
          36   -0.0606    0.0257    0.0749    0.0183    0.0307    0.0500    0.0311    0.0229
          37   -0.0341    0.0089    0.0163   -0.0027    0.0405    0.0311    0.0088    0.0425
          38   -0.0360    0.0340    0.0281    0.0053    0.0080    0.0158    0.0020    0.0121
          39    0.0596   -0.0316   -0.0470   -0.0194   -0.0488   -0.0697   -0.0072   -0.0273
          40   -0.0364    0.0359    0.1057    0.0740    0.0512    0.0467    0.0924   -0.0439
          41    0.0094    0.0224    0.0525    0.0875    0.0487    0.0413    0.0931   -0.0460
          42   -0.0182   -0.0253   -0.0328   -0.0826   -0.0063    0.0067   -0.0631    0.0635
          43   -0.0215    0.0555   -0.0628   -0.0200    0.1379   -0.0846   -0.0200    0.0056
          44   -0.0326    0.0285   -0.0480   -0.0181    0.0822   -0.0193   -0.0282   -0.0215
          45    0.0280   -0.0490    0.0070    0.0325   -0.0916    0.0938   -0.0074   -0.0662
          46   -0.0324   -0.0661    0.0198    0.1297    0.0401   -0.0261    0.0247   -0.0631
          47   -0.0723   -0.0319    0.0218    0.0972    0.0266   -0.0317    0.0225   -0.0470
          48    0.0608    0.0297   -0.0353   -0.0727   -0.0359   -0.0225   -0.0181    0.0259
          49    0.0647   -0.0099    0.0696    0.0934    0.0446   -0.0182   -0.0768    0.0448
          50    0.0515   -0.0028    0.0093    0.0705    0.0459    0.0289   -0.0528    0.0433
          51   -0.0109   -0.0122    0.0137   -0.1255   -0.0207    0.0449    0.0809   -0.0315
          52   -0.0110   -0.1030   -0.0026    0.0517    0.0165    0.0065   -0.0898    0.0825
          53   -0.0348   -0.0819    0.0626    0.0216   -0.0030   -0.0497   -0.0713    0.0491
          54    0.0766    0.0687    0.0223   -0.0641   -0.0124   -0.0123    0.1149   -0.0647
          55   -0.0598   -0.0716   -0.0212   -0.0485    0.0512   -0.0476    0.0632   -0.0485
          56   -0.0471   -0.0236   -0.0462   -0.0090    0.0192   -0.0103    0.0487    0.0129
          57   -0.0007    0.0866    0.0114    0.0430   -0.0542    0.0052   -0.0819   -0.0460
          58    0.0202    0.0200   -0.0332   -0.0239    0.1171   -0.0975    0.0588    0.0522
          59   -0.0168    0.0254    0.0084   -0.0178    0.0389   -0.0901    0.0203    0.0151
          60   -0.0310   -0.0027   -0.0052    0.0457   -0.1112    0.0609   -0.0006    0.0204


   Root No.      17        18        19        20        21        22        23        24

                17 A      18 A      19 A      20 A      21 A      22 A      23 A      24 A   

                 877.6     911.0     945.3     968.4     990.2     990.7    1004.2    1022.0
  
           1   -0.0016    0.0022   -0.0052    0.0063    0.0013   -0.0024   -0.0028   -0.0020
           2    0.0362   -0.0005   -0.0206   -0.0102   -0.0241   -0.0001   -0.0008   -0.0038
           3   -0.0201    0.0041    0.0155   -0.0007    0.0163    0.0045    0.0070    0.0263
           4   -0.0227   -0.0014    0.0068   -0.0047    0.0001    0.0068   -0.0049    0.0092
           5    0.0438   -0.0166    0.0274    0.0088    0.0235   -0.0002   -0.0059    0.0047
           6    0.0197   -0.0004    0.0009    0.0111    0.0001   -0.0013   -0.0265   -0.0009
           7    0.0127    0.0227    0.0001    0.0024    0.0168    0.0049   -0.0020   -0.0119
           8   -0.0163    0.0098    0.0036    0.0017    0.0087    0.0043   -0.0045    0.0000
           9    0.0053   -0.0134   -0.0111   -0.0028   -0.0209   -0.0038   -0.0028    0.0034
          10    0.0010    0.0211    0.0006    0.0226   -0.0028    0.0053    0.0137    0.0183
          11   -0.0109    0.0180   -0.0033    0.0273    0.0023   -0.0012    0.0004   -0.0053
          12   -0.0039   -0.0107   -0.0054    0.0020    0.0015   -0.0100   -0.0142   -0.0347
          13    0.0162    0.0013    0.0211   -0.0099   -0.0169    0.0096    0.0243   -0.0168
          14   -0.0177    0.0102   -0.0006    0.0004   -0.0194    0.0109   -0.0235   -0.0019
          15    0.0023   -0.0070    0.0003   -0.0041    0.0114   -0.0031    0.0147    0.0044
          16    0.0122   -0.0055    0.0140   -0.0041   -0.0188   -0.0184   -0.0148    0.0112
          17   -0.0359    0.0042    0.0109    0.0005    0.0010   -0.0190    0.0071   -0.0017
          18   -0.0014    0.0001   -0.0073    0.0066    0.0168    0.0265   -0.0059   -0.0026
          19    0.0055   -0.0354   -0.0116    0.0137   -0.0241   -0.0032    0.0021    0.0125
          20   -0.0096   -0.0222    0.0063    0.0111   -0.0033   -0.0030    0.0049   -0.0032
          21    0.0211    0.0283   -0.0063   -0.0191    0.0028    0.0030   -0.0071   -0.0097
          22   -0.0183    0.0075   -0.0260   -0.0006    0.0144   -0.0274    0.0205   -0.0003
          23   -0.0030    0.0033   -0.0200   -0.0002    0.0058   -0.0171   -0.0078    0.0111
          24   -0.0389    0.0067   -0.0021   -0.0101   -0.0109    0.0109    0.0359   -0.0160
          25   -0.0020   -0.0047    0.0040   -0.0360    0.0112   -0.0045   -0.0081   -0.0168
          26   -0.0038   -0.0014    0.0035   -0.0166    0.0080   -0.0017   -0.0025   -0.0046
          27    0.0080   -0.0028    0.0002    0.0248   -0.0079    0.0010    0.0130    0.0120
          28   -0.0070   -0.0121   -0.0060    0.0052    0.0055    0.0303   -0.0092   -0.0013
          29    0.0139   -0.0133    0.0040   -0.0026    0.0076    0.0145    0.0371   -0.0155
          30    0.0111    0.0069    0.0164   -0.0035   -0.0024   -0.0292    0.0089    0.0036
          31   -0.0227   -0.0463    0.0376   -0.0008    0.0916   -0.0457    0.0420    0.0546
          32    0.0610    0.0146   -0.0600   -0.1641   -0.0704    0.0738    0.0197    0.1556
          33   -0.0114   -0.0082    0.0082   -0.1011    0.0260    0.0316    0.0391    0.1515
          34    0.0786   -0.0578   -0.0039   -0.0038    0.0412   -0.0578   -0.0190    0.0167
          35   -0.0279    0.0221   -0.0510   -0.0068   -0.0344   -0.0066   -0.0286   -0.0032
          36    0.0070    0.0049   -0.0760   -0.0029   -0.0308   -0.0416   -0.0550   -0.0036
          37   -0.1409    0.0366   -0.0087    0.0122   -0.0165    0.0465   -0.0980    0.0162
          38   -0.0170    0.0108   -0.0073    0.0026   -0.0074    0.0090   -0.0233    0.0017
          39    0.0750   -0.0407    0.0901    0.0492    0.0752    0.0177   -0.0867    0.0196
          40    0.0160   -0.0389   -0.0555    0.0039    0.0678   -0.0365    0.0300    0.0264
          41   -0.0244   -0.0244   -0.0679    0.0094    0.0403   -0.0155   -0.0624    0.0598
          42   -0.0105    0.0212    0.0539   -0.0195   -0.0724    0.0543   -0.0680    0.0185
          43    0.0101   -0.1178   -0.0337   -0.0886   -0.0340   -0.0321   -0.0604   -0.1191
          44   -0.0211   -0.0497   -0.0011   -0.0290    0.0138   -0.0148   -0.0206   -0.0334
          45    0.0348    0.0975   -0.0369    0.0940   -0.0556    0.0054   -0.0031   -0.0451
          46   -0.0350    0.0005    0.1065   -0.0053   -0.0413    0.0760    0.0309   -0.0448
          47   -0.0120   -0.0039    0.0841   -0.0278   -0.0599    0.0886    0.0137   -0.0143
          48   -0.0302    0.0116   -0.0863   -0.0050    0.0268   -0.0577    0.0296    0.0108
          49   -0.0045    0.0615    0.0775    0.0120   -0.0000   -0.0975   -0.0917    0.0439
          50    0.0247    0.0417    0.0299   -0.0246   -0.0242   -0.0839    0.0646   -0.0084
          51   -0.0041   -0.0738   -0.0274    0.0238    0.0400    0.1144   -0.0138   -0.0119
          52    0.0172   -0.0175   -0.0578    0.0292    0.0558    0.1085   -0.0680    0.0183
          53   -0.0363   -0.0042   -0.0392    0.0246    0.0539    0.0703   -0.0333    0.0051
          54   -0.0789    0.0104    0.0737   -0.0042   -0.0533   -0.0785   -0.0958    0.0632
          55    0.0855    0.1902   -0.0225   -0.0810    0.0301    0.0210   -0.0272   -0.0447
          56    0.0387    0.0800   -0.0062   -0.0344    0.0115    0.0061   -0.0123   -0.0415
          57    0.0089   -0.1290   -0.0262    0.0382   -0.0698   -0.0198   -0.0011   -0.0107
          58    0.0436    0.0418   -0.0133    0.1826   -0.0365    0.0054    0.0363    0.0083
          59    0.0544    0.0121   -0.0156    0.0100   -0.0457    0.0250    0.0279    0.1178
          60   -0.0300   -0.0353    0.0140   -0.1217    0.0311   -0.0099   -0.0207   -0.0242


   Root No.      25        26        27        28        29        30        31        32

                25 A      26 A      27 A      28 A      29 A      30 A      31 A      32 A   

                1057.4    1064.9    1076.2    1096.8    1109.3    1153.4    1168.5    1179.0
  
           1    0.0090    0.0087    0.0052   -0.0145    0.0473   -0.0011   -0.0087   -0.0231
           2   -0.0036   -0.0046    0.0064   -0.0097    0.0190   -0.0012   -0.0209    0.0031
           3    0.0067   -0.0090    0.0032    0.0076   -0.0353   -0.0083   -0.0130   -0.0058
           4   -0.0101    0.0074    0.0070    0.0028   -0.0503   -0.0050   -0.0049   -0.0043
           5   -0.0099    0.0079    0.0020   -0.0037   -0.0194    0.0005   -0.0004    0.0013
           6    0.0286    0.0155    0.0083    0.0015    0.0336   -0.0088   -0.0031   -0.0046
           7    0.0018   -0.0085   -0.0006   -0.0036   -0.0027    0.0034    0.0059    0.0083
           8   -0.0038   -0.0136    0.0037    0.0021   -0.0010   -0.0158   -0.0065    0.0129
           9   -0.0043    0.0026    0.0032   -0.0166    0.0046   -0.0011    0.0082    0.0138
          10    0.0011    0.0004   -0.0049    0.0083   -0.0046    0.0005   -0.0016   -0.0048
          11    0.0020   -0.0000    0.0046   -0.0189    0.0045    0.0036    0.0100    0.0003
          12   -0.0016    0.0016    0.0089   -0.0172    0.0064    0.0014   -0.0042   -0.0150
          13   -0.0005   -0.0091   -0.0058    0.0015    0.0057   -0.0018    0.0039    0.0014
          14    0.0288   -0.0074   -0.0034    0.0011    0.0030    0.0074   -0.0005   -0.0026
          15   -0.0326   -0.0046   -0.0049   -0.0015    0.0005    0.0095   -0.0045   -0.0043
          16   -0.0104   -0.0088   -0.0013   -0.0069    0.0047   -0.0086    0.0041    0.0040
          17    0.0042    0.0127   -0.0053    0.0045   -0.0039    0.0074    0.0037    0.0008
          18   -0.0013   -0.0071   -0.0049    0.0009   -0.0004   -0.0036    0.0042    0.0048
          19   -0.0019   -0.0012    0.0049   -0.0124    0.0038   -0.0031    0.0019    0.0069
          20   -0.0033    0.0083   -0.0169    0.0212   -0.0040    0.0047    0.0095    0.0087
          21   -0.0036   -0.0037   -0.0023   -0.0022   -0.0004   -0.0023    0.0068    0.0155
          22   -0.0033    0.0128    0.0049    0.0025   -0.0077    0.0053   -0.0009    0.0034
          23   -0.0119   -0.0086   -0.0053   -0.0026    0.0004    0.0047   -0.0004   -0.0081
          24    0.0089   -0.0008   -0.0010    0.0031   -0.0061    0.0050   -0.0002   -0.0035
          25    0.0010   -0.0041    0.0039   -0.0079    0.0013    0.0001   -0.0054   -0.0028
          26    0.0030   -0.0017    0.0111   -0.0092    0.0031    0.0059    0.0070    0.0016
          27    0.0035   -0.0027    0.0078   -0.0121   -0.0003    0.0044   -0.0002   -0.0012
          28    0.0038   -0.0045   -0.0021   -0.0001   -0.0000    0.0053    0.0002    0.0045
          29    0.0065    0.0117    0.0048    0.0072   -0.0016   -0.0036   -0.0012   -0.0096
          30   -0.0052    0.0062    0.0009    0.0016   -0.0003    0.0007    0.0024   -0.0029
          31    0.0801   -0.0738   -0.0569    0.1186    0.3072    0.0059    0.0031    0.0785
          32    0.0013    0.1142   -0.0352   -0.0386   -0.0051    0.0198    0.0671   -0.0007
          33    0.0425    0.0305   -0.0504    0.0475    0.0646    0.0086    0.0487    0.0355
          34    0.1545   -0.0579   -0.0273    0.0327   -0.2762   -0.0199    0.0710    0.0205
          35    0.0613   -0.0053   -0.0014    0.0025    0.0209   -0.0030    0.0046    0.0070
          36    0.1828   -0.0312   -0.0133    0.0242   -0.0458   -0.0202    0.0418    0.0149
          37   -0.0596    0.1253    0.0701    0.0338    0.0200   -0.0715    0.0582    0.0522
          38   -0.0072    0.0222    0.0119    0.0022    0.0107   -0.0100    0.0072    0.0087
          39   -0.0345    0.1089    0.0506    0.0168    0.0227   -0.0510    0.0426    0.0428
          40   -0.0828    0.0053    0.0005   -0.0032   -0.0213    0.0095   -0.0169    0.0130
          41   -0.0762   -0.0290   -0.0146   -0.0060   -0.0471    0.0820   -0.0841    0.0846
          42   -0.0402   -0.0739   -0.0382   -0.0020   -0.0333    0.1209   -0.1146    0.1351
          43   -0.0568   -0.0059    0.0397    0.1509    0.0067    0.0232    0.0532    0.0221
          44    0.0102    0.0023    0.0067   -0.0627    0.0164   -0.0010   -0.0070   -0.0114
          45   -0.0665   -0.0100    0.0376    0.2104   -0.0201    0.0319    0.0867    0.0393
          46    0.0981    0.0684    0.0392    0.0303   -0.0246    0.0122   -0.0975    0.0361
          47   -0.0916   -0.1151   -0.0631   -0.0374    0.0247   -0.0119    0.1498   -0.0587
          48   -0.0381   -0.0193   -0.0137   -0.0078   -0.0005    0.0061    0.0349   -0.0158
          49    0.0037    0.0223   -0.0257    0.0163    0.0097    0.2281    0.0283   -0.1075
          50   -0.0154    0.0013    0.0184   -0.0054   -0.0071   -0.1341   -0.0156    0.0528
          51    0.0220    0.0158   -0.0144    0.0164    0.0055    0.1382    0.0185   -0.0710
          52   -0.0200   -0.0577   -0.0363    0.0073    0.0119   -0.1071   -0.0125   -0.0449
          53   -0.0036   -0.0238   -0.0332    0.0162    0.0013   -0.0722   -0.0100   -0.0377
          54   -0.0339   -0.0506   -0.0551    0.0051    0.0145   -0.1510   -0.0153   -0.0672
          55   -0.0095    0.0250   -0.0637    0.0346   -0.0059   -0.0249   -0.0458   -0.0309
          56   -0.0147    0.0487   -0.1110    0.0877   -0.0209   -0.0228   -0.0517   -0.0405
          57   -0.0244    0.0710   -0.1617    0.1070   -0.0338   -0.0474   -0.0918   -0.0639
          58    0.0043    0.0306   -0.0744   -0.0605    0.0022    0.0063    0.0234    0.0370
          59   -0.0061   -0.0719    0.2007    0.1355    0.0042   -0.0074   -0.0636   -0.1040
          60    0.0026   -0.0147    0.0300   -0.0011   -0.0010    0.0027   -0.0081   -0.0110


   Root No.      33        34        35        36        37        38        39        40

                33 A      34 A      35 A      36 A      37 A      38 A      39 A      40 A   

                1204.4    1265.4    1290.3    1356.0    1390.3    1402.6    1441.9    1500.9
  
           1    0.0139    0.0022    0.0487    0.0217   -0.0341   -0.0120    0.0667    0.0300
           2   -0.0280   -0.0302   -0.0258    0.0384   -0.0105    0.0014   -0.0148   -0.0552
           3   -0.0156   -0.0340    0.0146    0.0356   -0.0173    0.0019    0.0333   -0.0045
           4   -0.0009   -0.0355    0.0126   -0.0078    0.0492    0.0253   -0.0632    0.0036
           5    0.0093    0.0053    0.0116   -0.0048   -0.0111    0.0057   -0.0095    0.0114
           6    0.0013   -0.0177    0.0235   -0.0127   -0.0330    0.0304   -0.0566    0.0220
           7    0.0070   -0.0058   -0.0050    0.0082   -0.0044   -0.0140   -0.0148   -0.0406
           8   -0.0216   -0.0123    0.0006   -0.0287    0.0192    0.0065    0.0314    0.1189
           9   -0.0003   -0.0117    0.0004   -0.0063    0.0021   -0.0164    0.0040    0.0167
          10   -0.0043    0.0162   -0.0042   -0.0126    0.0040   -0.0196   -0.0130   -0.0116
          11    0.0094    0.0253   -0.0099   -0.0193    0.0095   -0.0048   -0.0110    0.0109
          12    0.0002    0.0368   -0.0041   -0.0265    0.0067   -0.0306   -0.0227   -0.0065
          13    0.0048    0.0094   -0.0206   -0.0042    0.0021   -0.0134    0.0249   -0.0075
          14    0.0007   -0.0111    0.0021   -0.0149    0.0034    0.0020    0.0057   -0.0165
          15    0.0110   -0.0131   -0.0234   -0.0255    0.0125   -0.0148    0.0409   -0.0326
          16   -0.0075   -0.0074    0.0062   -0.0154    0.0047   -0.0014    0.0132   -0.0016
          17    0.0042    0.0151    0.0220   -0.0055   -0.0058    0.0071   -0.0035   -0.0622
          18   -0.0067    0.0022    0.0200   -0.0189    0.0015    0.0055    0.0111   -0.0422
          19    0.0010   -0.0037   -0.0138   -0.0012    0.0058    0.0018   -0.0026    0.0342
          20    0.0058   -0.0220    0.0205    0.0077   -0.0150   -0.0828   -0.0161   -0.0120
          21    0.0041   -0.0199   -0.0070    0.0034   -0.0011   -0.0488   -0.0148    0.0387
          22   -0.0035    0.0156    0.0055    0.0247   -0.0086    0.0048   -0.0272    0.0284
          23    0.0062   -0.0171   -0.0133   -0.0198    0.0117   -0.0100    0.0298   -0.0215
          24    0.0019    0.0061   -0.0087    0.0142    0.0000   -0.0052   -0.0032    0.0166
          25   -0.0045    0.0050   -0.0072   -0.0022    0.0035    0.0051   -0.0041   -0.0005
          26    0.0127    0.0021   -0.0074    0.0125    0.0028    0.0837    0.0211   -0.0112
          27    0.0021    0.0090   -0.0159    0.0039    0.0075    0.0591    0.0070   -0.0079
          28   -0.0079    0.0024    0.0187   -0.0147   -0.0006    0.0121    0.0087   -0.0454
          29    0.0059    0.0109   -0.0160    0.0276   -0.0054   -0.0020   -0.0188    0.0408
          30   -0.0045    0.0101    0.0085    0.0050   -0.0043    0.0104   -0.0054   -0.0161
          31   -0.0398   -0.0016   -0.0695   -0.0249    0.0228    0.0281   -0.0742   -0.0189
          32    0.0751    0.0521    0.0258   -0.0361    0.0011   -0.0066    0.0006    0.0174
          33    0.0274    0.0185   -0.0030   -0.0316    0.0129    0.0128   -0.0176    0.0179
          34   -0.0226    0.0578   -0.0632   -0.0308   -0.1535   -0.0130    0.0616    0.0098
          35   -0.0085    0.0252    0.0323    0.0821    0.2242   -0.0429    0.0369   -0.0264
          36   -0.0267    0.0525    0.0075    0.0672    0.1202   -0.0415    0.0568   -0.0139
          37   -0.1131    0.0324   -0.1400    0.0131   -0.1614   -0.0173    0.0478   -0.0359
          38   -0.0164    0.0012   -0.0321   -0.0284   -0.1372    0.0167   -0.0096    0.0071
          39   -0.0479    0.0825   -0.0029    0.1154    0.2066   -0.0678    0.0786   -0.0217
          40    0.0091    0.0121   -0.0138    0.0046    0.0017   -0.0110    0.0154    0.0002
          41    0.0116    0.0692    0.0414    0.0436   -0.0334    0.0124   -0.0387    0.0346
          42    0.0227    0.1345    0.0273    0.0665   -0.0529   -0.0048   -0.0174    0.0484
          43    0.0648   -0.0285    0.0306    0.0195   -0.0055    0.0748    0.0399    0.0186
          44   -0.0030    0.0334   -0.0120   -0.0229    0.0084   -0.0208   -0.0193    0.0061
          45    0.0868   -0.0140    0.0203    0.0057    0.0058    0.0923    0.0360    0.0271
          46    0.0737   -0.0274   -0.0544   -0.0248    0.0158   -0.0259    0.0366   -0.0033
          47   -0.1119    0.0534    0.0749    0.0611   -0.0222    0.0376   -0.0723    0.0319
          48   -0.0265    0.0232    0.0123    0.0347   -0.0096    0.0051   -0.0267    0.0313
          49   -0.0113   -0.0334   -0.0855    0.0362    0.0091   -0.0215   -0.0040    0.0850
          50    0.0080    0.0317    0.0431    0.0002   -0.0108    0.0184   -0.0130   -0.0320
          51   -0.0062   -0.0086   -0.0543    0.0384   -0.0001   -0.0096   -0.0152    0.0614
          52    0.0823    0.0054   -0.0609    0.0471   -0.0058   -0.0149   -0.0239    0.0358
          53    0.0765    0.0277   -0.0298    0.0450   -0.0151   -0.0025   -0.0350   -0.0360
          54    0.1359    0.0242   -0.0807    0.0767   -0.0165   -0.0184   -0.0476    0.0087
          55   -0.0369    0.0299   -0.0129   -0.0186    0.0169    0.0638    0.0180    0.0343
          56   -0.0460    0.0209    0.0253   -0.0163   -0.0013   -0.0067    0.0119   -0.0169
          57   -0.0831    0.0527   -0.0062   -0.0387    0.0263    0.0865    0.0291    0.0380
          58    0.0181   -0.0266   -0.0175    0.0206    0.0034    0.0726    0.0167    0.0057
          59   -0.0420    0.0912    0.0201   -0.0464    0.0013   -0.0868   -0.0304   -0.0260
          60   -0.0040    0.0179   -0.0163   -0.0026    0.0096    0.0479    0.0003   -0.0101


   Root No.      41        42        43        44        45        46        47        48

                41 A      42 A      43 A      44 A      45 A      46 A      47 A      48 A   

                1742.3    1796.9    1873.2    1886.8    2889.4    2946.7    3002.2    3009.4
  
           1   -0.0078    0.0004    0.0003   -0.0016    0.0223   -0.0012    0.0000   -0.0001
           2   -0.0017   -0.0036    0.0039   -0.0055    0.0339   -0.0021   -0.0001   -0.0001
           3   -0.0093   -0.0018    0.0013   -0.0044   -0.0534    0.0029   -0.0001   -0.0001
           4   -0.0001    0.0020    0.0061    0.0054    0.0002   -0.0013    0.0001   -0.0005
           5    0.0015    0.0046    0.0080    0.0092   -0.0051   -0.0544    0.0004   -0.0005
           6    0.0023    0.0075    0.0194    0.0182    0.0016    0.0141   -0.0003    0.0011
           7    0.0526    0.0777   -0.0378    0.0283   -0.0005   -0.0004    0.0001   -0.0001
           8    0.0273    0.0057   -0.0279    0.0254    0.0008    0.0001   -0.0001   -0.0001
           9    0.0855    0.1076   -0.0653    0.0496   -0.0006   -0.0000    0.0000   -0.0002
          10    0.1009   -0.0493    0.0050   -0.0041   -0.0004    0.0002    0.0000    0.0000
          11   -0.1010    0.0421   -0.0027    0.0021   -0.0002   -0.0001   -0.0000   -0.0000
          12    0.0746   -0.0410    0.0061   -0.0031   -0.0011    0.0001    0.0000    0.0000
          13    0.0013    0.0022    0.0200    0.0233    0.0002   -0.0021   -0.0051    0.0100
          14   -0.0103   -0.0186   -0.0925   -0.0896    0.0004    0.0020    0.0036   -0.0074
          15   -0.0121   -0.0210   -0.0920   -0.0859    0.0001   -0.0003   -0.0029    0.0052
          16    0.0158    0.0357    0.0724   -0.0963    0.0000    0.0001   -0.0105   -0.0124
          17   -0.0174   -0.0111    0.0290   -0.0240    0.0000   -0.0000    0.0150    0.0167
          18    0.0026    0.0253    0.0892   -0.1062   -0.0000    0.0001   -0.0000   -0.0008
          19   -0.0367   -0.0724    0.0248   -0.0151    0.0005   -0.0000   -0.0001   -0.0000
          20   -0.0037    0.0048   -0.0051    0.0053    0.0000    0.0000    0.0001    0.0002
          21   -0.0527   -0.0961    0.0310   -0.0174    0.0004    0.0000    0.0000    0.0001
          22    0.0044    0.0041   -0.0390   -0.0708    0.0001    0.0002    0.0105   -0.0135
          23    0.0030    0.0090    0.0981    0.1219   -0.0001   -0.0003    0.0031   -0.0034
          24    0.0102    0.0171    0.0675    0.0527   -0.0000    0.0002    0.0202   -0.0256
          25   -0.0935    0.0505   -0.0062    0.0044    0.0005   -0.0001   -0.0000   -0.0000
          26    0.1078   -0.0561    0.0109   -0.0090   -0.0004    0.0000    0.0000   -0.0000
          27   -0.0611    0.0342   -0.0019    0.0002    0.0001   -0.0000   -0.0000   -0.0000
          28   -0.0342   -0.0563   -0.0591    0.1231   -0.0000   -0.0001   -0.0027   -0.0003
          29    0.0093    0.0117   -0.0037   -0.0444    0.0000    0.0000   -0.0229   -0.0101
          30   -0.0264   -0.0457   -0.0602    0.0844   -0.0000   -0.0001   -0.0181   -0.0072
          31    0.0046    0.0011    0.0029    0.0032   -0.2844    0.0182   -0.0001    0.0001
          32   -0.0082    0.0225   -0.0070    0.0049   -0.4141    0.0209   -0.0002   -0.0000
          33   -0.0006    0.0161   -0.0051    0.0053    0.6501   -0.0344    0.0003   -0.0000
          34    0.0004   -0.0001   -0.0001    0.0011    0.0137    0.1572   -0.0017    0.0060
          35   -0.0001   -0.0024   -0.0078   -0.0053    0.0329    0.2764   -0.0029    0.0115
          36    0.0003   -0.0017   -0.0031   -0.0041   -0.0350   -0.2979    0.0031   -0.0115
          37   -0.0034   -0.0021    0.0121    0.0068   -0.0097   -0.1410    0.0007    0.0015
          38    0.0004    0.0049    0.0074    0.0070    0.0302    0.3742   -0.0027   -0.0040
          39    0.0009    0.0050    0.0230    0.0239    0.0091    0.1221   -0.0014    0.0005
          40    0.0030    0.0070    0.0454    0.0450    0.0028    0.0228    0.0625   -0.1226
          41    0.0016    0.0015   -0.0206   -0.0309   -0.0025   -0.0218   -0.0496    0.0979
          42    0.0121    0.0163    0.0480    0.0338    0.0012    0.0081    0.0283   -0.0542
          43   -0.0015    0.0021    0.0000   -0.0005   -0.0009    0.0004   -0.0000   -0.0000
          44   -0.1084    0.0442   -0.0016    0.0019    0.0045    0.0008    0.0001   -0.0000
          45   -0.0706    0.0304   -0.0011    0.0005   -0.0001    0.0007    0.0000   -0.0000
          46    0.0116    0.0199    0.0576    0.0193    0.0001   -0.0013   -0.1258    0.1625
          47   -0.0068   -0.0126   -0.0313   -0.0008   -0.0000   -0.0001   -0.0280    0.0321
          48    0.0099    0.0150    0.0505    0.0383    0.0004   -0.0010   -0.2327    0.2960
          49    0.0179    0.0197    0.0254    0.0037   -0.0000    0.0001    0.0280    0.0091
          50   -0.0251   -0.0402   -0.0626    0.0388   -0.0000    0.0008    0.2702    0.1185
          51    0.0024   -0.0046   -0.0167    0.0224   -0.0000    0.0007    0.2102    0.0890
          52    0.0212    0.0275    0.0015   -0.0259   -0.0005   -0.0005    0.1286    0.1456
          53   -0.0214   -0.0320   -0.0439    0.0552    0.0007    0.0006   -0.1764   -0.1976
          54    0.0123    0.0112   -0.0312    0.0196   -0.0001   -0.0000    0.0051    0.0069
          55   -0.0324   -0.0240    0.0128   -0.0083    0.0030   -0.0000    0.0005    0.0007
          56    0.0256    0.0969   -0.0355    0.0238   -0.0030    0.0001   -0.0005   -0.0007
          57   -0.0290    0.0241   -0.0025    0.0002    0.0008   -0.0000    0.0004    0.0006
          58   -0.0553    0.0137    0.0031   -0.0025    0.0032   -0.0003    0.0000    0.0001
          59   -0.0348    0.0551   -0.0117    0.0078    0.0006   -0.0001    0.0000    0.0000
          60   -0.0995    0.0547   -0.0039    0.0013    0.0031   -0.0003    0.0000    0.0001


   Root No.      49        50        51        52        53        54

                49 A      50 A      51 A      52 A      53 A      54 A   

                3023.2    3024.6    3035.3    3130.5    3135.0    3150.4
  
           1    0.0005    0.0004    0.0000    0.0001   -0.0004    0.0005
           2    0.0000    0.0002    0.0001    0.0002    0.0003   -0.0006
           3   -0.0003   -0.0001    0.0003    0.0001   -0.0004    0.0009
           4    0.0112    0.0094   -0.0045    0.0000   -0.0000   -0.0001
           5   -0.0044   -0.0043    0.0040   -0.0000    0.0000    0.0000
           6   -0.0161   -0.0132    0.0060   -0.0000    0.0000   -0.0000
           7   -0.0002    0.0002    0.0002   -0.0007   -0.0021    0.0009
           8   -0.0001    0.0002    0.0000    0.0001    0.0001    0.0009
           9   -0.0003    0.0004    0.0002   -0.0009   -0.0028    0.0017
          10    0.0001    0.0001   -0.0000   -0.0042    0.0056    0.0110
          11   -0.0001   -0.0001   -0.0000    0.0199   -0.0222   -0.0367
          12    0.0000   -0.0000   -0.0000    0.0071   -0.0067   -0.0087
          13   -0.0091    0.0020   -0.0264   -0.0000   -0.0000    0.0000
          14    0.0077   -0.0016    0.0233    0.0000    0.0000   -0.0000
          15   -0.0034    0.0009   -0.0086   -0.0000    0.0000    0.0000
          16   -0.0107    0.0137    0.0034   -0.0000   -0.0000   -0.0000
          17    0.0127   -0.0161   -0.0038    0.0000    0.0002   -0.0001
          18   -0.0018    0.0023    0.0006    0.0000    0.0001   -0.0001
          19    0.0000   -0.0000   -0.0001    0.0116    0.0254   -0.0079
          20    0.0001   -0.0002   -0.0000   -0.0163   -0.0361    0.0120
          21    0.0001   -0.0002   -0.0001    0.0059    0.0128   -0.0035
          22   -0.0000   -0.0032   -0.0069   -0.0000   -0.0000    0.0000
          23   -0.0008   -0.0004   -0.0044    0.0000    0.0000   -0.0000
          24   -0.0011   -0.0054   -0.0166    0.0000   -0.0000    0.0000
          25    0.0000   -0.0000   -0.0000   -0.0201    0.0047   -0.0190
          26    0.0000    0.0000   -0.0000   -0.0040    0.0025   -0.0011
          27    0.0000   -0.0000   -0.0000   -0.0303    0.0082   -0.0269
          28    0.0025   -0.0033   -0.0009    0.0000    0.0001   -0.0000
          29    0.0095   -0.0142   -0.0060   -0.0000    0.0000    0.0000
          30    0.0088   -0.0127   -0.0050    0.0000    0.0001   -0.0000
          31   -0.0019   -0.0015    0.0009   -0.0001   -0.0004    0.0013
          32   -0.0020   -0.0016    0.0011    0.0003   -0.0009    0.0012
          33    0.0026    0.0020   -0.0013    0.0007    0.0005   -0.0035
          34   -0.0725   -0.0585    0.0224   -0.0000    0.0002    0.0001
          35   -0.1543   -0.1254    0.0510   -0.0002    0.0003    0.0001
          36    0.1438    0.1162   -0.0448    0.0001   -0.0003   -0.0001
          37   -0.0666   -0.0566    0.0305   -0.0001   -0.0000   -0.0002
          38    0.2057    0.1758   -0.0967    0.0012   -0.0012   -0.0012
          39    0.0494    0.0435   -0.0272    0.0005   -0.0005   -0.0006
          40    0.1054   -0.0253    0.3011    0.0002    0.0002   -0.0003
          41   -0.0851    0.0204   -0.2444   -0.0001   -0.0001    0.0002
          42    0.0439   -0.0121    0.1286    0.0001    0.0001   -0.0001
          43    0.0002    0.0000   -0.0001    0.0548   -0.0606   -0.0897
          44    0.0008    0.0010   -0.0001   -0.2399    0.2618    0.3846
          45    0.0004    0.0004   -0.0001   -0.0800    0.0864    0.1262
          46    0.0045    0.0354    0.0916    0.0000    0.0001   -0.0001
          47    0.0028    0.0061    0.0209    0.0000    0.0000   -0.0000
          48    0.0103    0.0629    0.1706    0.0000    0.0002   -0.0003
          49   -0.0127    0.0182    0.0063    0.0000   -0.0000   -0.0000
          50   -0.1134    0.1675    0.0683    0.0001   -0.0001   -0.0004
          51   -0.0890    0.1308    0.0523    0.0001   -0.0001   -0.0002
          52    0.1109   -0.1410   -0.0325    0.0007    0.0017   -0.0003
          53   -0.1489    0.1892    0.0435   -0.0006   -0.0016    0.0002
          54    0.0064   -0.0083   -0.0020    0.0003    0.0007   -0.0002
          55    0.0006   -0.0007    0.0000   -0.1262   -0.2755    0.0811
          56   -0.0005    0.0008   -0.0001    0.1883    0.4147   -0.1231
          57    0.0004   -0.0006   -0.0000   -0.0583   -0.1252    0.0362
          58   -0.0001   -0.0001    0.0001    0.2293   -0.0610    0.1824
          59   -0.0000   -0.0000    0.0000    0.0540   -0.0168    0.0425
          60   -0.0002   -0.0001    0.0002    0.3513   -0.0951    0.2789


           MASS-WEIGHTED COORDINATE ANALYSIS (NORMAL COORDINATES)


   Root No.       1         2         3         4         5         6         7         8

                 1 A       2 A       3 A       4 A       5 A       6 A       7 A       8 A   

                  93.8     162.3     217.8     325.4     346.5     364.8     454.2     493.9
  
           1   -0.1645    0.0329   -0.1662    0.0974   -0.0001   -0.2416    0.0622   -0.1403
           2   -0.0841    0.1164   -0.1430   -0.2710    0.2350   -0.1201    0.0452    0.0020
           3    0.1362    0.0782    0.1838   -0.2234   -0.0748    0.0171   -0.0166    0.0726
           4   -0.1644    0.0444   -0.1482    0.1056   -0.0054   -0.2320    0.1606   -0.2048
           5   -0.2476    0.2716    0.3396    0.0881    0.1540    0.2014    0.0252   -0.0050
           6    0.0569   -0.2118   -0.1287   -0.0239    0.1501    0.2075    0.1765   -0.0021
           7   -0.0111    0.1197   -0.2187    0.2484   -0.0695   -0.1152   -0.2188   -0.0751
           8   -0.0196    0.1522   -0.1598   -0.2114    0.1873   -0.0909   -0.0903    0.0409
           9    0.0411   -0.1535    0.2384   -0.0082   -0.2386   -0.0593    0.0087    0.1017
          10   -0.1198   -0.1953   -0.0168   -0.2738    0.0252   -0.0560   -0.1462    0.3828
          11   -0.0451   -0.1594   -0.0906   -0.1016    0.0268   -0.0182    0.0835    0.0840
          12    0.0877    0.3322    0.0894   -0.1700    0.0273   -0.1668    0.0236   -0.1902
          13    0.1369    0.0798   -0.1395   -0.1718   -0.0139    0.1611    0.4093   -0.0563
          14    0.1724    0.0561   -0.0985    0.0975   -0.2675    0.2113    0.1171    0.0416
          15   -0.1852   -0.1698   -0.0248    0.1361    0.2629    0.0594    0.0866   -0.1288
          16   -0.2133    0.0578   -0.0567    0.0261   -0.1318    0.3575   -0.2150   -0.0124
          17   -0.1285    0.0679   -0.0699   -0.1866   -0.1677   -0.0811   -0.1811    0.0537
          18    0.2165   -0.0454    0.1092    0.0429    0.1601   -0.2115    0.0392    0.1237
          19    0.2633    0.2168    0.1396    0.3032   -0.0966   -0.1283    0.0192    0.2486
          20    0.1231    0.0660   -0.0151    0.0907    0.0219   -0.0624    0.1378    0.0373
          21   -0.1542   -0.2354   -0.0212   -0.0036   -0.2521   -0.0596   -0.1545   -0.1586
          22    0.2004   -0.1422    0.0437    0.0296    0.3755    0.2269   -0.0949   -0.0501
          23    0.2014   -0.2175   -0.0252    0.2278    0.1111    0.0530   -0.1692   -0.0690
          24   -0.1939    0.0838   -0.0381    0.0733   -0.0501    0.2906    0.2020    0.0038
          25    0.2005   -0.0353    0.2935   -0.2873   -0.1206   -0.0660   -0.1345   -0.2215
          26    0.1082   -0.1576    0.0471    0.0602   -0.1439   -0.0126    0.0828   -0.2291
          27   -0.1299    0.1082   -0.1313    0.0761   -0.0284   -0.1544   -0.0306    0.2288
          28   -0.1362   -0.1633    0.2247   -0.0109    0.0927    0.0325    0.1169    0.0796
          29   -0.0555   -0.2041    0.1265    0.1668   -0.1451   -0.1858   -0.0730    0.0635
          30    0.1325    0.1913   -0.1867    0.0777   -0.0513    0.1596   -0.3330    0.0352
          31   -0.0610    0.0676    0.0218    0.0476   -0.0339   -0.0996    0.0323   -0.0878
          32   -0.0035    0.0897   -0.0858   -0.1278    0.1070   -0.0588   -0.0082   -0.0627
          33    0.0447    0.0827    0.0509   -0.0874   -0.0098   -0.0265   -0.0110   -0.0419
          34   -0.0424   -0.0435   -0.1621    0.0079    0.0348   -0.1302    0.0746   -0.0830
          35   -0.1698    0.1415    0.2567    0.0943    0.1283    0.1042   -0.0557   -0.0327
          36   -0.0746   -0.0311    0.0495    0.0457    0.1402    0.0670    0.0086   -0.0434
          37   -0.0958    0.0390    0.0515    0.1297   -0.0062   -0.0144    0.0048   -0.0800
          38   -0.1207    0.1129    0.1881    0.0731    0.0770    0.0898   -0.0285   -0.0177
          39    0.1135   -0.1370   -0.2082   -0.0375   -0.0610    0.0227    0.1157    0.0204
          40    0.1297    0.0533   -0.1258   -0.1074   -0.0960    0.1567    0.2075    0.0108
          41    0.1320    0.0293   -0.1245   -0.0159   -0.1721    0.1277    0.1185    0.0230
          42   -0.1057   -0.0970    0.0059    0.0924    0.1078   -0.1148   -0.0235   -0.0798
          43   -0.0817   -0.1256   -0.0229   -0.1847    0.0298    0.0138   -0.1126    0.3134
          44   -0.0338   -0.0910   -0.0363   -0.0479   -0.0003    0.0112   -0.0006    0.1056
          45    0.0550    0.1841    0.0435   -0.0663    0.0483   -0.0769    0.0335   -0.1600
          46    0.1664   -0.0746   -0.0235    0.0232    0.1806    0.1356   -0.1918   -0.0205
          47    0.1264   -0.1205   -0.0429    0.0718    0.1313    0.0688   -0.0746   -0.0687
          48   -0.1224    0.0489    0.0119    0.0124   -0.0653    0.0386    0.1507    0.0096
          49   -0.0972   -0.0874    0.1593   -0.0608   -0.0439   -0.0632    0.1813    0.0908
          50   -0.0505   -0.1100    0.0973    0.0598   -0.0702   -0.0479    0.0939    0.0360
          51    0.0906    0.1262   -0.1451    0.0139    0.0330    0.0494   -0.2631   -0.0214
          52   -0.1308    0.0422   -0.0141   -0.0681   -0.1311    0.2170   -0.0544    0.0095
          53   -0.0858    0.0377   -0.0186   -0.1094   -0.1102    0.0585   -0.0457    0.0250
          54    0.1280   -0.0167    0.0320    0.0024    0.2154   -0.1500    0.0377    0.0403
          55    0.1347    0.1091    0.0975    0.1859   -0.0524   -0.0160    0.0816    0.2536
          56    0.0631    0.0289    0.0200    0.0947   -0.0210   -0.0069    0.0804    0.0803
          57   -0.0821   -0.1364   -0.0507    0.0084   -0.1084   -0.0272   -0.0783   -0.2145
          58    0.1062   -0.0331    0.1721   -0.2027   -0.0732    0.0108   -0.0817   -0.2365
          59    0.0574   -0.0899    0.0536    0.0444   -0.1107    0.0174   -0.0039   -0.1572
          60   -0.0731    0.0531   -0.1009    0.0957    0.0272   -0.0679    0.0229    0.1931


   Root No.       9        10        11        12        13        14        15        16

                 9 A      10 A      11 A      12 A      13 A      14 A      15 A      16 A   

                 520.1     637.9     677.4     731.8     774.6     801.8     818.9     838.9
  
           1   -0.0319   -0.1534   -0.0456    0.0693    0.0347    0.0075    0.0336   -0.0632
           2    0.1279   -0.1432   -0.0130    0.0656   -0.0163   -0.0182   -0.0243   -0.1422
           3   -0.1959    0.1678   -0.1889   -0.0942    0.0972    0.1526   -0.1959   -0.1754
           4   -0.0731   -0.2096   -0.0388   -0.0871    0.1718    0.0475   -0.0021    0.0299
           5   -0.0157    0.0370   -0.0221   -0.0118   -0.1308   -0.1596   -0.0330   -0.1141
           6   -0.1236    0.1294    0.1705   -0.0550   -0.0537    0.0646    0.0085    0.0550
           7    0.0401    0.5073    0.0722    0.1033    0.0194   -0.1182   -0.1887   -0.1266
           8    0.1389    0.0909    0.1720    0.0065    0.0044   -0.1026    0.0187    0.1171
           9   -0.1029   -0.3222    0.1305   -0.0850   -0.0833   -0.0590    0.0167   -0.1490
          10   -0.0784    0.0405   -0.1120    0.1193   -0.2260    0.1427    0.0683    0.0408
          11   -0.1546    0.0045   -0.1989   -0.0185    0.0816    0.2728   -0.2050   -0.3392
          12   -0.0354   -0.0025   -0.2289    0.0632    0.1480    0.0469   -0.0035   -0.0390
          13   -0.1792    0.1074    0.2200   -0.3173   -0.0104    0.0666   -0.1532    0.2021
          14    0.2429    0.0383   -0.1694   -0.0350   -0.0852   -0.0913   -0.0566    0.0297
          15   -0.1186   -0.0356    0.0894    0.0060    0.0498   -0.0208    0.0506   -0.0260
          16    0.1253   -0.0613   -0.1323   -0.0982    0.0516    0.2336    0.1831   -0.0346
          17   -0.1365   -0.1106    0.4230   -0.1959   -0.0921   -0.2671    0.0474   -0.1038
          18    0.3075   -0.0265    0.2040    0.0504    0.0979    0.0111   -0.1388    0.1167
          19   -0.0871    0.0031    0.1204    0.0363   -0.0809   -0.1089   -0.1945   -0.1758
          20   -0.1394    0.0207   -0.1947    0.1225   -0.0692    0.0416    0.1626    0.3385
          21   -0.0792    0.1144    0.0431    0.0148   -0.0900   -0.1486    0.0664   -0.0771
          22    0.0022   -0.1065   -0.0979   -0.0902   -0.1250   -0.1957   -0.1305    0.0438
[...]
 EFFECTIVE MASS      7.9984
 FORCE CONSTANT      1.0209

 VIBRATION         37   37A           ATOM PAIR      ENERGY CONTRIBUTION    RADIAL
 FREQUENCY          1390.27         C  2 -- H 12         +25.8% ( 58.9%)      4.8%
 TRANSITION DIPOLE   0.0698         C  2 -- H 13         +25.1% ( 58.1%)      5.4%
 TRAVEL (Ang.)       0.2781         C  1 -- C  2         +13.9% ( 43.3%)     96.5%
 REDUCED MASS        0.6273         C  2 -- C  5          +8.5% ( 33.8%)     15.6%
 EFFECTIVE MASS      4.0995
 FORCE CONSTANT      0.7143

 VIBRATION         38   38A           ATOM PAIR      ENERGY CONTRIBUTION    RADIAL
 FREQUENCY          1402.59         C  7 -- C  9         +26.7% ( 86.3%)    100.0%
 TRANSITION DIPOLE   0.4518         C  4 -- C  9         +10.7% ( 54.6%)      0.1%
 TRAVEL (Ang.)       0.1287         C  3 -- C  9         +10.7% ( 54.6%)     90.3%
 REDUCED MASS        2.9026         C  4 -- C  7          +9.9% ( 52.6%)     97.1%
 EFFECTIVE MASS     10.5190
 FORCE CONSTANT      3.3644

 VIBRATION         39   39A           ATOM PAIR      ENERGY CONTRIBUTION    RADIAL
 FREQUENCY          1441.90         C  1 -- C  2         +17.1% ( 66.1%)     67.5%
 TRANSITION DIPOLE   0.1221         C  2 -- C  5         +13.6% ( 59.0%)     88.0%
 TRAVEL (Ang.)       0.1539         C  2 -- H 13          +8.7% ( 47.1%)      0.1%
 REDUCED MASS        1.9757         C  1 -- C  3          +8.6% ( 47.0%)     56.7%
 EFFECTIVE MASS     10.2222
 FORCE CONSTANT      2.4201

 VIBRATION         40   40A           ATOM PAIR      ENERGY CONTRIBUTION    RADIAL
 FREQUENCY          1500.86         C  3 -- C  6         +18.8% ( 70.8%)     66.9%
 TRANSITION DIPOLE   0.2490         C  1 -- C  3         +15.7% ( 64.8%)     98.7%
 TRAVEL (Ang.)       0.1302         C  3 -- C  7         +14.1% ( 61.4%)     25.3%
 REDUCED MASS        2.6507         C  3 -- C  9         +10.3% ( 52.4%)     23.6%
 EFFECTIVE MASS     11.4194
 FORCE CONSTANT      3.5180

 VIBRATION         41   41A           ATOM PAIR      ENERGY CONTRIBUTION    RADIAL
 FREQUENCY          1742.26         C  4 -- C  9         +26.9% ( 87.9%)    100.0%
 TRANSITION DIPOLE   0.3976         C  3 -- C  9         +11.5% ( 57.4%)     35.3%
 TRAVEL (Ang.)       0.1081         C  4 -- C  7          +9.5% ( 52.2%)     37.5%
 REDUCED MASS        3.3114         C  7 -- C  9          +8.7% ( 50.0%)     51.5%
 EFFECTIVE MASS     11.9821
 FORCE CONSTANT      5.9223

 VIBRATION         42   42A           ATOM PAIR      ENERGY CONTRIBUTION    RADIAL
 FREQUENCY          1796.91         C  3 -- C  7         +21.7% ( 76.2%)     98.8%
 TRANSITION DIPOLE   0.1392         C  3 -- C  9         +10.8% ( 53.7%)     96.7%
 TRAVEL (Ang.)       0.1234         C  7 -- C  9          +9.1% ( 49.4%)      0.9%
 REDUCED MASS        2.4640         C  4 -- C  9          +8.7% ( 48.3%)     99.6%
 EFFECTIVE MASS     11.8094
 FORCE CONSTANT      4.6876

 VIBRATION         43   43A           ATOM PAIR      ENERGY CONTRIBUTION    RADIAL
 FREQUENCY          1873.21         C  5 -- C  8         +22.8% ( 71.6%)     99.7%
 TRANSITION DIPOLE   0.2589         C  6 -- C 10         +13.9% ( 55.9%)     95.6%
 TRAVEL (Ang.)       0.1224         C  3 -- C  6         +10.8% ( 49.3%)     72.2%
 REDUCED MASS        2.4012         C  8 -- C 10          +9.0% ( 44.9%)      5.1%
 EFFECTIVE MASS     11.8199
 FORCE CONSTANT      4.9643

 VIBRATION         44   44A           ATOM PAIR      ENERGY CONTRIBUTION    RADIAL
 FREQUENCY          1886.79         C  6 -- C 10         +21.3% ( 69.2%)     99.7%
 TRANSITION DIPOLE   0.5779         C  5 -- C  8         +18.3% ( 64.2%)     98.8%
 TRAVEL (Ang.)       0.1154         C  8 -- C 10         +16.6% ( 61.1%)     99.0%
 REDUCED MASS        2.6826         C  3 -- C  6          +8.9% ( 44.7%)     66.0%
 EFFECTIVE MASS     11.9581
 FORCE CONSTANT      5.6268

 VIBRATION         45   45A           ATOM PAIR      ENERGY CONTRIBUTION    RADIAL
 FREQUENCY          2889.45         C  1 -- H 11         +96.4% ( 99.7%)    100.0%
 TRANSITION DIPOLE   0.2320         C  1 -- C  2          +1.0% ( 10.2%)      9.7%
 TRAVEL (Ang.)       0.1593         C  1 -- C  3          +1.0% ( 10.1%)     10.8%
 REDUCED MASS        0.9198         C  1 -- C  4          +1.0% ( 10.1%)     10.1%
 EFFECTIVE MASS      1.4344
 FORCE CONSTANT      4.5247

 VIBRATION         46   46A           ATOM PAIR      ENERGY CONTRIBUTION    RADIAL
 FREQUENCY          2946.65         C  2 -- H 12         +50.3% ( 73.6%)     96.6%
 TRANSITION DIPOLE   0.0823         C  2 -- H 13         +46.7% ( 70.9%)     96.3%
 TRAVEL (Ang.)       0.2115         C  2 -- C  5          +1.2% ( 11.2%)      0.0%
 REDUCED MASS        0.5116         C  1 -- C  2          +1.1% ( 11.1%)      0.0%
 EFFECTIVE MASS      1.5457
 FORCE CONSTANT      2.6172

 VIBRATION         47   47A           ATOM PAIR      ENERGY CONTRIBUTION    RADIAL
 FREQUENCY          3002.18         C 10 -- H 17         +47.2% ( 69.8%)    100.0%
 TRANSITION DIPOLE   0.1526         C  8 -- H 16         +28.4% ( 54.1%)    100.0%
 TRAVEL (Ang.)       0.2596         C  6 -- H 18         +19.1% ( 44.4%)    100.0%
 REDUCED MASS        0.3332         C  5 -- H 14          +2.9% ( 17.2%)     99.8%
 EFFECTIVE MASS      1.4802
 FORCE CONSTANT      1.7693

 VIBRATION         48   48A           ATOM PAIR      ENERGY CONTRIBUTION    RADIAL
 FREQUENCY          3009.44         C  8 -- H 16         +49.9% ( 71.6%)    100.0%
 TRANSITION DIPOLE   0.2724         C  6 -- H 18         +26.1% ( 51.8%)    100.0%
 TRAVEL (Ang.)       0.2594         C  5 -- H 14         +11.9% ( 35.0%)     99.9%
 REDUCED MASS        0.3329         C 10 -- H 17          +9.5% ( 31.2%)     99.9%
 EFFECTIVE MASS      1.4666
 FORCE CONSTANT      1.7766

 VIBRATION         49   49A           ATOM PAIR      ENERGY CONTRIBUTION    RADIAL
 FREQUENCY          3023.22         C  2 -- H 12         +26.8% ( 51.7%)     97.7%
 TRANSITION DIPOLE   0.2194         C  2 -- H 13         +26.6% ( 51.5%)     97.8%
 TRAVEL (Ang.)       0.3224         C  6 -- H 18         +20.2% ( 44.9%)     99.9%
 REDUCED MASS        0.2146         C 10 -- H 17         +12.3% ( 34.9%)     99.9%
 EFFECTIVE MASS      1.3917         C  5 -- H 14         +11.9% ( 34.5%)    100.0%
 FORCE CONSTANT      1.1554

 VIBRATION         50   50A           ATOM PAIR      ENERGY CONTRIBUTION    RADIAL
 FREQUENCY          3024.57         C  6 -- H 18         +31.8% ( 56.5%)     99.9%
 TRANSITION DIPOLE   0.3307         C 10 -- H 17         +25.9% ( 51.0%)     99.9%
 TRAVEL (Ang.)       0.3106         C  2 -- H 13         +19.0% ( 43.7%)     98.0%
 REDUCED MASS        0.2312         C  2 -- H 12         +17.1% ( 41.5%)     97.4%
 EFFECTIVE MASS      1.4475
 FORCE CONSTANT      1.2460

 VIBRATION         51   51A           ATOM PAIR      ENERGY CONTRIBUTION    RADIAL
 FREQUENCY          3035.32         C  5 -- H 14         +70.3% ( 84.8%)    100.0%
 TRANSITION DIPOLE   0.3172         C  8 -- H 16         +16.0% ( 40.4%)     99.8%
 TRAVEL (Ang.)       0.2079         C  2 -- H 13          +4.3% ( 21.0%)     98.9%
 REDUCED MASS        0.5139         C 10 -- H 17          +3.1% ( 17.8%)    100.0%
 EFFECTIVE MASS      1.5360
 FORCE CONSTANT      2.7895

 VIBRATION         52   52A           ATOM PAIR      ENERGY CONTRIBUTION    RADIAL
 FREQUENCY          3130.50         C  9 -- H 20         +56.9% ( 77.3%)    100.0%
 TRANSITION DIPOLE   0.1489         C  4 -- H 15         +21.2% ( 47.2%)    100.0%
 TRAVEL (Ang.)       0.2302         C  7 -- H 19         +17.5% ( 42.9%)    100.0%
 REDUCED MASS        0.4065         C  7 -- C  9          +1.2% ( 11.1%)      3.1%
 EFFECTIVE MASS      1.4951
 FORCE CONSTANT      2.3471

 VIBRATION         53   53A           ATOM PAIR      ENERGY CONTRIBUTION    RADIAL
 FREQUENCY          3135.03         C  7 -- H 19         +70.5% ( 86.1%)    100.0%
 TRANSITION DIPOLE   0.5373         C  4 -- H 15         +21.2% ( 47.2%)    100.0%
 TRAVEL (Ang.)       0.1962         C  9 -- H 20          +3.5% ( 19.1%)     99.7%
 REDUCED MASS        0.5586         C  4 -- C  7          +1.4% ( 12.3%)     35.2%
 EFFECTIVE MASS      1.5314
 FORCE CONSTANT      3.2348

 VIBRATION         54   54A           ATOM PAIR      ENERGY CONTRIBUTION    RADIAL
 FREQUENCY          3150.40         C  4 -- H 15         +52.3% ( 74.4%)     99.9%
 TRANSITION DIPOLE   0.4650         C  9 -- H 20         +34.4% ( 60.4%)     99.9%
 TRAVEL (Ang.)       0.2252         C  7 -- H 19          +7.0% ( 27.2%)    100.0%
 REDUCED MASS        0.4220         C  4 -- C  9          +2.2% ( 15.4%)     99.3%
 EFFECTIVE MASS      1.6616
 FORCE CONSTANT      2.4679

      SYMMETRY NUMBER FOR POINT-GROUP C1  =  1


          SYSTEM IS A GROUND STATE



 InChI=1S/C10H10/c1-2-5-9-7-4-8-10(9)6-3-1/h1-5,7-8,10H,6H2


          MOLECULE IS NOT LINEAR

          THERE ARE 54 GENUINE VIBRATIONS IN THIS SYSTEM
          THIS THERMODYNAMICS CALCULATION IS LIMITED TO
          MOLECULES WHICH HAVE NO INTERNAL ROTATIONS




                    CALCULATED THERMODYNAMIC PROPERTIES
                                          *
   TEMP. (K)   PARTITION FUNCTION   H.O.F.    ENTHALPY  HEAT CAPACITY ENTROPY
                                   KCAL/MOL   CAL/MOLE    CAL/K/MOL  CAL/K/MOL


 298.00  VIB.     0.2729D+02                  3124.7608    26.0173    17.0562
         ROT.     0.4999D+06                   888.2803     2.9808    29.0571
         INT.     0.1364D+08                  4013.0411    28.9981    46.1134
         TRA.     0.1436D+28                  1480.4672     4.9680    40.5022
         TOT.                       63.425    5493.5082    33.9661    86.6155

 200.00  VIB.     0.5585D+01                  1156.9982    14.4095     9.2030
         ROT.     0.2748D+06                   596.1613     2.9808    27.8685
         INT.     0.1535D+07                  1753.1595    17.3903    37.0715
         TRA.     0.7896D+27                   993.6021     4.9680    38.5210
         TOT.                       60.678    2746.7616    22.3583    75.5925

 210.00  VIB.     0.6471D+01                  1306.5172    15.4996     9.9323
         ROT.     0.2957D+06                   625.9693     2.9808    28.0139
         INT.     0.1914D+07                  1932.4866    18.4804    37.9462
         TRA.     0.8496D+27                  1043.2822     4.9680    38.7634
         TOT.                       60.907    2975.7688    23.4484    76.7096

 220.00  VIB.     0.7524D+01                  1467.0910    16.6200    10.6791
         ROT.     0.3171D+06                   655.7774     2.9808    28.1526
         INT.     0.2386D+07                  2122.8684    19.6008    38.8316
         TRA.     0.9110D+27                  1092.9623     4.9680    38.9945
         TOT.                       61.147    3215.8308    24.5688    77.8262

 230.00  VIB.     0.8779D+01                  1639.0090    17.7679    11.4431
         ROT.     0.3389D+06                   685.5855     2.9808    28.2851
         INT.     0.2976D+07                  2324.5944    20.7487    39.7282
         TRA.     0.9738D+27                  1142.6424     4.9680    39.2154
         TOT.                       61.399    3467.2369    25.7167    78.9435

 240.00  VIB.     0.1028D+02                  1822.5283    18.9397    12.2240
         ROT.     0.3613D+06                   715.3935     2.9808    28.4119
         INT.     0.3713D+07                  2537.9219    21.9205    40.6359
         TRA.     0.1038D+28                  1192.3226     4.9680    39.4268
         TOT.                       61.662    3730.2444    26.8885    80.0627

 250.00  VIB.     0.1207D+02                  2017.8709    20.1319    13.0212
         ROT.     0.3841D+06                   745.2016     2.9808    28.5336
         INT.     0.4637D+07                  2763.0725    23.1127    41.5548
         TRA.     0.1103D+28                  1242.0027     4.9680    39.6296
         TOT.                       61.937    4005.0752    28.0807    81.1845

 260.00  VIB.     0.1422D+02                  2225.2209    21.3405    13.8343
         ROT.     0.4074D+06                   775.0097     2.9808    28.6505
         INT.     0.5794D+07                  3000.2305    24.3213    42.4848
         TRA.     0.1170D+28                  1291.6828     4.9680    39.8245
         TOT.                       62.224    4291.9133    29.2893    82.3093

 270.00  VIB.     0.1681D+02                  2444.7237    22.5618    14.6626
         ROT.     0.4311D+06                   804.8177     2.9808    28.7630
         INT.     0.7248D+07                  3249.5415    25.5426    43.4256
         TRA.     0.1239D+28                  1341.3629     4.9680    40.0120
         TOT.                       62.523    4590.9043    30.5107    83.4376

 280.00  VIB.     0.1993D+02                  2676.4872    23.7920    15.5053
         ROT.     0.4553D+06                   834.6258     2.9808    28.8714
         INT.     0.9075D+07                  3511.1130    26.7728    44.3767
         TRA.     0.1308D+28                  1391.0430     4.9680    40.1926
         TOT.                       62.834    4902.1560    31.7408    84.5694

 290.00  VIB.     0.2370D+02                  2920.5818    25.0275    16.3618
         ROT.     0.4799D+06                   864.4339     2.9808    28.9760
         INT.     0.1138D+08                  3785.0156    28.0083    45.3378
         TRA.     0.1379D+28                  1440.7231     4.9680    40.3670
         TOT.                       63.157    5225.7387    32.9763    85.7047

 300.00  VIB.     0.2827D+02                  3177.0429    26.2648    17.2311
         ROT.     0.5049D+06                   894.2419     2.9808    29.0771
         INT.     0.1427D+08                  4071.2848    29.2456    46.3081
         TRA.     0.1451D+28                  1490.4032     4.9680    40.5354
         TOT.                       63.493    5561.6880    34.2136    86.8435

 310.00  VIB.     0.3381D+02                  3445.8730    27.5008    18.1125
         ROT.     0.5304D+06                   924.0500     2.9808    29.1748
         INT.     0.1793D+08                  4369.9230    30.4816    47.2873
         TRA.     0.1524D+28                  1540.0833     4.9680    40.6983
         TOT.                       63.842    5910.0063    35.4496    87.9856

 320.00  VIB.     0.4056D+02                  3727.0443    28.7325    19.0050
         ROT.     0.5562D+06                   953.8580     2.9808    29.2694
         INT.     0.2256D+08                  4680.9024    31.7134    48.2745
         TRA.     0.1598D+28                  1589.7634     4.9680    40.8560
         TOT.                       64.202    6270.6658    36.6814    89.1305

 330.00  VIB.     0.4877D+02                  4020.5012    29.9575    19.9080
         ROT.     0.5825D+06                   983.6661     2.9808    29.3612
         INT.     0.2841D+08                  5004.1673    32.9383    49.2691
         TRA.     0.1674D+28                  1639.4435     4.9680    41.0089
         TOT.                       64.575    6643.6108    37.9063    90.2780

 340.00  VIB.     0.5881D+02                  4326.1633    31.1732    20.8204
         ROT.     0.6092D+06                  1013.4742     2.9808    29.4502
         INT.     0.3582D+08                  5339.6374    34.1540    50.2705
         TRA.     0.1750D+28                  1689.1236     4.9680    41.1572
         TOT.                       64.960    7028.7611    39.1220    91.4277

 350.00  VIB.     0.7108D+02                  4643.9281    32.3777    21.7414
         ROT.     0.6363D+06                  1043.2822     2.9808    29.5366
         INT.     0.4523D+08                  5687.2104    35.3585    51.2780
         TRA.     0.1828D+28                  1738.8037     4.9680    41.3012
         TOT.                       65.358    7426.0141    40.3265    92.5792

 360.00  VIB.     0.8612D+02                  4973.6740    33.5692    22.6702
         ROT.     0.6637D+06                  1073.0903     2.9808    29.6205
         INT.     0.5716D+08                  6046.7643    36.5500    52.2908
         TRA.     0.1907D+28                  1788.4838     4.9680    41.4412
         TOT.                       65.767    7835.2482    41.5180    93.7319

 370.00  VIB.     0.1046D+03                  5315.2625    34.7460    23.6061
         ROT.     0.6916D+06                  1102.8984     2.9808    29.7022
         INT.     0.7233D+08                  6418.1609    37.7268    53.3083
         TRA.     0.1987D+28                  1838.1639     4.9680    41.5773
         TOT.                       66.188    8256.3248    42.6948    94.8856

 380.00  VIB.     0.1273D+03                  5668.5409    35.9069    24.5481
         ROT.     0.7198D+06                  1132.7064     2.9808    29.7817
         INT.     0.9162D+08                  6801.2473    38.8877    54.3298
         TRA.     0.2068D+28                  1887.8440     4.9680    41.7098
         TOT.                       66.621    8689.0913    43.8557    96.0396

 390.00  VIB.     0.1553D+03                  6033.3444    37.0509    25.4957
         ROT.     0.7484D+06                  1162.5145     2.9808    29.8591
         INT.     0.1162D+09                  7195.8589    40.0317    55.3548
         TRA.     0.2150D+28                  1937.5242     4.9680    41.8388
         TOT.                       67.065    9133.3831    44.9997    97.1936

 400.00  VIB.     0.1897D+03                  6409.4988    38.1770    26.4480
         ROT.     0.7774D+06                  1192.3226     2.9808    29.9346
         INT.     0.1475D+09                  7601.8214    41.1578    56.3825
         TRA.     0.2233D+28                  1987.2043     4.9680    41.9646
         TOT.                       67.521    9589.0256    46.1258    98.3472

   *: NOTE: HEATS OF FORMATION ARE RELATIVE TO THE
            ELEMENTS IN THEIR STANDARD STATE AT 298K
              (=  Standard Enthalpy of Formation).

            Hvib:  Zero-point energy is not included.
                   frequencies of less than zero cm-1 are not included.
            Hrot = (3/2)RT
            Htra = (3/2)RT + pV = (5/2)RT

            Heat capacity is Cp, not Cv

          For more information, see: HTTP://OpenMOPAC.net/Manual/thermochemistry.html


           FORCE CONSTANT IN CARTESIAN COORDINATES (Millidynes/A)

    ATOM   CHEMICAL       X               Y               Z
   NUMBER   SYMBOL  FORCE CONSTANT  FORCE CONSTANT  FORCE CONSTANT

      1       C        8.935004        8.085132        8.706529
      2       C        8.319380        8.362622        8.789357
      3       C        7.168454        9.770133       11.273133
      4       C        6.854991       12.590933        7.210292
      5       C        6.670429       10.072533       10.061015
      6       C        9.539537        8.494081        9.393461
      7       C        7.433487       10.384440        9.289706
      8       C        6.816312       10.639422        9.767125
      9       C        7.612539        9.673478       10.051345
     10       C       10.004192        8.205951        8.840015
     11       H        1.143013        1.615338        3.117759
     12       H        1.181315        2.534732        2.542685
     13       H        1.148492        4.216389        0.974815
     14       H        2.892293        2.138870        1.113261
     15       H        0.703611        4.712540        1.036067
     16       H        1.514901        0.677542        3.901343
     17       H        0.623545        3.300808        2.164099
     18       H        2.095387        3.417607        0.592145
     19       H        1.845141        3.718665        0.873623
     20       H        1.879238        0.735280        3.835189

 **********************
 *                    *
 * JOB ENDED NORMALLY *
 *                    *
 **********************



 TOTAL JOB TIME:             2.12 SECONDS

 == MOPAC DONE ==
