 *******************************************************************************
 **                                                                           **
 **                              MOPAC v23.1.2                                **
 **                                                                           **
 *******************************************************************************
 **          Digital Object Identifier (DOI): 10.5281/zenodo.6511958          **
 **    Visit the DOI location for information on how to cite this program.    **
 *******************************************************************************

                              PM3 CALCULATION RESULTS

 *******************************************************************************
 *  CALCULATION DONE: (MAX THREADS = 1)              Tue Jun  3 16:32:25 2025  *
 *  PM3        - The PM3 Hamiltonian to be used
 *  PRECISE    - TIGHTER CRITERIA TO BE USED
 *  NOSYM      - POINT-GROUP SYMMETRY SET TO C1
 *  THREADS=1  - MULTI-THREADING NOT USED
 *  T=         - A TIME OF 172800.0 SECONDS REQUESTED
 *  DUMP=N     - RESTART FILE WRITTEN EVERY 7200.0 SECONDS REQUESTED
 *******************************************************************************
pm3  precise nosym THREADS=1
 InChI=1S/C10H10/c1-3-9-7-5-6-8-10(9)4-2/h3,5-7H,1-2,8H2

   ATOM   CHEMICAL          X               Y               Z
  NUMBER   SYMBOL      (ANGSTROMS)     (ANGSTROMS)     (ANGSTROMS)

     1       C         -1.77450000  *   0.56970000  *   0.37060000  *
     2       C          0.34120000  *  -0.71880000  *  -0.38570000  *
     3       C         -0.27320000  *   0.48640000  *   0.23940000  *
     4       C         -2.47790000  *  -0.23570000  *  -0.68920000  *
     5       C         -0.43030000  *  -1.50430000  *  -1.15280000  *
     6       C         -1.86300000  *  -1.21860000  *  -1.35470000  *
     7       C          1.77770000  *  -1.06220000  *  -0.23920000  *
     8       C          2.47360000  *  -0.81660000  *   0.86990000  *
     9       C          1.17560000  *   2.55210000  *   0.91620000  *
    10       C          0.45420000  *   1.52110000  *   0.57930000  *
    11       H         -2.06720000  *   0.17200000  *   1.36530000  *
    12       H         -2.11860000  *   1.62540000  *   0.30350000  *
    13       H         -3.53520000  *  -0.06900000  *  -0.85280000  *
    14       H         -0.00800000  *  -2.36930000  *  -1.65080000  *
    15       H         -2.42440000  *  -1.81800000  *  -2.05990000  *
    16       H          2.26850000  *  -1.60540000  *  -1.03850000  *
    17       H          3.51120000  *  -1.11760000  *   0.93220000  *
    18       H          2.02050000  *  -0.34980000  *   1.73420000  *
    19       H          2.25460000  *   2.48080000  *   0.91190000  *
    20       H          0.69510000  *   3.47790000  *   1.20120000  *



          CARTESIAN COORDINATES 

    NO.       ATOM           X           Y           Z

     1         C         -1.7745      0.5697      0.3706
     2         C          0.3412     -0.7188     -0.3857
     3         C         -0.2732      0.4864      0.2394
     4         C         -2.4779     -0.2357     -0.6892
     5         C         -0.4303     -1.5043     -1.1528
     6         C         -1.8630     -1.2186     -1.3547
     7         C          1.7777     -1.0622     -0.2392
     8         C          2.4736     -0.8166      0.8699
     9         C          1.1756      2.5521      0.9162
    10         C          0.4542      1.5211      0.5793
    11         H         -2.0672      0.1720      1.3653
    12         H         -2.1186      1.6254      0.3035
    13         H         -3.5352     -0.0690     -0.8528
    14         H         -0.0080     -2.3693     -1.6508
    15         H         -2.4244     -1.8180     -2.0599
    16         H          2.2685     -1.6054     -1.0385
    17         H          3.5112     -1.1176      0.9322
    18         H          2.0205     -0.3498      1.7342
    19         H          2.2546      2.4808      0.9119
    20         H          0.6951      3.4779      1.2012

  H: (PM3): J. J. P. STEWART, J. COMP. CHEM. 10, 209 (1989).
  C: (PM3): J. J. P. STEWART, J. COMP. CHEM. 10, 209 (1989).

           Empirical Formula: C10 H10  =    20 atoms



      MOLECULAR POINT GROUP   :   C1  


      RHF CALCULATION, NO. OF DOUBLY OCCUPIED LEVELS = 25


          Geometry optimization using EF

          DIAGONAL MATRIX USED AS START HESSIAN

 CYCLE:     1 TIME:   0.008 TIME LEFT:  2.00D  GRAD.:   102.420 HEAT:  135.2792
 CYCLE:     2 TIME:   0.012 TIME LEFT:  2.00D  GRAD.:   158.335 HEAT:  133.3515
 CYCLE:     3 TIME:   0.008 TIME LEFT:  2.00D  GRAD.:   118.681 HEAT:  128.8091
 CYCLE:     4 TIME:   0.008 TIME LEFT:  2.00D  GRAD.:   197.365 HEAT:  127.7558
 CYCLE:     5 TIME:   0.008 TIME LEFT:  2.00D  GRAD.:   246.216 HEAT:  127.2362
 CYCLE:     6 TIME:   0.008 TIME LEFT:  2.00D  GRAD.:   169.105 HEAT:  121.3467
 CYCLE:     7 TIME:   0.008 TIME LEFT:  2.00D  GRAD.:   181.685 HEAT:  119.0409
 CYCLE:     8 TIME:   0.004 TIME LEFT:  2.00D  GRAD.:   201.093 HEAT:  116.8785
 CYCLE:     9 TIME:   0.008 TIME LEFT:  2.00D  GRAD.:   137.868 HEAT:  112.5998
 CYCLE:    10 TIME:   0.008 TIME LEFT:  2.00D  GRAD.:   131.837 HEAT:  109.2763
 CYCLE:    11 TIME:   0.008 TIME LEFT:  2.00D  GRAD.:   158.730 HEAT:  108.5947
 CYCLE:    12 TIME:   0.012 TIME LEFT:  2.00D  GRAD.:   108.807 HEAT:  104.8715
 CYCLE:    13 TIME:   0.008 TIME LEFT:  2.00D  GRAD.:    45.341 HEAT:  103.0108
 CYCLE:    14 TIME:   0.008 TIME LEFT:  2.00D  GRAD.:    55.868 HEAT:  101.7486
 CYCLE:    15 TIME:   0.008 TIME LEFT:  2.00D  GRAD.:    56.378 HEAT:  99.85374
 CYCLE:    16 TIME:   0.008 TIME LEFT:  2.00D  GRAD.:    56.850 HEAT:  97.56840
 CYCLE:    17 TIME:   0.008 TIME LEFT:  2.00D  GRAD.:    64.101 HEAT:  94.96244
 CYCLE:    18 TIME:   0.004 TIME LEFT:  2.00D  GRAD.:    70.804 HEAT:  92.96415
 CYCLE:    19 TIME:   0.012 TIME LEFT:  2.00D  GRAD.:    57.878 HEAT:  92.29227
 CYCLE:    20 TIME:   0.008 TIME LEFT:  2.00D  GRAD.:    54.590 HEAT:  91.83225
 CYCLE:    21 TIME:   0.008 TIME LEFT:  2.00D  GRAD.:    30.862 HEAT:  91.21525
 CYCLE:    22 TIME:   0.008 TIME LEFT:  2.00D  GRAD.:    36.788 HEAT:  91.17863
 CYCLE:    23 TIME:   0.008 TIME LEFT:  2.00D  GRAD.:    28.211 HEAT:  90.94031
 CYCLE:    24 TIME:   0.004 TIME LEFT:  2.00D  GRAD.:    28.611 HEAT:  90.91432
 CYCLE:    25 TIME:   0.012 TIME LEFT:  2.00D  GRAD.:    22.857 HEAT:  90.79186
 CYCLE:    26 TIME:   0.004 TIME LEFT:  2.00D  GRAD.:    19.439 HEAT:  90.67422
 CYCLE:    27 TIME:   0.008 TIME LEFT:  2.00D  GRAD.:     9.290 HEAT:  90.55161
 CYCLE:    28 TIME:   0.008 TIME LEFT:  2.00D  GRAD.:     8.468 HEAT:  90.51186
 CYCLE:    29 TIME:   0.004 TIME LEFT:  2.00D  GRAD.:     3.776 HEAT:  90.46521
 CYCLE:    30 TIME:   0.008 TIME LEFT:  2.00D  GRAD.:     4.951 HEAT:  90.43182
 CYCLE:    31 TIME:   0.008 TIME LEFT:  2.00D  GRAD.:     6.074 HEAT:  90.42528
 CYCLE:    32 TIME:   0.008 TIME LEFT:  2.00D  GRAD.:     2.607 HEAT:  90.41154
 CYCLE:    33 TIME:   0.008 TIME LEFT:  2.00D  GRAD.:     2.176 HEAT:  90.40417
 CYCLE:    34 TIME:   0.008 TIME LEFT:  2.00D  GRAD.:     2.660 HEAT:  90.39707
 CYCLE:    35 TIME:   0.004 TIME LEFT:  2.00D  GRAD.:     1.368 HEAT:  90.39263
 CYCLE:    36 TIME:   0.008 TIME LEFT:  2.00D  GRAD.:     1.100 HEAT:  90.38998
 CYCLE:    37 TIME:   0.008 TIME LEFT:  2.00D  GRAD.:     1.891 HEAT:  90.38677
 CYCLE:    38 TIME:   0.008 TIME LEFT:  2.00D  GRAD.:     1.482 HEAT:  90.38366
 CYCLE:    39 TIME:   0.008 TIME LEFT:  2.00D  GRAD.:     1.171 HEAT:  90.38015
 CYCLE:    40 TIME:   0.008 TIME LEFT:  2.00D  GRAD.:     1.680 HEAT:  90.37400
 CYCLE:    41 TIME:   0.004 TIME LEFT:  2.00D  GRAD.:     2.005 HEAT:  90.36817
 CYCLE:    42 TIME:   0.012 TIME LEFT:  2.00D  GRAD.:     1.431 HEAT:  90.36357
 CYCLE:    43 TIME:   0.004 TIME LEFT:  2.00D  GRAD.:     1.109 HEAT:  90.36064
 CYCLE:    44 TIME:   0.008 TIME LEFT:  2.00D  GRAD.:     1.484 HEAT:  90.35735
 CYCLE:    45 TIME:   0.008 TIME LEFT:  2.00D  GRAD.:     2.014 HEAT:  90.35267
 CYCLE:    46 TIME:   0.008 TIME LEFT:  2.00D  GRAD.:     2.748 HEAT:  90.34349
 CYCLE:    47 TIME:   0.008 TIME LEFT:  2.00D  GRAD.:     2.109 HEAT:  90.33745
 CYCLE:    48 TIME:   0.008 TIME LEFT:  2.00D  GRAD.:     3.126 HEAT:  90.32099
 CYCLE:    49 TIME:   0.008 TIME LEFT:  2.00D  GRAD.:     2.618 HEAT:  90.31424
 CYCLE:    50 TIME:   0.008 TIME LEFT:  2.00D  GRAD.:     3.251 HEAT:  90.29024
 CYCLE:    51 TIME:   0.004 TIME LEFT:  2.00D  GRAD.:     2.810 HEAT:  90.28195
 CYCLE:    52 TIME:   0.008 TIME LEFT:  2.00D  GRAD.:     1.803 HEAT:  90.26580
 CYCLE:    53 TIME:   0.008 TIME LEFT:  2.00D  GRAD.:     2.785 HEAT:  90.26062
 CYCLE:    54 TIME:   0.008 TIME LEFT:  2.00D  GRAD.:     1.899 HEAT:  90.25419
 CYCLE:    55 TIME:   0.004 TIME LEFT:  2.00D  GRAD.:     1.230 HEAT:  90.25057
 CYCLE:    56 TIME:   0.008 TIME LEFT:  2.00D  GRAD.:     1.310 HEAT:  90.24620
 CYCLE:    57 TIME:   0.008 TIME LEFT:  2.00D  GRAD.:     1.229 HEAT:  90.24362
 CYCLE:    58 TIME:   0.008 TIME LEFT:  2.00D  GRAD.:     1.073 HEAT:  90.24071
 CYCLE:    59 TIME:   0.004 TIME LEFT:  2.00D  GRAD.:     0.709 HEAT:  90.23899
 CYCLE:    60 TIME:   0.012 TIME LEFT:  2.00D  GRAD.:     0.764 HEAT:  90.23802
 CYCLE:    61 TIME:   0.004 TIME LEFT:  2.00D  GRAD.:     0.771 HEAT:  90.23734
 CYCLE:    62 TIME:   0.008 TIME LEFT:  2.00D  GRAD.:     0.598 HEAT:  90.23669
 CYCLE:    63 TIME:   0.008 TIME LEFT:  2.00D  GRAD.:     0.599 HEAT:  90.23574
 CYCLE:    64 TIME:   0.008 TIME LEFT:  2.00D  GRAD.:     0.621 HEAT:  90.23511
 CYCLE:    65 TIME:   0.004 TIME LEFT:  2.00D  GRAD.:     0.629 HEAT:  90.23444
 CYCLE:    66 TIME:   0.012 TIME LEFT:  2.00D  GRAD.:     0.790 HEAT:  90.23337
 CYCLE:    67 TIME:   0.004 TIME LEFT:  2.00D  GRAD.:     0.817 HEAT:  90.23179
 CYCLE:    68 TIME:   0.008 TIME LEFT:  2.00D  GRAD.:     0.634 HEAT:  90.23056
 CYCLE:    69 TIME:   0.008 TIME LEFT:  2.00D  GRAD.:     0.345 HEAT:  90.23005
 CYCLE:    70 TIME:   0.008 TIME LEFT:  2.00D  GRAD.:     0.213 HEAT:  90.22976
 CYCLE:    71 TIME:   0.008 TIME LEFT:  2.00D  GRAD.:     0.208 HEAT:  90.22967
 CYCLE:    72 TIME:   0.008 TIME LEFT:  2.00D  GRAD.:     0.164 HEAT:  90.22957
 CYCLE:    73 TIME:   0.008 TIME LEFT:  2.00D  GRAD.:     0.165 HEAT:  90.22951
 CYCLE:    74 TIME:   0.004 TIME LEFT:  2.00D  GRAD.:     0.170 HEAT:  90.22943
 CYCLE:    75 TIME:   0.008 TIME LEFT:  2.00D  GRAD.:     0.266 HEAT:  90.22924
 CYCLE:    76 TIME:   0.008 TIME LEFT:  2.00D  GRAD.:     0.428 HEAT:  90.22924
 CYCLE:    77 TIME:   0.008 TIME LEFT:  2.00D  GRAD.:     0.310 HEAT:  90.22900
 CYCLE:    78 TIME:   0.008 TIME LEFT:  2.00D  GRAD.:     0.275 HEAT:  90.22881
 CYCLE:    79 TIME:   0.008 TIME LEFT:  2.00D  GRAD.:     0.263 HEAT:  90.22859
 CYCLE:    80 TIME:   0.008 TIME LEFT:  2.00D  GRAD.:     1.348 HEAT:  90.23207
 CYCLE:    81 TIME:   0.008 TIME LEFT:  2.00D  GRAD.:     0.293 HEAT:  90.22783
 CYCLE:    82 TIME:   0.008 TIME LEFT:  2.00D  GRAD.:     0.272 HEAT:  90.22760
 CYCLE:    83 TIME:   0.008 TIME LEFT:  2.00D  GRAD.:     0.741 HEAT:  90.22794
 CYCLE:    84 TIME:   0.008 TIME LEFT:  2.00D  GRAD.:     0.310 HEAT:  90.22690
 CYCLE:    85 TIME:   0.008 TIME LEFT:  2.00D  GRAD.:     0.256 HEAT:  90.22672
 CYCLE:    86 TIME:   0.004 TIME LEFT:  2.00D  GRAD.:     0.896 HEAT:  90.22829
 CYCLE:    87 TIME:   0.012 TIME LEFT:  2.00D  GRAD.:     0.224 HEAT:  90.22622
 CYCLE:    88 TIME:   0.008 TIME LEFT:  2.00D  GRAD.:     0.177 HEAT:  90.22613
 CYCLE:    89 TIME:   0.008 TIME LEFT:  2.00D  GRAD.:     0.230 HEAT:  90.22617
 CYCLE:    90 TIME:   0.004 TIME LEFT:  2.00D  GRAD.:     0.156 HEAT:  90.22597
 CYCLE:    91 TIME:   0.008 TIME LEFT:  2.00D  GRAD.:     0.168 HEAT:  90.22591
 CYCLE:    92 TIME:   0.008 TIME LEFT:  2.00D  GRAD.:     0.178 HEAT:  90.22583
 CYCLE:    93 TIME:   0.008 TIME LEFT:  2.00D  GRAD.:     0.524 HEAT:  90.22531
 CYCLE:    94 TIME:   0.008 TIME LEFT:  2.00D  GRAD.:     0.325 HEAT:  90.22502
 CYCLE:    95 TIME:   0.008 TIME LEFT:  2.00D  GRAD.:     0.254 HEAT:  90.22464
 CYCLE:    96 TIME:   0.004 TIME LEFT:  2.00D  GRAD.:     0.300 HEAT:  90.22429
 CYCLE:    97 TIME:   0.008 TIME LEFT:  2.00D  GRAD.:     0.488 HEAT:  90.22415
 CYCLE:    98 TIME:   0.008 TIME LEFT:  2.00D  GRAD.:     0.302 HEAT:  90.22391
 CYCLE:    99 TIME:   0.008 TIME LEFT:  2.00D  GRAD.:     0.337 HEAT:  90.22404
 CYCLE:   100 TIME:   0.008 TIME LEFT:  2.00D  GRAD.:     0.237 HEAT:  90.22372
 CYCLE:   101 TIME:   0.008 TIME LEFT:  2.00D  GRAD.:     1.670 HEAT:  90.22577
 CYCLE:   102 TIME:   0.004 TIME LEFT:  2.00D  GRAD.:     0.206 HEAT:  90.22349
 CYCLE:   103 TIME:   0.008 TIME LEFT:  2.00D  GRAD.:     0.179 HEAT:  90.22341
 CYCLE:   104 TIME:   0.008 TIME LEFT:  2.00D  GRAD.:     0.434 HEAT:  90.22315
 CYCLE:   105 TIME:   0.008 TIME LEFT:  2.00D  GRAD.:     0.365 HEAT:  90.22307
 CYCLE:   106 TIME:   0.004 TIME LEFT:  2.00D  GRAD.:     0.596 HEAT:  90.22287
 CYCLE:   107 TIME:   0.008 TIME LEFT:  2.00D  GRAD.:     0.264 HEAT:  90.22271
 CYCLE:   108 TIME:   0.008 TIME LEFT:  2.00D  GRAD.:     0.307 HEAT:  90.22261
 CYCLE:   109 TIME:   0.004 TIME LEFT:  2.00D  GRAD.:     0.201 HEAT:  90.22253
 CYCLE:   110 TIME:   0.008 TIME LEFT:  2.00D  GRAD.:     0.420 HEAT:  90.22247
 CYCLE:   111 TIME:   0.008 TIME LEFT:  2.00D  GRAD.:     0.339 HEAT:  90.22235
 CYCLE:   112 TIME:   0.008 TIME LEFT:  2.00D  GRAD.:     0.921 HEAT:  90.22324
 CYCLE:   113 TIME:   0.004 TIME LEFT:  2.00D  GRAD.:     0.144 HEAT:  90.22214
 CYCLE:   114 TIME:   0.008 TIME LEFT:  2.00D  GRAD.:     0.149 HEAT:  90.22211
 CYCLE:   115 TIME:   0.035 TIME LEFT:  2.00D  GRAD.:     4.718 HEAT:  90.22845
 CYCLE:   116 TIME:   0.004 TIME LEFT:  2.00D  GRAD.:     0.784 HEAT:  90.22461
 CYCLE:   117 TIME:   0.008 TIME LEFT:  2.00D  GRAD.:     2.149 HEAT:  90.22345
 CYCLE:   118 TIME:   0.008 TIME LEFT:  2.00D  GRAD.:     0.184 HEAT:  90.22209
 CYCLE:   119 TIME:   0.008 TIME LEFT:  2.00D  GRAD.:     0.103 HEAT:  90.22205
 CYCLE:   120 TIME:   0.004 TIME LEFT:  2.00D  GRAD.:     0.058 HEAT:  90.22204
 CYCLE:   121 TIME:   0.008 TIME LEFT:  2.00D  GRAD.:     0.089 HEAT:  90.22206
 CYCLE:   122 TIME:   0.012 TIME LEFT:  2.00D  GRAD.:     0.269 HEAT:  90.22217
 CYCLE:   123 TIME:   0.008 TIME LEFT:  2.00D  GRAD.:     0.068 HEAT:  90.22208
 CYCLE:   124 TIME:   0.004 TIME LEFT:  2.00D  GRAD.:     0.095 HEAT:  90.22204
 CYCLE:   125 TIME:   0.008 TIME LEFT:  2.00D  GRAD.:     1.108 HEAT:  90.22417
 CYCLE:   126 TIME:   0.008 TIME LEFT:  2.00D  GRAD.:     0.064 HEAT:  90.22204
 CYCLE:   127 TIME:   0.008 TIME LEFT:  2.00D  GRAD.:     0.050 HEAT:  90.22203
 CYCLE:   128 TIME:   0.008 TIME LEFT:  2.00D  GRAD.:     0.210 HEAT:  90.22221
 CYCLE:   129 TIME:   0.008 TIME LEFT:  2.00D  GRAD.:     0.045 HEAT:  90.22204

     GRADIENT =  0.04509 IS LESS THAN CUTOFF =  0.05000



 -------------------------------------------------------------------------------
 pm3  precise nosym THREADS=1
 InChI=1S/C10H10/c1-3-9-7-5-6-8-10(9)4-2/h3,5-7H,1-2,8H2



     GEOMETRY OPTIMISED USING EIGENVECTOR FOLLOWING (EF).     
     SCF FIELD WAS ACHIEVED                                   


                              PM3 CALCULATION
                                                       MOPAC v23.1.2 MacOS
                                                       Tue Jun  3 16:32:26 2025




          FINAL HEAT OF FORMATION =         90.22204 KCAL/MOL =     377.48902 KJ/MOL


          COSMO AREA              =        181.38 SQUARE ANGSTROMS
          COSMO VOLUME            =        182.14 CUBIC ANGSTROMS

          GRADIENT NORM           =          0.04509          =       0.01008 PER ATOM
          IONIZATION POTENTIAL    =          8.356281 EV
          HOMO LUMO ENERGIES (EV) =         -8.356 -0.338
          NO. OF FILLED LEVELS    =         25
          MOLECULAR WEIGHT        =        130.1890         POINT GROUP:  C1  

          MOLECULAR DIMENSIONS (Angstroms)

            Atom       Atom       Distance
            H    17    H    13     7.29645
            H    14    H    19     6.18056
            H    11    H    20     3.07106


          SCF CALCULATIONS        =        137

          WALL-CLOCK TIME         =      0.992 SECONDS
          COMPUTATION TIME        =      0.619 SECONDS




   ATOM   CHEMICAL          X               Y               Z
  NUMBER   SYMBOL      (ANGSTROMS)     (ANGSTROMS)     (ANGSTROMS)

     1       C         -1.74738826  *   0.64572987  *   0.24253500  *
     2       C          0.32839743  *  -0.66580272  *  -0.44963135  *
     3       C         -0.25373578  *   0.53236494  *   0.15963676  *
     4       C         -2.48740552  *  -0.32473563  *  -0.60144241  *
     5       C         -0.45341937  *  -1.53251478  *  -1.13150118  *
     6       C         -1.88069373  *  -1.33325499  *  -1.24147334  *
     7       C          1.76515571  *  -0.93180881  *  -0.34236330  *
     8       C          2.44478315  *  -0.86813388  *   0.79833917  *
     9       C          1.19458125  *   2.50402700  *   1.06439780  *
    10       C          0.48625350  *   1.51820451  *   0.61591235  *
    11       H         -2.06264305  *   0.50387932  *   1.29781797  *
    12       H         -2.06102401  *   1.67369082  *  -0.03172927  *
    13       H         -3.57126189  *  -0.18019974  *  -0.66857174  *
    14       H         -0.02348394  *  -2.41772738  *  -1.61344744  *
    15       H         -2.44578981  *  -2.04064207  *  -1.85715986  *
    16       H          2.25736492  *  -1.22871475  *  -1.27730184  *
    17       H          3.50479156  *  -1.09486452  *   0.85818758  *
    18       H          1.99314677  *  -0.58024208  *   1.74380542  *
    19       H          1.52684345  *   2.55861671  *   2.09803877  *
    20       H          1.50227735  *   3.33339857  *   0.43263965  *

                             CARTESIAN COORDINATES

   1    C       -1.747388256     0.645729866     0.242534998
   2    C        0.328397434    -0.665802724    -0.449631347
   3    C       -0.253735776     0.532364944     0.159636759
   4    C       -2.487405516    -0.324735626    -0.601442415
   5    C       -0.453419373    -1.532514781    -1.131501178
   6    C       -1.880693729    -1.333254987    -1.241473342
   7    C        1.765155708    -0.931808815    -0.342363303
   8    C        2.444783147    -0.868133881     0.798339166
   9    C        1.194581253     2.504026997     1.064397799
  10    C        0.486253497     1.518204508     0.615912347
  11    H       -2.062643051     0.503879316     1.297817971
  12    H       -2.061024015     1.673690824    -0.031729274
  13    H       -3.571261885    -0.180199742    -0.668571745
  14    H       -0.023483942    -2.417727382    -1.613447444
  15    H       -2.445789813    -2.040642075    -1.857159859
  16    H        2.257364922    -1.228714751    -1.277301842
  17    H        3.504791565    -1.094864516     0.858187577
  18    H        1.993146775    -0.580242077     1.743805419
  19    H        1.526843449     2.558616714     2.098038773
  20    H        1.502277351     3.333398571     0.432639652


           Empirical Formula: C10 H10  =    20 atoms



      MOLECULAR POINT GROUP   :   C1  


                  EIGENVALUES  
 -40.12031 -33.94771 -32.84121 -29.09825 -27.98155 -23.34844 -21.89885 -20.11731
 -18.26963 -17.26511 -16.67309 -16.19588 -15.55158 -15.31340 -15.00350 -14.52518
 -14.40122 -12.99824 -12.67704 -12.28267 -11.69535 -10.72840 -10.36497 -10.14681
  -8.35628  -0.33827   1.02342   1.10065   1.36797   2.36788   2.87631   3.19004
   3.37221   3.56051   3.70490   3.79251   3.92163   4.10752   4.13454   4.37268
   4.61114   4.68617   4.94851   5.02641   5.09616   5.59200   5.71779   5.99961
   6.25568   6.60562


              NET ATOMIC CHARGES AND DIPOLE CONTRIBUTIONS

  ATOM NO.   TYPE          CHARGE      No. of ELECS.   s-Pop       p-Pop       
    1          C          -0.010001        4.0100     1.13155     2.87845
    2          C          -0.024662        4.0247     1.16708     2.85758
    3          C          -0.003014        4.0030     1.14657     2.85645
    4          C          -0.132836        4.1328     1.19575     2.93709
    5          C          -0.099088        4.0991     1.17940     2.91969
    6          C          -0.111692        4.1117     1.17701     2.93468
    7          C          -0.096506        4.0965     1.17788     2.91863
    8          C          -0.147074        4.1471     1.18219     2.96489
    9          C          -0.077579        4.0776     1.14628     2.93130
   10          C          -0.186899        4.1869     1.21172     2.97518
   11          H           0.065180        0.9348     0.93482
   12          H           0.064886        0.9351     0.93511
   13          H           0.099704        0.9003     0.90030
   14          H           0.105307        0.8947     0.89469
   15          H           0.102392        0.8976     0.89761
   16          H           0.100154        0.8998     0.89985
   17          H           0.078949        0.9211     0.92105
   18          H           0.086749        0.9133     0.91325
   19          H           0.092188        0.9078     0.90781
   20          H           0.093845        0.9062     0.90615
 DIPOLE           X         Y         Z       TOTAL
 POINT-CHG.    -0.181     0.195     0.181     0.322
 HYBRID         0.035     0.040     0.049     0.072
 SUM           -0.146     0.235     0.230     0.360


          ATOMIC ORBITAL ELECTRON POPULATIONS

     Atom    s        px        py        pz   
    1  C   1.13155   0.91032   0.98073   0.98740
    2  C   1.16708   0.93458   0.94473   0.97827
    3  C   1.14657   0.93215   0.92338   1.00092
    4  C   1.19575   0.98519   0.96847   0.98342
    5  C   1.17940   0.94236   0.98332   0.99401
    6  C   1.17701   0.94902   0.98290   1.00276
    7  C   1.17788   0.93434   1.00377   0.98051
    8  C   1.18219   0.99188   0.99757   0.97543
    9  C   1.14628   0.98440   0.95411   0.99279
   10  C   1.21172   0.98582   0.97822   1.01114
   11  H   0.93482
   12  H   0.93511
   13  H   0.90030
   14  H   0.89469
   15  H   0.89761
   16  H   0.89985
   17  H   0.92105
   18  H   0.91325
   19  H   0.90781
   20  H   0.90615
 *******************************************************************************
 **                                                                           **
 **                              MOPAC v23.1.2                                **
 **                                                                           **
 *******************************************************************************
 **          Digital Object Identifier (DOI): 10.5281/zenodo.6511958          **
 **    Visit the DOI location for information on how to cite this program.    **
 *******************************************************************************

                              PM3 CALCULATION RESULTS

 *******************************************************************************
 *  CALCULATION DONE: (MAX THREADS = 1)              Tue Jun  3 16:32:26 2025  *
 *  PM3        - The PM3 Hamiltonian to be used
 *  OLDGEO     - PREVIOUS GEOMETRY TO BE USED
 *  PRECISE    - TIGHTER CRITERIA TO BE USED
 *  NOSYM      - POINT-GROUP SYMMETRY SET TO C1
 *  THREADS=1  - MULTI-THREADING NOT USED
 *  T=         - A TIME OF 172800.0 SECONDS REQUESTED
 *  DUMP=N     - RESTART FILE WRITTEN EVERY 7200.0 SECONDS REQUESTED
 *  THERMO     - THERMODYNAMIC QUANTITIES TO BE CALCULATED
 *******************************************************************************
oldgeo thermo nosym precise THREADS=1  pm3
 InChI=1S/C10H10/c1-3-9-7-5-6-8-10(9)4-2/h3,5-7H,1-2,8H2

   ATOM   CHEMICAL          X               Y               Z
  NUMBER   SYMBOL      (ANGSTROMS)     (ANGSTROMS)     (ANGSTROMS)

     1       C         -1.74738826  *   0.64572987  *   0.24253500  *
     2       C          0.32839743  *  -0.66580272  *  -0.44963135  *
     3       C         -0.25373578  *   0.53236494  *   0.15963676  *
     4       C         -2.48740552  *  -0.32473563  *  -0.60144241  *
     5       C         -0.45341937  *  -1.53251478  *  -1.13150118  *
     6       C         -1.88069373  *  -1.33325499  *  -1.24147334  *
     7       C          1.76515571  *  -0.93180881  *  -0.34236330  *
     8       C          2.44478315  *  -0.86813388  *   0.79833917  *
     9       C          1.19458125  *   2.50402700  *   1.06439780  *
    10       C          0.48625350  *   1.51820451  *   0.61591235  *
    11       H         -2.06264305  *   0.50387932  *   1.29781797  *
    12       H         -2.06102401  *   1.67369082  *  -0.03172927  *
    13       H         -3.57126189  *  -0.18019974  *  -0.66857174  *
    14       H         -0.02348394  *  -2.41772738  *  -1.61344744  *
    15       H         -2.44578981  *  -2.04064207  *  -1.85715986  *
    16       H          2.25736492  *  -1.22871475  *  -1.27730184  *
    17       H          3.50479156  *  -1.09486452  *   0.85818758  *
    18       H          1.99314677  *  -0.58024208  *   1.74380542  *
    19       H          1.52684345  *   2.55861671  *   2.09803877  *
    20       H          1.50227735  *   3.33339857  *   0.43263965  *



          CARTESIAN COORDINATES 

    NO.       ATOM           X           Y           Z

     1         C         -1.7474      0.6457      0.2425
     2         C          0.3284     -0.6658     -0.4496
     3         C         -0.2537      0.5324      0.1596
     4         C         -2.4874     -0.3247     -0.6014
     5         C         -0.4534     -1.5325     -1.1315
     6         C         -1.8807     -1.3333     -1.2415
     7         C          1.7652     -0.9318     -0.3424
     8         C          2.4448     -0.8681      0.7983
     9         C          1.1946      2.5040      1.0644
    10         C          0.4863      1.5182      0.6159
    11         H         -2.0626      0.5039      1.2978
    12         H         -2.0610      1.6737     -0.0317
    13         H         -3.5713     -0.1802     -0.6686
    14         H         -0.0235     -2.4177     -1.6134
    15         H         -2.4458     -2.0406     -1.8572
    16         H          2.2574     -1.2287     -1.2773
    17         H          3.5048     -1.0949      0.8582
    18         H          1.9931     -0.5802      1.7438
    19         H          1.5268      2.5586      2.0980
    20         H          1.5023      3.3334      0.4326

  H: (PM3): J. J. P. STEWART, J. COMP. CHEM. 10, 209 (1989).
  C: (PM3): J. J. P. STEWART, J. COMP. CHEM. 10, 209 (1989).

           Empirical Formula: C10 H10  =    20 atoms



      MOLECULAR POINT GROUP   :   C1  


      RHF CALCULATION, NO. OF DOUBLY OCCUPIED LEVELS = 25



          HEAT OF FORMATION =      90.222040 KCALS/MOLE


          CARTESIAN COORDINATE DERIVATIVES

   NUMBER  ATOM         X            Y            Z

     1       C     -0.002232    -0.004606    -0.002440
     2       C     -0.001049    -0.004306    -0.003362
     3       C      0.003148    -0.002114    -0.001378
     4       C     -0.002074    -0.004020    -0.002467
     5       C     -0.001083     0.000954    -0.000414
     6       C     -0.000720    -0.002475    -0.000929
     7       C     -0.007172    -0.013783    -0.002134
     8       C      0.004150     0.015313     0.006327
     9       C      0.000035    -0.001393     0.005168
    10       C      0.004719     0.001942     0.004148
    11       H      0.002245     0.003280     0.000017
    12       H     -0.003595    -0.000428    -0.001981
    13       H      0.000300    -0.004298     0.001933
    14       H     -0.003523    -0.002345    -0.002349
    15       H     -0.003465    -0.002695    -0.001065
    16       H      0.010098     0.001217    -0.007784
    17       H      0.004121     0.001117     0.002351
    18       H     -0.002858     0.009443     0.009686
    19       H      0.000792     0.006355     0.002324
    20       H     -0.001836     0.002841    -0.005653



          GRADIENT NORM =   0.03596

          MOLECULAR WEIGHT =  130.19



          ROTATIONAL CONSTANTS IN CM(-1)

          A =    0.06673529   B =    0.04089778   C =    0.02671579



           PRINCIPAL MOMENTS OF INERTIA IN UNITS OF 10**(-40)*GRAM-CM**2

          A =      419.4595   B =      684.4565   C =     1047.7979


          ORIENTATION OF MOLECULE IN FORCE CALCULATION

    NO.       ATOM         X         Y         Z

     1          C      -1.8178   -0.3727   -0.0492
     2          C       0.7333   -0.3727   -0.0492
     3          C      -0.5217    0.3827   -0.0492
     4          C      -1.6921   -1.8134   -0.3816
     5          C       0.7277   -1.7040   -0.2837
     6          C      -0.5063   -2.4267   -0.4936
     7          C       2.0100    0.3056    0.1883
     8          C       2.2207    1.1530    1.1906
     9          C      -0.6024    2.9894   -0.0989
    10          C      -0.5502    1.6967   -0.0703
    11          H      -2.2877   -0.2843    0.9531
    12          H      -2.5271    0.0999   -0.7590
    13          H      -2.6301   -2.3613   -0.5233
    14          H       1.6634   -2.2736   -0.3122
    15          H      -0.4353   -3.4919   -0.7368
    16          H       2.8168    0.0417   -0.5074
    17          H       3.1836    1.6243    1.3622
    18          H       1.4487    1.4376    1.9004
    19          H      -0.6405    3.5902    0.8063
    20          H      -0.6070    3.5505   -1.0299


    FIRST DERIVATIVES WILL BE USED IN THE CALCULATION OF SECOND DERIVATIVES

          ESTIMATED TIME TO COMPLETE CALCULATION =        1.88 SECONDS

    FOR POINT-GROUP C1   THERE ARE   1 UNIQUE SYMMETRY FUNCTIONS.

 STEP:   1 TIME =     0.02 SECS, INTEGRAL =      0.02 TIME LEFT: 172799.97
 STEP:   2 TIME =     0.02 SECS, INTEGRAL =      0.04 TIME LEFT: 172799.95
 STEP:   3 TIME =     0.02 SECS, INTEGRAL =      0.06 TIME LEFT: 172799.93
 STEP:   4 TIME =     0.02 SECS, INTEGRAL =      0.08 TIME LEFT: 172799.91
 STEP:   5 TIME =     0.02 SECS, INTEGRAL =      0.10 TIME LEFT: 172799.89
 STEP:   6 TIME =     0.02 SECS, INTEGRAL =      0.12 TIME LEFT: 172799.88
 STEP:   7 TIME =     0.02 SECS, INTEGRAL =      0.14 TIME LEFT: 172799.86
 STEP:   8 TIME =     0.02 SECS, INTEGRAL =      0.16 TIME LEFT: 172799.84
 STEP:   9 TIME =     0.02 SECS, INTEGRAL =      0.18 TIME LEFT: 172799.81
 STEP:  10 TIME =     0.02 SECS, INTEGRAL =      0.20 TIME LEFT: 172799.79
 STEP:  11 TIME =     0.02 SECS, INTEGRAL =      0.21 TIME LEFT: 172799.78
 STEP:  12 TIME =     0.02 SECS, INTEGRAL =      0.23 TIME LEFT: 172799.76
 STEP:  13 TIME =     0.02 SECS, INTEGRAL =      0.26 TIME LEFT: 172799.73
 STEP:  14 TIME =     0.02 SECS, INTEGRAL =      0.28 TIME LEFT: 172799.71
 STEP:  15 TIME =     0.02 SECS, INTEGRAL =      0.30 TIME LEFT: 172799.70
 STEP:  16 TIME =     0.02 SECS, INTEGRAL =      0.32 TIME LEFT: 172799.68
 STEP:  17 TIME =     0.02 SECS, INTEGRAL =      0.34 TIME LEFT: 172799.66
 STEP:  18 TIME =     0.02 SECS, INTEGRAL =      0.36 TIME LEFT: 172799.63
 STEP:  19 TIME =     0.02 SECS, INTEGRAL =      0.38 TIME LEFT: 172799.61
 STEP:  20 TIME =     0.02 SECS, INTEGRAL =      0.40 TIME LEFT: 172799.59
 STEP:  21 TIME =     0.02 SECS, INTEGRAL =      0.42 TIME LEFT: 172799.57
 STEP:  22 TIME =     0.02 SECS, INTEGRAL =      0.44 TIME LEFT: 172799.55
 STEP:  23 TIME =     0.02 SECS, INTEGRAL =      0.46 TIME LEFT: 172799.54
 STEP:  24 TIME =     0.02 SECS, INTEGRAL =      0.48 TIME LEFT: 172799.52
 STEP:  25 TIME =     0.02 SECS, INTEGRAL =      0.50 TIME LEFT: 172799.50
 STEP:  26 TIME =     0.02 SECS, INTEGRAL =      0.52 TIME LEFT: 172799.48
 STEP:  27 TIME =     0.02 SECS, INTEGRAL =      0.54 TIME LEFT: 172799.46
 STEP:  28 TIME =     0.02 SECS, INTEGRAL =      0.55 TIME LEFT: 172799.44
 STEP:  29 TIME =     0.02 SECS, INTEGRAL =      0.57 TIME LEFT: 172799.42
 STEP:  30 TIME =     0.02 SECS, INTEGRAL =      0.59 TIME LEFT: 172799.40
 STEP:  31 TIME =     0.02 SECS, INTEGRAL =      0.61 TIME LEFT: 172799.38
 STEP:  32 TIME =     0.02 SECS, INTEGRAL =      0.64 TIME LEFT: 172799.36
 STEP:  33 TIME =     0.02 SECS, INTEGRAL =      0.66 TIME LEFT: 172799.34
 STEP:  34 TIME =     0.02 SECS, INTEGRAL =      0.68 TIME LEFT: 172799.32
 STEP:  35 TIME =     0.02 SECS, INTEGRAL =      0.70 TIME LEFT: 172799.30
 STEP:  36 TIME =     0.02 SECS, INTEGRAL =      0.71 TIME LEFT: 172799.28
 STEP:  37 TIME =     0.02 SECS, INTEGRAL =      0.73 TIME LEFT: 172799.26
 STEP:  38 TIME =     0.02 SECS, INTEGRAL =      0.75 TIME LEFT: 172799.25
 STEP:  39 TIME =     0.02 SECS, INTEGRAL =      0.77 TIME LEFT: 172799.23
 STEP:  40 TIME =     0.02 SECS, INTEGRAL =      0.78 TIME LEFT: 172799.21
 STEP:  41 TIME =     0.02 SECS, INTEGRAL =      0.80 TIME LEFT: 172799.19
 STEP:  42 TIME =     0.02 SECS, INTEGRAL =      0.82 TIME LEFT: 172799.17
 STEP:  43 TIME =     0.02 SECS, INTEGRAL =      0.84 TIME LEFT: 172799.15
 STEP:  44 TIME =     0.02 SECS, INTEGRAL =      0.86 TIME LEFT: 172799.13
 STEP:  45 TIME =     0.02 SECS, INTEGRAL =      0.88 TIME LEFT: 172799.11
 STEP:  46 TIME =     0.02 SECS, INTEGRAL =      0.90 TIME LEFT: 172799.09
 STEP:  47 TIME =     0.02 SECS, INTEGRAL =      0.92 TIME LEFT: 172799.07
 STEP:  48 TIME =     0.02 SECS, INTEGRAL =      0.94 TIME LEFT: 172799.05
 STEP:  49 TIME =     0.02 SECS, INTEGRAL =      0.96 TIME LEFT: 172799.03
 STEP:  50 TIME =     0.02 SECS, INTEGRAL =      0.98 TIME LEFT: 172799.01
 STEP:  51 TIME =     0.02 SECS, INTEGRAL =      1.01 TIME LEFT: 172798.98
 STEP:  52 TIME =     0.02 SECS, INTEGRAL =      1.03 TIME LEFT: 172798.96
 STEP:  53 TIME =     0.02 SECS, INTEGRAL =      1.05 TIME LEFT: 172798.95
 STEP:  54 TIME =     0.02 SECS, INTEGRAL =      1.07 TIME LEFT: 172798.93
 STEP:  55 TIME =     0.02 SECS, INTEGRAL =      1.09 TIME LEFT: 172798.90
 STEP:  56 TIME =     0.02 SECS, INTEGRAL =      1.11 TIME LEFT: 172798.88
 STEP:  57 TIME =     0.02 SECS, INTEGRAL =      1.13 TIME LEFT: 172798.86
 STEP:  58 TIME =     0.02 SECS, INTEGRAL =      1.16 TIME LEFT: 172798.84
 STEP:  59 TIME =     0.02 SECS, INTEGRAL =      1.18 TIME LEFT: 172798.82
 STEP:  60 TIME =     0.02 SECS, INTEGRAL =      1.20 TIME LEFT: 172798.80

(To convert to Hartree/Bohr^2, multiply by (10^(-21) x N x a0^2)/(4.184 x 627.51) =  0.0642)


           FORCE MATRIX IN MILLIDYNES/ANGSTROM


                  C  1       C  2       C  3       C  4       C  5       C  6
 ------------------------------------------------------------------------------
     C    1  14.909556
     C    2   0.596178  18.636398
     C    3   4.469498   5.042684  18.726186
     C    4   5.034904   0.215303   0.693443  18.010401
     C    5   0.139721   9.407174   1.064606   1.216350  18.204617
     C    6   0.874142   1.162481   0.158356  10.184117   5.711687  18.353099
     C    7   0.043392   5.356212   0.611530   0.026130   0.983577   0.142998
     C    8   0.002692   0.916987   0.047392   0.007547   0.067331   0.024484
     C    9   0.065590   0.103512   0.768371   0.010733   0.030637   0.013129
     C   10   0.937711   1.160926  10.719125   0.059221   0.164627   0.070009
     H   11   4.349120   0.021157   0.412888   0.414077   0.017463   0.039303
     H   12   4.406862   0.033111   0.426319   0.421464   0.013387   0.044115
     H   13   0.422478   0.008110   0.047292   4.836119   0.123254   0.444595
     H   14   0.004686   0.455207   0.107362   0.047839   4.831711   0.432905
     H   15   0.122342   0.048011   0.003059   0.444512   0.434582   4.854969
     H   16   0.005064   0.433849   0.030538   0.002472   0.040957   0.010929
     H   17   0.001733   0.139214   0.010203   0.000927   0.016390   0.007836
     H   18   0.002066   0.101553   0.016159   0.001279   0.011232   0.004791
     H   19   0.072330   0.076797   0.042958   0.004400   0.006315   0.006433
     H   20   0.072671   0.076759   0.041535   0.005218   0.006423   0.006307


                  C  7       C  8       C  9       C 10       H 11       H 12
 ------------------------------------------------------------------------------
     C    7  18.405941
     C    8  10.936855  17.942178
     C    9   0.010301   0.016810  18.109839
     C   10   0.043948   0.037317  11.892728  24.660785
     H   11   0.004883   0.001202   0.008340   0.034385   4.934670
     H   12   0.006352   0.000623   0.007632   0.049543   0.566460   4.993326
     H   13   0.010977   0.001469   0.002296   0.009423   0.023337   0.034230
     H   14   0.077743   0.008504   0.005450   0.008147   0.001077   0.000889
     H   15   0.009226   0.001793   0.000395   0.000926   0.016993   0.015167
     H   16   4.761838   0.457238   0.001300   0.003842   0.000682   0.000445
     H   17   0.458331   5.107030   0.001934   0.001758   0.000164   0.000355
     H   18   0.492470   5.083582   0.005815   0.009098   0.000351   0.000319
     H   19   0.003231   0.002864   4.998631   0.481336   0.010831   0.006123
     H   20   0.003129   0.001625   5.002994   0.480653   0.010500   0.006199


                  H 13       H 14       H 15       H 16       H 17       H 18
 ------------------------------------------------------------------------------
     H   13   5.211132
     H   14   0.007521   5.201651
     H   15   0.065275   0.032316   5.219017
     H   16   0.000942   0.017635   0.000676   5.124785
     H   17   0.000709   0.003876   0.000772   0.082850   5.489465
     H   18   0.000450   0.002503   0.000336   0.121521   0.415722   5.465731
     H   19   0.002375   0.005819   0.000280   0.000491   0.000899   0.002025
     H   20   0.002448   0.005661   0.000285   0.000593   0.000779   0.001105


                  H 19       H 20
 ------------------------------
     H   19   5.379640
     H   20   0.408435   5.382635


          HEAT OF FORMATION =      90.222040 KCALS/MOLE

          ZERO POINT ENERGY     102.427 KCAL/MOL


           NORMAL COORDINATE ANALYSIS (Total motion = 1 Angstrom)


   Root No.       1         2         3         4         5         6         7         8

                 1 A       2 A       3 A       4 A       5 A       6 A       7 A       8 A   

                  17.8      38.2     134.6     154.0     212.5     262.0     330.0     420.4
  
           1    0.0054    0.0045   -0.0078    0.0120   -0.0154    0.0133    0.0044   -0.0138
           2   -0.0021   -0.0067   -0.0119    0.0167   -0.0040    0.0193   -0.0081    0.0005
           3    0.0280    0.0609    0.0011   -0.0128   -0.0253   -0.0037    0.0043    0.0006
           4    0.0050    0.0016   -0.0074    0.0132   -0.0085    0.0168   -0.0094    0.0184
           5   -0.0130    0.0049    0.0041   -0.0011    0.0065   -0.0226    0.0169    0.0100
           6    0.0122   -0.0016   -0.0236   -0.0259    0.0218    0.0011   -0.0322   -0.0170
           7    0.0082   -0.0007   -0.0137    0.0185   -0.0146    0.0270   -0.0101   -0.0007
           8   -0.0066    0.0015   -0.0054    0.0070   -0.0036   -0.0083    0.0184   -0.0218
           9    0.0158    0.0119   -0.0089   -0.0157    0.0395    0.0276    0.0014   -0.0007
          10   -0.0052    0.0016    0.0031    0.0004   -0.0008   -0.0033    0.0165   -0.0212
          11    0.0065    0.0046   -0.0195    0.0033   -0.0113    0.0205   -0.0033    0.0129
          12   -0.0132    0.0087    0.0348    0.0452    0.0123   -0.0096   -0.0213   -0.0370
          13   -0.0047    0.0030    0.0055    0.0035   -0.0001    0.0030    0.0036    0.0017
          14   -0.0092    0.0096    0.0065    0.0010    0.0157   -0.0215    0.0087    0.0131
          15   -0.0133   -0.0273   -0.0334   -0.0402   -0.0332    0.0007    0.0130   -0.0332
          16   -0.0086    0.0019    0.0068   -0.0044    0.0044   -0.0122    0.0169   -0.0146
          17    0.0033    0.0125   -0.0075    0.0002    0.0031    0.0003   -0.0102    0.0083
          18   -0.0328   -0.0336    0.0060    0.0121   -0.0104    0.0038    0.0239    0.0554
          19    0.0096   -0.0014   -0.0214    0.0171   -0.0015   -0.0007    0.0075    0.0146
          20   -0.0317    0.0055    0.0237   -0.0241   -0.0030    0.0180   -0.0246    0.0189
          21    0.0358    0.0118   -0.0055    0.0158    0.0136   -0.0260   -0.0170    0.0086
          22   -0.0264   -0.0029   -0.0575   -0.0160    0.0321   -0.0431   -0.0201    0.0156
          23    0.0612   -0.0285    0.0145   -0.0141    0.0051    0.0037   -0.0285    0.0138
          24   -0.0347    0.0408    0.0106    0.0149   -0.0006   -0.0043   -0.0090    0.0153
          25    0.0087   -0.0043    0.0798   -0.0407    0.0088   -0.0145    0.0057    0.0022
          26   -0.0069   -0.0001   -0.0014    0.0056   -0.0043   -0.0115    0.0217   -0.0284
          27   -0.0022   -0.0556    0.0126    0.0050   -0.0306   -0.0168   -0.0106    0.0005
          28    0.0103   -0.0039    0.0063    0.0080   -0.0122    0.0329   -0.0199   -0.0049
          29   -0.0067    0.0006   -0.0047    0.0071   -0.0034   -0.0079    0.0206   -0.0259
          30    0.0072   -0.0216   -0.0019   -0.0080    0.0418    0.0457    0.0468   -0.0031
          31    0.0316    0.0621   -0.0172   -0.0123   -0.0920   -0.0120    0.0249    0.0299
          32   -0.0278   -0.0431    0.0111    0.0651    0.0265    0.0233   -0.0465   -0.0498
          33    0.0426    0.0913   -0.0055   -0.0287   -0.0647   -0.0161    0.0177    0.0269
          34   -0.0117   -0.0407   -0.0040    0.0341    0.0398    0.0415   -0.0198   -0.0397
          35    0.0189    0.0100   -0.0342   -0.0070   -0.0226    0.0376   -0.0008    0.0477
          36    0.0592    0.1176   -0.0177   -0.0514   -0.0940   -0.0203    0.0341    0.0593
          37   -0.0086    0.0008    0.0057   -0.0056    0.0033   -0.0106    0.0203   -0.0167
          38    0.0157    0.0062   -0.0352   -0.0028   -0.0277    0.0366   -0.0001    0.0175
          39   -0.0254    0.0087    0.0784    0.1075    0.0475   -0.0238   -0.0579   -0.0834
          40   -0.0092    0.0035    0.0115    0.0011    0.0066   -0.0041    0.0116   -0.0014
          41   -0.0167    0.0112    0.0178   -0.0020    0.0289   -0.0315    0.0199    0.0119
          42   -0.0189   -0.0423   -0.0551   -0.0650   -0.0847   -0.0138    0.0340   -0.1083
          43   -0.0146    0.0016    0.0108   -0.0154    0.0116   -0.0315    0.0265   -0.0181
          44    0.0097    0.0211   -0.0107   -0.0068    0.0015   -0.0019   -0.0156   -0.0161
          45   -0.0627   -0.0713    0.0210    0.0394   -0.0016    0.0076    0.0511    0.1598
          46    0.0504   -0.0041   -0.0073    0.0471   -0.0106   -0.0090    0.0332    0.0297
          47   -0.1280    0.0359    0.0498   -0.0563   -0.0236    0.0891   -0.0788    0.0116
          48    0.1192   -0.0028    0.0017    0.0631    0.0098   -0.0608    0.0341    0.0283
          49   -0.0207   -0.0059   -0.0720   -0.0142    0.0466   -0.0790   -0.0101    0.0249
          50    0.0433   -0.0266    0.0354   -0.0351   -0.0154    0.0772   -0.0768   -0.0109
          51   -0.0178    0.0525    0.0340    0.0614   -0.0241   -0.0071    0.0641    0.0338
          52   -0.0642   -0.0012   -0.0766   -0.0491    0.0516   -0.0535   -0.0640    0.0120
          53    0.1614   -0.0607   -0.0144    0.0159    0.0330   -0.0833    0.0148    0.0335
          54   -0.1156    0.0555    0.0018   -0.0328    0.0089    0.0201   -0.0734    0.0033
          55    0.0129    0.0138    0.1249   -0.0555   -0.0038   -0.0391    0.0390   -0.0005
          56   -0.0005    0.0246   -0.0103   -0.0056    0.0564    0.0426    0.0814   -0.0345
          57   -0.0062   -0.0713    0.0205    0.0118   -0.0720   -0.0545   -0.0493    0.0042
          58    0.0039   -0.0232    0.1000   -0.0689    0.0402   -0.0327   -0.0034    0.0124
          59   -0.0137   -0.0255    0.0098    0.0155   -0.0661   -0.0692   -0.0367   -0.0262
          60   -0.0063   -0.0708    0.0194    0.0112   -0.0685   -0.0521   -0.0466    0.0021


   Root No.       9        10        11        12        13        14        15        16

                 9 A      10 A      11 A      12 A      13 A      14 A      15 A      16 A   

                 443.1     471.4     514.6     541.0     580.5     634.3     702.6     752.2
  
           1   -0.0174   -0.0267    0.0084    0.0306   -0.0061   -0.0264    0.0184    0.0072
           2    0.0013    0.0140   -0.0088   -0.0269   -0.0238   -0.0099    0.0054    0.0048
           3   -0.0017    0.0074   -0.0037   -0.0045    0.0039   -0.0107   -0.0217   -0.0136
           4    0.0229    0.0038    0.0148    0.0247   -0.0105   -0.0041   -0.0040   -0.0024
           5    0.0159    0.0073    0.0093    0.0139    0.0242    0.0144   -0.0094    0.0061
           6   -0.0354    0.0219    0.0087    0.0104   -0.0065    0.0280    0.0650   -0.0116
           7   -0.0010   -0.0116    0.0064    0.0184   -0.0079   -0.0163    0.0098    0.0017
           8   -0.0224   -0.0127   -0.0009    0.0113    0.0000    0.0005   -0.0026   -0.0014
           9   -0.0292    0.0485   -0.0148    0.0330    0.0263   -0.0303   -0.0284    0.0333
          10   -0.0209    0.0111   -0.0164   -0.0289   -0.0181   -0.0117   -0.0023    0.0053
          11    0.0014    0.0232   -0.0112   -0.0332   -0.0334   -0.0148    0.0034    0.0097
          12    0.0184    0.0000    0.0094   -0.0108   -0.0042   -0.0025    0.0008   -0.0212
          13    0.0009    0.0234   -0.0108   -0.0383   -0.0237    0.0009   -0.0002   -0.0049
          14    0.0061    0.0132    0.0101    0.0134    0.0242    0.0274    0.0014    0.0064
          15    0.0307    0.0112    0.0068    0.0019    0.0119   -0.0014    0.0044   -0.0029
          16   -0.0092    0.0181   -0.0095   -0.0255   -0.0051    0.0086   -0.0019    0.0024
          17    0.0318    0.0348    0.0072   -0.0215   -0.0070    0.0236    0.0061    0.0061
          18   -0.0218    0.0039   -0.0072   -0.0033   -0.0040    0.0033   -0.0076   -0.0290
          19    0.0231    0.0230    0.0281    0.0457   -0.0092    0.0266   -0.0065   -0.0059
          20    0.0171   -0.0172    0.0003    0.0043    0.0308   -0.0333    0.0182   -0.0025
          21   -0.0027   -0.0287   -0.0113   -0.0068   -0.0225    0.0088   -0.0223    0.0006
          22    0.0108   -0.0209   -0.0037    0.0011    0.0006   -0.0046   -0.0035   -0.0028
          23    0.0066   -0.0247   -0.0026    0.0059   -0.0022   -0.0069   -0.0057   -0.0020
          24    0.0104   -0.0160   -0.0019    0.0040    0.0043   -0.0102   -0.0047   -0.0016
          25    0.0035    0.0023    0.0035    0.0036   -0.0072   -0.0025    0.0005    0.0004
          26   -0.0296   -0.0178   -0.0006    0.0181   -0.0030    0.0001   -0.0068   -0.0087
          27   -0.0007    0.0001    0.0010   -0.0022   -0.0017    0.0027    0.0034   -0.0040
          28   -0.0137   -0.0167   -0.0213   -0.0307    0.0987    0.0407   -0.0131   -0.0012
          29   -0.0263   -0.0172   -0.0013    0.0134    0.0015    0.0018   -0.0052   -0.0058
          30    0.0270   -0.0394    0.0097   -0.0174   -0.0092    0.0106    0.0075   -0.0053
          31   -0.0272   -0.0985    0.0552   -0.0125   -0.0323    0.0305    0.0992    0.0343
          32    0.0432    0.0285   -0.0051   -0.0226   -0.0263   -0.0364   -0.0110   -0.0721
          33   -0.0108   -0.0286    0.0189   -0.0263   -0.0092    0.0193    0.0194    0.0079
          34   -0.0026    0.0242   -0.0205    0.0697    0.0141   -0.0750   -0.0324   -0.0135
          35   -0.0095    0.0117   -0.0066   -0.0202   -0.0256   -0.0090    0.0201    0.0528
          36   -0.0252   -0.0472    0.0278   -0.0397   -0.0166    0.0410    0.0412    0.0410
          37   -0.0151    0.0255   -0.0184   -0.0425   -0.0141    0.0061   -0.0101   -0.0039
          38   -0.0125    0.0069   -0.0124   -0.0092   -0.0353   -0.0544   -0.0041   -0.0421
          39    0.0349   -0.0326    0.0293   -0.0124   -0.0217    0.0348    0.0845    0.2409
          40   -0.0177    0.0264   -0.0169   -0.0456   -0.0174    0.0061    0.0059   -0.0147
          41   -0.0288    0.0200   -0.0000    0.0012    0.0344    0.0366    0.0169   -0.0179
          42    0.1282   -0.0236    0.0048   -0.0141    0.0143   -0.0191   -0.0987    0.1658
          43   -0.0033    0.0156    0.0031    0.0034    0.0350    0.0388   -0.0041   -0.0031
          44    0.0459    0.0402    0.0124   -0.0201    0.0016    0.0183    0.0003   -0.0448
          45   -0.0833   -0.0210   -0.0262   -0.0008   -0.0303    0.0349    0.0183    0.1941
          46    0.0429    0.0263    0.0296    0.0460    0.0068    0.0036   -0.0253   -0.0072
          47    0.0040   -0.0432    0.0039    0.0284   -0.0219   -0.0158   -0.0048   -0.0028
          48    0.0253   -0.0132   -0.0097   -0.0139    0.0166   -0.0237   -0.0342   -0.0008
          49    0.0180   -0.0362   -0.0236   -0.0368    0.0470   -0.0683    0.0267    0.0009
          50   -0.0239   -0.0230    0.0236    0.0710   -0.1370    0.1417   -0.1097   -0.0042
          51    0.0553    0.0563    0.0337    0.0337    0.1138   -0.0685    0.1049   -0.0162
          52   -0.0099   -0.0759   -0.0353   -0.0346   -0.0341   -0.0137   -0.0493    0.0064
          53    0.0263   -0.0381   -0.0336   -0.0585    0.0866   -0.1143    0.0500    0.0025
          54   -0.0197   -0.0690   -0.0229   -0.0075   -0.0684    0.0240   -0.0756    0.0061
          55    0.0895    0.0075   -0.2469    0.1237   -0.1081    0.0169    0.0732   -0.0056
          56    0.0069   -0.0733    0.0044   -0.0004   -0.0256    0.0206    0.0121   -0.0339
          57   -0.0224    0.0379   -0.0131    0.0161    0.0094   -0.0106   -0.0068    0.0126
          58   -0.0644    0.0175    0.2798   -0.0790   -0.0341   -0.0796   -0.0496    0.0091
          59   -0.0717    0.0361   -0.0047    0.0435    0.0148   -0.0230   -0.0292    0.0115
          60   -0.0259    0.0338   -0.0031    0.0137    0.0096   -0.0113   -0.0101    0.0090


   Root No.      17        18        19        20        21        22        23        24

                17 A      18 A      19 A      20 A      21 A      22 A      23 A      24 A   

                 783.6     813.9     887.3     915.4     927.5     936.2     981.9     987.9
  
           1    0.0561    0.0250    0.0050    0.0005    0.0016    0.0017    0.0228    0.0002
           2    0.0022   -0.0314   -0.0106    0.0038   -0.0057    0.0029   -0.0104    0.0008
           3    0.0012   -0.0090    0.0368   -0.0170    0.0231   -0.0177    0.0062    0.0043
           4   -0.0186    0.0106   -0.0018   -0.0027   -0.0005   -0.0036   -0.0233   -0.0064
           5    0.0324   -0.0153   -0.0039   -0.0007   -0.0016   -0.0058   -0.0018   -0.0002
           6   -0.0025   -0.0080    0.0205    0.0044    0.0065    0.0218   -0.0170   -0.0058
           7    0.0150    0.0215    0.0021   -0.0003   -0.0002    0.0000   -0.0086    0.0013
           8   -0.0055    0.0017   -0.0006    0.0006   -0.0005   -0.0002    0.0005    0.0009
           9   -0.0042    0.0146   -0.0238    0.0046   -0.0245    0.0082   -0.0009   -0.0009
          10    0.0073   -0.0596   -0.0049   -0.0009   -0.0012   -0.0036   -0.0057   -0.0035
          11    0.0081   -0.0328   -0.0023   -0.0037    0.0007   -0.0056    0.0073   -0.0034
          12    0.0055   -0.0065   -0.0049    0.0152   -0.0073    0.0192   -0.0160   -0.0063
          13   -0.0307    0.0506    0.0038    0.0017    0.0008    0.0091    0.0134    0.0014
          14    0.0450   -0.0116    0.0052    0.0066   -0.0038    0.0011   -0.0092   -0.0003
          15    0.0037    0.0032   -0.0223   -0.0266    0.0116   -0.0388    0.0027    0.0019
          16    0.0029   -0.0018    0.0001    0.0006   -0.0003   -0.0014   -0.0027    0.0010
          17    0.0071    0.0781    0.0103   -0.0006    0.0044   -0.0009    0.0105    0.0007
          18    0.0084    0.0182   -0.0134    0.0125   -0.0168    0.0085    0.0160    0.0036
          19   -0.0279   -0.0322   -0.0001    0.0040   -0.0038   -0.0103   -0.0217   -0.0062
          20   -0.0166   -0.0097   -0.0051   -0.0154    0.0115    0.0238    0.0025   -0.0010
          21    0.0056    0.0027    0.0035    0.0133   -0.0092   -0.0182    0.0124    0.0047
          22   -0.0165   -0.0206    0.0025    0.0050    0.0002    0.0044    0.0404    0.0100
          23   -0.0125   -0.0112   -0.0010   -0.0030    0.0031    0.0098    0.0072    0.0033
          24   -0.0074   -0.0054   -0.0024    0.0014   -0.0024   -0.0087   -0.0012   -0.0016
          25    0.0017   -0.0003    0.0000    0.0002    0.0006   -0.0012    0.0094   -0.0785
          26   -0.0390    0.0219    0.0033   -0.0026    0.0010    0.0009   -0.0028   -0.0037
          27    0.0011   -0.0029    0.0139   -0.0253   -0.0399    0.0030    0.0007   -0.0010
          28   -0.0032   -0.0060    0.0004   -0.0009    0.0001   -0.0004   -0.0014    0.0299
          29   -0.0246    0.0131    0.0014   -0.0006    0.0018    0.0004   -0.0012    0.0010
          30    0.0004   -0.0015   -0.0070    0.0212    0.0393   -0.0036   -0.0010    0.0002
          31    0.0561    0.0334   -0.0770    0.0479   -0.0417    0.0513   -0.0071   -0.0095
          32    0.0450   -0.0363    0.0694   -0.0114    0.0515   -0.0081   -0.0247    0.0041
          33   -0.0036   -0.0060   -0.0114    0.0075   -0.0037    0.0074   -0.0075   -0.0008
          34    0.0870    0.0476    0.0712   -0.0315    0.0356   -0.0305    0.0574    0.0133
          35    0.0068   -0.0008   -0.0513    0.0139   -0.0381    0.0113   -0.0025    0.0111
          36   -0.0270   -0.0084   -0.0593    0.0231   -0.0343    0.0217   -0.0228   -0.0019
          37   -0.0116   -0.0377   -0.0021    0.0021   -0.0018   -0.0024   -0.0235   -0.0015
          38    0.0562   -0.0710    0.0107    0.0135    0.0007    0.0214    0.0125   -0.0139
          39   -0.0453   -0.0038   -0.0740   -0.0699   -0.0037   -0.0937    0.0796    0.0206
          40   -0.0109    0.0276   -0.0069   -0.0054    0.0029   -0.0107    0.0205    0.0079
          41    0.0790   -0.0496   -0.0186   -0.0124    0.0030   -0.0429    0.0032    0.0107
          42    0.0070   -0.0127    0.1040    0.1226   -0.0574    0.1739   -0.0215   -0.0083
          43    0.0425    0.0244   -0.0003    0.0059   -0.0061   -0.0113   -0.0299    0.0147
          44    0.0186    0.0844   -0.0268    0.0134   -0.0218    0.0048    0.0265    0.0055
          45   -0.0243    0.0002    0.1495   -0.0468    0.0961   -0.0197   -0.0584   -0.0139
          46   -0.0371   -0.0246   -0.0400   -0.0608    0.0297    0.0404   -0.0765   -0.0241
          47   -0.0506   -0.0055    0.0377    0.1039   -0.0781   -0.1628   -0.0617   -0.0117
          48    0.0075    0.0090   -0.0584   -0.1065    0.0634    0.1114   -0.0256   -0.0117
          49   -0.0065    0.0249    0.0003   -0.0036   -0.0005   -0.0008   -0.0432   -0.0091
          50   -0.0005   -0.0707   -0.0105    0.0061    0.0008   -0.0045    0.1235    0.0261
          51   -0.0972   -0.0921    0.0315    0.0214    0.0077    0.0550    0.1325    0.0386
          52    0.0329    0.0485   -0.0291   -0.0426    0.0162    0.0169   -0.0905   -0.0225
          53   -0.0082    0.0514    0.0204    0.0650   -0.0569   -0.1361   -0.0935   -0.0289
          54    0.0425    0.0413   -0.0445   -0.0765    0.0392    0.0643   -0.0973   -0.0224
          55    0.0080    0.0064   -0.0115    0.0098    0.0000    0.0134   -0.0450    0.3144
          56   -0.0516    0.0206    0.0609   -0.1026   -0.1517    0.0135   -0.0062    0.0112
          57    0.0079   -0.0003   -0.0261    0.0439    0.0655   -0.0050    0.0003    0.0056
          58    0.0049    0.0031    0.0092   -0.0082   -0.0032   -0.0029   -0.0339    0.3203
          59   -0.0555    0.0431   -0.0525    0.0971    0.1605   -0.0102   -0.0091    0.0077
          60   -0.0071    0.0089   -0.0214    0.0374    0.0599   -0.0040   -0.0027    0.0040


   Root No.      25        26        27        28        29        30        31        32

                25 A      26 A      27 A      28 A      29 A      30 A      31 A      32 A   

                1004.7    1028.4    1042.0    1068.1    1098.4    1156.6    1177.4    1188.4
  
           1    0.0045   -0.0009   -0.0182   -0.0078    0.0060   -0.0001    0.0187   -0.0084
           2    0.0048   -0.0012    0.0355    0.0160   -0.0063    0.0020   -0.0003    0.0114
           3   -0.0265    0.0045    0.0112    0.0043   -0.0015   -0.0018    0.0008    0.0016
           4   -0.0078    0.0025   -0.0014    0.0019   -0.0137    0.0049   -0.0327    0.0108
           5    0.0008   -0.0014   -0.0041   -0.0015    0.0067   -0.0100   -0.0176   -0.0183
           6   -0.0209    0.0172   -0.0044    0.0030    0.0047   -0.0011    0.0060   -0.0031
           7   -0.0040   -0.0002    0.0139    0.0149   -0.0235   -0.0120   -0.0232    0.0487
           8    0.0010   -0.0016   -0.0013   -0.0028   -0.0003   -0.0019    0.0072    0.0029
           9    0.0227   -0.0053    0.0087   -0.0254   -0.0009    0.0007   -0.0025    0.0011
          10   -0.0040   -0.0010   -0.0243   -0.0072   -0.0224   -0.0021    0.0023   -0.0095
          11   -0.0119    0.0013   -0.0349   -0.0167   -0.0070    0.0057    0.0062    0.0151
          12    0.0421   -0.0069   -0.0239    0.0281   -0.0014    0.0010    0.0024    0.0027
          13    0.0040    0.0055    0.0082   -0.0008    0.0455    0.0001   -0.0133   -0.0162
          14   -0.0094   -0.0003   -0.0011    0.0020   -0.0012   -0.0044   -0.0103   -0.0044
          15    0.0271   -0.0117   -0.0008    0.0036    0.0018   -0.0017   -0.0055   -0.0019
          16    0.0015   -0.0027    0.0084    0.0043   -0.0097    0.0038    0.0010   -0.0143
          17    0.0128   -0.0068   -0.0227   -0.0081   -0.0224    0.0011    0.0178    0.0021
          18   -0.0437    0.0064    0.0005   -0.0122   -0.0077    0.0004    0.0045   -0.0005
          19   -0.0086   -0.0079   -0.0075   -0.0065    0.0180   -0.0021   -0.0083   -0.0184
          20    0.0023    0.0375    0.0006    0.0020   -0.0052    0.0006   -0.0073    0.0022
          21    0.0036   -0.0318    0.0022    0.0002   -0.0022   -0.0003   -0.0044    0.0022
          22    0.0166    0.0133    0.0059    0.0022   -0.0067    0.0020    0.0174    0.0074
          23   -0.0044   -0.0570    0.0003   -0.0019    0.0007   -0.0003   -0.0067   -0.0025
          24    0.0060    0.0438   -0.0009    0.0001   -0.0024   -0.0004   -0.0168   -0.0037
          25   -0.0006   -0.0024    0.0047    0.0021   -0.0018   -0.0005   -0.0005    0.0022
          26   -0.0025    0.0022    0.0002    0.0021   -0.0009    0.0018   -0.0046   -0.0000
          27    0.0033   -0.0003    0.0006   -0.0007    0.0000   -0.0001    0.0001   -0.0001
          28    0.0005    0.0008   -0.0090   -0.0053    0.0050    0.0013    0.0020   -0.0075
          29   -0.0010    0.0007   -0.0003    0.0004    0.0001   -0.0002    0.0015   -0.0003
          30   -0.0065    0.0011   -0.0012    0.0026    0.0002    0.0000    0.0002    0.0001
          31    0.0956   -0.0106    0.0682   -0.1616    0.0131   -0.0232    0.0328   -0.0653
          32    0.0250    0.0067    0.2570   -0.2279    0.0138   -0.0444   -0.0052   -0.1014
          33    0.0152   -0.0009    0.0329   -0.0450    0.0008   -0.0068    0.0058   -0.0151
          34   -0.0504    0.0052    0.0106    0.1346    0.0238   -0.0506    0.0620   -0.1086
          35   -0.0035   -0.0058    0.1220    0.3072    0.0223   -0.0813    0.0345   -0.1632
          36    0.0248   -0.0051    0.0377    0.0536   -0.0020   -0.0096   -0.0161   -0.0141
          37   -0.0012   -0.0086   -0.0024   -0.0059   -0.1480   -0.1528    0.0532    0.0359
          38    0.0361    0.0062   -0.0825    0.0023    0.1906    0.2495   -0.0723   -0.0598
          39   -0.1613    0.0223    0.0221   -0.0499    0.0378    0.0491   -0.0156   -0.0147
          40    0.0147   -0.0020    0.0483    0.0220    0.1658   -0.0609   -0.0082    0.1262
          41    0.0135   -0.0159    0.0611    0.0392    0.1905   -0.1065   -0.0005    0.2275
          42   -0.0837    0.0427    0.0154   -0.0074    0.0509   -0.0216    0.0107    0.0465
          43   -0.0108   -0.0195    0.1663    0.0800   -0.1112    0.3362    0.0625    0.0913
          44   -0.0355   -0.0007   -0.0117   -0.0106   -0.0288    0.0194    0.0224    0.0087
          45    0.1649   -0.0260   -0.0132    0.0169   -0.0062    0.0165    0.0064    0.0059
          46   -0.0175    0.0552   -0.0145   -0.0181    0.0613    0.0092    0.2422    0.0037
          47   -0.0127   -0.0863   -0.0147   -0.0228    0.0561    0.0098    0.2549    0.0057
          48   -0.0006    0.0879   -0.0000   -0.0039    0.0237    0.0097    0.1900    0.0269
          49   -0.0242   -0.0700   -0.0057   -0.0037    0.0080   -0.0005   -0.0036   -0.0014
          50    0.0738    0.2007    0.0164    0.0084   -0.0221    0.0032    0.0207    0.0086
          51    0.0170   -0.1931    0.0172    0.0019   -0.0162    0.0047    0.0352    0.0105
          52   -0.0364   -0.0521   -0.0132   -0.0094    0.0213   -0.0018   -0.0041   -0.0192
          53    0.0017    0.2020   -0.0150   -0.0049    0.0092   -0.0008   -0.0229   -0.0198
          54   -0.0521   -0.1313   -0.0148   -0.0110    0.0233   -0.0043   -0.0352   -0.0258
          55    0.0071    0.0105   -0.0135   -0.0123    0.0035   -0.0006    0.0009   -0.0018
          56    0.0070    0.0045    0.0013    0.0022   -0.0021    0.0087   -0.0316   -0.0019
          57   -0.0031   -0.0010   -0.0009   -0.0011    0.0009   -0.0042    0.0163    0.0009
          58   -0.0018    0.0077   -0.0151    0.0009    0.0022   -0.0000    0.0003   -0.0001
          59   -0.0174    0.0063   -0.0023    0.0084   -0.0022    0.0090   -0.0322   -0.0014
          60   -0.0057    0.0018   -0.0009    0.0028   -0.0007    0.0038   -0.0150   -0.0007


   Root No.      33        34        35        36        37        38        39        40

                33 A      34 A      35 A      36 A      37 A      38 A      39 A      40 A   

                1224.3    1257.2    1317.7    1343.7    1359.1    1429.2    1503.1    1554.9
  
           1   -0.0024    0.0161   -0.0005    0.0247   -0.0547   -0.0126    0.0494   -0.0035
           2   -0.0179   -0.0010   -0.0017    0.0619    0.0116    0.0354    0.0814   -0.0184
           3   -0.0055   -0.0004   -0.0013    0.0111    0.0090    0.0094    0.0105   -0.0010
           4    0.0066   -0.0231   -0.0060   -0.0185    0.0188   -0.0454    0.0718    0.1067
           5   -0.0035   -0.0173    0.0014    0.0247    0.0063   -0.0315   -0.0209   -0.0177
           6   -0.0016   -0.0049    0.0013    0.0040    0.0025   -0.0089    0.0005    0.0068
           7   -0.0019   -0.0309    0.0273   -0.0073    0.0209    0.0222   -0.0813   -0.0649
           8   -0.0452   -0.0016    0.0019    0.0173   -0.0035    0.0242   -0.0673    0.1188
           9    0.0009   -0.0000   -0.0001   -0.0016   -0.0006   -0.0001   -0.0012   -0.0010
          10    0.0125   -0.0022    0.0034   -0.0258    0.0015    0.0096   -0.0020    0.0104
          11    0.0143    0.0181   -0.0160   -0.0145   -0.0037   -0.0532   -0.0420   -0.0093
          12    0.0031    0.0047   -0.0038   -0.0032   -0.0012   -0.0119   -0.0094   -0.0015
          13   -0.0190   -0.0074   -0.0052    0.0418    0.0034   -0.0441   -0.0329   -0.0229
          14    0.0075   -0.0224    0.0102    0.0093    0.0132   -0.0203    0.0061   -0.0246
          15    0.0004   -0.0052    0.0011    0.0044    0.0027   -0.0070   -0.0005   -0.0055
          16    0.0024   -0.0108    0.0156   -0.0137    0.0038    0.0549    0.0296   -0.0007
          17    0.0068    0.0097    0.0066   -0.0271   -0.0095    0.0403    0.0134    0.0131
          18    0.0018    0.0012    0.0022   -0.0070   -0.0018    0.0110    0.0040    0.0033
          19   -0.0098    0.0369   -0.0155    0.0043   -0.0210    0.0309   -0.0213   -0.0323
          20   -0.0010    0.0008   -0.0167   -0.0040   -0.0080    0.0097   -0.0011    0.0022
          21    0.0032   -0.0176   -0.0136    0.0002   -0.0002   -0.0078    0.0062    0.0099
          22    0.0040   -0.0097    0.0005   -0.0020    0.0013    0.0008    0.0007   -0.0002
          23   -0.0019    0.0083   -0.0107   -0.0017   -0.0094    0.0172   -0.0099   -0.0154
          24   -0.0043    0.0159   -0.0136   -0.0029   -0.0125    0.0224   -0.0119   -0.0178
          25   -0.0007   -0.0009    0.0009    0.0014    0.0002    0.0018   -0.0035    0.0025
          26    0.0055   -0.0009   -0.0038   -0.0360    0.0078   -0.0253    0.0551   -0.0902
          27   -0.0002    0.0000    0.0001    0.0008   -0.0002    0.0006   -0.0012    0.0020
          28    0.0023    0.0028   -0.0027   -0.0009   -0.0022   -0.0049    0.0037    0.0026
          29   -0.0201   -0.0008   -0.0015   -0.0106    0.0014   -0.0013   -0.0064    0.0191
          30    0.0004   -0.0001    0.0001    0.0003    0.0001   -0.0002    0.0007   -0.0006
          31    0.0407    0.0572   -0.0846   -0.0257    0.2092    0.0175   -0.0222    0.0082
          32    0.0397   -0.0249    0.0394   -0.1039   -0.1132   -0.0424   -0.0560    0.0322
          33    0.0097    0.0168   -0.0366   -0.0011    0.1187    0.0241   -0.0090   -0.0000
          34    0.0307    0.0645   -0.0787   -0.0325    0.1629    0.0068   -0.0279    0.0322
          35    0.0403    0.0016    0.0060   -0.1056   -0.0342   -0.0275   -0.0634    0.0506
          36    0.0007   -0.0407    0.0709   -0.0389   -0.2052   -0.0441   -0.0108    0.0075
          37    0.0078    0.0519   -0.0363    0.0171   -0.0218   -0.0756   -0.0238   -0.0021
          38    0.0245   -0.0661    0.0469   -0.0887    0.0312    0.0834   -0.0066    0.0129
          39    0.0061   -0.0141    0.0098   -0.0210    0.0073    0.0172   -0.0023    0.0035
          40    0.0071    0.0471   -0.0247   -0.0216   -0.0119   -0.0166    0.0017    0.0419
          41    0.0534    0.0646   -0.0193   -0.0990   -0.0112    0.0316    0.0684    0.0761
          42    0.0103    0.0172   -0.0038   -0.0187   -0.0035    0.0052    0.0125    0.0140
          43   -0.0015    0.0998   -0.0622    0.0030   -0.0195   -0.0958   -0.0731   -0.0023
          44    0.0080    0.0164    0.0029   -0.0303   -0.0119    0.0357    0.0090    0.0152
          45    0.0009    0.0074   -0.0016   -0.0061   -0.0031    0.0045   -0.0016    0.0029
          46    0.0156   -0.0317    0.0226    0.0145    0.0000    0.0129   -0.0235   -0.0397
          47    0.0246   -0.0773    0.0250    0.0188    0.0155   -0.0189   -0.0080   -0.0143
          48    0.0237   -0.0722    0.0151    0.0041    0.0168   -0.0212    0.0072    0.0103
          49    0.0028   -0.0316   -0.0862   -0.0058   -0.0366    0.0411   -0.0180   -0.0246
          50   -0.0022    0.0463    0.1122    0.0041    0.0417   -0.0344    0.0121    0.0117
          51   -0.0019    0.0704    0.1829    0.0045    0.0714   -0.0628    0.0299    0.0345
          52   -0.0147    0.0922    0.1387    0.0106    0.0471   -0.0446    0.0174    0.0196
          53   -0.0194    0.1058    0.1245    0.0054    0.0358   -0.0237    0.0086    0.0101
          54   -0.0185    0.0941    0.0932    0.0080    0.0227   -0.0125   -0.0008   -0.0069
          55   -0.0040   -0.0006    0.0002   -0.0033    0.0004   -0.0016   -0.0021   -0.0007
          56    0.2437    0.0092    0.0120    0.0826   -0.0143    0.0257   -0.0311    0.0340
          57   -0.1457   -0.0062   -0.0100   -0.0756    0.0140   -0.0337    0.0587   -0.0873
          58   -0.0121   -0.0005   -0.0003   -0.0037    0.0013   -0.0001    0.0014   -0.0038
          59    0.2504    0.0093    0.0124    0.0862   -0.0148    0.0273   -0.0336    0.0377
          60    0.1352    0.0057    0.0094    0.0719   -0.0133    0.0325   -0.0573    0.0857


   Root No.      41        42        43        44        45        46        47        48

                41 A      42 A      43 A      44 A      45 A      46 A      47 A      48 A   

                1823.1    1847.2    1872.0    2249.4    2926.9    3007.9    3032.6    3050.4
  
           1   -0.0016    0.0070   -0.0032    0.0019   -0.0047    0.0364    0.0001    0.0013
           2    0.0041   -0.0225    0.0116    0.0042    0.0116   -0.0184   -0.0001   -0.0006
           3    0.0008   -0.0045    0.0022   -0.0002   -0.0596   -0.0031    0.0000    0.0001
           4    0.0043    0.0217    0.0273   -0.0037    0.0001   -0.0004   -0.0001   -0.0000
           5   -0.1548   -0.0292    0.0999   -0.0028   -0.0000   -0.0002    0.0004   -0.0011
           6   -0.0252   -0.0015    0.0234   -0.0010   -0.0002   -0.0000    0.0002   -0.0002
           7   -0.0120   -0.0099    0.0030    0.0048    0.0002    0.0007    0.0005    0.0000
           8    0.0197    0.0100   -0.0118   -0.1729    0.0005    0.0007    0.0000   -0.0005
           9    0.0007   -0.0001   -0.0021    0.0018   -0.0001    0.0000    0.0002   -0.0000
          10    0.0550   -0.1194    0.0458    0.0039    0.0004   -0.0036   -0.0001    0.0224
          11   -0.0341    0.0881   -0.0359    0.0002   -0.0002   -0.0027   -0.0001    0.0132
          12   -0.0066    0.0174   -0.0070   -0.0003   -0.0001   -0.0007   -0.0000    0.0034
          13    0.0457   -0.0144   -0.0042   -0.0001    0.0000    0.0002   -0.0003   -0.0174
          14    0.1578    0.0288   -0.0735    0.0091    0.0000    0.0002   -0.0002    0.0117
          15    0.0302    0.0041   -0.0136    0.0015    0.0001    0.0000    0.0001    0.0008
          16   -0.0870    0.1366   -0.0476   -0.0036   -0.0002   -0.0003    0.0000    0.0018
          17    0.0012   -0.0510    0.0247   -0.0001    0.0000    0.0000    0.0000   -0.0275
          18   -0.0019   -0.0081    0.0038   -0.0002   -0.0003    0.0000    0.0001   -0.0063
          19   -0.0161   -0.0292   -0.0561    0.0009   -0.0000    0.0001   -0.0504   -0.0000
          20   -0.0454   -0.0553   -0.0991   -0.0009    0.0000    0.0000    0.0201    0.0002
          21   -0.0558   -0.0586   -0.0947    0.0000   -0.0000   -0.0000    0.0478    0.0001
          22    0.0153    0.0139    0.0197    0.0002   -0.0000   -0.0000    0.0043   -0.0000
          23    0.0492    0.0476    0.0731    0.0004    0.0000    0.0000   -0.0008    0.0000
          24    0.0580    0.0560    0.0856    0.0003    0.0000    0.0000   -0.0030    0.0000
          25    0.0003    0.0001   -0.0002    0.0062   -0.0000    0.0000    0.0000    0.0000
          26   -0.0035   -0.0055    0.0035   -0.1561    0.0001    0.0000    0.0000    0.0000
          27    0.0001    0.0001   -0.0000    0.0034   -0.0000    0.0000   -0.0000   -0.0000
          28   -0.0035    0.0004    0.0018   -0.0103   -0.0001    0.0002    0.0000    0.0000
          29    0.0007    0.0046   -0.0024    0.3310   -0.0006   -0.0003   -0.0000    0.0002
          30   -0.0001   -0.0001    0.0002   -0.0064   -0.0001   -0.0000    0.0000   -0.0000
          31    0.0007    0.0011   -0.0015    0.0009   -0.2192   -0.1450   -0.0002   -0.0043
          32    0.0106   -0.0096    0.0011   -0.0063    0.0430    0.0172    0.0000    0.0018
          33   -0.0016   -0.0038    0.0029    0.0075    0.4625    0.3759    0.0006    0.0130
          34    0.0037    0.0051   -0.0041   -0.0060    0.2729   -0.2941   -0.0006   -0.0111
          35    0.0165   -0.0178    0.0045   -0.0128   -0.1796    0.2019    0.0004    0.0097
          36    0.0060   -0.0039   -0.0008   -0.0028    0.2591   -0.3372   -0.0007   -0.0127
          37    0.0325   -0.0479    0.0160    0.0050   -0.0029    0.0445    0.0015   -0.2640
          38    0.0202   -0.0715    0.0300    0.0052   -0.0007    0.0226    0.0009   -0.1584
          39    0.0065   -0.0185    0.0080    0.0015   -0.0018    0.0058    0.0002   -0.0410
          40   -0.0687   -0.0456    0.0608   -0.0093    0.0003    0.0000   -0.0004    0.2028
          41    0.0090   -0.0159    0.0063    0.0057   -0.0001   -0.0000   -0.0018   -0.1262
          42   -0.0044   -0.0040    0.0102    0.0011    0.0000    0.0000   -0.0004   -0.0067
          43   -0.0177   -0.0359    0.0260   -0.0005    0.0000   -0.0008    0.0000   -0.0208
          44    0.0148   -0.0824    0.0363    0.0009    0.0005    0.0037   -0.0005    0.3260
          45    0.0034   -0.0204    0.0094    0.0003   -0.0007    0.0008   -0.0002    0.0743
          46    0.0410    0.0425    0.0722    0.0016    0.0001   -0.0007    0.6130    0.0006
          47   -0.0183    0.0023    0.0237    0.0006   -0.0000    0.0002   -0.1968    0.0002
          48   -0.0224   -0.0184   -0.0247   -0.0002   -0.0001    0.0006   -0.5266   -0.0003
          49    0.0601    0.0548    0.0800    0.0006   -0.0000   -0.0000   -0.0686   -0.0002
          50    0.0081    0.0119    0.0235    0.0006   -0.0000   -0.0000   -0.0304   -0.0001
          51   -0.0073   -0.0066   -0.0120   -0.0002    0.0000    0.0000   -0.0078    0.0000
          52   -0.0557   -0.0549   -0.0844    0.0002    0.0000    0.0001    0.0033    0.0005
          53   -0.0012   -0.0030   -0.0072    0.0000    0.0000   -0.0000   -0.0028   -0.0002
          54    0.0161    0.0182    0.0334    0.0005    0.0000   -0.0001   -0.0055   -0.0005
          55   -0.0019    0.0005    0.0009    0.0057    0.0004    0.0001   -0.0001    0.0000
          56    0.0004   -0.0008    0.0005   -0.0722    0.0003    0.0007   -0.0001   -0.0004
          57   -0.0039   -0.0040    0.0029   -0.1110    0.0004    0.0012   -0.0002   -0.0006
          58    0.0014   -0.0009   -0.0010    0.0006   -0.0004   -0.0001    0.0000    0.0000
          59    0.0007   -0.0006    0.0001   -0.0669    0.0002    0.0005   -0.0002   -0.0004
          60    0.0037    0.0040   -0.0029    0.1143   -0.0005   -0.0010    0.0004    0.0006


   Root No.      49        50        51        52        53        54

                49 A      50 A      51 A      52 A      53 A      54 A   

                3056.6    3073.1    3113.0    3118.2    3136.9    3145.2
  
           1   -0.0016   -0.0019   -0.0002    0.0000   -0.0000    0.0000
           2    0.0008    0.0010   -0.0000    0.0000    0.0000   -0.0000
           3    0.0000    0.0001    0.0001   -0.0000    0.0000    0.0000
           4   -0.0003    0.0005    0.0002   -0.0000    0.0002    0.0002
           5   -0.0031    0.0013   -0.0003    0.0000    0.0003    0.0005
           6   -0.0006    0.0003   -0.0000   -0.0000    0.0003    0.0003
           7    0.0002   -0.0000   -0.0001    0.0000    0.0001    0.0001
           8   -0.0003    0.0005   -0.0007    0.0001   -0.0000    0.0000
           9    0.0000    0.0001   -0.0000   -0.0002    0.0000    0.0000
          10   -0.0248   -0.0264    0.0001   -0.0000   -0.0001    0.0000
          11   -0.0129   -0.0107    0.0000   -0.0000   -0.0001    0.0000
          12   -0.0034   -0.0029    0.0000   -0.0000   -0.0000    0.0000
          13   -0.0361    0.0128   -0.0002    0.0000    0.0002   -0.0001
          14    0.0243   -0.0078    0.0003   -0.0000   -0.0001   -0.0002
          15    0.0016   -0.0004    0.0000   -0.0000    0.0000   -0.0000
          16    0.0019    0.0057   -0.0001    0.0000   -0.0000    0.0000
          17    0.0036   -0.0357    0.0001   -0.0000   -0.0000    0.0000
          18    0.0009   -0.0080    0.0000   -0.0000   -0.0000    0.0000
          19    0.0002   -0.0001   -0.0000    0.0000   -0.0017   -0.0030
          20    0.0003   -0.0001    0.0000    0.0000   -0.0034    0.0053
          21    0.0000   -0.0000    0.0000    0.0000   -0.0036    0.0082
          22   -0.0000    0.0000    0.0001    0.0002   -0.0532   -0.0528
          23    0.0000   -0.0000    0.0001   -0.0001    0.0181   -0.0329
          24    0.0000   -0.0001    0.0000   -0.0002    0.0472   -0.0186
          25   -0.0000    0.0000    0.0019    0.0010    0.0000    0.0000
          26    0.0001   -0.0001   -0.0476    0.0027    0.0001   -0.0001
          27   -0.0000    0.0000   -0.0042   -0.0646   -0.0004    0.0001
          28    0.0000    0.0000   -0.0003    0.0000    0.0000    0.0000
          29    0.0002   -0.0002    0.0085   -0.0007   -0.0000   -0.0000
          30    0.0000    0.0000   -0.0002   -0.0004    0.0001   -0.0000
          31    0.0052    0.0054    0.0006    0.0000    0.0000   -0.0001
          32   -0.0018   -0.0016   -0.0002   -0.0000   -0.0000   -0.0000
          33   -0.0150   -0.0153   -0.0012   -0.0000   -0.0002    0.0001
          34    0.0124    0.0127    0.0005    0.0000    0.0001   -0.0001
          35   -0.0106   -0.0106   -0.0005    0.0000   -0.0001    0.0001
          36    0.0141    0.0144    0.0005   -0.0000    0.0001   -0.0001
          37    0.2808    0.2616   -0.0011    0.0001    0.0007   -0.0006
          38    0.1662    0.1522   -0.0006    0.0001    0.0005   -0.0004
          39    0.0430    0.0394   -0.0001    0.0000    0.0001   -0.0001
          40    0.4237   -0.1412    0.0022   -0.0002   -0.0017    0.0003
          41   -0.2585    0.0834   -0.0013    0.0001    0.0010   -0.0004
          42   -0.0131    0.0039   -0.0000    0.0000    0.0001   -0.0000
          43   -0.0017   -0.0260    0.0001   -0.0000   -0.0000    0.0001
          44   -0.0488    0.3917   -0.0012    0.0001    0.0005   -0.0003
          45   -0.0113    0.0893   -0.0003    0.0000    0.0001   -0.0001
          46   -0.0005   -0.0002    0.0002   -0.0001    0.0029    0.0446
          47    0.0010   -0.0002   -0.0001    0.0000   -0.0040   -0.0172
          48    0.0008    0.0001   -0.0002    0.0001   -0.0068   -0.0417
          49    0.0002    0.0004   -0.0011    0.0003    0.0552    0.6869
          50    0.0000    0.0002   -0.0006    0.0001    0.0387    0.3306
          51    0.0001    0.0000   -0.0001   -0.0000    0.0246    0.1156
          52    0.0007   -0.0008    0.0004   -0.0025    0.5910   -0.0707
          53   -0.0002    0.0003   -0.0001    0.0009   -0.2144    0.0115
          54   -0.0006    0.0006   -0.0002    0.0024   -0.5418    0.0464
          55    0.0000   -0.0000   -0.0175   -0.0151    0.0001   -0.0001
          56   -0.0006    0.0008    0.2677    0.2414    0.0014    0.0004
          57   -0.0010    0.0012    0.4271    0.3492    0.0022    0.0006
          58    0.0000   -0.0000   -0.0012    0.0023    0.0000   -0.0000
          59   -0.0006    0.0007    0.2085   -0.2652   -0.0018    0.0007
          60    0.0010   -0.0013   -0.3739    0.4291    0.0030   -0.0013


           MASS-WEIGHTED COORDINATE ANALYSIS (NORMAL COORDINATES)


   Root No.       1         2         3         4         5         6         7         8

                 1 A       2 A       3 A       4 A       5 A       6 A       7 A       8 A   

                  17.8      38.2     134.6     154.0     212.5     262.0     330.0     420.4
  
           1    0.0390    0.0338   -0.0554    0.1008   -0.1278    0.1063    0.0368   -0.1087
           2   -0.0150   -0.0507   -0.0841    0.1408   -0.0334    0.1540   -0.0675    0.0042
           3    0.2008    0.4600    0.0076   -0.1081   -0.2105   -0.0293    0.0357    0.0048
           4    0.0362    0.0121   -0.0525    0.1114   -0.0707    0.1342   -0.0781    0.1449
           5   -0.0933    0.0367    0.0291   -0.0091    0.0543   -0.1805    0.1401    0.0786
           6    0.0874   -0.0123   -0.1664   -0.2180    0.1811    0.0089   -0.2676   -0.1336
           7    0.0592   -0.0050   -0.0968    0.1561   -0.1216    0.2153   -0.0841   -0.0057
           8   -0.0474    0.0117   -0.0379    0.0591   -0.0297   -0.0665    0.1526   -0.1715
           9    0.1136    0.0900   -0.0627   -0.1326    0.3288    0.2208    0.0116   -0.0051
          10   -0.0371    0.0122    0.0222    0.0034   -0.0064   -0.0261    0.1373   -0.1667
          11    0.0466    0.0348   -0.1374    0.0274   -0.0940    0.1637   -0.0271    0.1010
          12   -0.0949    0.0656    0.2455    0.3807    0.1025   -0.0769   -0.1768   -0.2910
          13   -0.0337    0.0228    0.0385    0.0294   -0.0011    0.0243    0.0303    0.0136
          14   -0.0661    0.0723    0.0458    0.0082    0.1306   -0.1718    0.0725    0.1025
          15   -0.0954   -0.2065   -0.2361   -0.3388   -0.2764    0.0053    0.1082   -0.2606
          16   -0.0617    0.0141    0.0483   -0.0374    0.0362   -0.0971    0.1404   -0.1150
          17    0.0240    0.0947   -0.0532    0.0015    0.0257    0.0021   -0.0845    0.0648
          18   -0.2357   -0.2538    0.0422    0.1016   -0.0866    0.0305    0.1987    0.4350
          19    0.0688   -0.0104   -0.1515    0.1441   -0.0123   -0.0056    0.0620    0.1150
          20   -0.2280    0.0412    0.1674   -0.2028   -0.0252    0.1435   -0.2040    0.1481
          21    0.2568    0.0892   -0.0385    0.1332    0.1131   -0.2080   -0.1416    0.0676
[...]
 TRAVEL (Ang.)       0.2038         C  1 -- H 11         +12.1% ( 51.9%)      0.2%
 REDUCED MASS        1.2084         C  1 -- C  3          +9.5% ( 46.0%)     79.0%
 EFFECTIVE MASS      8.0964
 FORCE CONSTANT      1.2855

 VIBRATION         37   37A           ATOM PAIR      ENERGY CONTRIBUTION    RADIAL
 FREQUENCY          1359.12         C  1 -- H 11         +26.8% ( 58.5%)      5.4%
 TRANSITION DIPOLE   0.1227         C  1 -- H 12         +26.3% ( 58.0%)      6.0%
 TRAVEL (Ang.)       0.2863         C  1 -- C  3         +12.8% ( 40.4%)     55.2%
 REDUCED MASS        0.6051         C  1 -- C  4          +9.4% ( 34.6%)     13.7%
 EFFECTIVE MASS      3.9257
 FORCE CONSTANT      0.6585

 VIBRATION         38   38A           ATOM PAIR      ENERGY CONTRIBUTION    RADIAL
 FREQUENCY          1429.25         C  5 -- C  6         +15.9% ( 60.5%)    100.0%
 TRANSITION DIPOLE   0.1998         C  4 -- C  6         +10.5% ( 49.2%)      0.2%
 TRAVEL (Ang.)       0.1904         C  1 -- C  4          +9.2% ( 46.1%)     97.6%
 REDUCED MASS        1.3009         C  2 -- C  7          +9.1% ( 45.9%)     97.8%
 EFFECTIVE MASS     10.2862
 FORCE CONSTANT      1.5657

 VIBRATION         39   39A           ATOM PAIR      ENERGY CONTRIBUTION    RADIAL
 FREQUENCY          1503.08         C  1 -- C  3         +20.5% ( 70.6%)     89.7%
 TRANSITION DIPOLE   0.1745         C  2 -- C  3         +15.8% ( 62.0%)     44.9%
 TRAVEL (Ang.)       0.1392         C  1 -- C  4          +9.7% ( 48.7%)     78.7%
 REDUCED MASS        2.3157         C  3 -- C 10          +8.6% ( 45.8%)     31.9%
 EFFECTIVE MASS     11.2857
 FORCE CONSTANT      3.0825

 VIBRATION         40   40A           ATOM PAIR      ENERGY CONTRIBUTION    RADIAL
 FREQUENCY          1554.86         C  2 -- C  3         +26.8% ( 80.9%)     98.2%
 TRANSITION DIPOLE   0.1646         C  1 -- C  3         +14.9% ( 60.2%)      1.1%
 TRAVEL (Ang.)       0.1162         C  3 -- C 10         +12.4% ( 55.0%)     70.6%
 REDUCED MASS        3.2096         C  9 -- C 10          +9.5% ( 48.2%)     99.8%
 EFFECTIVE MASS     11.4289
 FORCE CONSTANT      4.5718

 VIBRATION         41   41A           ATOM PAIR      ENERGY CONTRIBUTION    RADIAL
 FREQUENCY          1823.14         C  2 -- C  5         +30.1% ( 81.8%)     98.4%
 TRANSITION DIPOLE   0.1887         C  5 -- C  6         +14.2% ( 56.3%)     89.2%
 TRAVEL (Ang.)       0.1105         C  2 -- C  7         +10.1% ( 47.3%)      5.8%
 REDUCED MASS        3.0306         C  5 -- H 14          +9.8% ( 46.8%)      2.2%
 EFFECTIVE MASS     11.9527
 FORCE CONSTANT      5.9351

 VIBRATION         42   42A           ATOM PAIR      ENERGY CONTRIBUTION    RADIAL
 FREQUENCY          1847.20         C  4 -- C  6         +32.8% ( 84.4%)    100.0%
 TRANSITION DIPOLE   0.4591         C  1 -- C  4         +11.0% ( 48.9%)     52.7%
 TRAVEL (Ang.)       0.1061         C  5 -- C  6         +10.4% ( 47.5%)     25.9%
 REDUCED MASS        3.2411         C  7 -- C  8         +10.3% ( 47.3%)     98.6%
 EFFECTIVE MASS     11.8452         C  4 -- H 13         +10.1% ( 46.8%)      4.6%
 FORCE CONSTANT      6.5158

 VIBRATION         43   43A           ATOM PAIR      ENERGY CONTRIBUTION    RADIAL
 FREQUENCY          1872.03         C  7 -- C  8         +27.1% ( 76.8%)     97.8%
 TRANSITION DIPOLE   0.1991         C  2 -- C  7         +18.0% ( 62.7%)     55.9%
 TRAVEL (Ang.)       0.1158         C  2 -- C  5         +11.9% ( 50.8%)     97.0%
 REDUCED MASS        2.6850         C  7 -- H 16         +10.4% ( 47.6%)      2.4%
 EFFECTIVE MASS     11.8224
 FORCE CONSTANT      5.5440

 VIBRATION         44   44A           ATOM PAIR      ENERGY CONTRIBUTION    RADIAL
 FREQUENCY          2249.38         C  3 -- C 10         +42.1% ( 85.6%)    100.0%
 TRANSITION DIPOLE   0.2761         C  9 -- C 10         +41.3% ( 84.8%)    100.0%
 TRAVEL (Ang.)       0.0718         C  1 -- C  3          +4.6% ( 28.3%)     23.9%
 REDUCED MASS        5.8134         C  2 -- C  3          +4.6% ( 28.3%)     31.1%
 EFFECTIVE MASS     11.9027
 FORCE CONSTANT     17.3303

 VIBRATION         45   45A           ATOM PAIR      ENERGY CONTRIBUTION    RADIAL
 FREQUENCY          2926.90         C  1 -- H 11         +58.2% ( 79.1%)     97.4%
 TRANSITION DIPOLE   0.0695         C  1 -- H 12         +39.7% ( 65.3%)     95.3%
 TRAVEL (Ang.)       0.2076         C  1 -- C  4          +1.1% ( 10.7%)      0.1%
 REDUCED MASS        0.5344         C  1 -- C  3          +1.1% ( 10.7%)      0.1%
 EFFECTIVE MASS      1.5315
 FORCE CONSTANT      2.6972

 VIBRATION         46   46A           ATOM PAIR      ENERGY CONTRIBUTION    RADIAL
 FREQUENCY          3007.92         C  1 -- H 12         +59.1% ( 75.8%)     98.7%
 TRANSITION DIPOLE   0.1162         C  1 -- H 11         +38.9% ( 61.5%)     96.3%
 TRAVEL (Ang.)       0.2128         C  4 -- H 13          +0.7% (  8.2%)    100.0%
 REDUCED MASS        0.4949         C  1 -- C  4          +0.7% (  8.0%)     19.8%
 EFFECTIVE MASS      1.2810
 FORCE CONSTANT      2.6383

 VIBRATION         47   47A           ATOM PAIR      ENERGY CONTRIBUTION    RADIAL
 FREQUENCY          3032.56         C  7 -- H 16         +96.4% ( 99.6%)    100.0%
 TRANSITION DIPOLE   0.2461         C  7 -- C  8          +1.4% ( 12.1%)     30.6%
 TRAVEL (Ang.)       0.1559         C  2 -- C  7          +1.4% ( 11.8%)     14.1%
 REDUCED MASS        0.9154         C  8 -- H 17          +0.8% (  9.0%)     94.8%
 EFFECTIVE MASS      1.5045
 FORCE CONSTANT      4.9602

 VIBRATION         48   48A           ATOM PAIR      ENERGY CONTRIBUTION    RADIAL
 FREQUENCY          3050.40         C  6 -- H 15         +41.1% ( 65.1%)    100.0%
 TRANSITION DIPOLE   0.1576         C  4 -- H 13         +35.2% ( 60.3%)    100.0%
 TRAVEL (Ang.)       0.2590         C  5 -- H 14         +21.0% ( 46.5%)    100.0%
 REDUCED MASS        0.3294         C  4 -- C  6          +0.9% (  9.5%)      0.1%
 EFFECTIVE MASS      1.4787
 FORCE CONSTANT      1.8060

 VIBRATION         49   49A           ATOM PAIR      ENERGY CONTRIBUTION    RADIAL
 FREQUENCY          3056.61         C  5 -- H 14         +66.9% ( 83.0%)    100.0%
 TRANSITION DIPOLE   0.4137         C  4 -- H 13         +29.3% ( 55.0%)    100.0%
 TRAVEL (Ang.)       0.2047         C  2 -- C  5          +1.1% ( 10.5%)     36.2%
 REDUCED MASS        0.5266         C  5 -- C  6          +1.0% ( 10.3%)     25.9%
 EFFECTIVE MASS      1.5085
 FORCE CONSTANT      2.8986

 VIBRATION         50   50A           ATOM PAIR      ENERGY CONTRIBUTION    RADIAL
 FREQUENCY          3073.07         C  6 -- H 15         +55.2% ( 75.4%)    100.0%
 TRANSITION DIPOLE   0.4534         C  4 -- H 13         +31.8% ( 57.2%)     99.9%
 TRAVEL (Ang.)       0.2298         C  5 -- H 14          +9.1% ( 30.6%)    100.0%
 REDUCED MASS        0.4157         C  4 -- C  6          +1.9% ( 13.8%)     96.5%
 EFFECTIVE MASS      1.5947
 FORCE CONSTANT      2.3128

 VIBRATION         51   51A           ATOM PAIR      ENERGY CONTRIBUTION    RADIAL
 FREQUENCY          3112.99         C  9 -- H 19         +57.3% ( 75.8%)     96.5%
 TRANSITION DIPOLE   0.3404         C  9 -- H 20         +40.9% ( 64.1%)     93.3%
 TRAVEL (Ang.)       0.2086         C  9 -- C 10          +1.8% ( 13.3%)     99.1%
 REDUCED MASS        0.4978
 EFFECTIVE MASS      1.4139
 FORCE CONSTANT      2.8421

 VIBRATION         52   52A           ATOM PAIR      ENERGY CONTRIBUTION    RADIAL
 FREQUENCY          3118.16         C  9 -- H 20         +57.2% ( 77.4%)     97.9%
 TRANSITION DIPOLE   0.2226         C  9 -- H 19         +41.6% ( 66.0%)     96.0%
 TRAVEL (Ang.)       0.1993         C  9 -- C 10          +1.2% ( 11.2%)      0.5%
 REDUCED MASS        0.5444
 EFFECTIVE MASS      1.5926
 FORCE CONSTANT      3.1186

 VIBRATION         53   53A           ATOM PAIR      ENERGY CONTRIBUTION    RADIAL
 FREQUENCY          3136.90         C  8 -- H 18         +96.3% ( 99.6%)    100.0%
 TRANSITION DIPOLE   0.2226         C  8 -- H 17          +2.3% ( 15.4%)     42.0%
 TRAVEL (Ang.)       0.1531         C  7 -- C  8          +1.4% ( 11.8%)     33.7%
 REDUCED MASS        0.9171
 EFFECTIVE MASS      1.5129
 FORCE CONSTANT      5.3170

 VIBRATION         54   54A           ATOM PAIR      ENERGY CONTRIBUTION    RADIAL
 FREQUENCY          3145.16         C  8 -- H 17         +95.9% ( 98.9%)     99.9%
 TRANSITION DIPOLE   0.2635         C  8 -- H 18          +1.9% ( 13.7%)      1.6%
 TRAVEL (Ang.)       0.1548         C  7 -- C  8          +1.5% ( 12.5%)     59.0%
 REDUCED MASS        0.8949         C  7 -- H 16          +0.7% (  8.3%)     94.8%
 EFFECTIVE MASS      1.4889
 FORCE CONSTANT      5.2158

      SYMMETRY NUMBER FOR POINT-GROUP C1  =  1


          SYSTEM IS A GROUND STATE



 InChI=1S/C10H10/c1-3-9-7-5-6-8-10(9)4-2/h3,5-7H,1-2,8H2


          MOLECULE IS NOT LINEAR

          THERE ARE 54 GENUINE VIBRATIONS IN THIS SYSTEM
          THIS THERMODYNAMICS CALCULATION IS LIMITED TO
          MOLECULES WHICH HAVE NO INTERNAL ROTATIONS




                    CALCULATED THERMODYNAMIC PROPERTIES
                                          *
   TEMP. (K)   PARTITION FUNCTION   H.O.F.    ENTHALPY  HEAT CAPACITY ENTROPY
                                   KCAL/MOL   CAL/MOLE    CAL/K/MOL  CAL/K/MOL


 298.00  VIB.     0.1872D+04                  4340.1634    30.3978    29.5371
         ROT.     0.6187D+06                   888.2803     2.9808    29.4810
         INT.     0.1158D+10                  5228.4437    33.3786    59.0181
         TRA.     0.1436D+28                  1480.4672     4.9680    40.5022
         TOT.                       90.222    6708.9109    38.3466    99.5203

 200.00  VIB.     0.1731D+03                  1915.6974    19.1841    19.8203
         ROT.     0.3402D+06                   596.1613     2.9808    28.2923
         INT.     0.5889D+08                  2511.8586    22.1649    48.1126
         TRA.     0.7896D+27                   993.6021     4.9680    38.5210
         TOT.                       87.019    3505.4608    27.1329    86.6336

 210.00  VIB.     0.2203D+03                  2113.0268    20.2847    20.7828
         ROT.     0.3660D+06                   625.9693     2.9808    28.4378
         INT.     0.8063D+08                  2738.9961    23.2656    49.2206
         TRA.     0.8496D+27                  1043.2822     4.9680    38.7634
         TOT.                       87.295    3782.2784    28.2336    87.9840

 220.00  VIB.     0.2804D+03                  2321.4480    21.4021    21.7522
         ROT.     0.3925D+06                   655.7774     2.9808    28.5764
         INT.     0.1100D+09                  2977.2254    24.3829    50.3286
         TRA.     0.9110D+27                  1092.9623     4.9680    38.9945
         TOT.                       87.583    4070.1878    29.3509    89.3232

 230.00  VIB.     0.3570D+03                  2541.1164    22.5337    22.7285
         ROT.     0.4195D+06                   685.5855     2.9808    28.7089
         INT.     0.1498D+09                  3226.7019    25.5146    51.4374
         TRA.     0.9738D+27                  1142.6424     4.9680    39.2154
         TOT.                       87.882    4369.3443    30.4826    90.6528

 240.00  VIB.     0.4547D+03                  2772.1618    23.6771    23.7116
         ROT.     0.4472D+06                   715.3935     2.9808    28.8358
         INT.     0.2033D+09                  3487.5554    26.6579    52.5474
         TRA.     0.1038D+28                  1192.3226     4.9680    39.4268
         TOT.                       88.193    4679.8779    31.6259    91.9742

 250.00  VIB.     0.5795D+03                  3014.6873    24.8293    24.7015
         ROT.     0.4754D+06                   745.2016     2.9808    28.9575
         INT.     0.2755D+09                  3759.8889    27.8101    53.6590
         TRA.     0.1103D+28                  1242.0027     4.9680    39.6296
         TOT.                       88.515    5001.8916    32.7781    93.2886

 260.00  VIB.     0.7389D+03                  3268.7681    25.9876    25.6979
         ROT.     0.5042D+06                   775.0097     2.9808    29.0744
         INT.     0.3726D+09                  4043.7777    28.9685    54.7723
         TRA.     0.1170D+28                  1291.6828     4.9680    39.8245
         TOT.                       88.849    5335.4605    33.9365    94.5967

 270.00  VIB.     0.9427D+03                  3534.4515    27.1494    26.7005
         ROT.     0.5336D+06                   804.8177     2.9808    29.1869
         INT.     0.5030D+09                  4339.2692    30.1302    55.8873
         TRA.     0.1239D+28                  1341.3629     4.9680    40.0120
         TOT.                       89.194    5680.6320    35.0982    95.8993

 280.00  VIB.     0.1204D+04                  3811.7577    28.3118    27.7088
         ROT.     0.5635D+06                   834.6258     2.9808    29.2953
         INT.     0.6783D+09                  4646.3834    31.2926    57.0041
         TRA.     0.1308D+28                  1391.0430     4.9680    40.1926
         TOT.                       89.551    6037.4264    36.2606    97.1967

 290.00  VIB.     0.1538D+04                  4100.6807    29.4723    28.7226
         ROT.     0.5940D+06                   864.4339     2.9808    29.3999
         INT.     0.9134D+09                  4965.1145    32.4531    58.1225
         TRA.     0.1379D+28                  1440.7231     4.9680    40.3670
         TOT.                       89.919    6405.8376    37.4211    98.4894

 300.00  VIB.     0.1966D+04                  4401.1899    30.6286    29.7412
         ROT.     0.6250D+06                   894.2419     2.9808    29.5009
         INT.     0.1229D+10                  5295.4318    33.6094    59.2422
         TRA.     0.1451D+28                  1490.4032     4.9680    40.5354
         TOT.                       90.299    6785.8350    38.5774    99.7776

 310.00  VIB.     0.2516D+04                  4713.2315    31.7785    30.7643
         ROT.     0.6565D+06                   924.0500     2.9808    29.5987
         INT.     0.1651D+10                  5637.2815    34.7593    60.3630
         TRA.     0.1524D+28                  1540.0833     4.9680    40.6983
         TOT.                       90.690    7177.3648    39.7273   101.0613

 320.00  VIB.     0.3221D+04                  5036.7311    32.9199    31.7913
         ROT.     0.6885D+06                   953.8580     2.9808    29.6933
         INT.     0.2218D+10                  5990.5892    35.9007    61.4846
         TRA.     0.1598D+28                  1589.7634     4.9680    40.8560
         TOT.                       91.093    7580.3526    40.8687   102.3406

 330.00  VIB.     0.4127D+04                  5371.5950    34.0510    32.8216
         ROT.     0.7210D+06                   983.6661     2.9808    29.7850
         INT.     0.2976D+10                  6355.2611    37.0319    62.6067
         TRA.     0.1674D+28                  1639.4435     4.9680    41.0089
         TOT.                       91.508    7994.7046    41.9999   103.6156

 340.00  VIB.     0.5292D+04                  5717.7127    35.1704    33.8548
         ROT.     0.7540D+06                  1013.4742     2.9808    29.8740
         INT.     0.3990D+10                  6731.1868    38.1512    63.7288
         TRA.     0.1750D+28                  1689.1236     4.9680    41.1572
         TOT.                       91.933    8420.3104    43.1192   104.8860

 350.00  VIB.     0.6789D+04                  6074.9588    36.2765    34.8903
         ROT.     0.7875D+06                  1043.2822     2.9808    29.9604
         INT.     0.5347D+10                  7118.2411    39.2573    64.8507
         TRA.     0.1828D+28                  1738.8037     4.9680    41.3012
         TOT.                       92.370    8857.0448    44.2254   106.1520

 360.00  VIB.     0.8716D+04                  6443.1955    37.3683    35.9276
         ROT.     0.8215D+06                  1073.0903     2.9808    30.0444
         INT.     0.7161D+10                  7516.2858    40.3491    65.9720
         TRA.     0.1907D+28                  1788.4838     4.9680    41.4412
         TOT.                       92.818    9304.7696    45.3171   107.4132

 370.00  VIB.     0.1120D+05                  6822.2735    38.4447    36.9662
         ROT.     0.8560D+06                  1102.8984     2.9808    30.1261
         INT.     0.9585D+10                  7925.1719    41.4255    67.0922
         TRA.     0.1987D+28                  1838.1639     4.9680    41.5773
         TOT.                       93.276    9763.3358    46.3935   108.6695

 380.00  VIB.     0.1439D+05                  7212.0349    39.5048    38.0055
         ROT.     0.8909D+06                  1132.7064     2.9808    30.2056
         INT.     0.1282D+11                  8344.7413    42.4857    68.2111
         TRA.     0.2068D+28                  1887.8440     4.9680    41.7098
         TOT.                       93.746   10232.5854    47.4537   109.9209

 390.00  VIB.     0.1851D+05                  7612.3142    40.5482    39.0452
         ROT.     0.9263D+06                  1162.5145     2.9808    30.2830
         INT.     0.1715D+11                  8774.8287    43.5290    69.3282
         TRA.     0.2150D+28                  1937.5242     4.9680    41.8388
         TOT.                       94.225   10712.3529    48.4970   111.1670

 400.00  VIB.     0.2382D+05                  8022.9401    41.5741    40.0848
         ROT.     0.9622D+06                  1192.3226     2.9808    30.3585
         INT.     0.2292D+11                  9215.2627    44.5549    70.4432
         TRA.     0.2233D+28                  1987.2043     4.9680    41.9646
         TOT.                       94.716   11202.4669    49.5229   112.4078

   *: NOTE: HEATS OF FORMATION ARE RELATIVE TO THE
            ELEMENTS IN THEIR STANDARD STATE AT 298K
              (=  Standard Enthalpy of Formation).

            Hvib:  Zero-point energy is not included.
                   frequencies of less than zero cm-1 are not included.
            Hrot = (3/2)RT
            Htra = (3/2)RT + pV = (5/2)RT

            Heat capacity is Cp, not Cv

          For more information, see: HTTP://OpenMOPAC.net/Manual/thermochemistry.html


           FORCE CONSTANT IN CARTESIAN COORDINATES (Millidynes/A)

    ATOM   CHEMICAL       X               Y               Z
   NUMBER   SYMBOL  FORCE CONSTANT  FORCE CONSTANT  FORCE CONSTANT

      1       C        8.649887        9.464438        7.600932
      2       C       10.869692       14.439600        3.075373
      3       C        9.479041       15.939214        2.507473
      4       C       14.119560       10.150194        2.736508
      5       C       10.696773       14.177222        2.578039
      6       C       13.806531       11.135259        2.642810
      7       C        9.245654        8.265328       10.007095
      8       C        8.776180        7.502044       10.104472
      9       C        1.889431       15.924974        8.372535
     10       C        2.107218       24.492884        1.577184
     11       H        1.306753        0.659297        4.151420
     12       H        2.312076        1.441298        2.481788
     13       H        3.953974        1.861930        0.438013
     14       H        3.944618        1.946861        0.357964
     15       H        0.776973        4.897626        0.583971
     16       H        3.053318        0.776044        2.324581
     17       H        4.417232        1.365291        0.679067
     18       H        3.053299        0.802139        2.576279
     19       H        0.299144        2.028552        3.909352
     20       H        0.294830        1.845863        4.102134

 **********************
 *                    *
 * JOB ENDED NORMALLY *
 *                    *
 **********************



 TOTAL JOB TIME:             3.31 SECONDS

 == MOPAC DONE ==
