 *******************************************************************************
 **                                                                           **
 **                              MOPAC v23.1.2                                **
 **                                                                           **
 *******************************************************************************
 **          Digital Object Identifier (DOI): 10.5281/zenodo.6511958          **
 **    Visit the DOI location for information on how to cite this program.    **
 *******************************************************************************

                              PM3 CALCULATION RESULTS

 *******************************************************************************
 *  CALCULATION DONE: (MAX THREADS = 1)              Tue Jun  3 16:34:55 2025  *
 *  PM3        - The PM3 Hamiltonian to be used
 *  PRECISE    - TIGHTER CRITERIA TO BE USED
 *  NOSYM      - POINT-GROUP SYMMETRY SET TO C1
 *  THREADS=1  - MULTI-THREADING NOT USED
 *  T=         - A TIME OF 172800.0 SECONDS REQUESTED
 *  DUMP=N     - RESTART FILE WRITTEN EVERY 7200.0 SECONDS REQUESTED
 *******************************************************************************
pm3  precise nosym THREADS=1
 InChI=1S/C12H20/c1-4-10-8-7-9-11(5-2)12(10)6-3/h6-8,10-12H,3-5,9H2,1-2H3

   ATOM   CHEMICAL          X               Y               Z
  NUMBER   SYMBOL      (ANGSTROMS)     (ANGSTROMS)     (ANGSTROMS)

     1       C          0.98390000  *  -0.27070000  *   0.06950000  *
     2       C         -0.15250000  *   0.75510000  *   0.32880000  *
     3       C         -1.53550000  *   0.14540000  *  -0.03170000  *
     4       C          2.35920000  *   0.28760000  *   0.50930000  *
     5       C         -2.02830000  *  -0.83630000  *   1.05910000  *
     6       C          0.99240000  *  -0.72480000  *  -1.40760000  *
     7       C         -3.50650000  *  -1.19600000  *   0.89960000  *
     8       C          3.44780000  *  -0.78540000  *   0.54640000  *
     9       C         -1.51110000  *  -0.54000000  *  -1.38360000  *
    10       C         -0.38610000  *  -1.00350000  *  -1.95210000  *
    11       C          0.06490000  *   2.04020000  *  -0.45080000  *
    12       C          0.44940000  *   3.17400000  *   0.14370000  *
    13       H          0.77860000  *  -1.16480000  *   0.69810000  *
    14       H         -2.27210000  *   0.97880000  *  -0.08580000  *
    15       H         -0.15580000  *   0.99890000  *   1.41580000  *
    16       H         -1.43060000  *  -1.77290000  *   1.04010000  *
    17       H         -1.90330000  *  -0.37410000  *   2.06240000  *
    18       H          2.26990000  *   0.71560000  *   1.53170000  *
    19       H          2.68260000  *   1.10500000  *  -0.17130000  *
    20       H          1.46310000  *   0.05420000  *  -2.04520000  *
    21       H          1.59380000  *  -1.65290000  *  -1.50680000  *
    22       H         -4.13210000  *  -0.27830000  *   0.90110000  *
    23       H         -3.82360000  *  -1.83980000  *   1.74700000  *
    24       H         -3.67540000  *  -1.75650000  *  -0.04330000  *
    25       H          4.37950000  *  -0.35120000  *   0.96650000  *
    26       H          3.13470000  *  -1.63590000  *   1.18840000  *
    27       H          3.67020000  *  -1.15480000  *  -0.47610000  *
    28       H         -0.46000000  *  -1.50770000  *  -2.91090000  *
    29       H         -2.45720000  *  -0.73370000  *  -1.87990000  *
    30       H         -0.06110000  *   2.03560000  *  -1.52970000  *
    31       H          0.61190000  *   4.06820000  *  -0.44900000  *
    32       H          0.60920000  *   3.22080000  *   1.21640000  *



          CARTESIAN COORDINATES 

    NO.       ATOM           X           Y           Z

     1         C          0.9839     -0.2707      0.0695
     2         C         -0.1525      0.7551      0.3288
     3         C         -1.5355      0.1454     -0.0317
     4         C          2.3592      0.2876      0.5093
     5         C         -2.0283     -0.8363      1.0591
     6         C          0.9924     -0.7248     -1.4076
     7         C         -3.5065     -1.1960      0.8996
     8         C          3.4478     -0.7854      0.5464
     9         C         -1.5111     -0.5400     -1.3836
    10         C         -0.3861     -1.0035     -1.9521
    11         C          0.0649      2.0402     -0.4508
    12         C          0.4494      3.1740      0.1437
    13         H          0.7786     -1.1648      0.6981
    14         H         -2.2721      0.9788     -0.0858
    15         H         -0.1558      0.9989      1.4158
    16         H         -1.4306     -1.7729      1.0401
    17         H         -1.9033     -0.3741      2.0624
    18         H          2.2699      0.7156      1.5317
    19         H          2.6826      1.1050     -0.1713
    20         H          1.4631      0.0542     -2.0452
    21         H          1.5938     -1.6529     -1.5068
    22         H         -4.1321     -0.2783      0.9011
    23         H         -3.8236     -1.8398      1.7470
    24         H         -3.6754     -1.7565     -0.0433
    25         H          4.3795     -0.3512      0.9665
    26         H          3.1347     -1.6359      1.1884
    27         H          3.6702     -1.1548     -0.4761
    28         H         -0.4600     -1.5077     -2.9109
    29         H         -2.4572     -0.7337     -1.8799
    30         H         -0.0611      2.0356     -1.5297
    31         H          0.6119      4.0682     -0.4490
    32         H          0.6092      3.2208      1.2164

  H: (PM3): J. J. P. STEWART, J. COMP. CHEM. 10, 209 (1989).
  C: (PM3): J. J. P. STEWART, J. COMP. CHEM. 10, 209 (1989).

           Empirical Formula: C12 H20  =    32 atoms



      MOLECULAR POINT GROUP   :   C1  


      RHF CALCULATION, NO. OF DOUBLY OCCUPIED LEVELS = 34


          Geometry optimization using EF

          DIAGONAL MATRIX USED AS START HESSIAN

 CYCLE:     1 TIME:   0.012 TIME LEFT:  2.00D  GRAD.:    74.569 HEAT:  1.173990
 CYCLE:     2 TIME:   0.027 TIME LEFT:  2.00D  GRAD.:    55.213 HEAT:-0.4489369
 CYCLE:     3 TIME:   0.012 TIME LEFT:  2.00D  GRAD.:    85.793 HEAT:-0.5014860
 CYCLE:     4 TIME:   0.012 TIME LEFT:  2.00D  GRAD.:    63.352 HEAT:-0.8346155
 CYCLE:     5 TIME:   0.008 TIME LEFT:  2.00D  GRAD.:    65.268 HEAT: -1.252093
 CYCLE:     6 TIME:   0.020 TIME LEFT:  2.00D  GRAD.:    34.854 HEAT: -1.987076
 CYCLE:     7 TIME:   0.020 TIME LEFT:  2.00D  GRAD.:    27.664 HEAT: -2.215686
 CYCLE:     8 TIME:   0.008 TIME LEFT:  2.00D  GRAD.:    28.800 HEAT: -2.242334
 CYCLE:     9 TIME:   0.012 TIME LEFT:  2.00D  GRAD.:    23.865 HEAT: -2.377631
 CYCLE:    10 TIME:   0.012 TIME LEFT:  2.00D  GRAD.:    25.831 HEAT: -2.396731
 CYCLE:    11 TIME:   0.012 TIME LEFT:  2.00D  GRAD.:    25.054 HEAT: -2.454302
 CYCLE:    12 TIME:   0.012 TIME LEFT:  2.00D  GRAD.:    21.523 HEAT: -2.543538
 CYCLE:    13 TIME:   0.012 TIME LEFT:  2.00D  GRAD.:    25.515 HEAT: -2.544791
 CYCLE:    14 TIME:   0.016 TIME LEFT:  2.00D  GRAD.:    10.071 HEAT: -2.697415
 CYCLE:    15 TIME:   0.020 TIME LEFT:  2.00D  GRAD.:     8.012 HEAT: -2.721764
 CYCLE:    16 TIME:   0.008 TIME LEFT:  2.00D  GRAD.:     5.485 HEAT: -2.750724
 CYCLE:    17 TIME:   0.012 TIME LEFT:  2.00D  GRAD.:    11.571 HEAT: -2.759202
 CYCLE:    18 TIME:   0.012 TIME LEFT:  2.00D  GRAD.:    11.362 HEAT: -2.790633
 CYCLE:    19 TIME:   0.016 TIME LEFT:  2.00D  GRAD.:    11.286 HEAT: -2.799559
 CYCLE:    20 TIME:   0.012 TIME LEFT:  2.00D  GRAD.:    10.079 HEAT: -2.816342
 CYCLE:    21 TIME:   0.012 TIME LEFT:  2.00D  GRAD.:    12.273 HEAT: -2.819019
 CYCLE:    22 TIME:   0.008 TIME LEFT:  2.00D  GRAD.:     5.300 HEAT: -2.852848
 CYCLE:    23 TIME:   0.020 TIME LEFT:  2.00D  GRAD.:     5.658 HEAT: -2.857047
 CYCLE:    24 TIME:   0.008 TIME LEFT:  2.00D  GRAD.:     3.890 HEAT: -2.865977
 CYCLE:    25 TIME:   0.020 TIME LEFT:  2.00D  GRAD.:     3.557 HEAT: -2.870765
 CYCLE:    26 TIME:   0.008 TIME LEFT:  2.00D  GRAD.:     1.743 HEAT: -2.877227
 CYCLE:    27 TIME:   0.016 TIME LEFT:  2.00D  GRAD.:     6.229 HEAT: -2.882979
 CYCLE:    28 TIME:   0.023 TIME LEFT:  2.00D  GRAD.:     5.850 HEAT: -2.888041
 CYCLE:    29 TIME:   0.016 TIME LEFT:  2.00D  GRAD.:     2.960 HEAT: -2.895939
 CYCLE:    30 TIME:   0.012 TIME LEFT:  2.00D  GRAD.:     2.508 HEAT: -2.899569
 CYCLE:    31 TIME:   0.008 TIME LEFT:  2.00D  GRAD.:     3.370 HEAT: -2.904143
 CYCLE:    32 TIME:   0.012 TIME LEFT:  2.00D  GRAD.:     3.101 HEAT: -2.907964
 CYCLE:    33 TIME:   0.012 TIME LEFT:  2.00D  GRAD.:     5.216 HEAT: -2.909499
 CYCLE:    34 TIME:   0.008 TIME LEFT:  2.00D  GRAD.:     5.213 HEAT: -2.913096
 CYCLE:    35 TIME:   0.012 TIME LEFT:  2.00D  GRAD.:     2.902 HEAT: -2.920186
 CYCLE:    36 TIME:   0.008 TIME LEFT:  2.00D  GRAD.:     2.015 HEAT: -2.923630
 CYCLE:    37 TIME:   0.012 TIME LEFT:  2.00D  GRAD.:     2.206 HEAT: -2.926433
 CYCLE:    38 TIME:   0.012 TIME LEFT:  2.00D  GRAD.:     1.955 HEAT: -2.930578
 CYCLE:    39 TIME:   0.012 TIME LEFT:  2.00D  GRAD.:     2.131 HEAT: -2.937071
 CYCLE:    40 TIME:   0.012 TIME LEFT:  2.00D  GRAD.:     3.201 HEAT: -2.941764
 CYCLE:    41 TIME:   0.008 TIME LEFT:  2.00D  GRAD.:     2.086 HEAT: -2.948092
 CYCLE:    42 TIME:   0.012 TIME LEFT:  2.00D  GRAD.:     1.873 HEAT: -2.952353
 CYCLE:    43 TIME:   0.012 TIME LEFT:  2.00D  GRAD.:     1.965 HEAT: -2.956996
 CYCLE:    44 TIME:   0.008 TIME LEFT:  2.00D  GRAD.:     2.645 HEAT: -2.962915
 CYCLE:    45 TIME:   0.016 TIME LEFT:  2.00D  GRAD.:     3.259 HEAT: -2.968101
 CYCLE:    46 TIME:   0.008 TIME LEFT:  2.00D  GRAD.:     2.347 HEAT: -2.974368
 CYCLE:    47 TIME:   0.012 TIME LEFT:  2.00D  GRAD.:     1.958 HEAT: -2.979659
 CYCLE:    48 TIME:   0.008 TIME LEFT:  2.00D  GRAD.:     2.011 HEAT: -2.983421
 CYCLE:    49 TIME:   0.012 TIME LEFT:  2.00D  GRAD.:     1.760 HEAT: -2.988576
 CYCLE:    50 TIME:   0.012 TIME LEFT:  2.00D  GRAD.:     1.662 HEAT: -2.992973
 CYCLE:    51 TIME:   0.012 TIME LEFT:  2.00D  GRAD.:     1.972 HEAT: -2.996942
 CYCLE:    52 TIME:   0.012 TIME LEFT:  2.00D  GRAD.:     1.755 HEAT: -3.001859
 CYCLE:    53 TIME:   0.012 TIME LEFT:  2.00D  GRAD.:     1.648 HEAT: -3.008091
 CYCLE:    54 TIME:   0.008 TIME LEFT:  2.00D  GRAD.:     1.521 HEAT: -3.011851
 CYCLE:    55 TIME:   0.012 TIME LEFT:  2.00D  GRAD.:     1.257 HEAT: -3.015099
 CYCLE:    56 TIME:   0.012 TIME LEFT:  2.00D  GRAD.:     1.247 HEAT: -3.019244
 CYCLE:    57 TIME:   0.012 TIME LEFT:  2.00D  GRAD.:     1.120 HEAT: -3.022096
 CYCLE:    58 TIME:   0.012 TIME LEFT:  2.00D  GRAD.:     0.967 HEAT: -3.024340
 CYCLE:    59 TIME:   0.008 TIME LEFT:  2.00D  GRAD.:     0.923 HEAT: -3.026326
 CYCLE:    60 TIME:   0.012 TIME LEFT:  2.00D  GRAD.:     0.948 HEAT: -3.028288
 CYCLE:    61 TIME:   0.012 TIME LEFT:  2.00D  GRAD.:     0.807 HEAT: -3.030009
 CYCLE:    62 TIME:   0.012 TIME LEFT:  2.00D  GRAD.:     0.694 HEAT: -3.031854
 CYCLE:    63 TIME:   0.012 TIME LEFT:  2.00D  GRAD.:     0.742 HEAT: -3.033342
 CYCLE:    64 TIME:   0.012 TIME LEFT:  2.00D  GRAD.:     0.800 HEAT: -3.034945
 CYCLE:    65 TIME:   0.008 TIME LEFT:  2.00D  GRAD.:     0.884 HEAT: -3.036762
 CYCLE:    66 TIME:   0.012 TIME LEFT:  2.00D  GRAD.:     0.936 HEAT: -3.039122
 CYCLE:    67 TIME:   0.008 TIME LEFT:  2.00D  GRAD.:     0.983 HEAT: -3.041678
 CYCLE:    68 TIME:   0.016 TIME LEFT:  2.00D  GRAD.:     1.044 HEAT: -3.044295
 CYCLE:    69 TIME:   0.008 TIME LEFT:  2.00D  GRAD.:     0.999 HEAT: -3.046751
 CYCLE:    70 TIME:   0.012 TIME LEFT:  2.00D  GRAD.:     0.968 HEAT: -3.049364
 CYCLE:    71 TIME:   0.012 TIME LEFT:  2.00D  GRAD.:     0.991 HEAT: -3.051980
 CYCLE:    72 TIME:   0.012 TIME LEFT:  2.00D  GRAD.:     0.940 HEAT: -3.054454
 CYCLE:    73 TIME:   0.012 TIME LEFT:  2.00D  GRAD.:     0.858 HEAT: -3.056476
 CYCLE:    74 TIME:   0.012 TIME LEFT:  2.00D  GRAD.:     0.755 HEAT: -3.058094
 CYCLE:    75 TIME:   0.012 TIME LEFT:  2.00D  GRAD.:     0.646 HEAT: -3.059316
 CYCLE:    76 TIME:   0.008 TIME LEFT:  2.00D  GRAD.:     0.593 HEAT: -3.060182
 CYCLE:    77 TIME:   0.012 TIME LEFT:  2.00D  GRAD.:     0.488 HEAT: -3.060847
 CYCLE:    78 TIME:   0.012 TIME LEFT:  2.00D  GRAD.:     0.456 HEAT: -3.061406
 CYCLE:    79 TIME:   0.012 TIME LEFT:  2.00D  GRAD.:     0.512 HEAT: -3.061993
 CYCLE:    80 TIME:   0.012 TIME LEFT:  2.00D  GRAD.:     0.496 HEAT: -3.062577
 CYCLE:    81 TIME:   0.012 TIME LEFT:  2.00D  GRAD.:     0.486 HEAT: -3.063169
 CYCLE:    82 TIME:   0.012 TIME LEFT:  2.00D  GRAD.:     0.486 HEAT: -3.063766
 CYCLE:    83 TIME:   0.012 TIME LEFT:  2.00D  GRAD.:     0.548 HEAT: -3.064453
 CYCLE:    84 TIME:   0.012 TIME LEFT:  2.00D  GRAD.:     0.625 HEAT: -3.065276
 CYCLE:    85 TIME:   0.008 TIME LEFT:  2.00D  GRAD.:     0.595 HEAT: -3.066045
 CYCLE:    86 TIME:   0.012 TIME LEFT:  2.00D  GRAD.:     0.547 HEAT: -3.066761
 CYCLE:    87 TIME:   0.012 TIME LEFT:  2.00D  GRAD.:     0.563 HEAT: -3.067433
 CYCLE:    88 TIME:   0.012 TIME LEFT:  2.00D  GRAD.:     0.624 HEAT: -3.068202
 CYCLE:    89 TIME:   0.012 TIME LEFT:  2.00D  GRAD.:     0.687 HEAT: -3.069207
 CYCLE:    90 TIME:   0.012 TIME LEFT:  2.00D  GRAD.:     0.685 HEAT: -3.070249
 CYCLE:    91 TIME:   0.012 TIME LEFT:  2.00D  GRAD.:     0.616 HEAT: -3.071167
 CYCLE:    92 TIME:   0.012 TIME LEFT:  2.00D  GRAD.:     0.664 HEAT: -3.072224
 CYCLE:    93 TIME:   0.012 TIME LEFT:  2.00D  GRAD.:     0.758 HEAT: -3.073377
 CYCLE:    94 TIME:   0.016 TIME LEFT:  2.00D  GRAD.:     0.847 HEAT: -3.074888
 CYCLE:    95 TIME:   0.012 TIME LEFT:  2.00D  GRAD.:     1.012 HEAT: -3.077020
 CYCLE:    96 TIME:   0.012 TIME LEFT:  2.00D  GRAD.:     0.836 HEAT: -3.078312
 CYCLE:    97 TIME:   0.012 TIME LEFT:  2.00D  GRAD.:     0.849 HEAT: -3.080466
 CYCLE:    98 TIME:   0.012 TIME LEFT:  2.00D  GRAD.:     0.773 HEAT: -3.081708
 CYCLE:    99 TIME:   0.012 TIME LEFT:  2.00D  GRAD.:     0.714 HEAT: -3.083133
 CYCLE:   100 TIME:   0.012 TIME LEFT:  2.00D  GRAD.:     0.582 HEAT: -3.083850
 CYCLE:   101 TIME:   0.012 TIME LEFT:  2.00D  GRAD.:     0.424 HEAT: -3.084312
 CYCLE:   102 TIME:   0.012 TIME LEFT:  2.00D  GRAD.:     0.362 HEAT: -3.084646
 CYCLE:   103 TIME:   0.008 TIME LEFT:  2.00D  GRAD.:     0.341 HEAT: -3.085024
 CYCLE:   104 TIME:   0.012 TIME LEFT:  2.00D  GRAD.:     0.364 HEAT: -3.085337
 CYCLE:   105 TIME:   0.012 TIME LEFT:  2.00D  GRAD.:     0.334 HEAT: -3.085537
 CYCLE:   106 TIME:   0.012 TIME LEFT:  2.00D  GRAD.:     0.326 HEAT: -3.085767
 CYCLE:   107 TIME:   0.012 TIME LEFT:  2.00D  GRAD.:     0.389 HEAT: -3.086023
 CYCLE:   108 TIME:   0.012 TIME LEFT:  2.00D  GRAD.:     0.427 HEAT: -3.086340
 CYCLE:   109 TIME:   0.008 TIME LEFT:  2.00D  GRAD.:     0.462 HEAT: -3.086764
 CYCLE:   110 TIME:   0.012 TIME LEFT:  2.00D  GRAD.:     0.443 HEAT: -3.087209
 CYCLE:   111 TIME:   0.012 TIME LEFT:  2.00D  GRAD.:     0.454 HEAT: -3.087658
 CYCLE:   112 TIME:   0.012 TIME LEFT:  2.00D  GRAD.:     0.510 HEAT: -3.088056
 CYCLE:   113 TIME:   0.012 TIME LEFT:  2.00D  GRAD.:     0.574 HEAT: -3.088498
 CYCLE:   114 TIME:   0.012 TIME LEFT:  2.00D  GRAD.:     0.625 HEAT: -3.089030
 CYCLE:   115 TIME:   0.012 TIME LEFT:  2.00D  GRAD.:     0.614 HEAT: -3.089802
 CYCLE:   116 TIME:   0.008 TIME LEFT:  2.00D  GRAD.:     0.505 HEAT: -3.090349
 CYCLE:   117 TIME:   0.012 TIME LEFT:  2.00D  GRAD.:     0.564 HEAT: -3.091011
 CYCLE:   118 TIME:   0.012 TIME LEFT:  2.00D  GRAD.:     0.380 HEAT: -3.091250
 CYCLE:   119 TIME:   0.012 TIME LEFT:  2.00D  GRAD.:     0.378 HEAT: -3.091661
 CYCLE:   120 TIME:   0.012 TIME LEFT:  2.00D  GRAD.:     0.345 HEAT: -3.091855
 CYCLE:   121 TIME:   0.008 TIME LEFT:  2.00D  GRAD.:     0.243 HEAT: -3.092012
 CYCLE:   122 TIME:   0.012 TIME LEFT:  2.00D  GRAD.:     0.233 HEAT: -3.092168
 CYCLE:   123 TIME:   0.012 TIME LEFT:  2.00D  GRAD.:     0.262 HEAT: -3.092298
 CYCLE:   124 TIME:   0.012 TIME LEFT:  2.00D  GRAD.:     0.284 HEAT: -3.092407
 CYCLE:   125 TIME:   0.012 TIME LEFT:  2.00D  GRAD.:     0.354 HEAT: -3.092606
 CYCLE:   126 TIME:   0.008 TIME LEFT:  2.00D  GRAD.:     0.279 HEAT: -3.092729
 CYCLE:   127 TIME:   0.012 TIME LEFT:  2.00D  GRAD.:     1.074 HEAT: -3.092699
 CYCLE:   128 TIME:   0.012 TIME LEFT:  2.00D  GRAD.:     0.356 HEAT: -3.093190
 CYCLE:   129 TIME:   0.012 TIME LEFT:  2.00D  GRAD.:     0.251 HEAT: -3.093381
 CYCLE:   130 TIME:   0.008 TIME LEFT:  2.00D  GRAD.:     0.406 HEAT: -3.093816
 CYCLE:   131 TIME:   0.016 TIME LEFT:  2.00D  GRAD.:     0.340 HEAT: -3.094123
 CYCLE:   132 TIME:   0.008 TIME LEFT:  2.00D  GRAD.:     0.301 HEAT: -3.094289
 CYCLE:   133 TIME:   0.012 TIME LEFT:  2.00D  GRAD.:     0.258 HEAT: -3.094393
 CYCLE:   134 TIME:   0.012 TIME LEFT:  2.00D  GRAD.:     0.237 HEAT: -3.094530
 CYCLE:   135 TIME:   0.012 TIME LEFT:  2.00D  GRAD.:     0.147 HEAT: -3.094617
 CYCLE:   136 TIME:   0.008 TIME LEFT:  2.00D  GRAD.:     0.177 HEAT: -3.094682
 CYCLE:   137 TIME:   0.012 TIME LEFT:  2.00D  GRAD.:     0.177 HEAT: -3.094722
 CYCLE:   138 TIME:   0.012 TIME LEFT:  2.00D  GRAD.:     0.146 HEAT: -3.094794
 CYCLE:   139 TIME:   0.012 TIME LEFT:  2.00D  GRAD.:     0.188 HEAT: -3.094845
 CYCLE:   140 TIME:   0.008 TIME LEFT:  2.00D  GRAD.:     0.251 HEAT: -3.094924
 CYCLE:   141 TIME:   0.012 TIME LEFT:  2.00D  GRAD.:     0.250 HEAT: -3.095041
 CYCLE:   142 TIME:   0.012 TIME LEFT:  2.00D  GRAD.:     0.219 HEAT: -3.095184
 CYCLE:   143 TIME:   0.012 TIME LEFT:  2.00D  GRAD.:     0.246 HEAT: -3.095336
 CYCLE:   144 TIME:   0.008 TIME LEFT:  2.00D  GRAD.:     0.257 HEAT: -3.095435
 CYCLE:   145 TIME:   0.012 TIME LEFT:  2.00D  GRAD.:     0.318 HEAT: -3.095575
 CYCLE:   146 TIME:   0.012 TIME LEFT:  2.00D  GRAD.:     0.274 HEAT: -3.095669
 CYCLE:   147 TIME:   0.012 TIME LEFT:  2.00D  GRAD.:     0.858 HEAT: -3.095729
 CYCLE:   148 TIME:   0.012 TIME LEFT:  2.00D  GRAD.:     0.256 HEAT: -3.096190
 CYCLE:   149 TIME:   0.008 TIME LEFT:  2.00D  GRAD.:     0.138 HEAT: -3.096304
 CYCLE:   150 TIME:   0.012 TIME LEFT:  2.00D  GRAD.:     0.192 HEAT: -3.096433
 CYCLE:   151 TIME:   0.012 TIME LEFT:  2.00D  GRAD.:     0.184 HEAT: -3.096486
 CYCLE:   152 TIME:   0.012 TIME LEFT:  2.00D  GRAD.:     0.123 HEAT: -3.096595
 CYCLE:   153 TIME:   0.012 TIME LEFT:  2.00D  GRAD.:     0.173 HEAT: -3.096682
 CYCLE:   154 TIME:   0.012 TIME LEFT:  2.00D  GRAD.:     0.149 HEAT: -3.096751
 CYCLE:   155 TIME:   0.012 TIME LEFT:  2.00D  GRAD.:     0.126 HEAT: -3.096800
 CYCLE:   156 TIME:   0.012 TIME LEFT:  2.00D  GRAD.:     0.251 HEAT: -3.096937
 CYCLE:   157 TIME:   0.012 TIME LEFT:  2.00D  GRAD.:     0.305 HEAT: -3.097032
 CYCLE:   158 TIME:   0.012 TIME LEFT:  2.00D  GRAD.:     0.142 HEAT: -3.097163
 CYCLE:   159 TIME:   0.012 TIME LEFT:  2.00D  GRAD.:     0.112 HEAT: -3.097212
 CYCLE:   160 TIME:   0.012 TIME LEFT:  2.00D  GRAD.:     0.112 HEAT: -3.097233
 CYCLE:   161 TIME:   0.012 TIME LEFT:  2.00D  GRAD.:     0.070 HEAT: -3.097264
 CYCLE:   162 TIME:   0.008 TIME LEFT:  2.00D  GRAD.:     0.054 HEAT: -3.097276
 CYCLE:   163 TIME:   0.012 TIME LEFT:  2.00D  GRAD.:     0.047 HEAT: -3.097286

     GRADIENT =  0.04704 IS LESS THAN CUTOFF =  0.05000



 -------------------------------------------------------------------------------
 pm3  precise nosym THREADS=1
 InChI=1S/C12H20/c1-4-10-8-7-9-11(5-2)12(10)6-3/h6-8,10-12H,3-5,9H2,1-2H3



     GEOMETRY OPTIMISED USING EIGENVECTOR FOLLOWING (EF).     
     SCF FIELD WAS ACHIEVED                                   


                              PM3 CALCULATION
                                                       MOPAC v23.1.2 MacOS
                                                       Tue Jun  3 16:34:57 2025




          FINAL HEAT OF FORMATION =         -3.09729 KCAL/MOL =     -12.95904 KJ/MOL


          COSMO AREA              =        223.48 SQUARE ANGSTROMS
          COSMO VOLUME            =        244.05 CUBIC ANGSTROMS

          GRADIENT NORM           =          0.04704          =       0.00832 PER ATOM
          IONIZATION POTENTIAL    =          9.676617 EV
          HOMO LUMO ENERGIES (EV) =         -9.677  1.122
          NO. OF FILLED LEVELS    =         34
          MOLECULAR WEIGHT        =        164.2900         POINT GROUP:  C1  

          MOLECULAR DIMENSIONS (Angstroms)

            Atom       Atom       Distance
            H    25    H    22     8.47293
            H    32    H    28     6.42913
            H    31    H    23     5.40933


          SCF CALCULATIONS        =        176

          WALL-CLOCK TIME         =      1.902 SECONDS
          COMPUTATION TIME        =      1.432 SECONDS




   ATOM   CHEMICAL          X               Y               Z
  NUMBER   SYMBOL      (ANGSTROMS)     (ANGSTROMS)     (ANGSTROMS)

     1       C          1.01574598  *  -0.29954381  *   0.01977562  *
     2       C         -0.11604051  *   0.69992945  *   0.31469543  *
     3       C         -1.48850541  *   0.10965655  *  -0.07046555  *
     4       C          2.36805013  *   0.25796900  *   0.46559409  *
     5       C         -2.02541195  *  -0.78803405  *   1.05187088  *
     6       C          1.03274999  *  -0.69792550  *  -1.45500744  *
     7       C         -3.51686926  *  -1.01546341  *   0.94706712  *
     8       C          3.44008437  *  -0.80638916  *   0.53856751  *
     9       C         -1.44781720  *  -0.64799348  *  -1.35764164  *
    10       C         -0.32296454  *  -1.01024466  *  -1.97411669  *
    11       C          0.08306532  *   2.00130849  *  -0.40107080  *
    12       C          0.21635158  *   3.16102370  *   0.23159621  *
    13       H          0.79999123  *  -1.21881282  *   0.62211701  *
    14       H         -2.19879406  *   0.96396417  *  -0.20771142  *
    15       H         -0.12131434  *   0.89303006  *   1.41935932  *
    16       H         -1.49130971  *  -1.75906281  *   1.04589953  *
    17       H         -1.79190072  *  -0.32494794  *   2.03268354  *
    18       H          2.25655344  *   0.73447600  *   1.46080958  *
    19       H          2.68271323  *   1.07258564  *  -0.21780316  *
    20       H          1.47062906  *   0.11033994  *  -2.07755891  *
    21       H          1.69416364  *  -1.57668588  *  -1.59685498  *
    22       H         -4.07665187  *  -0.07149690  *   0.99214082  *
    23       H         -3.87811335  *  -1.65004235  *   1.76657026  *
    24       H         -3.79001600  *  -1.51098841  *   0.00547856  *
    25       H          4.38985692  *  -0.38620704  *   0.89369042  *
    26       H          3.16242591  *  -1.61693895  *   1.22574750  *
    27       H          3.63190520  *  -1.26282587  *  -0.44220440  *
    28       H         -0.35947653  *  -1.55641739  *  -2.92367829  *
    29       H         -2.42421638  *  -0.90949189  *  -1.78380335  *
    30       H          0.10293628  *   1.94647372  *  -1.49687867  *
    31       H          0.35125249  *   4.10109794  *  -0.29453763  *
    32       H          0.20164617  *   3.25712868  *   1.31416201  *

                             CARTESIAN COORDINATES

   1    C        1.015745981    -0.299543813     0.019775615
   2    C       -0.116040508     0.699929448     0.314695432
   3    C       -1.488505408     0.109656550    -0.070465546
   4    C        2.368050128     0.257969000     0.465594085
   5    C       -2.025411950    -0.788034050     1.051870879
   6    C        1.032749993    -0.697925505    -1.455007442
   7    C       -3.516869264    -1.015463409     0.947067123
   8    C        3.440084372    -0.806389164     0.538567506
   9    C       -1.447817202    -0.647993484    -1.357641636
  10    C       -0.322964535    -1.010244661    -1.974116695
  11    C        0.083065322     2.001308494    -0.401070804
  12    C        0.216351577     3.161023704     0.231596211
  13    H        0.799991227    -1.218812825     0.622117013
  14    H       -2.198794061     0.963964166    -0.207711419
  15    H       -0.121314335     0.893030063     1.419359324
  16    H       -1.491309715    -1.759062809     1.045899533
  17    H       -1.791900716    -0.324947943     2.032683540
  18    H        2.256553442     0.734475996     1.460809579
  19    H        2.682713227     1.072585635    -0.217803161
  20    H        1.470629056     0.110339942    -2.077558908
  21    H        1.694163642    -1.576685876    -1.596854983
  22    H       -4.076651871    -0.071496899     0.992140823
  23    H       -3.878113353    -1.650042345     1.766570259
  24    H       -3.790016000    -1.510988411     0.005478557
  25    H        4.389856920    -0.386207037     0.893690423
  26    H        3.162425907    -1.616938952     1.225747498
  27    H        3.631905204    -1.262825867    -0.442204400
  28    H       -0.359476529    -1.556417389    -2.923678289
  29    H       -2.424216377    -0.909491890    -1.783803350
  30    H        0.102936278     1.946473717    -1.496878674
  31    H        0.351252489     4.101097939    -0.294537631
  32    H        0.201646171     3.257128679     1.314162009


           Empirical Formula: C12 H20  =    32 atoms



      MOLECULAR POINT GROUP   :   C1  


                  EIGENVALUES  
 -42.54903 -36.26546 -33.40905 -32.86048 -28.21260 -27.90153 -23.67683 -22.58536
 -21.30913 -20.66784 -19.36429 -17.37581 -17.12386 -16.22064 -15.93302 -15.35110
 -15.25559 -15.02853 -14.47901 -14.32112 -13.84515 -13.60444 -13.53532 -13.02057
 -12.86224 -12.50802 -12.38718 -11.87936 -11.74306 -11.65144 -11.27286 -11.18603
 -10.18704  -9.67662   1.12195   1.19641   3.22407   3.36631   3.41609   3.62350
   3.67568   3.77298   3.79683   3.84836   3.87406   3.96777   4.01261   4.05375
   4.11808   4.15486   4.21613   4.28488   4.37480   4.48305   4.56537   4.58117
   4.65026   4.75617   4.92705   4.99465   5.02785   5.07990   5.12486   5.20266
   5.65286   5.78101   5.92595   6.01831


              NET ATOMIC CHARGES AND DIPOLE CONTRIBUTIONS

  ATOM NO.   TYPE          CHARGE      No. of ELECS.   s-Pop       p-Pop       
    1          C          -0.072909        4.0729     1.17959     2.89332
    2          C          -0.045673        4.0457     1.17485     2.87083
    3          C          -0.038408        4.0384     1.16936     2.86905
    4          C          -0.100330        4.1003     1.16155     2.93878
    5          C          -0.095812        4.0958     1.16250     2.93331
    6          C          -0.064043        4.0640     1.14910     2.91495
    7          C          -0.111361        4.1114     1.13876     2.97260
    8          C          -0.111351        4.1114     1.13877     2.97258
    9          C          -0.147854        4.1479     1.19549     2.95236
   10          C          -0.143325        4.1433     1.19333     2.94999
   11          C          -0.134693        4.1347     1.19783     2.93686
   12          C          -0.167041        4.1670     1.18307     2.98397
   13          H           0.068456        0.9315     0.93154
   14          H           0.073037        0.9270     0.92696
   15          H           0.069349        0.9307     0.93065
   16          H           0.054698        0.9453     0.94530
   17          H           0.049952        0.9500     0.95005
   18          H           0.050800        0.9492     0.94920
   19          H           0.055686        0.9443     0.94431
   20          H           0.061205        0.9388     0.93879
   21          H           0.057776        0.9422     0.94222
   22          H           0.038159        0.9618     0.96184
   23          H           0.037523        0.9625     0.96248
   24          H           0.040040        0.9600     0.95996
   25          H           0.037538        0.9625     0.96246
   26          H           0.038138        0.9619     0.96186
   27          H           0.039078        0.9609     0.96092
   28          H           0.096329        0.9037     0.90367
   29          H           0.099927        0.9001     0.90007
   30          H           0.104934        0.8951     0.89507
   31          H           0.079047        0.9210     0.92095
   32          H           0.081128        0.9189     0.91887
 DIPOLE           X         Y         Z       TOTAL
 POINT-CHG.     0.094    -0.114     0.130     0.197
 HYBRID        -0.026    -0.009    -0.067     0.072
 SUM            0.068    -0.123     0.064     0.154


          ATOMIC ORBITAL ELECTRON POPULATIONS

     Atom    s        px        py        pz   
    1  C   1.17959   0.94427   0.98383   0.96522
    2  C   1.17485   0.94480   0.93411   0.99191
    3  C   1.16936   0.96212   0.97166   0.93528
    4  C   1.16155   0.94580   0.97820   1.01478
    5  C   1.16250   0.95970   1.00012   0.97350
    6  C   1.14910   0.95142   1.00887   0.95466
    7  C   1.13876   0.95442   1.00789   1.01028
    8  C   1.13877   0.97921   0.98362   1.00975
    9  C   1.19549   0.97673   1.00099   0.97465
   10  C   1.19333   0.95281   1.00398   0.99321
   11  C   1.19783   0.99008   0.94977   0.99701
   12  C   1.18307   1.01595   0.96834   0.99968
   13  H   0.93154
   14  H   0.92696
   15  H   0.93065
   16  H   0.94530
   17  H   0.95005
   18  H   0.94920
   19  H   0.94431
   20  H   0.93879
   21  H   0.94222
   22  H   0.96184
   23  H   0.96248
   24  H   0.95996
   25  H   0.96246
   26  H   0.96186
   27  H   0.96092
   28  H   0.90367
   29  H   0.90007
   30  H   0.89507
   31  H   0.92095
   32  H   0.91887
 *******************************************************************************
 **                                                                           **
 **                              MOPAC v23.1.2                                **
 **                                                                           **
 *******************************************************************************
 **          Digital Object Identifier (DOI): 10.5281/zenodo.6511958          **
 **    Visit the DOI location for information on how to cite this program.    **
 *******************************************************************************

                              PM3 CALCULATION RESULTS

 *******************************************************************************
 *  CALCULATION DONE: (MAX THREADS = 1)              Tue Jun  3 16:34:57 2025  *
 *  PM3        - The PM3 Hamiltonian to be used
 *  OLDGEO     - PREVIOUS GEOMETRY TO BE USED
 *  PRECISE    - TIGHTER CRITERIA TO BE USED
 *  NOSYM      - POINT-GROUP SYMMETRY SET TO C1
 *  THREADS=1  - MULTI-THREADING NOT USED
 *  T=         - A TIME OF 172800.0 SECONDS REQUESTED
 *  DUMP=N     - RESTART FILE WRITTEN EVERY 7200.0 SECONDS REQUESTED
 *  THERMO     - THERMODYNAMIC QUANTITIES TO BE CALCULATED
 *******************************************************************************
oldgeo thermo nosym precise THREADS=1  pm3
 InChI=1S/C12H20/c1-4-10-8-7-9-11(5-2)12(10)6-3/h6-8,10-12H,3-5,9H2,1-2H3

   ATOM   CHEMICAL          X               Y               Z
  NUMBER   SYMBOL      (ANGSTROMS)     (ANGSTROMS)     (ANGSTROMS)

     1       C          1.01574598  *  -0.29954381  *   0.01977562  *
     2       C         -0.11604051  *   0.69992945  *   0.31469543  *
     3       C         -1.48850541  *   0.10965655  *  -0.07046555  *
     4       C          2.36805013  *   0.25796900  *   0.46559409  *
     5       C         -2.02541195  *  -0.78803405  *   1.05187088  *
     6       C          1.03274999  *  -0.69792550  *  -1.45500744  *
     7       C         -3.51686926  *  -1.01546341  *   0.94706712  *
     8       C          3.44008437  *  -0.80638916  *   0.53856751  *
     9       C         -1.44781720  *  -0.64799348  *  -1.35764164  *
    10       C         -0.32296454  *  -1.01024466  *  -1.97411669  *
    11       C          0.08306532  *   2.00130849  *  -0.40107080  *
    12       C          0.21635158  *   3.16102370  *   0.23159621  *
    13       H          0.79999123  *  -1.21881282  *   0.62211701  *
    14       H         -2.19879406  *   0.96396417  *  -0.20771142  *
    15       H         -0.12131434  *   0.89303006  *   1.41935932  *
    16       H         -1.49130971  *  -1.75906281  *   1.04589953  *
    17       H         -1.79190072  *  -0.32494794  *   2.03268354  *
    18       H          2.25655344  *   0.73447600  *   1.46080958  *
    19       H          2.68271323  *   1.07258564  *  -0.21780316  *
    20       H          1.47062906  *   0.11033994  *  -2.07755891  *
    21       H          1.69416364  *  -1.57668588  *  -1.59685498  *
    22       H         -4.07665187  *  -0.07149690  *   0.99214082  *
    23       H         -3.87811335  *  -1.65004235  *   1.76657026  *
    24       H         -3.79001600  *  -1.51098841  *   0.00547856  *
    25       H          4.38985692  *  -0.38620704  *   0.89369042  *
    26       H          3.16242591  *  -1.61693895  *   1.22574750  *
    27       H          3.63190520  *  -1.26282587  *  -0.44220440  *
    28       H         -0.35947653  *  -1.55641739  *  -2.92367829  *
    29       H         -2.42421638  *  -0.90949189  *  -1.78380335  *
    30       H          0.10293628  *   1.94647372  *  -1.49687867  *
    31       H          0.35125249  *   4.10109794  *  -0.29453763  *
    32       H          0.20164617  *   3.25712868  *   1.31416201  *



          CARTESIAN COORDINATES 

    NO.       ATOM           X           Y           Z

     1         C          1.0157     -0.2995      0.0198
     2         C         -0.1160      0.6999      0.3147
     3         C         -1.4885      0.1097     -0.0705
     4         C          2.3681      0.2580      0.4656
     5         C         -2.0254     -0.7880      1.0519
     6         C          1.0327     -0.6979     -1.4550
     7         C         -3.5169     -1.0155      0.9471
     8         C          3.4401     -0.8064      0.5386
     9         C         -1.4478     -0.6480     -1.3576
    10         C         -0.3230     -1.0102     -1.9741
    11         C          0.0831      2.0013     -0.4011
    12         C          0.2164      3.1610      0.2316
    13         H          0.8000     -1.2188      0.6221
    14         H         -2.1988      0.9640     -0.2077
    15         H         -0.1213      0.8930      1.4194
    16         H         -1.4913     -1.7591      1.0459
    17         H         -1.7919     -0.3249      2.0327
    18         H          2.2566      0.7345      1.4608
    19         H          2.6827      1.0726     -0.2178
    20         H          1.4706      0.1103     -2.0776
    21         H          1.6942     -1.5767     -1.5969
    22         H         -4.0767     -0.0715      0.9921
    23         H         -3.8781     -1.6500      1.7666
    24         H         -3.7900     -1.5110      0.0055
    25         H          4.3899     -0.3862      0.8937
    26         H          3.1624     -1.6169      1.2257
    27         H          3.6319     -1.2628     -0.4422
    28         H         -0.3595     -1.5564     -2.9237
    29         H         -2.4242     -0.9095     -1.7838
    30         H          0.1029      1.9465     -1.4969
    31         H          0.3513      4.1011     -0.2945
    32         H          0.2016      3.2571      1.3142

  H: (PM3): J. J. P. STEWART, J. COMP. CHEM. 10, 209 (1989).
  C: (PM3): J. J. P. STEWART, J. COMP. CHEM. 10, 209 (1989).

           Empirical Formula: C12 H20  =    32 atoms



      MOLECULAR POINT GROUP   :   C1  


      RHF CALCULATION, NO. OF DOUBLY OCCUPIED LEVELS = 34



          HEAT OF FORMATION =      -3.097286 KCALS/MOLE


          CARTESIAN COORDINATE DERIVATIVES

   NUMBER  ATOM         X            Y            Z

     1       C     -0.003473    -0.000726     0.000662
     2       C     -0.004701    -0.001437    -0.000072
     3       C     -0.003366    -0.001688    -0.000598
     4       C     -0.000830    -0.001271     0.002231
     5       C     -0.000644    -0.002078    -0.003573
     6       C     -0.002455     0.000545     0.000988
     7       C     -0.003794    -0.000369     0.004777
     8       C      0.004889     0.005195    -0.000386
     9       C      0.000079     0.004499     0.003113
    10       C     -0.002749     0.001910     0.000981
    11       C     -0.011287     0.007836    -0.003399
    12       C      0.005650    -0.013886    -0.000232
    13       H     -0.000164    -0.006739     0.000466
    14       H     -0.004557    -0.004215    -0.001104
    15       H     -0.008178     0.001401     0.001265
    16       H     -0.003797    -0.001743     0.001791
    17       H      0.017072     0.005521     0.006585
    18       H     -0.000261     0.001036    -0.000721
    19       H      0.001434     0.000593     0.000807
    20       H      0.006213    -0.000204     0.001292
    21       H     -0.002445     0.002158    -0.000199
    22       H      0.009988    -0.003184     0.001045
    23       H     -0.000631     0.006571     0.004889
    24       H      0.008168     0.008170    -0.011971
    25       H      0.004023    -0.000807    -0.002162
    26       H     -0.004426     0.000295     0.000763
    27       H     -0.009400    -0.008838    -0.007835
    28       H     -0.001495    -0.001764     0.000827
    29       H     -0.000660     0.006503    -0.001499
    30       H      0.005599     0.002686     0.005740
    31       H      0.004819    -0.001647    -0.000291
    32       H      0.001377    -0.004322    -0.004181



          GRADIENT NORM =   0.04635

          MOLECULAR WEIGHT =  164.29



          ROTATIONAL CONSTANTS IN CM(-1)

          A =    0.03858175   B =    0.02170938   C =    0.01874081



           PRINCIPAL MOMENTS OF INERTIA IN UNITS OF 10**(-40)*GRAM-CM**2

          A =      725.5440   B =     1289.4314   C =     1493.6785


          ORIENTATION OF MOLECULE IN FORCE CALCULATION

    NO.       ATOM         X         Y         Z

     1          C      -0.9974   -0.5205    0.1590
     2          C       0.5411   -0.5205    0.1590
     3          C       1.0934    0.9201    0.1590
     4          C      -1.5446   -1.9467    0.2292
     5          C       1.1204    1.4890    1.5836
     6          C      -1.5514    0.2333   -1.0488
     7          C       2.0498    2.6748    1.7153
     8          C      -3.0107   -1.9893    0.5981
     9          C       0.3246    1.8307   -0.7421
    10          C      -0.8565    1.5252   -1.2791
    11          C       1.1029   -1.2675   -1.0123
    12          C       1.8795   -2.3366   -0.8826
    13          H      -1.3204    0.0245    1.0826
    14          H       2.1447    0.8804   -0.2237
    15          H       0.8822   -1.0207    1.1030
    16          H       0.0955    1.7726    1.8956
    17          H       1.4375    0.6930    2.2884
    18          H      -0.9622   -2.5251    0.9750
    19          H      -1.3778   -2.4615   -0.7387
    20          H      -1.4678   -0.3807   -1.9700
    21          H      -2.6361    0.4170   -0.9089
    22          H       3.0835    2.4129    1.4520
    23          H       2.0603    3.0558    2.7446
    24          H       1.7483    3.5054    1.0627
    25          H      -3.3683   -3.0241    0.6752
    26          H      -3.2013   -1.5033    1.5644
    27          H      -3.6363   -1.4829   -0.1497
    28          H      -1.3665    2.2331   -1.9424
    29          H       0.7913    2.8031   -0.9422
    30          H       0.8425   -0.8711   -2.0019
    31          H       2.2901   -2.8670   -1.7363
    32          H       2.1603   -2.7590    0.0787


    FIRST DERIVATIVES WILL BE USED IN THE CALCULATION OF SECOND DERIVATIVES

          ESTIMATED TIME TO COMPLETE CALCULATION =        4.50 SECONDS

    FOR POINT-GROUP C1   THERE ARE   1 UNIQUE SYMMETRY FUNCTIONS.

 STEP:   1 TIME =     0.04 SECS, INTEGRAL =      0.04 TIME LEFT: 172799.95
 STEP:   2 TIME =     0.04 SECS, INTEGRAL =      0.07 TIME LEFT: 172799.92
 STEP:   3 TIME =     0.04 SECS, INTEGRAL =      0.11 TIME LEFT: 172799.88
 STEP:   4 TIME =     0.04 SECS, INTEGRAL =      0.14 TIME LEFT: 172799.84
 STEP:   5 TIME =     0.04 SECS, INTEGRAL =      0.18 TIME LEFT: 172799.80
 STEP:   6 TIME =     0.04 SECS, INTEGRAL =      0.22 TIME LEFT: 172799.77
 STEP:   7 TIME =     0.04 SECS, INTEGRAL =      0.25 TIME LEFT: 172799.73
 STEP:   8 TIME =     0.04 SECS, INTEGRAL =      0.29 TIME LEFT: 172799.70
 STEP:   9 TIME =     0.04 SECS, INTEGRAL =      0.33 TIME LEFT: 172799.66
 STEP:  10 TIME =     0.04 SECS, INTEGRAL =      0.36 TIME LEFT: 172799.62
 STEP:  11 TIME =     0.04 SECS, INTEGRAL =      0.40 TIME LEFT: 172799.59
 STEP:  12 TIME =     0.04 SECS, INTEGRAL =      0.44 TIME LEFT: 172799.55
 STEP:  13 TIME =     0.04 SECS, INTEGRAL =      0.47 TIME LEFT: 172799.52
 STEP:  14 TIME =     0.04 SECS, INTEGRAL =      0.51 TIME LEFT: 172799.48
 STEP:  15 TIME =     0.04 SECS, INTEGRAL =      0.54 TIME LEFT: 172799.45
 STEP:  16 TIME =     0.04 SECS, INTEGRAL =      0.58 TIME LEFT: 172799.41
 STEP:  17 TIME =     0.04 SECS, INTEGRAL =      0.62 TIME LEFT: 172799.37
 STEP:  18 TIME =     0.04 SECS, INTEGRAL =      0.65 TIME LEFT: 172799.34
 STEP:  19 TIME =     0.04 SECS, INTEGRAL =      0.69 TIME LEFT: 172799.30
 STEP:  20 TIME =     0.04 SECS, INTEGRAL =      0.73 TIME LEFT: 172799.26
 STEP:  21 TIME =     0.04 SECS, INTEGRAL =      0.77 TIME LEFT: 172799.22
 STEP:  22 TIME =     0.04 SECS, INTEGRAL =      0.80 TIME LEFT: 172799.18
 STEP:  23 TIME =     0.04 SECS, INTEGRAL =      0.84 TIME LEFT: 172799.14
 STEP:  24 TIME =     0.04 SECS, INTEGRAL =      0.89 TIME LEFT: 172799.10
 STEP:  25 TIME =     0.04 SECS, INTEGRAL =      0.93 TIME LEFT: 172799.06
 STEP:  26 TIME =     0.04 SECS, INTEGRAL =      0.96 TIME LEFT: 172799.02
 STEP:  27 TIME =     0.04 SECS, INTEGRAL =      1.00 TIME LEFT: 172798.98
 STEP:  28 TIME =     0.04 SECS, INTEGRAL =      1.04 TIME LEFT: 172798.95
 STEP:  29 TIME =     0.04 SECS, INTEGRAL =      1.07 TIME LEFT: 172798.91
 STEP:  30 TIME =     0.04 SECS, INTEGRAL =      1.11 TIME LEFT: 172798.88
 STEP:  31 TIME =     0.04 SECS, INTEGRAL =      1.16 TIME LEFT: 172798.83
 STEP:  32 TIME =     0.04 SECS, INTEGRAL =      1.19 TIME LEFT: 172798.80
 STEP:  33 TIME =     0.04 SECS, INTEGRAL =      1.23 TIME LEFT: 172798.76
 STEP:  34 TIME =     0.04 SECS, INTEGRAL =      1.26 TIME LEFT: 172798.73
 STEP:  35 TIME =     0.04 SECS, INTEGRAL =      1.30 TIME LEFT: 172798.69
 STEP:  36 TIME =     0.04 SECS, INTEGRAL =      1.33 TIME LEFT: 172798.66
 STEP:  37 TIME =     0.04 SECS, INTEGRAL =      1.37 TIME LEFT: 172798.62
 STEP:  38 TIME =     0.04 SECS, INTEGRAL =      1.40 TIME LEFT: 172798.59
 STEP:  39 TIME =     0.04 SECS, INTEGRAL =      1.44 TIME LEFT: 172798.55
 STEP:  40 TIME =     0.04 SECS, INTEGRAL =      1.47 TIME LEFT: 172798.52
 STEP:  41 TIME =     0.04 SECS, INTEGRAL =      1.51 TIME LEFT: 172798.48
 STEP:  42 TIME =     0.04 SECS, INTEGRAL =      1.55 TIME LEFT: 172798.44
 STEP:  43 TIME =     0.04 SECS, INTEGRAL =      1.59 TIME LEFT: 172798.40
 STEP:  44 TIME =     0.04 SECS, INTEGRAL =      1.63 TIME LEFT: 172798.36
 STEP:  45 TIME =     0.04 SECS, INTEGRAL =      1.67 TIME LEFT: 172798.32
 STEP:  46 TIME =     0.04 SECS, INTEGRAL =      1.70 TIME LEFT: 172798.29
 STEP:  47 TIME =     0.04 SECS, INTEGRAL =      1.74 TIME LEFT: 172798.25
 STEP:  48 TIME =     0.04 SECS, INTEGRAL =      1.78 TIME LEFT: 172798.21
 STEP:  49 TIME =     0.04 SECS, INTEGRAL =      1.82 TIME LEFT: 172798.17
 STEP:  50 TIME =     0.04 SECS, INTEGRAL =      1.86 TIME LEFT: 172798.13
 STEP:  51 TIME =     0.04 SECS, INTEGRAL =      1.89 TIME LEFT: 172798.10
 STEP:  52 TIME =     0.04 SECS, INTEGRAL =      1.93 TIME LEFT: 172798.06
 STEP:  53 TIME =     0.04 SECS, INTEGRAL =      1.96 TIME LEFT: 172798.03
 STEP:  54 TIME =     0.04 SECS, INTEGRAL =      2.00 TIME LEFT: 172797.99
 STEP:  55 TIME =     0.04 SECS, INTEGRAL =      2.04 TIME LEFT: 172797.95
 STEP:  56 TIME =     0.04 SECS, INTEGRAL =      2.08 TIME LEFT: 172797.91
 STEP:  57 TIME =     0.04 SECS, INTEGRAL =      2.12 TIME LEFT: 172797.87
 STEP:  58 TIME =     0.04 SECS, INTEGRAL =      2.16 TIME LEFT: 172797.83
 STEP:  59 TIME =     0.04 SECS, INTEGRAL =      2.20 TIME LEFT: 172797.79
 STEP:  60 TIME =     0.04 SECS, INTEGRAL =      2.23 TIME LEFT: 172797.76
 STEP:  61 TIME =     0.04 SECS, INTEGRAL =      2.27 TIME LEFT: 172797.72
 STEP:  62 TIME =     0.04 SECS, INTEGRAL =      2.30 TIME LEFT: 172797.68
 STEP:  63 TIME =     0.04 SECS, INTEGRAL =      2.34 TIME LEFT: 172797.64
 STEP:  64 TIME =     0.04 SECS, INTEGRAL =      2.38 TIME LEFT: 172797.61
 STEP:  65 TIME =     0.04 SECS, INTEGRAL =      2.41 TIME LEFT: 172797.57
 STEP:  66 TIME =     0.04 SECS, INTEGRAL =      2.45 TIME LEFT: 172797.54
 STEP:  67 TIME =     0.04 SECS, INTEGRAL =      2.50 TIME LEFT: 172797.49
 STEP:  68 TIME =     0.04 SECS, INTEGRAL =      2.54 TIME LEFT: 172797.45
 STEP:  69 TIME =     0.04 SECS, INTEGRAL =      2.57 TIME LEFT: 172797.42
 STEP:  70 TIME =     0.04 SECS, INTEGRAL =      2.61 TIME LEFT: 172797.38
 STEP:  71 TIME =     0.04 SECS, INTEGRAL =      2.64 TIME LEFT: 172797.35
 STEP:  72 TIME =     0.04 SECS, INTEGRAL =      2.68 TIME LEFT: 172797.31
 STEP:  73 TIME =     0.04 SECS, INTEGRAL =      2.72 TIME LEFT: 172797.27
 STEP:  74 TIME =     0.04 SECS, INTEGRAL =      2.75 TIME LEFT: 172797.23
 STEP:  75 TIME =     0.04 SECS, INTEGRAL =      2.80 TIME LEFT: 172797.19
 STEP:  76 TIME =     0.04 SECS, INTEGRAL =      2.84 TIME LEFT: 172797.15
 STEP:  77 TIME =     0.04 SECS, INTEGRAL =      2.88 TIME LEFT: 172797.11
 STEP:  78 TIME =     0.04 SECS, INTEGRAL =      2.91 TIME LEFT: 172797.07
 STEP:  79 TIME =     0.04 SECS, INTEGRAL =      2.95 TIME LEFT: 172797.04
 STEP:  80 TIME =     0.04 SECS, INTEGRAL =      2.99 TIME LEFT: 172797.00
 STEP:  81 TIME =     0.04 SECS, INTEGRAL =      3.02 TIME LEFT: 172796.96
 STEP:  82 TIME =     0.04 SECS, INTEGRAL =      3.06 TIME LEFT: 172796.93
 STEP:  83 TIME =     0.04 SECS, INTEGRAL =      3.10 TIME LEFT: 172796.89
 STEP:  84 TIME =     0.04 SECS, INTEGRAL =      3.14 TIME LEFT: 172796.85
 STEP:  85 TIME =     0.04 SECS, INTEGRAL =      3.18 TIME LEFT: 172796.81
 STEP:  86 TIME =     0.04 SECS, INTEGRAL =      3.21 TIME LEFT: 172796.78
 STEP:  87 TIME =     0.04 SECS, INTEGRAL =      3.25 TIME LEFT: 172796.74
 STEP:  88 TIME =     0.04 SECS, INTEGRAL =      3.29 TIME LEFT: 172796.70
 STEP:  89 TIME =     0.04 SECS, INTEGRAL =      3.33 TIME LEFT: 172796.66
 STEP:  90 TIME =     0.04 SECS, INTEGRAL =      3.37 TIME LEFT: 172796.62
 STEP:  91 TIME =     0.04 SECS, INTEGRAL =      3.41 TIME LEFT: 172796.58
 STEP:  92 TIME =     0.04 SECS, INTEGRAL =      3.45 TIME LEFT: 172796.54
 STEP:  93 TIME =     0.04 SECS, INTEGRAL =      3.48 TIME LEFT: 172796.50
 STEP:  94 TIME =     0.04 SECS, INTEGRAL =      3.52 TIME LEFT: 172796.46
 STEP:  95 TIME =     0.04 SECS, INTEGRAL =      3.56 TIME LEFT: 172796.43
 STEP:  96 TIME =     0.04 SECS, INTEGRAL =      3.60 TIME LEFT: 172796.39

(To convert to Hartree/Bohr^2, multiply by (10^(-21) x N x a0^2)/(4.184 x 627.51) =  0.0642)


           FORCE MATRIX IN MILLIDYNES/ANGSTROM


                  C  1       C  2       C  3       C  4       C  5       C  6
 ------------------------------------------------------------------------------
     C    1  14.196276
     C    2   3.556415  14.420253
     C    3   0.601983   3.461454  14.427457
     C    4   3.881969   0.612969   0.051181  14.315254
     C    5   0.036399   0.615492   3.714522   0.002281  14.227877
     C    6   3.928873   0.615795   0.098960   0.614189   0.015898  14.710943
     C    7   0.002437   0.049269   0.617278   0.000987   4.460644   0.000999
     C    8   0.622834   0.051165   0.009853   4.457392   0.000803   0.051393
     C    9   0.060003   0.632284   4.733821   0.004129   0.685506   0.839443
     C   10   0.679858   0.056207   0.796555   0.053732   0.037341   5.041873
     C   11   0.632217   4.619374   0.675717   0.051300   0.045446   0.053695
     C   12   0.040713   0.806129   0.041765   0.015166   0.006642   0.004340
     H   13   4.143350   0.419823   0.028539   0.426020   0.013506   0.422690
     H   14   0.042331   0.426712   4.158352   0.007964   0.434718   0.009332
     H   15   0.423018   4.096891   0.424557   0.034330   0.081629   0.047104
     H   16   0.013455   0.011898   0.447913   0.000912   4.455116   0.001503
     H   17   0.003481   0.070198   0.443615   0.000558   4.408839   0.002749
     H   18   0.440291   0.053708   0.002321   4.428430   0.000528   0.046899
     H   19   0.449711   0.016530   0.000855   4.432192   0.000455   0.032158
     H   20   0.454532   0.009435   0.014418   0.035205   0.002431   4.366376
     H   21   0.435996   0.048077   0.009975   0.016669   0.001257   4.418594
     H   22   0.000316   0.002132   0.023959   0.000252   0.463632   0.000278
     H   23   0.000665   0.008481   0.050338   0.000226   0.449120   0.000183
     H   24   0.000445   0.001291   0.017547   0.000223   0.464900   0.000549
     H   25   0.051276   0.008838   0.001959   0.449592   0.000224   0.002566
     H   26   0.024277   0.002361   0.000524   0.463914   0.000147   0.002723
     H   27   0.016359   0.001473   0.000432   0.464103   0.000197   0.020425
     H   28   0.042677   0.003275   0.124495   0.008106   0.018988   0.426502
     H   29   0.004170   0.041989   0.430163   0.000849   0.012902   0.124968
     H   30   0.012116   0.437215   0.018080   0.004995   0.002070   0.018372
     H   31   0.018931   0.139288   0.018473   0.001191   0.003014   0.001029
     H   32   0.012152   0.099657   0.011855   0.001366   0.002309   0.000915


                  C  7       C  8       C  9       C 10       C 11       C 12
 ------------------------------------------------------------------------------
     C    7  14.346048
     C    8   0.000454  14.345854
     C    9   0.051625   0.000664  18.200715
     C   10   0.002457   0.003059  10.729932  18.231749
     C   11   0.009086   0.003989   0.031679   0.020520  18.100812
     C   12   0.002028   0.001766   0.003137   0.002720  11.078068  18.019566
     H   13   0.001399   0.038658   0.007685   0.014356   0.047646   0.006635
     H   14   0.044702   0.001871   0.404986   0.040438   0.074928   0.004813
     H   15   0.002356   0.001613   0.044610   0.004260   0.441630   0.062142
     H   16   0.438494   0.000198   0.032110   0.004671   0.001888   0.000522
     H   17   0.435754   0.000151   0.046579   0.006136   0.002336   0.000766
     H   18   0.000186   0.435095   0.000855   0.008893   0.004912   0.001770
     H   19   0.000213   0.437336   0.000786   0.002455   0.009030   0.005122
     H   20   0.000376   0.003403   0.030264   0.413962   0.014626   0.001539
     H   21   0.000323   0.018119   0.043420   0.431354   0.003816   0.000747
     H   22   4.716595   0.000068   0.002689   0.000530   0.000737   0.000217
     H   23   4.746141   0.000156   0.002476   0.000641   0.001859   0.000552
     H   24   4.707692   0.000084   0.016599   0.000671   0.000703   0.000191
     H   25   0.000143   4.747554   0.000226   0.000532   0.000773   0.000527
     H   26   0.000088   4.718634   0.000168   0.000551   0.000795   0.000392
     H   27   0.000073   4.701443   0.000567   0.001280   0.000437   0.000368
     H   28   0.000683   0.000465   0.443283   4.812496   0.001867   0.000912
     H   29   0.016060   0.000192   4.779400   0.442885   0.002520   0.001048
     H   30   0.000731   0.000802   0.006568   0.007439   4.773522   0.451017
     H   31   0.000690   0.000476   0.000952   0.000472   0.461699   5.103183
     H   32   0.000637   0.000608   0.001331   0.000730   0.491542   5.061568


                  H 13       H 14       H 15       H 16       H 17       H 18
 ------------------------------------------------------------------------------
     H   13   4.617018
     H   14   0.001909   4.624272
     H   15   0.038055   0.017075   4.565252
     H   16   0.020884   0.042517   0.001879   5.069386
     H   17   0.001332   0.016985   0.067944   0.568449   5.011507
     H   18   0.021350   0.000511   0.029918   0.000191   0.000273   5.044463
     H   19   0.042632   0.000301   0.001182   0.000289   0.000112   0.574383
     H   20   0.042821   0.000945   0.001566   0.000553   0.000614   0.002345
     H   21   0.036946   0.000421   0.007740   0.000360   0.000315   0.001079
     H   22   0.000385   0.027613   0.000381   0.047752   0.025461   0.000050
     H   23   0.000218   0.002562   0.000548   0.030514   0.031493   0.000042
     H   24   0.000207   0.002595   0.000551   0.023776   0.048736   0.000107
     H   25   0.002340   0.000414   0.000408   0.000072   0.000058   0.032512
     H   26   0.026550   0.000112   0.000262   0.000109   0.000043   0.024603
     H   27   0.002045   0.000085   0.000488   0.000065   0.000102   0.048882
     H   28   0.001222   0.014623   0.000607   0.001042   0.003057   0.001647
     H   29   0.000505   0.035927   0.006460   0.002998   0.001834   0.000298
     H   30   0.002092   0.006163   0.038147   0.000659   0.000692   0.000746
     H   31   0.003096   0.000924   0.002078   0.000190   0.000307   0.000254
     H   32   0.002199   0.001009   0.030273   0.000196   0.000288   0.002199


                  H 19       H 20       H 21       H 22       H 23       H 24
 ------------------------------------------------------------------------------
     H   19   5.052384
     H   20   0.029607   4.977028
     H   21   0.001617   0.569431   5.012706
     H   22   0.000076   0.000121   0.000084   5.460962
     H   23   0.000037   0.000081   0.000062   0.574842   5.484717
     H   24   0.000044   0.000237   0.000184   0.577480   0.575707   5.451139
     H   25   0.029354   0.000301   0.000703   0.000023   0.000048   0.000024
     H   26   0.048034   0.000459   0.000856   0.000036   0.000023   0.000020
     H   27   0.024117   0.001623   0.021388   0.000016   0.000020   0.000042
     H   28   0.000538   0.019121   0.035815   0.000204   0.000164   0.000423
     H   29   0.000290   0.018013   0.014387   0.000594   0.001019   0.020102
     H   30   0.002023   0.025144   0.001194   0.000193   0.000144   0.000253
     H   31   0.000613   0.000411   0.000101   0.000116   0.000147   0.000062
     H   32   0.000646   0.000404   0.000255   0.000123   0.000173   0.000114


                  H 25       H 26       H 27       H 28       H 29       H 30
 ------------------------------------------------------------------------------
     H   25   5.485581
     H   26   0.573598   5.462763
     H   27   0.576257   0.577788   5.442041
     H   28   0.000142   0.000165   0.000245   5.186830
     H   29   0.000068   0.000099   0.000216   0.071484   5.154377
     H   30   0.000137   0.000356   0.000221   0.001479   0.001473   5.145420
     H   31   0.000134   0.000144   0.000113   0.000237   0.000275   0.081718
     H   32   0.000179   0.000196   0.000230   0.000222   0.000309   0.120867


                  H 31       H 32
 ------------------------------
     H   31   5.493149
     H   32   0.425082   5.459952


          HEAT OF FORMATION =      -3.097286 KCALS/MOLE

          ZERO POINT ENERGY     179.754 KCAL/MOL


           NORMAL COORDINATE ANALYSIS (Total motion = 1 Angstrom)


   Root No.       1         2         3         4         5         6         7         8

                 1 A       2 A       3 A       4 A       5 A       6 A       7 A       8 A   

                  28.6      52.4      59.4      72.2     104.0     161.0     171.2     179.3
  
           1   -0.0128   -0.0036   -0.0015    0.0045    0.0050    0.0040    0.0144    0.0023
           2    0.0002   -0.0003    0.0007    0.0011   -0.0015    0.0080   -0.0037    0.0043
           3    0.0024   -0.0032   -0.0138    0.0152   -0.0052   -0.0038    0.0034    0.0061
           4   -0.0131   -0.0036   -0.0017    0.0046    0.0049    0.0037    0.0139    0.0018
           5   -0.0068    0.0114    0.0037    0.0013   -0.0016    0.0043   -0.0027    0.0056
           6    0.0013    0.0036   -0.0062    0.0031   -0.0054   -0.0147   -0.0117   -0.0016
           7   -0.0046   -0.0106   -0.0081    0.0014   -0.0043    0.0037    0.0033   -0.0013
           8   -0.0099    0.0140    0.0059    0.0021    0.0026    0.0036    0.0019    0.0064
           9   -0.0047   -0.0048   -0.0010    0.0023   -0.0005   -0.0183   -0.0159   -0.0072
          10   -0.0176    0.0084   -0.0025    0.0081   -0.0033    0.0098    0.0043    0.0074
          11    0.0019   -0.0050    0.0014    0.0002    0.0046    0.0064    0.0013    0.0029
          12   -0.0002   -0.0040   -0.0082    0.0225    0.0312    0.0003    0.0054    0.0127
          13    0.0061    0.0103   -0.0259   -0.0217    0.0063   -0.0054   -0.0067   -0.0074
          14   -0.0080    0.0114    0.0056    0.0149   -0.0115   -0.0134   -0.0059    0.0004
          15   -0.0056   -0.0040   -0.0003   -0.0022    0.0048   -0.0108   -0.0118   -0.0048
          16   -0.0135   -0.0032    0.0044   -0.0047    0.0137   -0.0087   -0.0030   -0.0033
          17    0.0051   -0.0073   -0.0051   -0.0013   -0.0246    0.0157   -0.0007   -0.0013
          18    0.0057   -0.0076   -0.0201    0.0177   -0.0232    0.0074    0.0135    0.0048
          19    0.0215    0.0457    0.0127    0.0084   -0.0024   -0.0127   -0.0134    0.0021
          20   -0.0196   -0.0160   -0.0274   -0.0099   -0.0053   -0.0124   -0.0033   -0.0101
          21   -0.0102   -0.0067    0.0224    0.0093    0.0089    0.0181    0.0042    0.0155
          22   -0.0198    0.0034    0.0108   -0.0022   -0.0117    0.0118   -0.0008    0.0032
          23    0.0061   -0.0178    0.0045   -0.0023    0.0280   -0.0033    0.0260    0.0007
          24   -0.0081   -0.0255    0.0453   -0.0193    0.0021    0.0057   -0.0101   -0.0055
          25   -0.0028   -0.0261   -0.0043    0.0087   -0.0181    0.0012   -0.0099   -0.0001
          26   -0.0061    0.0148    0.0029   -0.0086    0.0040    0.0079    0.0049   -0.0002
          27   -0.0020    0.0096   -0.0074   -0.0150    0.0120   -0.0115   -0.0023   -0.0143
          28   -0.0065   -0.0225    0.0010    0.0056   -0.0078   -0.0069   -0.0198    0.0008
          29    0.0006    0.0056   -0.0023   -0.0111   -0.0091    0.0143    0.0081   -0.0066
          30    0.0025    0.0069   -0.0164   -0.0069   -0.0038    0.0024    0.0179   -0.0132
          31   -0.0132    0.0060    0.0074   -0.0056    0.0096   -0.0007    0.0132   -0.0030
          32   -0.0141    0.0039    0.0066    0.0076    0.0068   -0.0150   -0.0135    0.0000
          33    0.0059    0.0130   -0.0035   -0.0060   -0.0084   -0.0036   -0.0047   -0.0000
          34    0.0720   -0.0129    0.0057   -0.0054    0.0077    0.0015    0.0090   -0.0025
          35    0.0489   -0.0082    0.0058    0.0062    0.0047   -0.0112   -0.0154    0.0008
          36    0.0146    0.0269    0.0004   -0.0202   -0.0145    0.0193    0.0088    0.0042
          37   -0.0092   -0.0120   -0.0052    0.0105    0.0052    0.0129    0.0255    0.0038
          38   -0.0007   -0.0007    0.0058    0.0019    0.0217    0.0048   -0.0060    0.0058
          39    0.0041   -0.0061   -0.0179    0.0168   -0.0185    0.0016    0.0090    0.0056
          40   -0.0067   -0.0167   -0.0044    0.0067   -0.0078    0.0038    0.0024   -0.0005
          41   -0.0171    0.0186    0.0102    0.0012    0.0136    0.0069    0.0132    0.0069
          42   -0.0099   -0.0223    0.0089    0.0175   -0.0115   -0.0172   -0.0178   -0.0052
          43   -0.0158   -0.0047   -0.0046    0.0136    0.0067    0.0059    0.0206    0.0071
          44   -0.0040    0.0222    0.0053   -0.0014   -0.0038    0.0134    0.0052    0.0109
          45    0.0039    0.0100   -0.0041   -0.0018   -0.0073   -0.0096   -0.0094   -0.0003
          46    0.0104    0.0194   -0.0240   -0.0219    0.0073   -0.0086   -0.0103   -0.0068
          47    0.0051    0.0398    0.0420    0.0477   -0.0235   -0.0226   -0.0109    0.0068
          48   -0.0035   -0.0003   -0.0272   -0.0327    0.0191   -0.0127   -0.0185   -0.0086
          49   -0.0021   -0.0104   -0.0728   -0.0634    0.0205   -0.0075   -0.0105   -0.0196
          50   -0.0110    0.0007   -0.0053    0.0139   -0.0170   -0.0251   -0.0095   -0.0103
          51   -0.0053   -0.0065    0.0087    0.0153   -0.0076   -0.0223   -0.0139   -0.0107
          52   -0.0236    0.0034    0.0218   -0.0098   -0.0222    0.0159   -0.0095    0.0005
          53    0.0004    0.0043   -0.0087    0.0158    0.0276    0.0133   -0.0020    0.0102
          54    0.0031    0.0071   -0.0350    0.0486    0.0637    0.0012    0.0132    0.0237
          55   -0.0139    0.0275   -0.0398    0.0387    0.0136    0.0105    0.0076    0.0213
          56    0.0014   -0.0078    0.0097   -0.0142   -0.0293    0.0035   -0.0038   -0.0031
          57    0.0006    0.0007   -0.0189    0.0353    0.0523    0.0020    0.0088    0.0181
          58   -0.0240    0.0195    0.0151   -0.0275    0.0512   -0.0237   -0.0009   -0.0157
          59    0.0054   -0.0030   -0.0063   -0.0109   -0.0274    0.0193    0.0074   -0.0099
          60    0.0044   -0.0084   -0.0184    0.0221   -0.0178    0.0037    0.0084    0.0094
          61   -0.0115   -0.0082    0.0023   -0.0001    0.0058   -0.0057   -0.0048   -0.0011
          62    0.0127   -0.0276   -0.0102    0.0139   -0.0500    0.0198   -0.0159    0.0069
          63    0.0120   -0.0201   -0.0295    0.0335   -0.0510    0.0237    0.0225    0.0129
          64    0.0175    0.0383    0.0132    0.0112   -0.0044   -0.0128    0.0011   -0.0210
          65   -0.0332   -0.0481   -0.0686   -0.0468    0.0087    0.0026   -0.0136    0.0175
          66   -0.0122   -0.0041    0.0652    0.0569   -0.0128    0.0033    0.0719   -0.1033
          67    0.0289    0.0556   -0.0127   -0.0216    0.0113   -0.0086   -0.0724    0.0962
          68   -0.0177   -0.0125   -0.0160    0.0127   -0.0224   -0.0438    0.0289   -0.1033
          69   -0.0109   -0.0082    0.0185    0.0012    0.0151    0.0298   -0.0071    0.0490
          70    0.0305    0.0717    0.0684    0.0596   -0.0211   -0.0231    0.0256   -0.0614
          71   -0.0170   -0.0095   -0.0240   -0.0158    0.0028    0.0051   -0.0233    0.0472
          72   -0.0111   -0.0105    0.0010   -0.0217    0.0279    0.0453   -0.0394    0.1183
          73   -0.0224    0.0132    0.0052    0.0056   -0.0164    0.0451   -0.0392   -0.0168
          74    0.0071   -0.0211    0.0057   -0.0034    0.0331   -0.0073    0.0336    0.0014
          75   -0.0073   -0.0235    0.0349    0.0024    0.0486    0.1074   -0.0884   -0.0906
          76   -0.0239   -0.0159    0.0507   -0.0354   -0.0315   -0.0037    0.0092    0.0034
          77    0.0091   -0.0130   -0.0164    0.0261    0.0793    0.0850   -0.0367   -0.0714
          78   -0.0104   -0.0318    0.0638   -0.0401   -0.0275   -0.0417    0.0233    0.0306
          79   -0.0147    0.0091   -0.0128    0.0148    0.0058   -0.0049    0.0240    0.0204
          80    0.0054   -0.0297    0.0272   -0.0321   -0.0095   -0.0975    0.1038    0.0718
          81   -0.0128   -0.0383    0.0805   -0.0537   -0.0380   -0.0437    0.0213    0.0280
          82   -0.0048   -0.0334    0.0031    0.0093   -0.0149   -0.0122   -0.0371    0.0028
          83    0.0034    0.0070   -0.0049   -0.0199   -0.0091    0.0175    0.0135   -0.0151
          84    0.0042    0.0168   -0.0208   -0.0193    0.0019    0.0100    0.0371   -0.0239
          85    0.0021   -0.0401   -0.0066    0.0153   -0.0350    0.0046   -0.0150    0.0010
          86   -0.0088    0.0243    0.0048   -0.0157    0.0163    0.0054    0.0073   -0.0025
          87   -0.0041    0.0226   -0.0032   -0.0333    0.0322   -0.0154   -0.0029   -0.0220
          88   -0.0845    0.0290    0.0160   -0.0140    0.0174   -0.0074    0.0155   -0.0074
          89   -0.0726    0.0078    0.0093    0.0144    0.0160   -0.0377   -0.0231   -0.0060
          90    0.0012    0.0086   -0.0046   -0.0011   -0.0069   -0.0106   -0.0089   -0.0012
          91    0.0745   -0.0060    0.0126   -0.0136    0.0117   -0.0006    0.0090   -0.0059
          92    0.0458   -0.0149    0.0077    0.0117    0.0126   -0.0319   -0.0270   -0.0051
          93    0.0177    0.0343    0.0025   -0.0276   -0.0176    0.0312    0.0160    0.0063
          94    0.1454   -0.0365   -0.0027    0.0031    0.0021    0.0055    0.0053    0.0012
          95    0.1076   -0.0123    0.0033   -0.0005   -0.0050    0.0127   -0.0059    0.0074
          96    0.0190    0.0320    0.0017   -0.0256   -0.0172    0.0287    0.0142    0.0060


   Root No.       9        10        11        12        13        14        15        16

                 9 A      10 A      11 A      12 A      13 A      14 A      15 A      16 A   

                 210.8     254.4     285.8     326.5     370.5     386.9     404.6     470.5
  
           1    0.0080    0.0037   -0.0093   -0.0059   -0.0007    0.0001    0.0145    0.0090
           2   -0.0147    0.0022    0.0095   -0.0075   -0.0050    0.0189   -0.0086    0.0362
           3    0.0006   -0.0015   -0.0045    0.0060    0.0141    0.0200    0.0237    0.0196
           4    0.0077    0.0037   -0.0082   -0.0002   -0.0076    0.0010    0.0151    0.0139
           5   -0.0084   -0.0060   -0.0055    0.0014    0.0081    0.0007    0.0071   -0.0038
           6    0.0020    0.0034   -0.0085    0.0024    0.0104    0.0353   -0.0075   -0.0106
           7   -0.0034    0.0045    0.0003    0.0175    0.0077   -0.0088   -0.0049    0.0107
           8   -0.0031   -0.0063   -0.0121    0.0030   -0.0051    0.0033    0.0173   -0.0093
           9    0.0060    0.0029   -0.0009   -0.0194   -0.0077   -0.0114   -0.0073    0.0108
          10   -0.0103    0.0059   -0.0040   -0.0272    0.0127    0.0022   -0.0216   -0.0058
          11   -0.0087    0.0018    0.0092   -0.0041   -0.0109    0.0195   -0.0015    0.0508
          12   -0.0194    0.0028    0.0251    0.0001   -0.0100   -0.0091   -0.0014   -0.0123
          13   -0.0175   -0.0245   -0.0138    0.0178   -0.0032   -0.0031   -0.0107   -0.0006
          14    0.0154    0.0192   -0.0115    0.0154   -0.0173   -0.0173   -0.0095    0.0012
          15   -0.0010   -0.0045   -0.0029   -0.0232   -0.0072   -0.0079    0.0003    0.0108
          16   -0.0050    0.0237    0.0001    0.0091    0.0139    0.0089    0.0323   -0.0078
          17   -0.0007   -0.0022    0.0154   -0.0094   -0.0158    0.0022   -0.0038   -0.0163
          18    0.0159   -0.0142   -0.0048   -0.0003    0.0028    0.0034    0.0192    0.0004
          19    0.0043   -0.0029   -0.0084    0.0071   -0.0087   -0.0094   -0.0074    0.0015
          20    0.0007    0.0037   -0.0147    0.0187   -0.0168   -0.0176   -0.0132    0.0022
          21   -0.0129   -0.0103   -0.0224    0.0313   -0.0102   -0.0080   -0.0152    0.0010
          22   -0.0079    0.0062   -0.0074   -0.0288    0.0147    0.0057   -0.0245   -0.0007
          23    0.0208   -0.0038   -0.0217   -0.0205    0.0170    0.0006   -0.0154   -0.0054
          24   -0.0008    0.0000    0.0063    0.0048   -0.0050   -0.0035    0.0026   -0.0054
          25   -0.0012    0.0077    0.0139    0.0126    0.0148   -0.0085   -0.0014   -0.0120
          26   -0.0063    0.0057   -0.0006   -0.0036   -0.0107    0.0039    0.0340   -0.0310
          27    0.0010    0.0122   -0.0005   -0.0211   -0.0179   -0.0151    0.0077    0.0052
          28   -0.0075   -0.0012    0.0027   -0.0068   -0.0041   -0.0110    0.0186   -0.0150
          29   -0.0012    0.0190    0.0194    0.0029   -0.0034    0.0079   -0.0015   -0.0202
          30    0.0132    0.0253    0.0129    0.0170    0.0190   -0.0108   -0.0127    0.0029
          31    0.0260   -0.0241    0.0226    0.0059   -0.0206    0.0085   -0.0004    0.0033
          32    0.0058   -0.0247    0.0126    0.0046    0.0290   -0.0056    0.0035   -0.0005
          33    0.0014    0.0007   -0.0060    0.0033   -0.0031    0.0463   -0.0126   -0.0234
          34    0.0102   -0.0017    0.0079    0.0029   -0.0219    0.0115   -0.0042    0.0005
          35   -0.0063   -0.0099    0.0030    0.0018    0.0332   -0.0112    0.0028   -0.0003
          36   -0.0030   -0.0121    0.0051   -0.0048    0.0192   -0.0242    0.0067    0.0057
          37    0.0152   -0.0040   -0.0035   -0.0075   -0.0157   -0.0118    0.0234    0.0288
          38   -0.0259    0.0093    0.0195   -0.0067   -0.0120    0.0197   -0.0189    0.0522
          39    0.0103   -0.0088   -0.0082    0.0042    0.0125    0.0147    0.0319    0.0156
          40   -0.0001    0.0079    0.0048    0.0165    0.0110   -0.0122   -0.0065    0.0126
          41   -0.0001   -0.0112   -0.0180   -0.0078   -0.0171    0.0059    0.0292    0.0055
          42    0.0141    0.0147    0.0110   -0.0190    0.0015   -0.0218   -0.0135    0.0153
          43    0.0070    0.0056   -0.0169    0.0019    0.0013   -0.0011    0.0429    0.0149
          44   -0.0104   -0.0050   -0.0132    0.0093    0.0068    0.0227    0.0152   -0.0266
          45    0.0008    0.0027   -0.0091    0.0052    0.0073    0.0473   -0.0128   -0.0231
          46   -0.0162   -0.0271   -0.0143    0.0121   -0.0056   -0.0021   -0.0091   -0.0015
          47    0.0406    0.0500   -0.0047    0.0105   -0.0262   -0.0317   -0.0137    0.0104
          48   -0.0197   -0.0400   -0.0108   -0.0360   -0.0071    0.0081    0.0087   -0.0004
          49   -0.0421   -0.0626   -0.0203    0.0082    0.0005    0.0109   -0.0062   -0.0088
          50    0.0222    0.0300   -0.0059    0.0090   -0.0212   -0.0288   -0.0170    0.0110
          51    0.0172    0.0238    0.0058   -0.0253   -0.0125   -0.0256   -0.0099    0.0246
          52   -0.0111    0.0062   -0.0060   -0.0256    0.0130    0.0091   -0.0223    0.0070
          53   -0.0322    0.0064    0.0374   -0.0129   -0.0279   -0.0004   -0.0280    0.0176
          54   -0.0376    0.0063    0.0496   -0.0082   -0.0241   -0.0300   -0.0221   -0.0483
          55   -0.0343    0.0102    0.0199   -0.0348    0.0038   -0.0016   -0.0368   -0.0139
          56    0.0043   -0.0009   -0.0119    0.0034    0.0047    0.0467    0.0206    0.0956
          57   -0.0302    0.0048    0.0406   -0.0053   -0.0199   -0.0249   -0.0163   -0.0395
          58   -0.0181    0.0783    0.0174    0.0502    0.0645    0.0371    0.0329    0.0273
          59    0.0074    0.0114    0.0224   -0.0016   -0.0111   -0.0075   -0.0171   -0.0327
          60    0.0092   -0.0188   -0.0075   -0.0024    0.0032    0.0118    0.0275    0.0132
          61   -0.0028    0.0125   -0.0022    0.0010    0.0037    0.0029    0.0328   -0.0155
          62   -0.0002   -0.0399    0.0095   -0.0367   -0.0497   -0.0190    0.0016   -0.0472
          63    0.0332   -0.0545   -0.0183   -0.0305   -0.0356   -0.0172    0.0146   -0.0228
          64   -0.0119   -0.0137   -0.0129    0.0162   -0.0086   -0.0083   -0.0108   -0.0004
          65   -0.0038   -0.0081   -0.0214    0.0363   -0.0147   -0.0162   -0.0215    0.0013
          66   -0.0731   -0.0418   -0.0342    0.0513   -0.0122   -0.0054   -0.0211   -0.0058
          67    0.0619    0.0307    0.0073   -0.0249   -0.0076   -0.0128    0.0031    0.0099
          68   -0.0293   -0.0123   -0.0053   -0.0170   -0.0137   -0.0142   -0.0003    0.0079
          69   -0.0025   -0.0048   -0.0263    0.0455   -0.0116   -0.0095   -0.0205   -0.0012
          70   -0.0188   -0.0068   -0.0135    0.0177   -0.0135   -0.0110   -0.0091   -0.0038
          71    0.0234    0.0191   -0.0193    0.0386   -0.0206   -0.0215   -0.0202   -0.0013
          72    0.0266    0.0109   -0.0261    0.0524   -0.0128   -0.0124   -0.0238   -0.0012
          73   -0.0178    0.0104    0.0111   -0.0133   -0.0079    0.0230   -0.0088    0.0550
          74    0.0280   -0.0054   -0.0306   -0.0264    0.0265   -0.0052   -0.0214   -0.0260
          75    0.0492   -0.0010   -0.0227    0.0039    0.0111   -0.0001    0.0027   -0.0144
          76    0.0072    0.0027   -0.0281   -0.0335    0.0281    0.0027   -0.0304   -0.0178
          77    0.0655   -0.0050   -0.0482   -0.0258    0.0355   -0.0008   -0.0196   -0.0263
          78   -0.0201   -0.0001    0.0153    0.0062   -0.0113   -0.0035    0.0032    0.0010
          79   -0.0114    0.0055   -0.0074   -0.0394    0.0237   -0.0061   -0.0348   -0.0338
          80   -0.0062   -0.0060   -0.0161   -0.0294    0.0211   -0.0111   -0.0259   -0.0321
          81   -0.0162   -0.0008    0.0104    0.0079   -0.0103   -0.0015    0.0045    0.0046
          82   -0.0121   -0.0191    0.0003   -0.0296   -0.0245   -0.0178    0.0152   -0.0122
          83    0.0002    0.0380    0.0343    0.0135    0.0044    0.0008   -0.0311   -0.0140
          84    0.0182    0.0598    0.0308    0.0458    0.0432   -0.0128   -0.0415    0.0078
          85    0.0030    0.0069    0.0276    0.0138    0.0237   -0.0025   -0.0169   -0.0187
          86   -0.0098    0.0096   -0.0072   -0.0076   -0.0203   -0.0002    0.0451   -0.0294
          87   -0.0063    0.0295   -0.0009   -0.0368   -0.0419   -0.0209    0.0266   -0.0029
          88    0.0549   -0.0747    0.0769    0.0212   -0.0102    0.0092   -0.0126    0.0078
          89    0.0308   -0.0577    0.0457    0.0186    0.0384    0.0247   -0.0144   -0.0088
          90    0.0037    0.0005   -0.0068    0.0046   -0.0015    0.0566   -0.0160   -0.0270
          91    0.0263   -0.0396    0.0534    0.0125    0.0006   -0.0094   -0.0172    0.0131
          92    0.0087   -0.0252    0.0254    0.0166    0.0255    0.0484   -0.0278   -0.0264
          93   -0.0046   -0.0211    0.0131   -0.0094    0.0356   -0.0724    0.0198    0.0285
          94   -0.0202    0.0573   -0.0512   -0.0095   -0.0459    0.0353    0.0050   -0.0152
          95   -0.0324    0.0190   -0.0285   -0.0155    0.0452   -0.0753    0.0321    0.0254
          96   -0.0056   -0.0168    0.0086   -0.0089    0.0319   -0.0606    0.0173    0.0223


   Root No.      17        18        19        20        21        22        23        24

                17 A      18 A      19 A      20 A      21 A      22 A      23 A      24 A   

                 507.5     551.5     629.5     674.2     756.3     777.1     820.8     831.3
  
           1    0.0068    0.0089    0.0286    0.0290   -0.0003    0.0103   -0.0048   -0.0025
           2   -0.0065   -0.0016   -0.0092   -0.0073    0.0003   -0.0054    0.0013    0.0030
           3   -0.0125   -0.0238   -0.0079   -0.0208    0.0026   -0.0195    0.0024    0.0042
           4    0.0111    0.0188    0.0209    0.0211   -0.0111   -0.0028   -0.0054    0.0100
           5    0.0120    0.0178   -0.0349   -0.0005   -0.0092   -0.0119    0.0011    0.0071
           6   -0.0056    0.0118    0.0306    0.0104    0.0010    0.0056   -0.0026    0.0000
           7   -0.0140    0.0336   -0.0208    0.0114   -0.0271   -0.0258    0.0032    0.0122
           8    0.0209    0.0042   -0.0291    0.0114   -0.0025   -0.0014   -0.0013    0.0032
           9    0.0180   -0.0068    0.0034    0.0006   -0.0002    0.0018   -0.0012   -0.0001
          10   -0.0059   -0.0076   -0.0023   -0.0044    0.0008   -0.0023   -0.0063   -0.0014
          11   -0.0035    0.0055    0.0017    0.0066    0.0114    0.0225    0.0042   -0.0067
          12    0.0019   -0.0012    0.0033   -0.0018    0.0012   -0.0100   -0.0279   -0.0068
          13   -0.0012   -0.0035    0.0058   -0.0030   -0.0091   -0.0036    0.0056   -0.0184
          14   -0.0039   -0.0085    0.0013   -0.0004    0.0082    0.0050   -0.0049    0.0144
          15    0.0358   -0.0077   -0.0141    0.0142   -0.0017   -0.0206    0.0083   -0.0089
          16   -0.0019   -0.0176    0.0208    0.0055    0.0101    0.0020    0.0083   -0.0076
          17    0.0007   -0.0068    0.0205   -0.0040   -0.0142   -0.0123    0.0003    0.0103
          18   -0.0035   -0.0130   -0.0021   -0.0088   -0.0051    0.0043    0.0146    0.0038
          19    0.0049   -0.0084    0.0022   -0.0003    0.0018   -0.0010    0.0021   -0.0061
          20   -0.0028   -0.0116    0.0041   -0.0015    0.0038   -0.0003    0.0001    0.0021
          21   -0.0012   -0.0088    0.0039    0.0002    0.0009   -0.0041    0.0029   -0.0041
          22   -0.0089   -0.0107   -0.0037   -0.0075    0.0045    0.0040   -0.0002   -0.0035
          23   -0.0042   -0.0044   -0.0041   -0.0029    0.0028    0.0056    0.0026   -0.0022
          24    0.0023    0.0023    0.0019    0.0014   -0.0013   -0.0027   -0.0069   -0.0009
          25    0.0092    0.0022   -0.0200   -0.0017    0.0169    0.0041   -0.0007   -0.0013
          26   -0.0064   -0.0082   -0.0234   -0.0013    0.0063    0.0205   -0.0016   -0.0198
          27   -0.0347    0.0124   -0.0019   -0.0088   -0.0210    0.0143   -0.0088    0.0077
          28   -0.0164    0.0043   -0.0201   -0.0065    0.0137    0.0074   -0.0013   -0.0002
          29    0.0116   -0.0161    0.0357    0.0020   -0.0134   -0.0151   -0.0025    0.0023
          30    0.0074    0.0111   -0.0315   -0.0022   -0.0001    0.0344   -0.0086   -0.0039
          31    0.0113    0.0122    0.0038   -0.0359    0.0051   -0.0021    0.0005   -0.0011
          32    0.0015    0.0216    0.0211   -0.0178    0.0022    0.0016   -0.0000   -0.0012
          33   -0.0005    0.0191   -0.0056    0.0043   -0.0027    0.0016    0.0001   -0.0008
          34    0.0005   -0.0089   -0.0123   -0.0043    0.0009   -0.0025    0.0003    0.0002
          35   -0.0074    0.0068    0.0147    0.0073   -0.0010    0.0028   -0.0004   -0.0006
          36   -0.0024    0.0018    0.0071    0.0028   -0.0008    0.0007    0.0003   -0.0004
          37    0.0084    0.0028    0.0349    0.0290    0.0006    0.0152   -0.0051   -0.0053
          38   -0.0060    0.0074   -0.0067    0.0029    0.0153    0.0088   -0.0252   -0.0159
          39   -0.0119   -0.0305   -0.0067   -0.0261   -0.0051   -0.0243    0.0189    0.0136
          40   -0.0039    0.0335   -0.0268    0.0133   -0.0183   -0.0306    0.0030    0.0187
          41    0.0274    0.0140   -0.0188    0.0265   -0.0235   -0.0128   -0.0048    0.0185
          42    0.0425   -0.0078   -0.0165    0.0061    0.0253   -0.0115    0.0001    0.0140
          43    0.0120    0.0019    0.0254    0.0334   -0.0098   -0.0069   -0.0092    0.0173
          44    0.0121    0.0271   -0.0503    0.0151   -0.0103   -0.0081   -0.0033    0.0109
          45   -0.0058    0.0231    0.0208    0.0144    0.0001    0.0096   -0.0037   -0.0009
          46    0.0094   -0.0132    0.0077   -0.0029    0.0030    0.0024    0.0045   -0.0216
          47   -0.0218   -0.0071    0.0070   -0.0055   -0.0301   -0.0147    0.0255   -0.0897
          48    0.0813   -0.0387   -0.0116    0.0175    0.0666    0.0163   -0.0203    0.0649
          49    0.0375   -0.0266    0.0094   -0.0002    0.0588    0.0336   -0.0336    0.1011
          50   -0.0131   -0.0086    0.0106   -0.0043   -0.0006   -0.0015   -0.0027    0.0161
          51    0.0088    0.0027   -0.0050    0.0088   -0.0399   -0.0428    0.0267   -0.0561
          52   -0.0086   -0.0091   -0.0124   -0.0117    0.0042   -0.0175   -0.0632   -0.0158
          53    0.0054    0.0184    0.0056    0.0153    0.0017    0.0568    0.0879    0.0146
          54    0.0108    0.0099    0.0151    0.0109   -0.0089    0.0306    0.0864    0.0219
          55   -0.0075   -0.0102   -0.0025   -0.0094   -0.0020    0.0242    0.0990    0.0259
          56   -0.0168   -0.0127   -0.0123   -0.0133    0.0240   -0.0140   -0.0797   -0.0279
          57    0.0092    0.0083    0.0111    0.0081   -0.0069    0.0145    0.0388    0.0106
          58    0.0271   -0.0774   -0.0023   -0.0589   -0.0738   -0.0115    0.0240    0.0411
          59    0.0196    0.0015    0.0299    0.0105   -0.0306    0.0177   -0.0209    0.0054
          60   -0.0141   -0.0226   -0.0094   -0.0229    0.0002   -0.0174    0.0297    0.0106
          61   -0.0087   -0.0076    0.0237    0.0149    0.0257    0.0030    0.0061   -0.0154
          62   -0.0339    0.0233    0.0055    0.0069    0.0443   -0.0195   -0.0065   -0.0105
          63   -0.0140    0.0346    0.0395    0.0593    0.0522    0.0268    0.0034   -0.0388
          64   -0.0017   -0.0093    0.0083   -0.0050   -0.0029    0.0021    0.0053   -0.0249
          65   -0.0143   -0.0110    0.0151   -0.0097   -0.0245   -0.0083    0.0238   -0.0895
          66   -0.0177   -0.0137    0.0186   -0.0115    0.0078    0.0160   -0.0054    0.0029
          67    0.0316   -0.0048   -0.0195    0.0176    0.0071   -0.0227    0.0026    0.0232
[...]
 TRANSITION DIPOLE   0.0339         C  6 -- H 21         +41.7% ( 67.0%)     95.7%
 TRAVEL (Ang.)       0.2101         C  6 -- C 10          +1.1% ( 11.0%)      0.0%
 REDUCED MASS        0.5209         C  1 -- C  6          +1.1% ( 10.9%)      0.0%
 EFFECTIVE MASS      1.5360
 FORCE CONSTANT      2.6413

 VIBRATION         75   75A           ATOM PAIR      ENERGY CONTRIBUTION    RADIAL
 FREQUENCY          2946.02         C  5 -- H 17         +34.8% ( 61.2%)     97.4%
 TRANSITION DIPOLE   0.0206         C  5 -- H 16         +24.4% ( 51.3%)     95.3%
 TRAVEL (Ang.)       0.2888         C  4 -- H 18         +19.7% ( 46.1%)     96.7%
 REDUCED MASS        0.2744         C  4 -- H 19         +18.3% ( 44.4%)     96.3%
 EFFECTIVE MASS      1.5431
 FORCE CONSTANT      1.4033

 VIBRATION         76   76A           ATOM PAIR      ENERGY CONTRIBUTION    RADIAL
 FREQUENCY          2946.16         C  4 -- H 18         +30.7% ( 57.5%)     96.7%
 TRANSITION DIPOLE   0.0064         C  4 -- H 19         +28.5% ( 55.5%)     96.3%
 TRAVEL (Ang.)       0.2907         C  5 -- H 17         +22.3% ( 49.0%)     97.4%
 REDUCED MASS        0.2708         C  5 -- H 16         +15.6% ( 41.0%)     95.3%
 EFFECTIVE MASS      1.5427
 FORCE CONSTANT      1.3850

 VIBRATION         77   77A           ATOM PAIR      ENERGY CONTRIBUTION    RADIAL
 FREQUENCY          3014.18         C  6 -- H 21         +55.7% ( 73.6%)     98.5%
 TRANSITION DIPOLE   0.0803         C  6 -- H 20         +40.8% ( 63.0%)     96.7%
 TRAVEL (Ang.)       0.2173         C 10 -- H 28          +1.2% ( 11.0%)    100.0%
 REDUCED MASS        0.4736         C  6 -- C 10          +0.7% (  8.0%)     18.8%
 EFFECTIVE MASS      1.2816
 FORCE CONSTANT      2.5352

 VIBRATION         78   78A           ATOM PAIR      ENERGY CONTRIBUTION    RADIAL
 FREQUENCY          3026.11         C  5 -- H 16         +58.4% ( 75.3%)     98.6%
 TRANSITION DIPOLE   0.0320         C  5 -- H 17         +39.6% ( 62.0%)     96.4%
 TRAVEL (Ang.)       0.2128         C  5 -- C  7          +0.6% (  7.8%)     25.2%
 REDUCED MASS        0.4922         C  3 -- C  5          +0.6% (  7.6%)     28.3%
 EFFECTIVE MASS      1.2755
 FORCE CONSTANT      2.6557

 VIBRATION         79   79A           ATOM PAIR      ENERGY CONTRIBUTION    RADIAL
 FREQUENCY          3027.50         C  4 -- H 19         +50.7% ( 70.1%)     98.0%
 TRANSITION DIPOLE   0.0225         C  4 -- H 18         +46.8% ( 67.4%)     97.5%
 TRAVEL (Ang.)       0.2169         C  4 -- C  8          +0.6% (  7.8%)     25.4%
 REDUCED MASS        0.4732         C  1 -- C  4          +0.6% (  7.6%)     28.6%
 EFFECTIVE MASS      1.2743
 FORCE CONSTANT      2.5557

 VIBRATION         80   80A           ATOM PAIR      ENERGY CONTRIBUTION    RADIAL
 FREQUENCY          3035.63         C  9 -- H 29         +70.9% ( 85.4%)    100.0%
 TRANSITION DIPOLE   0.2872         C 10 -- H 28         +26.1% ( 51.8%)     99.9%
 TRAVEL (Ang.)       0.1995         C  9 -- C 10          +1.1% ( 10.7%)      3.5%
 REDUCED MASS        0.5579         C  3 -- C  9          +1.0% ( 10.0%)     16.9%
 EFFECTIVE MASS      1.4621
 FORCE CONSTANT      3.0290

 VIBRATION         81   81A           ATOM PAIR      ENERGY CONTRIBUTION    RADIAL
 FREQUENCY          3038.24         C 11 -- H 30         +96.1% ( 99.4%)    100.0%
 TRANSITION DIPOLE   0.2597         C 11 -- C 12          +1.4% ( 12.1%)     31.3%
 TRAVEL (Ang.)       0.1563         C  2 -- C 11          +1.3% ( 11.7%)     14.0%
 REDUCED MASS        0.9083         C 12 -- H 31          +0.9% (  9.4%)     95.0%
 EFFECTIVE MASS      1.5022
 FORCE CONSTANT      4.9400

 VIBRATION         82   82A           ATOM PAIR      ENERGY CONTRIBUTION    RADIAL
 FREQUENCY          3058.34         C 10 -- H 28         +69.7% ( 84.7%)     99.9%
 TRANSITION DIPOLE   0.2739         C  9 -- H 29         +25.6% ( 51.3%)     99.8%
 TRAVEL (Ang.)       0.2003         C  9 -- C 10          +1.9% ( 14.2%)     91.0%
 REDUCED MASS        0.5498         C  6 -- C 10          +1.1% ( 10.6%)     16.8%
 EFFECTIVE MASS      1.5774
 FORCE CONSTANT      3.0297

 VIBRATION         83   83A           ATOM PAIR      ENERGY CONTRIBUTION    RADIAL
 FREQUENCY          3074.01         C  8 -- H 27         +62.0% ( 81.2%)     98.5%
 TRANSITION DIPOLE   0.0076         C  8 -- H 26         +32.5% ( 58.8%)     93.7%
 TRAVEL (Ang.)       0.2056         C  8 -- H 25          +4.1% ( 20.9%)     48.2%
 REDUCED MASS        0.5190         C  4 -- C  8          +1.0% ( 10.2%)      0.0%
 EFFECTIVE MASS      1.5005
 FORCE CONSTANT      2.8898

 VIBRATION         84   84A           ATOM PAIR      ENERGY CONTRIBUTION    RADIAL
 FREQUENCY          3075.21         C  7 -- H 24         +56.7% ( 77.6%)     98.0%
 TRANSITION DIPOLE   0.0156         C  7 -- H 22         +39.6% ( 64.9%)     95.4%
 TRAVEL (Ang.)       0.2083         C  7 -- H 23          +2.1% ( 14.8%)     24.3%
 REDUCED MASS        0.5052         C  5 -- C  7          +1.0% ( 10.2%)      0.0%
 EFFECTIVE MASS      1.5011
 FORCE CONSTANT      2.8151

 VIBRATION         85   85A           ATOM PAIR      ENERGY CONTRIBUTION    RADIAL
 FREQUENCY          3082.07         C  7 -- H 23         +59.9% ( 79.8%)     98.6%
 TRANSITION DIPOLE   0.0012         C  7 -- H 22         +27.5% ( 54.0%)     91.4%
 TRAVEL (Ang.)       0.2146         C  7 -- H 24         +11.1% ( 34.3%)     75.8%
 REDUCED MASS        0.4751         C  5 -- C  7          +1.0% ( 10.3%)      0.0%
 EFFECTIVE MASS      1.5026
 FORCE CONSTANT      2.6589

 VIBRATION         86   86A           ATOM PAIR      ENERGY CONTRIBUTION    RADIAL
 FREQUENCY          3082.27         C  8 -- H 25         +57.5% ( 78.2%)     98.3%
 TRANSITION DIPOLE   0.0041         C  8 -- H 26         +34.2% ( 60.3%)     93.8%
 TRAVEL (Ang.)       0.2134         C  8 -- H 27          +6.8% ( 26.9%)     63.0%
 REDUCED MASS        0.4804         C  4 -- C  8          +1.0% ( 10.3%)      0.0%
 EFFECTIVE MASS      1.5026
 FORCE CONSTANT      2.6891

 VIBRATION         87   87A           ATOM PAIR      ENERGY CONTRIBUTION    RADIAL
 FREQUENCY          3133.26         C 12 -- H 32         +91.7% ( 97.5%)     99.9%
 TRANSITION DIPOLE   0.1876         C 12 -- H 31          +6.9% ( 26.8%)     71.8%
 TRAVEL (Ang.)       0.1589         C 11 -- C 12          +1.3% ( 11.7%)     22.1%
 REDUCED MASS        0.8519
 EFFECTIVE MASS      1.5386
 FORCE CONSTANT      4.9274

 VIBRATION         88   88A           ATOM PAIR      ENERGY CONTRIBUTION    RADIAL
 FREQUENCY          3146.62         C 12 -- H 31         +91.7% ( 96.4%)     99.7%
 TRANSITION DIPOLE   0.2562         C 12 -- H 32          +5.9% ( 24.5%)     42.2%
 TRAVEL (Ang.)       0.1619         C 11 -- C 12          +1.6% ( 12.7%)     73.2%
 REDUCED MASS        0.8175         C 11 -- H 30          +0.7% (  8.6%)     94.6%
 EFFECTIVE MASS      1.4643
 FORCE CONSTANT      4.7688

 VIBRATION         89   89A           ATOM PAIR      ENERGY CONTRIBUTION    RADIAL
 FREQUENCY          3178.83         C  8 -- H 25         +37.9% ( 59.2%)     97.8%
 TRANSITION DIPOLE   0.0145         C  8 -- H 26         +32.2% ( 54.6%)     96.9%
 TRAVEL (Ang.)       0.2536         C  8 -- H 27         +29.6% ( 52.3%)     96.4%
 REDUCED MASS        0.3298         C  4 -- C  8          +0.3% (  5.1%)     99.0%
 EFFECTIVE MASS      1.1375
 FORCE CONSTANT      1.9634

 VIBRATION         90   90A           ATOM PAIR      ENERGY CONTRIBUTION    RADIAL
 FREQUENCY          3179.22         C  7 -- H 23         +37.4% ( 58.8%)     97.7%
 TRANSITION DIPOLE   0.0168         C  7 -- H 22         +31.7% ( 54.2%)     96.8%
 TRAVEL (Ang.)       0.2539         C  7 -- H 24         +30.6% ( 53.2%)     96.6%
 REDUCED MASS        0.3291         C  5 -- C  7          +0.3% (  5.1%)     99.3%
 EFFECTIVE MASS      1.1373
 FORCE CONSTANT      1.9597

      SYMMETRY NUMBER FOR POINT-GROUP C1  =  1


          SYSTEM IS A GROUND STATE



 InChI=1S/C12H20/c1-4-10-8-7-9-11(5-2)12(10)6-3/h6-8,10-12H,3-5,9H2,1-2H3


          MOLECULE IS NOT LINEAR

          THERE ARE 90 GENUINE VIBRATIONS IN THIS SYSTEM
          THIS THERMODYNAMICS CALCULATION IS LIMITED TO
          MOLECULES WHICH HAVE NO INTERNAL ROTATIONS




                    CALCULATED THERMODYNAMIC PROPERTIES
                                          *
   TEMP. (K)   PARTITION FUNCTION   H.O.F.    ENTHALPY  HEAT CAPACITY ENTROPY
                                   KCAL/MOL   CAL/MOLE    CAL/K/MOL  CAL/K/MOL


 298.00  VIB.     0.7957D+05                  6815.6602    45.5305    45.2958
         ROT.     0.1334D+07                   888.2803     2.9808    31.0070
         INT.     0.1061D+12                  7703.9405    48.5113    76.3028
         TRA.     0.2036D+28                  1480.4672     4.9680    41.1956
         TOT.                       -3.097    9184.4076    53.4793   117.4984

 200.00  VIB.     0.1745D+04                  3155.7122    29.7367    30.6118
         ROT.     0.7332D+06                   596.1613     2.9808    29.8183
         INT.     0.1279D+10                  3751.8735    32.7175    60.4301
         TRA.     0.1119D+28                   993.6021     4.9680    39.2145
         TOT.                       -7.536    4745.4756    37.6855    99.6446

 210.00  VIB.     0.2592D+04                  3460.2271    31.1737    32.0972
         ROT.     0.7889D+06                   625.9693     2.9808    29.9638
         INT.     0.2045D+10                  4086.1964    34.1545    62.0610
         TRA.     0.1204D+28                  1043.2822     4.9680    39.4569
         TOT.                       -7.152    5129.4787    39.1225   101.5179

 220.00  VIB.     0.3843D+04                  3779.3347    32.6554    33.5814
         ROT.     0.8459D+06                   655.7774     2.9808    30.1024
         INT.     0.3251D+10                  4435.1121    35.6362    63.6839
         TRA.     0.1291D+28                  1092.9623     4.9680    39.6880
         TOT.                       -6.754    5528.0745    40.6042   103.3719

 230.00  VIB.     0.5689D+04                  4113.4838    34.1818    35.0665
         ROT.     0.9042D+06                   685.5855     2.9808    30.2349
         INT.     0.5144D+10                  4799.0692    37.1626    65.3015
         TRA.     0.1380D+28                  1142.6424     4.9680    39.9088
         TOT.                       -6.340    5941.7117    42.1306   105.2103

 240.00  VIB.     0.8407D+04                  4463.1157    35.7516    36.5543
         ROT.     0.9638D+06                   715.3935     2.9808    30.3618
         INT.     0.8103D+10                  5178.5093    38.7324    66.9161
         TRA.     0.1471D+28                  1192.3226     4.9680    40.1203
         TOT.                       -5.911    6370.8318    43.7004   107.0364

 250.00  VIB.     0.1241D+05                  4828.6518    37.3621    38.0463
         ROT.     0.1025D+07                   745.2016     2.9808    30.4835
         INT.     0.1271D+11                  5573.8534    40.3429    68.5298
         TRA.     0.1564D+28                  1242.0027     4.9680    40.3231
         TOT.                       -5.466    6815.8560    45.3109   108.8529

 260.00  VIB.     0.1830D+05                  5210.4820    39.0098    39.5436
         ROT.     0.1087D+07                   775.0097     2.9808    30.6004
         INT.     0.1988D+11                  5985.4917    41.9906    70.1440
         TRA.     0.1659D+28                  1291.6828     4.9680    40.5179
         TOT.                       -5.005    7277.1744    46.9586   110.6620

 270.00  VIB.     0.2696D+05                  5608.9573    40.6904    41.0473
         ROT.     0.1150D+07                   804.8177     2.9808    30.7129
         INT.     0.3100D+11                  6413.7751    43.6712    71.7602
         TRA.     0.1756D+28                  1341.3629     4.9680    40.7054
         TOT.                       -4.527    7755.1379    48.6392   112.4656

 280.00  VIB.     0.3969D+05                  6024.3840    42.3992    42.5579
         ROT.     0.1215D+07                   834.6258     2.9808    30.8213
         INT.     0.4821D+11                  6859.0098    45.3800    73.3792
         TRA.     0.1854D+28                  1391.0430     4.9680    40.8861
         TOT.                       -4.032    8250.0527    50.3481   114.2653

 290.00  VIB.     0.5842D+05                  6457.0197    44.1314    44.0759
         ROT.     0.1280D+07                   864.4339     2.9808    30.9259
         INT.     0.7479D+11                  7321.4535    47.1122    75.0018
         TRA.     0.1954D+28                  1440.7231     4.9680    41.0604
         TOT.                       -3.520    8762.1766    52.0802   116.0623

 300.00  VIB.     0.8596D+05                  6907.0723    45.8818    45.6015
         ROT.     0.1347D+07                   894.2419     2.9808    31.0270
         INT.     0.1158D+12                  7801.3142    48.8626    76.6284
         TRA.     0.2056D+28                  1490.4032     4.9680    41.2289
         TOT.                       -2.990    9291.7174    53.8306   117.8573

 310.00  VIB.     0.1265D+06                  7374.6995    47.6455    47.1347
         ROT.     0.1415D+07                   924.0500     2.9808    31.1247
         INT.     0.1790D+12                  8298.7494    50.6263    78.2594
         TRA.     0.2160D+28                  1540.0833     4.9680    41.3918
         TOT.                       -2.443    9838.8327    55.5943   119.6511

 320.00  VIB.     0.1861D+06                  7860.0095    49.4176    48.6753
         ROT.     0.1484D+07                   953.8580     2.9808    31.2193
         INT.     0.2761D+12                  8813.8676    52.3984    79.8947
         TRA.     0.2265D+28                  1589.7634     4.9680    41.5495
         TOT.                       -1.878   10403.6310    57.3664   121.4442

 330.00  VIB.     0.2739D+06                  8363.0637    51.1935    50.2232
         ROT.     0.1554D+07                   983.6661     2.9808    31.3111
         INT.     0.4256D+12                  9346.7298    54.1743    81.5342
         TRA.     0.2372D+28                  1639.4435     4.9680    41.7024
         TOT.                       -1.296   10986.1733    59.1424   123.2366

 340.00  VIB.     0.4031D+06                  8883.8787    52.9690    51.7778
         ROT.     0.1625D+07                  1013.4742     2.9808    31.4000
         INT.     0.6551D+12                  9897.3528    55.9499    83.1779
         TRA.     0.2481D+28                  1689.1236     4.9680    41.8507
         TOT.                       -0.695   11586.4765    60.9179   125.0285

 350.00  VIB.     0.5935D+06                  9422.4298    54.7401    53.3388
         ROT.     0.1697D+07                  1043.2822     2.9808    31.4864
         INT.     0.1007D+13                 10465.7121    57.7209    84.8253
         TRA.     0.2591D+28                  1738.8037     4.9680    41.9947
         TOT.                       -0.077   12204.5158    62.6890   126.8200

 360.00  VIB.     0.8742D+06                  9978.6546    56.5032    54.9056
         ROT.     0.1771D+07                  1073.0903     2.9808    31.5704
         INT.     0.1548D+13                 11051.7449    59.4840    86.4761
         TRA.     0.2703D+28                  1788.4838     4.9680    42.1347
         TOT.                        0.559   12840.2287    64.4520   128.6107

 370.00  VIB.     0.1288D+07                 10552.4563    58.2550    56.4777
         ROT.     0.1845D+07                  1102.8984     2.9808    31.6521
         INT.     0.2377D+13                 11655.3546    61.2358    88.1298
         TRA.     0.2817D+28                  1838.1639     4.9680    42.2708
         TOT.                        1.212   13493.5186    66.2038   130.4005

 380.00  VIB.     0.1899D+07                 11143.7075    59.9927    58.0543
         ROT.     0.1920D+07                  1132.7064     2.9808    31.7316
         INT.     0.3647D+13                 12276.4140    62.9735    89.7859
         TRA.     0.2932D+28                  1887.8440     4.9680    42.4033
         TOT.                        1.883   14164.2580    67.9415   132.1892

 390.00  VIB.     0.2801D+07                 11752.2542    61.7137    59.6350
         ROT.     0.1997D+07                  1162.5145     2.9808    31.8090
         INT.     0.5592D+13                 12914.7687    64.6945    91.4440
         TRA.     0.3048D+28                  1937.5242     4.9680    42.5323
         TOT.                        2.571   14852.2929    69.6625   133.9763

 400.00  VIB.     0.4133D+07                 12377.9188    63.4159    61.2189
         ROT.     0.2074D+07                  1192.3226     2.9808    31.8845
         INT.     0.8571D+13                 13570.2414    66.3967    93.1034
         TRA.     0.3166D+28                  1987.2043     4.9680    42.6581
         TOT.                        3.276   15557.4456    71.3647   135.7615

   *: NOTE: HEATS OF FORMATION ARE RELATIVE TO THE
            ELEMENTS IN THEIR STANDARD STATE AT 298K
              (=  Standard Enthalpy of Formation).

            Hvib:  Zero-point energy is not included.
                   frequencies of less than zero cm-1 are not included.
            Hrot = (3/2)RT
            Htra = (3/2)RT + pV = (5/2)RT

            Heat capacity is Cp, not Cv

          For more information, see: HTTP://OpenMOPAC.net/Manual/thermochemistry.html


           FORCE CONSTANT IN CARTESIAN COORDINATES (Millidynes/A)

    ATOM   CHEMICAL       X               Y               Z
   NUMBER   SYMBOL  FORCE CONSTANT  FORCE CONSTANT  FORCE CONSTANT

      1       C        7.970732        8.391192        8.218112
      2       C        7.857557        8.157561        8.896694
      3       C        8.580761        8.252160        8.115424
      4       C        8.494508        8.010311        8.279775
      5       C        8.330196        8.389244        7.909213
      6       C        8.700800        8.762206        7.958095
      7       C        8.205139        8.259701        8.381194
      8       C        8.274425        8.379808        8.191488
      9       C       12.498225        8.668942        6.080434
     10       C       12.521980        8.653619        6.085072
     11       C        7.031960       11.072111        8.980389
     12       C        6.616237       10.773375        9.050645
     13       H        1.066639        1.628101        3.283469
     14       H        4.049406        0.769280        1.145201
     15       H        1.081552        1.489379        3.350312
     16       H        4.354871        1.030442        1.020050
     17       H        1.091684        2.846801        2.359755
     18       H        1.865939        1.815457        2.714791
     19       H        0.781151        1.585760        4.018319
     20       H        0.704057        1.959073        3.586284
     21       H        4.685158        0.809056        0.793459
     22       H        4.787489        1.036621        0.951551
     23       H        0.692480        1.217997        4.879135
     24       H        1.096948        3.290431        2.366481
     25       H        1.161508        4.939958        0.690148
     26       H        0.839937        1.609154        4.327373
     27       H        2.133858        1.673965        2.925358
     28       H        1.607355        2.534943        2.092428
     29       H        1.444645        4.107760        0.651316
     30       H        0.737730        1.156885        4.296244
     31       H        1.128184        1.683081        3.659131
     32       H        0.774428        1.281313        4.394447

 **********************
 *                    *
 * JOB ENDED NORMALLY *
 *                    *
 **********************



 TOTAL JOB TIME:             7.61 SECONDS

 == MOPAC DONE ==
