 *******************************************************************************
 **                                                                           **
 **                              MOPAC v23.1.2                                **
 **                                                                           **
 *******************************************************************************
 **          Digital Object Identifier (DOI): 10.5281/zenodo.6511958          **
 **    Visit the DOI location for information on how to cite this program.    **
 *******************************************************************************

                              PM3 CALCULATION RESULTS

 *******************************************************************************
 *  CALCULATION DONE: (MAX THREADS = 1)              Tue Jun  3 16:34:19 2025  *
 *  PM3        - The PM3 Hamiltonian to be used
 *  PRECISE    - TIGHTER CRITERIA TO BE USED
 *  NOSYM      - POINT-GROUP SYMMETRY SET TO C1
 *  THREADS=1  - MULTI-THREADING NOT USED
 *  T=         - A TIME OF 172800.0 SECONDS REQUESTED
 *  DUMP=N     - RESTART FILE WRITTEN EVERY 7200.0 SECONDS REQUESTED
 *******************************************************************************
pm3  precise nosym THREADS=1
 InChI=1S/C4H6/c1-4-2-3-4/h2-4H,1H3

   ATOM   CHEMICAL          X               Y               Z
  NUMBER   SYMBOL      (ANGSTROMS)     (ANGSTROMS)     (ANGSTROMS)

     1       C          0.18570000  *  -0.16410000  *   0.50950000  *
     2       C         -1.20580000  *  -0.04870000  *  -0.10820000  *
     3       C          1.08860000  *   0.81970000  *   0.08590000  *
     4       C          1.18680000  *  -0.55040000  *  -0.39120000  *
     5       H          0.31540000  *  -0.51830000  *   1.55310000  *
     6       H         -1.69520000  *  -1.04500000  *  -0.09320000  *
     7       H         -1.81680000  *   0.65240000  *   0.49800000  *
     8       H         -1.18080000  *   0.31900000  *  -1.15900000  *
     9       H          1.44820000  *   1.84250000  *   0.10100000  *
    10       H          1.67380000  *  -1.30720000  *  -0.99600000  *



          CARTESIAN COORDINATES 

    NO.       ATOM           X           Y           Z

     1         C          0.1857     -0.1641      0.5095
     2         C         -1.2058     -0.0487     -0.1082
     3         C          1.0886      0.8197      0.0859
     4         C          1.1868     -0.5504     -0.3912
     5         H          0.3154     -0.5183      1.5531
     6         H         -1.6952     -1.0450     -0.0932
     7         H         -1.8168      0.6524      0.4980
     8         H         -1.1808      0.3190     -1.1590
     9         H          1.4482      1.8425      0.1010
    10         H          1.6738     -1.3072     -0.9960

  H: (PM3): J. J. P. STEWART, J. COMP. CHEM. 10, 209 (1989).
  C: (PM3): J. J. P. STEWART, J. COMP. CHEM. 10, 209 (1989).

           Empirical Formula: C4 H6  =    10 atoms



      MOLECULAR POINT GROUP   :   C1  


      RHF CALCULATION, NO. OF DOUBLY OCCUPIED LEVELS = 11


          Geometry optimization using EF

          DIAGONAL MATRIX USED AS START HESSIAN

 CYCLE:     1 TIME:   0.004 TIME LEFT:  2.00D  GRAD.:   265.540 HEAT:  86.24038
 CYCLE:     2 TIME:   0.000 TIME LEFT:  2.00D  GRAD.:   240.527 HEAT:  72.48599
 CYCLE:     3 TIME:   0.008 TIME LEFT:  2.00D  GRAD.:   185.513 HEAT:  68.28345
 CYCLE:     4 TIME:   0.004 TIME LEFT:  2.00D  GRAD.:   119.940 HEAT:  65.91700
 CYCLE:     5 TIME:   0.004 TIME LEFT:  2.00D  GRAD.:   100.488 HEAT:  64.78510
 CYCLE:     6 TIME:   0.004 TIME LEFT:  2.00D  GRAD.:    97.332 HEAT:  64.47960
 CYCLE:     7 TIME:   0.004 TIME LEFT:  2.00D  GRAD.:    75.494 HEAT:  63.27185
 CYCLE:     8 TIME:   0.000 TIME LEFT:  2.00D  GRAD.:    90.081 HEAT:  62.93098
 CYCLE:     9 TIME:   0.004 TIME LEFT:  2.00D  GRAD.:    33.046 HEAT:  61.39102
 CYCLE:    10 TIME:   0.004 TIME LEFT:  2.00D  GRAD.:    24.654 HEAT:  61.12776
 CYCLE:    11 TIME:   0.004 TIME LEFT:  2.00D  GRAD.:    14.796 HEAT:  60.86960
 CYCLE:    12 TIME:   0.004 TIME LEFT:  2.00D  GRAD.:    14.946 HEAT:  60.64393
 CYCLE:    13 TIME:   0.004 TIME LEFT:  2.00D  GRAD.:    11.623 HEAT:  60.46614
 CYCLE:    14 TIME:   0.004 TIME LEFT:  2.00D  GRAD.:    12.969 HEAT:  60.43749
 CYCLE:    15 TIME:   0.004 TIME LEFT:  2.00D  GRAD.:     8.329 HEAT:  60.36112
 CYCLE:    16 TIME:   0.004 TIME LEFT:  2.00D  GRAD.:     6.601 HEAT:  60.30104
 CYCLE:    17 TIME:   0.004 TIME LEFT:  2.00D  GRAD.:     6.514 HEAT:  60.20662
 CYCLE:    18 TIME:   0.000 TIME LEFT:  2.00D  GRAD.:     4.084 HEAT:  60.16184
 CYCLE:    19 TIME:   0.004 TIME LEFT:  2.00D  GRAD.:     2.317 HEAT:  60.15299
 CYCLE:    20 TIME:   0.000 TIME LEFT:  2.00D  GRAD.:     2.125 HEAT:  60.14705
 CYCLE:    21 TIME:   0.004 TIME LEFT:  2.00D  GRAD.:     1.901 HEAT:  60.13979
 CYCLE:    22 TIME:   0.004 TIME LEFT:  2.00D  GRAD.:     0.681 HEAT:  60.13814
 CYCLE:    23 TIME:   0.004 TIME LEFT:  2.00D  GRAD.:     0.129 HEAT:  60.13790
 CYCLE:    24 TIME:   0.004 TIME LEFT:  2.00D  GRAD.:     0.072 HEAT:  60.13788
 CYCLE:    25 TIME:   0.004 TIME LEFT:  2.00D  GRAD.:     0.064 HEAT:  60.13787
 CYCLE:    26 TIME:   0.004 TIME LEFT:  2.00D  GRAD.:     0.042 HEAT:  60.13786

     GRADIENT =  0.04203 IS LESS THAN CUTOFF =  0.05000



 -------------------------------------------------------------------------------
 pm3  precise nosym THREADS=1
 InChI=1S/C4H6/c1-4-2-3-4/h2-4H,1H3



     GEOMETRY OPTIMISED USING EIGENVECTOR FOLLOWING (EF).     
     SCF FIELD WAS ACHIEVED                                   


                              PM3 CALCULATION
                                                       MOPAC v23.1.2 MacOS
                                                       Tue Jun  3 16:34:19 2025




          FINAL HEAT OF FORMATION =         60.13786 KCAL/MOL =     251.61682 KJ/MOL


          COSMO AREA              =        102.02 SQUARE ANGSTROMS
          COSMO VOLUME            =         86.64 CUBIC ANGSTROMS

          GRADIENT NORM           =          0.04203          =       0.01329 PER ATOM
          IONIZATION POTENTIAL    =         10.044108 EV
          HOMO LUMO ENERGIES (EV) =        -10.044  0.932
          NO. OF FILLED LEVELS    =         11
          MOLECULAR WEIGHT        =         54.0914         POINT GROUP:  C1  

          MOLECULAR DIMENSIONS (Angstroms)

            Atom       Atom       Distance
            H     9    H     6     4.35381
            H    10    H     7     4.08105
            H     5    H     8     3.00824


          SCF CALCULATIONS        =         29

          WALL-CLOCK TIME         =      0.105 SECONDS
          COMPUTATION TIME        =      0.038 SECONDS




   ATOM   CHEMICAL          X               Y               Z
  NUMBER   SYMBOL      (ANGSTROMS)     (ANGSTROMS)     (ANGSTROMS)

     1       C          0.12068975  *  -0.16269796  *   0.49036725  *
     2       C         -1.26559744  *  -0.06682464  *  -0.06870077  *
     3       C          1.18690015  *   0.76995132  *   0.03499345  *
     4       C          1.27607166  *  -0.46723132  *  -0.39643517  *
     5       H          0.12666603  *  -0.52705535  *   1.53619398  *
     6       H         -1.76094843  *  -1.04612509  *  -0.05097053  *
     7       H         -1.87670824  *   0.62578976  *   0.52423550  *
     8       H         -1.27681517  *   0.28964783  *  -1.10672197  *
     9       H          1.54906702  *   1.77879568  *   0.08778398  *
    10       H          1.76667201  *  -1.23529359  *  -0.96312196  *

                             CARTESIAN COORDINATES

   1    C        0.120689753    -0.162697962     0.490367247
   2    C       -1.265597444    -0.066824642    -0.068700770
   3    C        1.186900148     0.769951323     0.034993454
   4    C        1.276071664    -0.467231321    -0.396435174
   5    H        0.126666031    -0.527055348     1.536193984
   6    H       -1.760948427    -1.046125088    -0.050970533
   7    H       -1.876708235     0.625789764     0.524235498
   8    H       -1.276815174     0.289647829    -1.106721966
   9    H        1.549067018     1.778795681     0.087783978
  10    H        1.766672014    -1.235293593    -0.963121958


           Empirical Formula: C4 H6  =    10 atoms



      MOLECULAR POINT GROUP   :   C1  


                  EIGENVALUES  
 -38.51493 -28.69492 -20.17604 -20.16073 -17.36512 -15.17724 -14.11840 -13.71611
 -12.26426 -10.97822 -10.04411   0.93185   2.66339   3.00951   3.57445   3.85887
   4.22720   4.37750   4.71329   4.92058   5.13882   5.66215


              NET ATOMIC CHARGES AND DIPOLE CONTRIBUTIONS

  ATOM NO.   TYPE          CHARGE      No. of ELECS.   s-Pop       p-Pop       
    1          C          -0.070724        4.0707     1.15851     2.91222
    2          C          -0.102276        4.1023     1.13477     2.96750
    3          C          -0.175171        4.1752     1.21683     2.95834
    4          C          -0.175056        4.1751     1.21682     2.95823
    5          H           0.076466        0.9235     0.92353
    6          H           0.041062        0.9589     0.95894
    7          H           0.041043        0.9590     0.95896
    8          H           0.040353        0.9596     0.95965
    9          H           0.162155        0.8378     0.83785
   10          H           0.162148        0.8379     0.83785
 DIPOLE           X         Y         Z       TOTAL
 POINT-CHG.     0.173     0.036    -0.068     0.190
 HYBRID         0.058     0.045    -0.116     0.137
 SUM            0.232     0.081    -0.183     0.306


          ATOMIC ORBITAL ELECTRON POPULATIONS

     Atom    s        px        py        pz   
    1  C   1.15851   0.89524   1.04059   0.97639
    2  C   1.13477   0.95889   1.00771   1.00091
    3  C   1.21683   0.99310   0.96384   1.00140
    4  C   1.21682   0.98664   0.98885   0.98275
    5  H   0.92353
    6  H   0.95894
    7  H   0.95896
    8  H   0.95965
    9  H   0.83785
   10  H   0.83785
 *******************************************************************************
 **                                                                           **
 **                              MOPAC v23.1.2                                **
 **                                                                           **
 *******************************************************************************
 **          Digital Object Identifier (DOI): 10.5281/zenodo.6511958          **
 **    Visit the DOI location for information on how to cite this program.    **
 *******************************************************************************

                              PM3 CALCULATION RESULTS

 *******************************************************************************
 *  CALCULATION DONE: (MAX THREADS = 1)              Tue Jun  3 16:34:19 2025  *
 *  PM3        - The PM3 Hamiltonian to be used
 *  OLDGEO     - PREVIOUS GEOMETRY TO BE USED
 *  PRECISE    - TIGHTER CRITERIA TO BE USED
 *  NOSYM      - POINT-GROUP SYMMETRY SET TO C1
 *  THREADS=1  - MULTI-THREADING NOT USED
 *  T=         - A TIME OF 172800.0 SECONDS REQUESTED
 *  DUMP=N     - RESTART FILE WRITTEN EVERY 7200.0 SECONDS REQUESTED
 *  THERMO     - THERMODYNAMIC QUANTITIES TO BE CALCULATED
 *******************************************************************************
oldgeo thermo nosym precise THREADS=1  pm3
 InChI=1S/C4H6/c1-4-2-3-4/h2-4H,1H3

   ATOM   CHEMICAL          X               Y               Z
  NUMBER   SYMBOL      (ANGSTROMS)     (ANGSTROMS)     (ANGSTROMS)

     1       C          0.12068975  *  -0.16269796  *   0.49036725  *
     2       C         -1.26559744  *  -0.06682464  *  -0.06870077  *
     3       C          1.18690015  *   0.76995132  *   0.03499345  *
     4       C          1.27607166  *  -0.46723132  *  -0.39643517  *
     5       H          0.12666603  *  -0.52705535  *   1.53619398  *
     6       H         -1.76094843  *  -1.04612509  *  -0.05097053  *
     7       H         -1.87670824  *   0.62578976  *   0.52423550  *
     8       H         -1.27681517  *   0.28964783  *  -1.10672197  *
     9       H          1.54906702  *   1.77879568  *   0.08778398  *
    10       H          1.76667201  *  -1.23529359  *  -0.96312196  *



          CARTESIAN COORDINATES 

    NO.       ATOM           X           Y           Z

     1         C          0.1207     -0.1627      0.4904
     2         C         -1.2656     -0.0668     -0.0687
     3         C          1.1869      0.7700      0.0350
     4         C          1.2761     -0.4672     -0.3964
     5         H          0.1267     -0.5271      1.5362
     6         H         -1.7609     -1.0461     -0.0510
     7         H         -1.8767      0.6258      0.5242
     8         H         -1.2768      0.2896     -1.1067
     9         H          1.5491      1.7788      0.0878
    10         H          1.7667     -1.2353     -0.9631

  H: (PM3): J. J. P. STEWART, J. COMP. CHEM. 10, 209 (1989).
  C: (PM3): J. J. P. STEWART, J. COMP. CHEM. 10, 209 (1989).

           Empirical Formula: C4 H6  =    10 atoms



      MOLECULAR POINT GROUP   :   C1  


      RHF CALCULATION, NO. OF DOUBLY OCCUPIED LEVELS = 11



          HEAT OF FORMATION =      60.137863 KCALS/MOLE


          CARTESIAN COORDINATE DERIVATIVES

   NUMBER  ATOM         X            Y            Z

     1       C      0.001135    -0.006535     0.001039
     2       C      0.003115    -0.012228     0.006627
     3       C      0.004651    -0.005896    -0.000070
     4       C     -0.001957    -0.001115    -0.000488
     5       H     -0.004329    -0.000351     0.005561
     6       H      0.013876    -0.011773    -0.003649
     7       H     -0.006423     0.018456    -0.005867
     8       H     -0.002852     0.009154    -0.008696
     9       H      0.010395     0.001585     0.002274
    10       H     -0.017611     0.008700     0.003270



          GRADIENT NORM =   0.04243

          MOLECULAR WEIGHT =   54.09



          ROTATIONAL CONSTANTS IN CM(-1)

          A =    0.66244864   B =    0.22401731   C =    0.20068335



           PRINCIPAL MOMENTS OF INERTIA IN UNITS OF 10**(-40)*GRAM-CM**2

          A =       42.2565   B =      124.9580   C =      139.4872


          ORIENTATION OF MOLECULE IN FORCE CALCULATION

    NO.       ATOM         X         Y         Z

     1          C      -0.0554   -0.4512   -0.2694
     2          C       1.4425   -0.4512   -0.2694
     3          C      -0.8125    0.8297   -0.2694
     4          C      -0.8132    0.1561    0.8580
     5          H      -0.4746   -1.3311   -0.7953
     6          H       1.8316   -1.3528    0.2209
     7          H       1.8311   -0.4367   -1.2958
     8          H       1.8631    0.4167    0.2546
     9          H      -1.1028    1.6754   -0.8629
    10          H      -1.1049    0.0343    1.8836


    FIRST DERIVATIVES WILL BE USED IN THE CALCULATION OF SECOND DERIVATIVES

          ESTIMATED TIME TO COMPLETE CALCULATION =        0.47 SECONDS

    FOR POINT-GROUP C1   THERE ARE   1 UNIQUE SYMMETRY FUNCTIONS.

 STEP:   1 TIME =     0.00 SECS, INTEGRAL =      0.00 TIME LEFT: 172800.00
 STEP:   2 TIME =     0.00 SECS, INTEGRAL =      0.01 TIME LEFT: 172799.99
 STEP:   3 TIME =     0.00 SECS, INTEGRAL =      0.01 TIME LEFT: 172799.99
 STEP:   4 TIME =     0.00 SECS, INTEGRAL =      0.02 TIME LEFT: 172799.98
 STEP:   5 TIME =     0.00 SECS, INTEGRAL =      0.02 TIME LEFT: 172799.98
 STEP:   6 TIME =     0.01 SECS, INTEGRAL =      0.03 TIME LEFT: 172799.97
 STEP:   7 TIME =     0.00 SECS, INTEGRAL =      0.03 TIME LEFT: 172799.97
 STEP:   8 TIME =     0.00 SECS, INTEGRAL =      0.04 TIME LEFT: 172799.96
 STEP:   9 TIME =     0.00 SECS, INTEGRAL =      0.04 TIME LEFT: 172799.96
 STEP:  10 TIME =     0.01 SECS, INTEGRAL =      0.05 TIME LEFT: 172799.95
 STEP:  11 TIME =     0.00 SECS, INTEGRAL =      0.05 TIME LEFT: 172799.95
 STEP:  12 TIME =     0.01 SECS, INTEGRAL =      0.06 TIME LEFT: 172799.94
 STEP:  13 TIME =     0.00 SECS, INTEGRAL =      0.06 TIME LEFT: 172799.94
 STEP:  14 TIME =     0.00 SECS, INTEGRAL =      0.07 TIME LEFT: 172799.93
 STEP:  15 TIME =     0.00 SECS, INTEGRAL =      0.07 TIME LEFT: 172799.93
 STEP:  16 TIME =     0.00 SECS, INTEGRAL =      0.07 TIME LEFT: 172799.93
 STEP:  17 TIME =     0.00 SECS, INTEGRAL =      0.08 TIME LEFT: 172799.92
 STEP:  18 TIME =     0.00 SECS, INTEGRAL =      0.08 TIME LEFT: 172799.92
 STEP:  19 TIME =     0.00 SECS, INTEGRAL =      0.09 TIME LEFT: 172799.91
 STEP:  20 TIME =     0.00 SECS, INTEGRAL =      0.09 TIME LEFT: 172799.91
 STEP:  21 TIME =     0.00 SECS, INTEGRAL =      0.09 TIME LEFT: 172799.91
 STEP:  22 TIME =     0.00 SECS, INTEGRAL =      0.10 TIME LEFT: 172799.90
 STEP:  23 TIME =     0.00 SECS, INTEGRAL =      0.10 TIME LEFT: 172799.90
 STEP:  24 TIME =     0.00 SECS, INTEGRAL =      0.11 TIME LEFT: 172799.89
 STEP:  25 TIME =     0.00 SECS, INTEGRAL =      0.11 TIME LEFT: 172799.89
 STEP:  26 TIME =     0.00 SECS, INTEGRAL =      0.11 TIME LEFT: 172799.89
 STEP:  27 TIME =     0.00 SECS, INTEGRAL =      0.12 TIME LEFT: 172799.88
 STEP:  28 TIME =     0.00 SECS, INTEGRAL =      0.12 TIME LEFT: 172799.88
 STEP:  29 TIME =     0.00 SECS, INTEGRAL =      0.12 TIME LEFT: 172799.88
 STEP:  30 TIME =     0.00 SECS, INTEGRAL =      0.13 TIME LEFT: 172799.87

(To convert to Hartree/Bohr^2, multiply by (10^(-21) x N x a0^2)/(4.184 x 627.51) =  0.0642)


           FORCE MATRIX IN MILLIDYNES/ANGSTROM


                  C  1       C  2       C  3       C  4       H  5       H  6
 ------------------------------------------------------------------------------
     C    1  15.357075
     C    2   4.724553  14.540373
     C    3   5.379219   0.550713  20.476374
     C    4   5.377272   0.550109  12.436841  20.473279
     H    5   4.433526   0.421295   0.435412   0.435157   4.994239
     H    6   0.442786   4.741237   0.047707   0.014805   0.027374   5.464714
     H    7   0.442764   4.741832   0.014841   0.047527   0.027048   0.572417
     H    8   0.477016   4.746202   0.015921   0.016029   0.043497   0.571953
     H    9   0.289548   0.022602   5.553292   0.392895   0.018936   0.003529
     H   10   0.289123   0.022514   0.393345   5.552938   0.018955   0.003015


                  H  7       H  8       H  9       H 10
 ------------------------------------------------------
     H    7   5.464637
     H    8   0.572359   5.478487
     H    9   0.003016   0.002423   5.896812
     H   10   0.003485   0.002425   0.027929   5.896388


          HEAT OF FORMATION =      60.137863 KCALS/MOLE

          ZERO POINT ENERGY      53.393 KCAL/MOL


           NORMAL COORDINATE ANALYSIS (Total motion = 1 Angstrom)


   Root No.       1         2         3         4         5         6         7         8

                 1 A       2 A       3 A       4 A       5 A       6 A       7 A       8 A   

                 132.2     354.7     422.2     772.9     884.8     904.8     920.1     969.7
  
           1   -0.0001   -0.0002    0.0483    0.0051   -0.0000   -0.0052    0.0000    0.0001
           2   -0.0095   -0.0311    0.0584    0.0057   -0.0113   -0.0265   -0.0084    0.0008
           3    0.0155    0.0515    0.0354    0.0034    0.0188   -0.0160    0.0141   -0.0012
           4   -0.0001   -0.0003    0.0512    0.0222   -0.0000    0.0305   -0.0000   -0.0004
           5   -0.0001    0.0230   -0.0432   -0.0006   -0.0096   -0.0214   -0.0154    0.0160
           6    0.0004   -0.0380   -0.0262   -0.0003    0.0159   -0.0129    0.0259   -0.0258
           7   -0.0053    0.0615   -0.0477   -0.0429   -0.0252   -0.0052    0.0201    0.0378
           8   -0.0126    0.0021    0.0039   -0.0168    0.0354    0.0055    0.0296    0.0203
           9   -0.0176    0.0044    0.0027   -0.0094   -0.0178    0.0091    0.0030    0.0121
          10    0.0055   -0.0611   -0.0484   -0.0422    0.0255   -0.0053   -0.0202   -0.0374
          11    0.0215   -0.0049    0.0043   -0.0159   -0.0010    0.0106   -0.0168   -0.0209
          12    0.0027    0.0001    0.0022   -0.0104   -0.0395    0.0007   -0.0248   -0.0125
          13   -0.0002   -0.0003    0.0546    0.0442   -0.0002   -0.0303    0.0004    0.0009
          14   -0.0238   -0.0377    0.0514   -0.0083   -0.1362   -0.0164    0.0603   -0.1135
          15    0.0396    0.0626    0.0312   -0.0040    0.2280   -0.0094   -0.1012    0.1892
          16    0.0140    0.0957   -0.0088    0.0068    0.0757    0.1199    0.1568   -0.1500
          17   -0.1215    0.0483   -0.0863   -0.0143    0.0065    0.0341    0.0204   -0.0192
          18   -0.2345   -0.0707   -0.0546   -0.0112   -0.0158    0.0173   -0.0393    0.0345
          19   -0.0138   -0.0959   -0.0088    0.0072   -0.0757    0.1197   -0.1581    0.1465
          20    0.2645    0.0403   -0.0870   -0.0167    0.0109    0.0310    0.0246   -0.0222
          21   -0.0012   -0.0754   -0.0509   -0.0072   -0.0130    0.0221   -0.0364    0.0322
          22   -0.0004   -0.0004    0.1724    0.0673    0.0000   -0.1060    0.0011    0.0016
          23   -0.1307    0.0517   -0.0889   -0.0176    0.0081    0.0300    0.0290   -0.0271
          24    0.2170   -0.0854   -0.0529   -0.0103   -0.0134    0.0181   -0.0487    0.0439
          25   -0.0129    0.1695   -0.1239    0.2828   -0.0308   -0.1395   -0.1766   -0.1359
          26   -0.0319    0.0251   -0.0358    0.1894    0.1516    0.0880   -0.0609   -0.0603
          27   -0.0415   -0.0155   -0.0171    0.1246    0.1482    0.1920   -0.0301   -0.0180
          28    0.0134   -0.1680   -0.1256    0.2807    0.0290   -0.1395    0.1772    0.1351
          29    0.0517    0.0024   -0.0316    0.1971   -0.2031    0.2112    0.0579    0.0484
          30    0.0085   -0.0293   -0.0237    0.1068   -0.0638   -0.0134    0.0399    0.0445


   Root No.       9        10        11        12        13        14        15        16

                 9 A      10 A      11 A      12 A      13 A      14 A      15 A      16 A   

                 975.2    1087.2    1118.8    1150.2    1211.2    1363.3    1399.5    1404.4
  
           1    0.0073   -0.0000   -0.0780   -0.0003   -0.0139   -0.0397   -0.0131    0.0000
           2   -0.0005    0.0180   -0.0654   -0.0573   -0.0295    0.0437    0.0076    0.0006
           3   -0.0003   -0.0301   -0.0394    0.0956   -0.0173    0.0261    0.0045   -0.0010
           4   -0.0276    0.0000    0.0743    0.0002   -0.0165   -0.0540    0.0016   -0.0000
           5    0.0302   -0.0100    0.0395    0.0181   -0.0159   -0.0014   -0.0372    0.0228
           6    0.0184    0.0167    0.0238   -0.0301   -0.0097   -0.0007   -0.0233   -0.0362
           7    0.0195   -0.0289   -0.0104   -0.0416   -0.0118    0.0174    0.0026    0.0007
           8   -0.0162    0.0362    0.0208    0.0594    0.0316   -0.0117   -0.0014   -0.0004
           9   -0.0120    0.0364    0.0206    0.0034    0.0296   -0.0284   -0.0054   -0.0001
          10    0.0206    0.0289   -0.0107    0.0417   -0.0117    0.0174    0.0026   -0.0007
          11   -0.0177   -0.0492    0.0283   -0.0311    0.0410   -0.0305   -0.0054    0.0003
          12   -0.0082   -0.0146    0.0088   -0.0506    0.0135    0.0032    0.0013    0.0003
          13    0.0753    0.0001   -0.1145   -0.0015    0.6044    0.0504    0.0174   -0.0004
          14   -0.0253   -0.0949   -0.0508    0.1049   -0.2376    0.0132   -0.0033    0.0028
          15   -0.0177    0.1587   -0.0298   -0.1749   -0.1423    0.0079   -0.0021   -0.0043
          16   -0.1449    0.0732    0.0331   -0.1410    0.0278    0.2455   -0.0464    0.1419
          17   -0.0434    0.0058   -0.0217   -0.0124   -0.0029    0.0669    0.1505    0.1547
          18   -0.0223   -0.0140   -0.0439    0.0323   -0.0113   -0.0727    0.3322    0.1482
          19   -0.1461   -0.0733    0.0338    0.1422    0.0284    0.2461   -0.0518   -0.1394
          20   -0.0395    0.0094   -0.0487   -0.0223   -0.0117   -0.0325    0.3568   -0.2166
          21   -0.0282   -0.0116    0.0014    0.0261    0.0029    0.0931   -0.0238   -0.0668
          22    0.1550    0.0006    0.3613    0.0002   -0.0256    0.1786    0.1581   -0.0024
          23   -0.0386    0.0080   -0.0630   -0.0217   -0.0143   -0.0696   -0.0712   -0.2182
          24   -0.0235   -0.0136   -0.0382    0.0361   -0.0081   -0.0429   -0.0344    0.3639
          25   -0.0854    0.1126   -0.0091    0.0211    0.0036   -0.0090   -0.0018   -0.0007
          26    0.0518   -0.0785   -0.0298    0.0235   -0.0126    0.0074    0.0012   -0.0006
          27    0.1379   -0.1954   -0.0538   -0.0792   -0.0444    0.0110    0.0001    0.0004
          28   -0.0897   -0.1125   -0.0085   -0.0213    0.0038   -0.0090   -0.0018    0.0007
          29    0.1446    0.2091   -0.0622    0.0586   -0.0449    0.0131    0.0007   -0.0000
          30   -0.0212   -0.0236   -0.0004   -0.0584    0.0097    0.0013    0.0011    0.0006


   Root No.      17        18        19        20        21        22        23        24

                17 A      18 A      19 A      20 A      21 A      22 A      23 A      24 A   

                1461.9    1925.3    2975.1    3081.6    3083.3    3179.9    3266.9    3303.6
  
           1    0.1268    0.0545   -0.0239   -0.0000   -0.0006    0.0004   -0.0000   -0.0028
           2   -0.0669   -0.0506   -0.0550    0.0000   -0.0021   -0.0002   -0.0002    0.0037
           3   -0.0399   -0.0302   -0.0328   -0.0002   -0.0013   -0.0001    0.0003    0.0022
           4   -0.0983   -0.0105   -0.0003   -0.0001   -0.0007    0.0248    0.0000   -0.0001
           5    0.0066    0.0028    0.0033    0.0281   -0.0437    0.0002   -0.0000    0.0001
           6    0.0038    0.0016    0.0020   -0.0502   -0.0244    0.0001    0.0001    0.0001
           7   -0.0268   -0.0148   -0.0005    0.0002   -0.0003   -0.0000   -0.0105    0.0116
           8    0.0082    0.1077    0.0003   -0.0000    0.0001    0.0000    0.0306   -0.0384
           9    0.0535   -0.1378   -0.0018   -0.0001    0.0000    0.0001   -0.0214    0.0314
          10   -0.0268   -0.0150   -0.0005   -0.0002   -0.0003   -0.0000    0.0106    0.0116
          11    0.0510   -0.0704   -0.0014    0.0001    0.0001    0.0001    0.0044    0.0094
          12   -0.0182    0.1602    0.0011   -0.0000    0.0001   -0.0000   -0.0373   -0.0486
          13   -0.1259   -0.0324    0.3082    0.0005    0.0142    0.0014    0.0000   -0.0016
          14    0.0192   -0.0321    0.6683    0.0015    0.0224    0.0014   -0.0003   -0.0004
          15    0.0115   -0.0192    0.3995   -0.0008    0.0134    0.0009    0.0006   -0.0002
          16    0.0996   -0.0093    0.0034    0.1535   -0.0852   -0.0955   -0.0000    0.0005
          17    0.0700    0.0000   -0.0174   -0.3729    0.1914    0.2684    0.0003   -0.0010
          18   -0.0042   -0.0009    0.0103    0.1851   -0.1290   -0.1460   -0.0002    0.0006
          19    0.0997   -0.0091    0.0033   -0.1594   -0.0759   -0.0952    0.0001    0.0005
          20    0.0282   -0.0007    0.0010    0.0077   -0.0257   -0.0044    0.0000    0.0001
          21    0.0637    0.0004   -0.0200    0.4329    0.2048    0.3057   -0.0004   -0.0012
          22    0.1885    0.0140   -0.0088    0.0065    0.1696   -0.1093    0.0000   -0.0004
          23   -0.0803   -0.0059   -0.0282    0.0289    0.3554   -0.2668   -0.0000    0.0000
          24   -0.0478   -0.0035   -0.0170   -0.0168    0.2156   -0.1611    0.0000    0.0000
          25    0.0182   -0.0659   -0.0033    0.0003   -0.0004   -0.0002    0.1237   -0.1206
          26   -0.0172    0.1879    0.0042   -0.0003    0.0009    0.0007   -0.3613    0.3509
          27    0.0015   -0.1284   -0.0025    0.0002   -0.0006   -0.0005    0.2551   -0.2459
          28    0.0182   -0.0659   -0.0033   -0.0003   -0.0004   -0.0002   -0.1246   -0.1206
          29   -0.0067   -0.0239   -0.0002   -0.0001   -0.0001   -0.0001   -0.0535   -0.0499
          30   -0.0157    0.2263    0.0048    0.0004    0.0010    0.0009    0.4406    0.4236


           MASS-WEIGHTED COORDINATE ANALYSIS (NORMAL COORDINATES)


   Root No.       1         2         3         4         5         6         7         8

                 1 A       2 A       3 A       4 A       5 A       6 A       7 A       8 A   

                 132.2     354.7     422.2     772.9     884.8     904.8     920.1     969.7
  
           1   -0.0008   -0.0016    0.3032    0.0306   -0.0000   -0.0397    0.0004    0.0007
           2   -0.0684   -0.2093    0.3665    0.0346   -0.0797   -0.2013   -0.0669    0.0060
           3    0.1124    0.3460    0.2222    0.0207    0.1333   -0.1212    0.1122   -0.0092
           4   -0.0006   -0.0017    0.3211    0.1340   -0.0003    0.2311   -0.0003   -0.0029
           5   -0.0010    0.1544   -0.2713   -0.0036   -0.0678   -0.1619   -0.1227    0.1233
           6    0.0028   -0.2555   -0.1641   -0.0018    0.1125   -0.0975    0.2062   -0.1983
           7   -0.0381    0.4134   -0.2993   -0.2590   -0.1788   -0.0394    0.1602    0.2905
           8   -0.0908    0.0144    0.0246   -0.1017    0.2508    0.0420    0.2359    0.1561
           9   -0.1274    0.0294    0.0168   -0.0566   -0.1264    0.0690    0.0237    0.0930
          10    0.0395   -0.4104   -0.3039   -0.2548    0.1803   -0.0401   -0.1608   -0.2871
          11    0.1551   -0.0330    0.0267   -0.0963   -0.0069    0.0807   -0.1341   -0.1604
          12    0.0196    0.0006    0.0135   -0.0629   -0.2801    0.0055   -0.1977   -0.0960
          13   -0.0005   -0.0005    0.0993    0.0774   -0.0004   -0.0666    0.0009    0.0020
          14   -0.0498   -0.0735    0.0934   -0.0146   -0.2796   -0.0360    0.1393   -0.2526
          15    0.0829    0.1219    0.0567   -0.0071    0.4680   -0.0206   -0.2337    0.4212
          16    0.0293    0.1863   -0.0159    0.0118    0.1553    0.2633    0.3620   -0.3339
          17   -0.2545    0.0940   -0.1569   -0.0251    0.0133    0.0750    0.0470   -0.0428
          18   -0.4911   -0.1378   -0.0992   -0.0196   -0.0324    0.0381   -0.0908    0.0768
          19   -0.0288   -0.1868   -0.0159    0.0126   -0.1554    0.2629   -0.3649    0.3261
          20    0.5539    0.0784   -0.1582   -0.0291    0.0224    0.0682    0.0568   -0.0495
          21   -0.0025   -0.1468   -0.0926   -0.0126   -0.0266    0.0484   -0.0841    0.0718
          22   -0.0009   -0.0008    0.3132    0.1177    0.0000   -0.2329    0.0026    0.0035
          23   -0.2737    0.1006   -0.1616   -0.0308    0.0166    0.0659    0.0670   -0.0602
          24    0.4544   -0.1663   -0.0962   -0.0181   -0.0274    0.0397   -0.1125    0.0978
          25   -0.0271    0.3302   -0.2252    0.4947   -0.0633   -0.3065   -0.4077   -0.3026
          26   -0.0669    0.0489   -0.0651    0.3313    0.3112    0.1934   -0.1406   -0.1342
          27   -0.0868   -0.0303   -0.0310    0.2180    0.3042    0.4217   -0.0695   -0.0400
          28    0.0280   -0.3272   -0.2282    0.4911    0.0595   -0.3065    0.4091    0.3008
          29    0.1083    0.0048   -0.0574    0.3448   -0.4168    0.4638    0.1336    0.1078
          30    0.0179   -0.0571   -0.0431    0.1869   -0.1310   -0.0295    0.0922    0.0992


   Root No.       9        10        11        12        13        14        15        16

                 9 A      10 A      11 A      12 A      13 A      14 A      15 A      16 A   

                 975.2    1087.2    1118.8    1150.2    1211.2    1363.3    1399.5    1404.4
  
           1    0.0590   -0.0003   -0.4137   -0.0015   -0.0665   -0.2517   -0.0792    0.0002
           2   -0.0037    0.1213   -0.3467   -0.3175   -0.1411    0.2774    0.0461    0.0037
           3   -0.0023   -0.2031   -0.2089    0.5294   -0.0826    0.1655    0.0271   -0.0061
           4   -0.2238    0.0003    0.3939    0.0014   -0.0790   -0.3426    0.0100   -0.0003
           5    0.2444   -0.0673    0.2094    0.1004   -0.0761   -0.0089   -0.2257    0.1355
           6    0.1487    0.1126    0.1260   -0.1664   -0.0463   -0.0046   -0.1414   -0.2148
           7    0.1582   -0.1953   -0.0550   -0.2304   -0.0565    0.1103    0.0160    0.0041
           8   -0.1314    0.2447    0.1105    0.3286    0.1513   -0.0741   -0.0087   -0.0024
           9   -0.0970    0.2456    0.1093    0.0187    0.1419   -0.1802   -0.0328   -0.0007
          10    0.1668    0.1949   -0.0569    0.2306   -0.0559    0.1102    0.0157   -0.0039
          11   -0.1430   -0.3320    0.1499   -0.1722    0.1960   -0.1936   -0.0328    0.0016
          12   -0.0664   -0.0987    0.0468   -0.2803    0.0647    0.0206    0.0081    0.0017
          13    0.1767    0.0001   -0.1760   -0.0024    0.8378    0.0926    0.0306   -0.0006
          14   -0.0592   -0.1856   -0.0780    0.1683   -0.3293    0.0243   -0.0059    0.0048
          15   -0.0415    0.3104   -0.0457   -0.2805   -0.1972    0.0145   -0.0037   -0.0074
          16   -0.3399    0.1431    0.0509   -0.2262    0.0385    0.4509   -0.0814    0.2439
          17   -0.1017    0.0113   -0.0334   -0.0199   -0.0040    0.1229    0.2644    0.2657
          18   -0.0523   -0.0274   -0.0674    0.0518   -0.0157   -0.1335    0.5834    0.2546
          19   -0.3427   -0.1434    0.0519    0.2281    0.0394    0.4520   -0.0909   -0.2395
          20   -0.0926    0.0184   -0.0749   -0.0358   -0.0162   -0.0596    0.6266   -0.3722
          21   -0.0661   -0.0226    0.0021    0.0419    0.0041    0.1711   -0.0417   -0.1148
          22    0.3636    0.0011    0.5551    0.0003   -0.0354    0.3281    0.2777   -0.0042
          23   -0.0906    0.0157   -0.0968   -0.0349   -0.0199   -0.1278   -0.1251   -0.3749
          24   -0.0552   -0.0266   -0.0587    0.0578   -0.0112   -0.0788   -0.0604    0.6251
          25   -0.2003    0.2203   -0.0140    0.0338    0.0050   -0.0166   -0.0032   -0.0012
          26    0.1215   -0.1536   -0.0459    0.0377   -0.0175    0.0135    0.0022   -0.0009
          27    0.3234   -0.3822   -0.0826   -0.1271   -0.0615    0.0202    0.0002    0.0006
          28   -0.2104   -0.2201   -0.0130   -0.0341    0.0053   -0.0165   -0.0031    0.0011
          29    0.3391    0.4090   -0.0956    0.0940   -0.0622    0.0240    0.0012   -0.0000
          30   -0.0498   -0.0462   -0.0006   -0.0936    0.0135    0.0024    0.0019    0.0011


   Root No.      17        18        19        20        21        22        23        24

                17 A      18 A      19 A      20 A      21 A      22 A      23 A      24 A   

                1461.9    1925.3    2975.1    3081.6    3083.3    3179.9    3266.9    3303.6
  
           1    0.5859    0.1954   -0.0947   -0.0001   -0.0036    0.0024   -0.0001   -0.0144
           2   -0.3090   -0.1815   -0.2177    0.0000   -0.0126   -0.0011   -0.0008    0.0187
           3   -0.1845   -0.1083   -0.1301   -0.0009   -0.0075   -0.0007    0.0013    0.0112
           4   -0.4541   -0.0377   -0.0012   -0.0003   -0.0042    0.1509    0.0000   -0.0004
           5    0.0303    0.0099    0.0131    0.1443   -0.2581    0.0010   -0.0002    0.0007
           6    0.0177    0.0059    0.0078   -0.2581   -0.1444    0.0004    0.0004    0.0004
           7   -0.1238   -0.0531   -0.0018    0.0009   -0.0016   -0.0002   -0.0536    0.0593
           8    0.0379    0.3860    0.0014   -0.0002    0.0004    0.0000    0.1558   -0.1962
           9    0.2473   -0.4939   -0.0069   -0.0004    0.0002    0.0005   -0.1092    0.1606
          10   -0.1236   -0.0539   -0.0018   -0.0010   -0.0015   -0.0002    0.0540    0.0593
          11    0.2357   -0.2521   -0.0055    0.0005    0.0003    0.0005    0.0225    0.0483
          12   -0.0840    0.5738    0.0045   -0.0000    0.0003   -0.0002   -0.1899   -0.2481
          13   -0.1685   -0.0337    0.3537    0.0007    0.0243    0.0025    0.0000   -0.0024
          14    0.0257   -0.0333    0.7670    0.0022    0.0383    0.0025   -0.0005   -0.0006
          15    0.0154   -0.0199    0.4585   -0.0012    0.0230    0.0015    0.0009   -0.0003
          16    0.1333   -0.0097    0.0038    0.2288   -0.1459   -0.1685   -0.0001    0.0007
          17    0.0937    0.0000   -0.0200   -0.5557    0.3277    0.4735    0.0005   -0.0015
          18   -0.0057   -0.0009    0.0118    0.2758   -0.2208   -0.2576   -0.0003    0.0009
          19    0.1335   -0.0094    0.0038   -0.2375   -0.1299   -0.1680    0.0001    0.0007
          20    0.0377   -0.0008    0.0012    0.0115   -0.0441   -0.0078    0.0000    0.0001
          21    0.0853    0.0005   -0.0229    0.6452    0.3506    0.5392   -0.0006   -0.0017
          22    0.2523    0.0146   -0.0101    0.0097    0.2904   -0.1927    0.0000   -0.0005
          23   -0.1074   -0.0062   -0.0323    0.0430    0.6084   -0.4705   -0.0000    0.0000
          24   -0.0639   -0.0037   -0.0195   -0.0251    0.3690   -0.2841    0.0000    0.0000
          25    0.0243   -0.0684   -0.0038    0.0004   -0.0007   -0.0004    0.1825   -0.1785
          26   -0.0230    0.1950    0.0049   -0.0005    0.0015    0.0012   -0.5329    0.5193
          27    0.0020   -0.1333   -0.0029    0.0003   -0.0010   -0.0009    0.3763   -0.3638
          28    0.0243   -0.0684   -0.0038   -0.0004   -0.0007   -0.0003   -0.1838   -0.1784
          29   -0.0090   -0.0248   -0.0002   -0.0001   -0.0002   -0.0002   -0.0789   -0.0738
          30   -0.0211    0.2349    0.0056    0.0007    0.0017    0.0015    0.6500    0.6269


          DESCRIPTION OF VIBRATIONS


 VIBRATION          1    1A           ATOM PAIR      ENERGY CONTRIBUTION    RADIAL
 FREQUENCY           132.19         C  2 -- H  7         +30.8% (441.7%)      0.0%
 TRANSITION DIPOLE   0.0186         C  2 -- H  6         +30.7% (441.3%)      0.0%
 TRAVEL (Ang.)       0.0000         C  2 -- H  8         +28.2% (422.4%)      0.0%
 REDUCED MASS        0.2903         C  1 -- C  4          +2.1% (115.0%)      0.0%
 EFFECTIVE MASS     10.7201
 FORCE CONSTANT      0.0030

 VIBRATION          2    2A           ATOM PAIR      ENERGY CONTRIBUTION    RADIAL
 FREQUENCY           354.74         C  1 -- C  2         +19.1% (139.1%)      0.0%
 TRANSITION DIPOLE   0.1149         C  3 -- C  4         +15.2% (124.3%)      0.0%
 TRAVEL (Ang.)       0.4062         C  1 -- C  3         +11.3% (107.2%)      0.1%
 REDUCED MASS        1.1518         C  1 -- C  4         +11.3% (107.0%)      0.1%
 EFFECTIVE MASS     22.2626
 FORCE CONSTANT      0.0854

 VIBRATION          3    3A           ATOM PAIR      ENERGY CONTRIBUTION    RADIAL
 FREQUENCY           422.15         C  1 -- C  2         +21.6% (166.1%)      0.1%
 TRANSITION DIPOLE   0.0785         C  1 -- C  4         +15.5% (140.6%)      0.0%
 TRAVEL (Ang.)       0.3120         C  1 -- C  3         +15.4% (140.5%)      0.0%
 REDUCED MASS        1.6405         C  2 -- H  8         +13.0% (128.9%)     80.7%
 EFFECTIVE MASS     23.1924
 FORCE CONSTANT      0.1723

 VIBRATION          4    4A           ATOM PAIR      ENERGY CONTRIBUTION    RADIAL
 FREQUENCY           772.88         C  3 -- H  9         +40.0% ( 75.9%)      0.0%
 TRANSITION DIPOLE   0.8337         C  4 -- H 10         +39.4% ( 75.3%)      0.0%
 TRAVEL (Ang.)       0.4282         C  2 -- H  8          +3.4% ( 22.2%)     99.4%
 REDUCED MASS        0.4758         C  1 -- C  3          +3.1% ( 21.0%)      0.8%
 EFFECTIVE MASS      2.4133
 FORCE CONSTANT      0.1674

 VIBRATION          5    5A           ATOM PAIR      ENERGY CONTRIBUTION    RADIAL
 FREQUENCY           884.77         C  4 -- H 10         +16.5% ( 63.1%)     24.0%
 TRANSITION DIPOLE   0.1671         C  3 -- C  4         +16.5% ( 63.1%)      0.0%
 TRAVEL (Ang.)       0.4017         C  3 -- H  9         +16.4% ( 63.0%)     24.3%
 REDUCED MASS        0.4723         C  1 -- C  3         +16.1% ( 62.3%)     67.6%
 EFFECTIVE MASS      5.4172         C  1 -- C  4         +16.1% ( 62.3%)     67.5%
 FORCE CONSTANT      0.2178         C  1 -- H  5         +10.8% ( 51.0%)      0.0%

 VIBRATION          6    6A           ATOM PAIR      ENERGY CONTRIBUTION    RADIAL
 FREQUENCY           904.84         C  4 -- H 10         +15.9% ( 53.1%)      0.0%
 TRANSITION DIPOLE   0.1282         C  3 -- H  9         +15.8% ( 53.0%)      0.0%
 TRAVEL (Ang.)       0.4653         C  2 -- H  8         +15.1% ( 51.8%)      1.6%
 REDUCED MASS        0.3442         C  1 -- C  2         +13.0% ( 48.1%)     97.2%
 EFFECTIVE MASS      3.5495         C  2 -- H  6         +10.7% ( 43.7%)     19.9%
 FORCE CONSTANT      0.1660         C  2 -- H  7         +10.7% ( 43.6%)     19.8%

 VIBRATION          7    7A           ATOM PAIR      ENERGY CONTRIBUTION    RADIAL
 FREQUENCY           920.06         C  2 -- H  7         +16.1% ( 51.8%)      8.4%
 TRANSITION DIPOLE   0.0589         C  2 -- H  6         +15.9% ( 51.5%)      8.3%
 TRAVEL (Ang.)       0.4730         C  4 -- H 10         +15.5% ( 50.8%)      1.7%
 REDUCED MASS        0.3276         C  3 -- H  9         +15.2% ( 50.4%)      1.8%
 EFFECTIVE MASS      3.4668
 FORCE CONSTANT      0.1634

 VIBRATION          8    8A           ATOM PAIR      ENERGY CONTRIBUTION    RADIAL
 FREQUENCY           969.73         C  1 -- H  5         +16.7% ( 46.3%)      0.0%
 TRANSITION DIPOLE   0.1291         C  2 -- H  6         +16.0% ( 45.3%)      9.5%
 TRAVEL (Ang.)       0.3815         C  2 -- H  7         +15.7% ( 44.8%)      9.1%
 REDUCED MASS        0.4779         C  4 -- H 10         +13.2% ( 41.1%)      0.0%
 EFFECTIVE MASS      3.4768         C  3 -- H  9         +13.1% ( 41.0%)      0.0%
 FORCE CONSTANT      0.2648

 VIBRATION          9    9A           ATOM PAIR      ENERGY CONTRIBUTION    RADIAL
 FREQUENCY           975.23         C  2 -- H  8         +22.1% ( 63.8%)      3.8%
 TRANSITION DIPOLE   0.0863         C  2 -- H  7         +15.0% ( 52.5%)     13.7%
 TRAVEL (Ang.)       0.4251         C  2 -- H  6         +14.9% ( 52.4%)     13.5%
 REDUCED MASS        0.3826         C  4 -- H 10         +12.8% ( 48.5%)      1.1%
 EFFECTIVE MASS      3.8833         C  3 -- H  9         +12.6% ( 48.2%)      1.1%
 FORCE CONSTANT      0.2144         C  1 -- C  2         +10.3% ( 43.5%)     48.7%

 VIBRATION         10   10A           ATOM PAIR      ENERGY CONTRIBUTION    RADIAL
 FREQUENCY          1087.22         C  3 -- H  9         +24.1% ( 58.5%)      0.9%
 TRANSITION DIPOLE   0.1737         C  4 -- H 10         +24.1% ( 58.5%)      0.9%
 TRAVEL (Ang.)       0.2864         C  3 -- C  4         +14.8% ( 45.8%)      0.0%
 REDUCED MASS        0.7559         C  1 -- H  5         +11.9% ( 41.0%)      0.0%
 EFFECTIVE MASS      4.2147
 FORCE CONSTANT      0.5264

 VIBRATION         11   11A           ATOM PAIR      ENERGY CONTRIBUTION    RADIAL
 FREQUENCY          1118.76         C  1 -- C  2         +28.9% ( 84.1%)     60.8%
 TRANSITION DIPOLE   0.3429         C  2 -- H  8         +15.1% ( 60.8%)     46.9%
 TRAVEL (Ang.)       0.1725         C  1 -- C  4         +13.8% ( 58.1%)     10.5%
 REDUCED MASS        2.0263         C  1 -- C  3         +13.8% ( 58.1%)     10.1%
 EFFECTIVE MASS      8.7202
 FORCE CONSTANT      1.4943

 VIBRATION         12   12A           ATOM PAIR      ENERGY CONTRIBUTION    RADIAL
 FREQUENCY          1150.21         C  1 -- C  3         +20.0% ( 69.3%)     61.9%
 TRANSITION DIPOLE   0.2639         C  1 -- C  4         +20.0% ( 69.3%)     61.9%
 TRAVEL (Ang.)       0.1561         C  1 -- H  5         +14.4% ( 58.9%)      0.0%
 REDUCED MASS        2.4055         C  3 -- C  4         +13.7% ( 57.4%)      0.0%
 EFFECTIVE MASS      9.3698         C  1 -- C  2         +10.1% ( 49.2%)      0.0%
 FORCE CONSTANT      1.8750

 VIBRATION         13   13A           ATOM PAIR      ENERGY CONTRIBUTION    RADIAL
 FREQUENCY          1211.23         C  1 -- H  5         +73.4% ( 90.8%)      2.2%
 TRANSITION DIPOLE   0.2246         C  1 -- C  3          +5.8% ( 25.6%)     44.7%
 TRAVEL (Ang.)       0.2652         C  1 -- C  4          +5.8% ( 25.5%)     43.9%
 REDUCED MASS        0.7917         C  3 -- C  4          +4.0% ( 21.3%)    100.0%
 EFFECTIVE MASS      2.3256
 FORCE CONSTANT      0.6843

 VIBRATION         14   14A           ATOM PAIR      ENERGY CONTRIBUTION    RADIAL
 FREQUENCY          1363.32         C  2 -- H  7         +16.9% ( 52.2%)      2.0%
 TRANSITION DIPOLE   0.1264         C  2 -- H  6         +16.8% ( 52.2%)      2.0%
 TRAVEL (Ang.)       0.2670         C  1 -- C  3         +13.1% ( 46.1%)     63.3%
 REDUCED MASS        0.6939         C  1 -- C  4         +13.1% ( 46.1%)     63.3%
 EFFECTIVE MASS      4.8191         C  2 -- H  8         +12.0% ( 44.1%)      3.5%
 FORCE CONSTANT      0.7598         C  1 -- C  2         +11.1% ( 42.4%)      6.9%

 VIBRATION         15   15A           ATOM PAIR      ENERGY CONTRIBUTION    RADIAL
 FREQUENCY          1399.50         C  2 -- H  6         +40.3% ( 56.6%)      1.6%
 TRANSITION DIPOLE   0.0682         C  2 -- H  7         +39.0% ( 55.7%)      1.9%
 TRAVEL (Ang.)       0.3430         C  2 -- H  8         +10.0% ( 28.2%)     55.2%
 REDUCED MASS        0.4096         C  1 -- C  2          +6.7% ( 23.1%)      7.2%
 EFFECTIVE MASS      1.7608
 FORCE CONSTANT      0.4727

 VIBRATION         16   16A           ATOM PAIR      ENERGY CONTRIBUTION    RADIAL
 FREQUENCY          1404.40         C  2 -- H  8         +53.2% ( 62.9%)      0.0%
 TRANSITION DIPOLE   0.0308         C  2 -- H  7         +21.6% ( 40.0%)     10.5%
 TRAVEL (Ang.)       0.3394         C  2 -- H  6         +20.1% ( 38.7%)     12.1%
 REDUCED MASS        0.4169         C  1 -- C  2          +5.0% ( 19.3%)      0.0%
 EFFECTIVE MASS      1.5544
 FORCE CONSTANT      0.4844

 VIBRATION         17   17A           ATOM PAIR      ENERGY CONTRIBUTION    RADIAL
 FREQUENCY          1461.88         C  1 -- C  2         +24.4% ( 79.9%)     87.4%
 TRANSITION DIPOLE   0.3948         C  1 -- C  3         +16.6% ( 66.0%)     53.7%
 TRAVEL (Ang.)       0.1172         C  1 -- C  4         +16.6% ( 66.0%)     53.7%
 REDUCED MASS        3.3569         C  1 -- H  5         +15.6% ( 63.9%)      0.8%
 EFFECTIVE MASS     10.1340
 FORCE CONSTANT      4.2268

 VIBRATION         18   18A           ATOM PAIR      ENERGY CONTRIBUTION    RADIAL
 FREQUENCY          1925.29         C  3 -- C  4         +42.0% ( 97.5%)    100.0%
 TRANSITION DIPOLE   0.2216         C  1 -- C  3         +16.5% ( 61.1%)     71.0%
 TRAVEL (Ang.)       0.0953         C  1 -- C  4         +16.5% ( 61.1%)     71.0%
 REDUCED MASS        3.8526         C  3 -- H  9         +10.7% ( 49.1%)     71.7%
 EFFECTIVE MASS     11.8825         C  4 -- H 10         +10.7% ( 49.1%)     71.7%
 FORCE CONSTANT      8.4138

 VIBRATION         19   19A           ATOM PAIR      ENERGY CONTRIBUTION    RADIAL
 FREQUENCY          2975.08         C  1 -- H  5         +96.5% ( 99.8%)    100.0%
 TRANSITION DIPOLE   0.0498         C  1 -- C  2          +1.1% ( 10.5%)     10.8%
 TRAVEL (Ang.)       0.1566         C  1 -- C  4          +1.1% ( 10.5%)     27.8%
 REDUCED MASS        0.9244         C  1 -- C  3          +1.1% ( 10.5%)     27.8%
 EFFECTIVE MASS      1.4400
 FORCE CONSTANT      4.8206

 VIBRATION         20   20A           ATOM PAIR      ENERGY CONTRIBUTION    RADIAL
 FREQUENCY          3081.57         C  2 -- H  7         +50.9% ( 73.6%)     97.3%
 TRANSITION DIPOLE   0.0219         C  2 -- H  6         +47.1% ( 70.8%)     96.7%
 TRAVEL (Ang.)       0.2072         C  2 -- H  8          +1.0% ( 10.4%)      1.9%
 REDUCED MASS        0.5098         C  1 -- C  2          +1.0% ( 10.3%)      0.0%
 EFFECTIVE MASS      1.5043
 FORCE CONSTANT      2.8521

 VIBRATION         21   21A           ATOM PAIR      ENERGY CONTRIBUTION    RADIAL
 FREQUENCY          3083.28         C  2 -- H  8         +63.5% ( 82.2%)     98.8%
 TRANSITION DIPOLE   0.0253         C  2 -- H  6         +19.5% ( 45.6%)     86.7%
 TRAVEL (Ang.)       0.2101         C  2 -- H  7         +15.7% ( 40.9%)     83.0%
 REDUCED MASS        0.4954         C  1 -- C  2          +1.0% ( 10.4%)      0.0%
 EFFECTIVE MASS      1.5070
 FORCE CONSTANT      2.7749

 VIBRATION         22   22A           ATOM PAIR      ENERGY CONTRIBUTION    RADIAL
 FREQUENCY          3179.87         C  2 -- H  8         +34.7% ( 56.7%)     97.3%
 TRANSITION DIPOLE   0.0301         C  2 -- H  7         +32.5% ( 54.9%)     97.1%
 TRAVEL (Ang.)       0.2545         C  2 -- H  6         +32.5% ( 54.9%)     97.0%
 REDUCED MASS        0.3273         C  1 -- C  2          +0.3% (  5.2%)    100.0%
 EFFECTIVE MASS      1.1369
 FORCE CONSTANT      1.9501

 VIBRATION         23   23A           ATOM PAIR      ENERGY CONTRIBUTION    RADIAL
 FREQUENCY          3266.89         C  4 -- H 10         +48.8% ( 71.1%)    100.0%
 TRANSITION DIPOLE   0.8100         C  3 -- H  9         +48.4% ( 70.8%)    100.0%
 TRAVEL (Ang.)       0.2107         C  1 -- C  4          +1.0% ( 10.0%)     66.3%
 REDUCED MASS        0.4649         C  1 -- C  3          +1.0% ( 10.0%)     66.3%
 EFFECTIVE MASS      1.4547
 FORCE CONSTANT      2.9236

 VIBRATION         24   24A           ATOM PAIR      ENERGY CONTRIBUTION    RADIAL
 FREQUENCY          3303.56         C  3 -- H  9         +46.0% ( 70.3%)     99.9%
 TRANSITION DIPOLE   0.4697         C  4 -- H 10         +45.7% ( 70.0%)     99.9%
 TRAVEL (Ang.)       0.2049         C  3 -- C  4          +4.9% ( 23.0%)    100.0%
 REDUCED MASS        0.4861         C  1 -- C  3          +1.7% ( 13.4%)     67.0%
 EFFECTIVE MASS      2.0099
 FORCE CONSTANT      3.1255

      SYMMETRY NUMBER FOR POINT-GROUP C1  =  1


          SYSTEM IS A GROUND STATE



 InChI=1S/C4H6/c1-4-2-3-4/h2-4H,1H3


          MOLECULE IS NOT LINEAR

          THERE ARE 24 GENUINE VIBRATIONS IN THIS SYSTEM
          THIS THERMODYNAMICS CALCULATION IS LIMITED TO
          MOLECULES WHICH HAVE NO INTERNAL ROTATIONS




                    CALCULATED THERMODYNAMIC PROPERTIES
                                          *
   TEMP. (K)   PARTITION FUNCTION   H.O.F.    ENTHALPY  HEAT CAPACITY ENTROPY
                                   KCAL/MOL   CAL/MOLE    CAL/K/MOL  CAL/K/MOL


 298.00  VIB.     0.3294D+01                  1105.4802     9.3274     6.0788
         ROT.     0.3062D+05                   888.2803     2.9808    23.5071
         INT.     0.1009D+06                  1993.7605    12.3082    29.5859
         TRA.     0.3846D+27                  1480.4672     4.9680    37.8841
         TOT.                       60.138    3474.2277    17.2762    67.4700

 200.00  VIB.     0.1878D+01                   414.2439     4.9817     3.3236
         ROT.     0.1683D+05                   596.1613     2.9808    22.3185
         INT.     0.3161D+05                  1010.4051     7.9625    25.6420
         TRA.     0.2115D+27                   993.6021     4.9680    35.9029
         TOT.                       58.668    2004.0073    12.9305    61.5450

 210.00  VIB.     0.1980D+01                   465.9429     5.3611     3.5757
         ROT.     0.1811D+05                   625.9693     2.9808    22.4639
         INT.     0.3585D+05                  1091.9123     8.3419    26.0396
         TRA.     0.2275D+27                  1043.2822     4.9680    36.1453
         TOT.                       58.799    2135.1945    13.3099    62.1850

 220.00  VIB.     0.2089D+01                   521.5259     5.7584     3.8342
         ROT.     0.1942D+05                   655.7774     2.9808    22.6026
         INT.     0.4056D+05                  1177.3033     8.7392    26.4368
         TRA.     0.2440D+27                  1092.9623     4.9680    36.3764
         TOT.                       58.934    2270.2656    13.7072    62.8132

 230.00  VIB.     0.2206D+01                   581.1673     6.1727     4.0993
         ROT.     0.2076D+05                   685.5855     2.9808    22.7351
         INT.     0.4580D+05                  1266.7528     9.1535    26.8344
         TRA.     0.2608D+27                  1142.6424     4.9680    36.5973
         TOT.                       59.073    2409.3952    14.1215    63.4316

 240.00  VIB.     0.2333D+01                   645.0319     6.6028     4.3710
         ROT.     0.2213D+05                   715.3935     2.9808    22.8619
         INT.     0.5162D+05                  1360.4254     9.5836    27.2330
         TRA.     0.2780D+27                  1192.3226     4.9680    36.8087
         TOT.                       59.216    2552.7479    14.5516    64.0417

 250.00  VIB.     0.2469D+01                   713.2709     7.0473     4.6495
         ROT.     0.2352D+05                   745.2016     2.9808    22.9836
         INT.     0.5809D+05                  1458.4725    10.0281    27.6331
         TRA.     0.2955D+27                  1242.0027     4.9680    37.0115
         TOT.                       59.364    2700.4752    14.9961    64.6447

 260.00  VIB.     0.2617D+01                   786.0204     7.5046     4.9348
         ROT.     0.2495D+05                   775.0097     2.9808    23.1005
         INT.     0.6529D+05                  1561.0301    10.4854    28.0353
         TRA.     0.3134D+27                  1291.6828     4.9680    37.2064
         TOT.                       59.516    2852.7129    15.4534    65.2417

 270.00  VIB.     0.2776D+01                   863.3993     7.9729     5.2268
         ROT.     0.2640D+05                   804.8177     2.9808    23.2130
         INT.     0.7330D+05                  1668.2170    10.9537    28.4398
         TRA.     0.3317D+27                  1341.3629     4.9680    37.3939
         TOT.                       59.673    3009.5799    15.9217    65.8337

 280.00  VIB.     0.2948D+01                   945.5085     8.4504     5.5253
         ROT.     0.2788D+05                   834.6258     2.9808    23.3214
         INT.     0.8221D+05                  1780.1343    11.4312    28.8468
         TRA.     0.3503D+27                  1391.0430     4.9680    37.5745
         TOT.                       59.835    3171.1773    16.3992    66.4213

 290.00  VIB.     0.3134D+01                  1032.4314     8.9353     5.8303
         ROT.     0.2939D+05                   864.4339     2.9808    23.4260
         INT.     0.9212D+05                  1896.8653    11.9161    29.2563
         TRA.     0.3692D+27                  1440.7231     4.9680    37.7489
         TOT.                       60.001    3337.5884    16.8841    67.0052

 300.00  VIB.     0.3336D+01                  1124.2335     9.4259     6.1415
         ROT.     0.3092D+05                   894.2419     2.9808    23.5271
         INT.     0.1032D+06                  2018.4754    12.4067    29.6686
         TRA.     0.3885D+27                  1490.4032     4.9680    37.9173
         TOT.                       60.173    3508.8786    17.3747    67.5859

 310.00  VIB.     0.3554D+01                  1220.9633     9.9206     6.4586
         ROT.     0.3248D+05                   924.0500     2.9808    23.6248
         INT.     0.1155D+06                  2145.0133    12.9014    30.0834
         TRA.     0.4081D+27                  1540.0833     4.9680    38.0802
         TOT.                       60.349    3685.0966    17.8694    68.1636

 320.00  VIB.     0.3791D+01                  1322.6531    10.4177     6.7814
         ROT.     0.3407D+05                   953.8580     2.9808    23.7195
         INT.     0.1291D+06                  2276.5112    13.3985    30.5009
         TRA.     0.4280D+27                  1589.7634     4.9680    38.2379
         TOT.                       60.530    3866.2746    18.3665    68.7388

 330.00  VIB.     0.4048D+01                  1429.3205    10.9158     7.1096
         ROT.     0.3568D+05                   983.6661     2.9808    23.8112
         INT.     0.1444D+06                  2412.9866    13.8966    30.9208
         TRA.     0.4482D+27                  1639.4435     4.9680    38.3908
         TOT.                       60.716    4052.4301    18.8647    69.3116

 340.00  VIB.     0.4326D+01                  1540.9689    11.4137     7.4429
         ROT.     0.3731D+05                  1013.4742     2.9808    23.9002
         INT.     0.1614D+06                  2554.4430    14.3945    31.3431
         TRA.     0.4687D+27                  1689.1236     4.9680    38.5391
         TOT.                       60.907    4243.5666    19.3625    69.8822

 350.00  VIB.     0.4629D+01                  1657.5893    11.9101     7.7809
         ROT.     0.3897D+05                  1043.2822     2.9808    23.9866
         INT.     0.1804D+06                  2700.8715    14.8909    31.7675
         TRA.     0.4895D+27                  1738.8037     4.9680    38.6831
         TOT.                       61.103    4439.6752    19.8589    70.4506

 360.00  VIB.     0.4957D+01                  1779.1614    12.4039     8.1234
         ROT.     0.4065D+05                  1073.0903     2.9808    24.0705
         INT.     0.2015D+06                  2852.2517    15.3847    32.1939
         TRA.     0.5107D+27                  1788.4838     4.9680    38.8231
         TOT.                       61.304    4640.7355    20.3527    71.0170

 370.00  VIB.     0.5314D+01                  1905.6550    12.8942     8.4699
         ROT.     0.4236D+05                  1102.8984     2.9808    24.1522
         INT.     0.2251D+06                  3008.5534    15.8750    32.6221
         TRA.     0.5321D+27                  1838.1639     4.9680    38.9592
         TOT.                       61.510    4846.7173    20.8430    71.5813

 380.00  VIB.     0.5703D+01                  2037.0310    13.3802     8.8202
         ROT.     0.4408D+05                  1132.7064     2.9808    24.2317
         INT.     0.2514D+06                  3169.7375    16.3610    33.0519
         TRA.     0.5538D+27                  1887.8440     4.9680    39.0917
         TOT.                       61.721    5057.5815    21.3290    72.1436

 390.00  VIB.     0.6125D+01                  2173.2428    13.8612     9.1740
         ROT.     0.4584D+05                  1162.5145     2.9808    24.3091
         INT.     0.2808D+06                  3335.7572    16.8420    33.4832
         TRA.     0.5758D+27                  1937.5242     4.9680    39.2207
         TOT.                       61.937    5273.2814    21.8101    72.7039

 400.00  VIB.     0.6585D+01                  2314.2370    14.3366     9.5310
         ROT.     0.4761D+05                  1192.3226     2.9808    24.3846
         INT.     0.3135D+06                  3506.5596    17.3174    33.9156
         TRA.     0.5981D+27                  1987.2043     4.9680    39.3465
         TOT.                       62.157    5493.7638    22.2855    73.2621

   *: NOTE: HEATS OF FORMATION ARE RELATIVE TO THE
            ELEMENTS IN THEIR STANDARD STATE AT 298K
              (=  Standard Enthalpy of Formation).

            Hvib:  Zero-point energy is not included.
                   frequencies of less than zero cm-1 are not included.
            Hrot = (3/2)RT
            Htra = (3/2)RT + pV = (5/2)RT

            Heat capacity is Cp, not Cv

          For more information, see: HTTP://OpenMOPAC.net/Manual/thermochemistry.html


           FORCE CONSTANT IN CARTESIAN COORDINATES (Millidynes/A)

    ATOM   CHEMICAL       X               Y               Z
   NUMBER   SYMBOL  FORCE CONSTANT  FORCE CONSTANT  FORCE CONSTANT

      1       C        9.408207        9.204515        6.122151
      2       C        8.623816        8.338201        8.215849
      3       C        3.451300       11.685382       11.744938
      4       C        3.460926        5.530360       17.885487
      5       H        1.367677        3.335749        1.505227
      6       H        1.209142        3.903824        1.616566
      7       H        1.207089        0.659373        4.863598
      8       H        1.336436        3.674761        1.758749
      9       H        0.769115        3.782611        2.127826
     10       H        0.773044        0.519925        5.387915

 **********************
 *                    *
 * JOB ENDED NORMALLY *
 *                    *
 **********************



 TOTAL JOB TIME:             0.41 SECONDS

 == MOPAC DONE ==
