 *******************************************************************************
 **                                                                           **
 **                              MOPAC v23.1.2                                **
 **                                                                           **
 *******************************************************************************
 **          Digital Object Identifier (DOI): 10.5281/zenodo.6511958          **
 **    Visit the DOI location for information on how to cite this program.    **
 *******************************************************************************

                              PM3 CALCULATION RESULTS

 *******************************************************************************
 *  CALCULATION DONE: (MAX THREADS = 1)              Tue Jun  3 16:28:25 2025  *
 *  PM3        - The PM3 Hamiltonian to be used
 *  PRECISE    - TIGHTER CRITERIA TO BE USED
 *  NOSYM      - POINT-GROUP SYMMETRY SET TO C1
 *  THREADS=1  - MULTI-THREADING NOT USED
 *  T=         - A TIME OF 172800.0 SECONDS REQUESTED
 *  DUMP=N     - RESTART FILE WRITTEN EVERY 7200.0 SECONDS REQUESTED
 *******************************************************************************
pm3  precise nosym THREADS=1
 InChI=1S/C7H10/c1-7-5-3-2-4-6-7/h2-3H,1,4-6H2

   ATOM   CHEMICAL          X               Y               Z
  NUMBER   SYMBOL      (ANGSTROMS)     (ANGSTROMS)     (ANGSTROMS)

     1       C          0.11110000  *  -1.19590000  *   0.44410000  *
     2       C         -1.34070000  *  -0.99940000  *  -0.01520000  *
     3       C          0.40170000  *   1.22240000  *  -0.55540000  *
     4       C          1.00560000  *  -0.06770000  *  -0.03410000  *
     5       C         -1.79970000  *   0.40780000  *   0.24800000  *
     6       C         -0.98620000  *   1.44160000  *  -0.00840000  *
     7       C          2.33670000  *  -0.22130000  *  -0.01320000  *
     8       H          0.47710000  *  -2.16690000  *   0.04400000  *
     9       H          0.14900000  *  -1.23990000  *   1.55420000  *
    10       H         -1.40860000  *  -1.19720000  *  -1.10710000  *
    11       H         -2.00540000  *  -1.71760000  *   0.51050000  *
    12       H          0.35490000  *   1.17750000  *  -1.66410000  *
    13       H          1.03270000  *   2.09020000  *  -0.26430000  *
    14       H         -2.78160000  *   0.58480000  *   0.67630000  *
    15       H         -1.32560000  *   2.45290000  *   0.19380000  *
    16       H          2.78460000  *  -1.14030000  *   0.35310000  *
    17       H          2.99450000  *   0.56910000  *  -0.36210000  *



          CARTESIAN COORDINATES 

    NO.       ATOM           X           Y           Z

     1         C          0.1111     -1.1959      0.4441
     2         C         -1.3407     -0.9994     -0.0152
     3         C          0.4017      1.2224     -0.5554
     4         C          1.0056     -0.0677     -0.0341
     5         C         -1.7997      0.4078      0.2480
     6         C         -0.9862      1.4416     -0.0084
     7         C          2.3367     -0.2213     -0.0132
     8         H          0.4771     -2.1669      0.0440
     9         H          0.1490     -1.2399      1.5542
    10         H         -1.4086     -1.1972     -1.1071
    11         H         -2.0054     -1.7176      0.5105
    12         H          0.3549      1.1775     -1.6641
    13         H          1.0327      2.0902     -0.2643
    14         H         -2.7816      0.5848      0.6763
    15         H         -1.3256      2.4529      0.1938
    16         H          2.7846     -1.1403      0.3531
    17         H          2.9945      0.5691     -0.3621

  H: (PM3): J. J. P. STEWART, J. COMP. CHEM. 10, 209 (1989).
  C: (PM3): J. J. P. STEWART, J. COMP. CHEM. 10, 209 (1989).

           Empirical Formula: C7 H10  =    17 atoms



      MOLECULAR POINT GROUP   :   C1  


      RHF CALCULATION, NO. OF DOUBLY OCCUPIED LEVELS = 19


          Geometry optimization using EF

          DIAGONAL MATRIX USED AS START HESSIAN

 CYCLE:     1 TIME:   0.008 TIME LEFT:  2.00D  GRAD.:    53.067 HEAT:  19.12428
 CYCLE:     2 TIME:   0.008 TIME LEFT:  2.00D  GRAD.:    73.935 HEAT:  19.02660
 CYCLE:     3 TIME:   0.004 TIME LEFT:  2.00D  GRAD.:    63.491 HEAT:  18.62205
 CYCLE:     4 TIME:   0.008 TIME LEFT:  2.00D  GRAD.:    33.474 HEAT:  17.81460
 CYCLE:     5 TIME:   0.008 TIME LEFT:  2.00D  GRAD.:    21.836 HEAT:  17.56578
 CYCLE:     6 TIME:   0.008 TIME LEFT:  2.00D  GRAD.:    12.514 HEAT:  17.46253
 CYCLE:     7 TIME:   0.004 TIME LEFT:  2.00D  GRAD.:    18.279 HEAT:  17.45000
 CYCLE:     8 TIME:   0.008 TIME LEFT:  2.00D  GRAD.:    15.671 HEAT:  17.38610
 CYCLE:     9 TIME:   0.008 TIME LEFT:  2.00D  GRAD.:    19.779 HEAT:  17.37576
 CYCLE:    10 TIME:   0.004 TIME LEFT:  2.00D  GRAD.:    17.444 HEAT:  17.32301
 CYCLE:    11 TIME:   0.012 TIME LEFT:  2.00D  GRAD.:    17.073 HEAT:  17.30723
 CYCLE:    12 TIME:   0.008 TIME LEFT:  2.00D  GRAD.:     9.369 HEAT:  17.24986
 CYCLE:    13 TIME:   0.008 TIME LEFT:  2.00D  GRAD.:    11.276 HEAT:  17.24916
 CYCLE:    14 TIME:   0.004 TIME LEFT:  2.00D  GRAD.:    11.245 HEAT:  17.24028
 CYCLE:    15 TIME:   0.012 TIME LEFT:  2.00D  GRAD.:     4.603 HEAT:  17.20666
 CYCLE:    16 TIME:   0.004 TIME LEFT:  2.00D  GRAD.:     7.093 HEAT:  17.20443
 CYCLE:    17 TIME:   0.008 TIME LEFT:  2.00D  GRAD.:     4.754 HEAT:  17.19133
 CYCLE:    18 TIME:   0.004 TIME LEFT:  2.00D  GRAD.:     4.573 HEAT:  17.18170
 CYCLE:    19 TIME:   0.004 TIME LEFT:  2.00D  GRAD.:     2.723 HEAT:  17.17083
 CYCLE:    20 TIME:   0.008 TIME LEFT:  2.00D  GRAD.:     4.282 HEAT:  17.16616
 CYCLE:    21 TIME:   0.004 TIME LEFT:  2.00D  GRAD.:     2.383 HEAT:  17.15766
 CYCLE:    22 TIME:   0.004 TIME LEFT:  2.00D  GRAD.:     2.309 HEAT:  17.15371
 CYCLE:    23 TIME:   0.008 TIME LEFT:  2.00D  GRAD.:     3.271 HEAT:  17.14975
 CYCLE:    24 TIME:   0.004 TIME LEFT:  2.00D  GRAD.:     2.401 HEAT:  17.14313
 CYCLE:    25 TIME:   0.004 TIME LEFT:  2.00D  GRAD.:     2.405 HEAT:  17.13666
 CYCLE:    26 TIME:   0.004 TIME LEFT:  2.00D  GRAD.:     2.675 HEAT:  17.12904
 CYCLE:    27 TIME:   0.008 TIME LEFT:  2.00D  GRAD.:     2.366 HEAT:  17.11939
 CYCLE:    28 TIME:   0.004 TIME LEFT:  2.00D  GRAD.:     2.464 HEAT:  17.10479
 CYCLE:    29 TIME:   0.004 TIME LEFT:  2.00D  GRAD.:     3.085 HEAT:  17.08812
 CYCLE:    30 TIME:   0.008 TIME LEFT:  2.00D  GRAD.:     3.618 HEAT:  17.06729
 CYCLE:    31 TIME:   0.004 TIME LEFT:  2.00D  GRAD.:     3.589 HEAT:  17.04023
 CYCLE:    32 TIME:   0.004 TIME LEFT:  2.00D  GRAD.:     3.293 HEAT:  17.01486
 CYCLE:    33 TIME:   0.008 TIME LEFT:  2.00D  GRAD.:     2.704 HEAT:  16.99531
 CYCLE:    34 TIME:   0.004 TIME LEFT:  2.00D  GRAD.:     3.003 HEAT:  16.97703
 CYCLE:    35 TIME:   0.004 TIME LEFT:  2.00D  GRAD.:     2.852 HEAT:  16.95603
 CYCLE:    36 TIME:   0.008 TIME LEFT:  2.00D  GRAD.:     3.981 HEAT:  16.94160
 CYCLE:    37 TIME:   0.004 TIME LEFT:  2.00D  GRAD.:     4.542 HEAT:  16.92875
 CYCLE:    38 TIME:   0.004 TIME LEFT:  2.00D  GRAD.:     3.443 HEAT:  16.91004
 CYCLE:    39 TIME:   0.004 TIME LEFT:  2.00D  GRAD.:     3.931 HEAT:  16.89195
 CYCLE:    40 TIME:   0.004 TIME LEFT:  2.00D  GRAD.:     6.017 HEAT:  16.84957
 CYCLE:    41 TIME:   0.008 TIME LEFT:  2.00D  GRAD.:     6.913 HEAT:  16.79788
 CYCLE:    42 TIME:   0.004 TIME LEFT:  2.00D  GRAD.:     6.474 HEAT:  16.68173
 CYCLE:    43 TIME:   0.004 TIME LEFT:  2.00D  GRAD.:    11.970 HEAT:  16.60909
 CYCLE:    44 TIME:   0.012 TIME LEFT:  2.00D  GRAD.:     9.682 HEAT:  16.54004
 CYCLE:    45 TIME:   0.008 TIME LEFT:  2.00D  GRAD.:     6.620 HEAT:  16.47598
 CYCLE:    46 TIME:   0.004 TIME LEFT:  2.00D  GRAD.:     4.484 HEAT:  16.40943
 CYCLE:    47 TIME:   0.008 TIME LEFT:  2.00D  GRAD.:     5.293 HEAT:  16.32357
 CYCLE:    48 TIME:   0.004 TIME LEFT:  2.00D  GRAD.:    10.521 HEAT:  16.22378
 CYCLE:    49 TIME:   0.004 TIME LEFT:  2.00D  GRAD.:     8.862 HEAT:  16.16885
 CYCLE:    50 TIME:   0.004 TIME LEFT:  2.00D  GRAD.:    10.324 HEAT:  16.12181
 CYCLE:    51 TIME:   0.008 TIME LEFT:  2.00D  GRAD.:     5.863 HEAT:  16.07648
 CYCLE:    52 TIME:   0.004 TIME LEFT:  2.00D  GRAD.:     3.206 HEAT:  16.03739
 CYCLE:    53 TIME:   0.008 TIME LEFT:  2.00D  GRAD.:     4.452 HEAT:  16.01317
 CYCLE:    54 TIME:   0.004 TIME LEFT:  2.00D  GRAD.:     3.377 HEAT:  15.99965
 CYCLE:    55 TIME:   0.004 TIME LEFT:  2.00D  GRAD.:     2.162 HEAT:  15.98823
 CYCLE:    56 TIME:   0.008 TIME LEFT:  2.00D  GRAD.:     1.945 HEAT:  15.98149
 CYCLE:    57 TIME:   0.004 TIME LEFT:  2.00D  GRAD.:     1.883 HEAT:  15.97309
 CYCLE:    58 TIME:   0.004 TIME LEFT:  2.00D  GRAD.:     1.401 HEAT:  15.96988
 CYCLE:    59 TIME:   0.008 TIME LEFT:  2.00D  GRAD.:     1.332 HEAT:  15.96646
 CYCLE:    60 TIME:   0.004 TIME LEFT:  2.00D  GRAD.:     2.061 HEAT:  15.96129
 CYCLE:    61 TIME:   0.008 TIME LEFT:  2.00D  GRAD.:     1.772 HEAT:  15.95793
 CYCLE:    62 TIME:   0.008 TIME LEFT:  2.00D  GRAD.:     1.907 HEAT:  15.95448
 CYCLE:    63 TIME:   0.008 TIME LEFT:  2.00D  GRAD.:     1.552 HEAT:  15.95130
 CYCLE:    64 TIME:   0.004 TIME LEFT:  2.00D  GRAD.:     1.475 HEAT:  15.94724
 CYCLE:    65 TIME:   0.008 TIME LEFT:  2.00D  GRAD.:     1.554 HEAT:  15.94431
 CYCLE:    66 TIME:   0.012 TIME LEFT:  2.00D  GRAD.:     1.047 HEAT:  15.94125
 CYCLE:    67 TIME:   0.012 TIME LEFT:  2.00D  GRAD.:     1.024 HEAT:  15.93868
 CYCLE:    68 TIME:   0.004 TIME LEFT:  2.00D  GRAD.:     1.291 HEAT:  15.93606
 CYCLE:    69 TIME:   0.008 TIME LEFT:  2.00D  GRAD.:     1.161 HEAT:  15.93347
 CYCLE:    70 TIME:   0.008 TIME LEFT:  2.00D  GRAD.:     0.768 HEAT:  15.93133
 CYCLE:    71 TIME:   0.008 TIME LEFT:  2.00D  GRAD.:     0.541 HEAT:  15.93058
 CYCLE:    72 TIME:   0.008 TIME LEFT:  2.00D  GRAD.:     0.508 HEAT:  15.92980
 CYCLE:    73 TIME:   0.012 TIME LEFT:  2.00D  GRAD.:     0.528 HEAT:  15.92942
 CYCLE:    74 TIME:   0.008 TIME LEFT:  2.00D  GRAD.:     0.476 HEAT:  15.92896
 CYCLE:    75 TIME:   0.004 TIME LEFT:  2.00D  GRAD.:     0.296 HEAT:  15.92865
 CYCLE:    76 TIME:   0.008 TIME LEFT:  2.00D  GRAD.:     0.265 HEAT:  15.92859
 CYCLE:    77 TIME:   0.008 TIME LEFT:  2.00D  GRAD.:     0.193 HEAT:  15.92845
 CYCLE:    78 TIME:   0.008 TIME LEFT:  2.00D  GRAD.:     0.314 HEAT:  15.92857
 CYCLE:    79 TIME:   0.008 TIME LEFT:  2.00D  GRAD.:     0.133 HEAT:  15.92836
 CYCLE:    80 TIME:   0.004 TIME LEFT:  2.00D  GRAD.:     0.347 HEAT:  15.92873
 CYCLE:    81 TIME:   0.008 TIME LEFT:  2.00D  GRAD.:     0.091 HEAT:  15.92833
 CYCLE:    82 TIME:   0.008 TIME LEFT:  2.00D  GRAD.:     0.096 HEAT:  15.92832
 CYCLE:    83 TIME:   0.004 TIME LEFT:  2.00D  GRAD.:     0.083 HEAT:  15.92831
 CYCLE:    84 TIME:   0.008 TIME LEFT:  2.00D  GRAD.:     0.057 HEAT:  15.92828
 CYCLE:    85 TIME:   0.004 TIME LEFT:  2.00D  GRAD.:     0.040 HEAT:  15.92829

     GRADIENT =  0.03982 IS LESS THAN CUTOFF =  0.05000



 -------------------------------------------------------------------------------
 pm3  precise nosym THREADS=1
 InChI=1S/C7H10/c1-7-5-3-2-4-6-7/h2-3H,1,4-6H2



     GEOMETRY OPTIMISED USING EIGENVECTOR FOLLOWING (EF).     
     SCF FIELD WAS ACHIEVED                                   


                              PM3 CALCULATION
                                                       MOPAC v23.1.2 MacOS
                                                       Tue Jun  3 16:28:26 2025




          FINAL HEAT OF FORMATION =         15.92829 KCAL/MOL =      66.64395 KJ/MOL


          COSMO AREA              =        142.89 SQUARE ANGSTROMS
          COSMO VOLUME            =        136.90 CUBIC ANGSTROMS

          GRADIENT NORM           =          0.03982          =       0.00966 PER ATOM
          IONIZATION POTENTIAL    =          9.566808 EV
          HOMO LUMO ENERGIES (EV) =         -9.567  1.095
          NO. OF FILLED LEVELS    =         19
          MOLECULAR WEIGHT        =         94.1560         POINT GROUP:  C1  

          MOLECULAR DIMENSIONS (Angstroms)

            Atom       Atom       Distance
            H    16    H    14     5.77921
            H    12    H    11     4.52415
            H    10    H    13     3.04116


          SCF CALCULATIONS        =         94

          WALL-CLOCK TIME         =      0.547 SECONDS
          COMPUTATION TIME        =      0.300 SECONDS




   ATOM   CHEMICAL          X               Y               Z
  NUMBER   SYMBOL      (ANGSTROMS)     (ANGSTROMS)     (ANGSTROMS)

     1       C          0.13647207  *  -1.05125754  *   0.69068763  *
     2       C         -1.26970593  *  -1.04445070  *   0.10749034  *
     3       C          0.47291050  *   1.34356158  *  -0.05693820  *
     4       C          1.00672842  *  -0.05154406  *   0.00295774  *
     5       C         -1.79673366  *   0.33076754  *  -0.09087007  *
     6       C         -1.00878347  *   1.40391032  *  -0.16778559  *
     7       C          2.19173406  *  -0.37467142  *  -0.51315697  *
     8       H          0.56835626  *  -2.06931624  *   0.62669898  *
     9       H          0.10539982  *  -0.80201408  *   1.77042234  *
    10       H         -1.28611363  *  -1.56699467  *  -0.87034325  *
    11       H         -1.95091724  *  -1.61613245  *   0.76774588  *
    12       H          0.92208555  *   1.89523361  *  -0.90762515  *
    13       H          0.78557015  *   1.88624662  *   0.85911246  *
    14       H         -2.88384033  *   0.42497318  *  -0.18897323  *
    15       H         -1.43430838  *   2.40244447  *  -0.31889313  *
    16       H          2.59889954  *  -1.38071394  *  -0.46875191  *
    17       H          2.83223877  *   0.34652411  *  -1.01261653  *

                             CARTESIAN COORDINATES

   1    C        0.136472071    -1.051257535     0.690687633
   2    C       -1.269705933    -1.044450697     0.107490341
   3    C        0.472910501     1.343561576    -0.056938198
   4    C        1.006728422    -0.051544058     0.002957741
   5    C       -1.796733656     0.330767536    -0.090870074
   6    C       -1.008783470     1.403910324    -0.167785595
   7    C        2.191734064    -0.374671421    -0.513156971
   8    H        0.568356256    -2.069316244     0.626698983
   9    H        0.105399824    -0.802014075     1.770422336
  10    H       -1.286113630    -1.566994670    -0.870343254
  11    H       -1.950917238    -1.616132446     0.767745885
  12    H        0.922085553     1.895233608    -0.907625152
  13    H        0.785570146     1.886246622     0.859112462
  14    H       -2.883840328     0.424973181    -0.188973226
  15    H       -1.434308377     2.402444468    -0.318893126
  16    H        2.598899541    -1.380713941    -0.468751906
  17    H        2.832238774     0.346524110    -1.012616531


           Empirical Formula: C7 H10  =    17 atoms



      MOLECULAR POINT GROUP   :   C1  


                  EIGENVALUES  
 -40.27433 -32.10341 -30.72688 -25.39165 -22.56570 -19.74747 -17.33176 -17.01580
 -16.02433 -15.08780 -14.57040 -14.30252 -13.71199 -13.36388 -12.89280 -11.88784
 -11.68242  -9.96197  -9.56681   1.09481   1.11862   3.31832   3.41690   3.54959
   3.78581   3.86111   3.92581   4.09780   4.22838   4.38019   4.47030   4.55103
   4.74915   4.82165   5.48331   5.62059   5.99504   6.05050


              NET ATOMIC CHARGES AND DIPOLE CONTRIBUTIONS

  ATOM NO.   TYPE          CHARGE      No. of ELECS.   s-Pop       p-Pop       
    1          C          -0.054582        4.0546     1.14659     2.90799
    2          C          -0.054325        4.0543     1.14529     2.90903
    3          C          -0.018005        4.0180     1.13323     2.88477
    4          C          -0.109573        4.1096     1.19834     2.91123
    5          C          -0.146913        4.1469     1.19348     2.95343
    6          C          -0.147679        4.1477     1.19343     2.95425
    7          C          -0.174799        4.1748     1.18139     2.99341
    8          H           0.053729        0.9463     0.94627
    9          H           0.056784        0.9432     0.94322
   10          H           0.058010        0.9420     0.94199
   11          H           0.052409        0.9476     0.94759
   12          H           0.060586        0.9394     0.93941
   13          H           0.062160        0.9378     0.93784
   14          H           0.097668        0.9023     0.90233
   15          H           0.097321        0.9027     0.90268
   16          H           0.084057        0.9159     0.91594
   17          H           0.083151        0.9168     0.91685
 DIPOLE           X         Y         Z       TOTAL
 POINT-CHG.    -0.146    -0.034     0.165     0.223
 HYBRID         0.007     0.044    -0.006     0.045
 SUM           -0.139     0.010     0.158     0.211


          ATOMIC ORBITAL ELECTRON POPULATIONS

     Atom    s        px        py        pz   
    1  C   1.14659   0.94781   0.97246   0.98771
    2  C   1.14529   0.95486   0.95047   1.00370
    3  C   1.13323   0.93617   0.93897   1.00963
    4  C   1.19834   0.96354   0.96239   0.98530
    5  C   1.19348   0.98378   0.95454   1.01511
    6  C   1.19343   0.95689   0.97901   1.01835
    7  C   1.18139   0.96549   1.01049   1.01744
    8  H   0.94627
    9  H   0.94322
   10  H   0.94199
   11  H   0.94759
   12  H   0.93941
   13  H   0.93784
   14  H   0.90233
   15  H   0.90268
   16  H   0.91594
   17  H   0.91685
 *******************************************************************************
 **                                                                           **
 **                              MOPAC v23.1.2                                **
 **                                                                           **
 *******************************************************************************
 **          Digital Object Identifier (DOI): 10.5281/zenodo.6511958          **
 **    Visit the DOI location for information on how to cite this program.    **
 *******************************************************************************

                              PM3 CALCULATION RESULTS

 *******************************************************************************
 *  CALCULATION DONE: (MAX THREADS = 1)              Tue Jun  3 16:28:26 2025  *
 *  PM3        - The PM3 Hamiltonian to be used
 *  OLDGEO     - PREVIOUS GEOMETRY TO BE USED
 *  PRECISE    - TIGHTER CRITERIA TO BE USED
 *  NOSYM      - POINT-GROUP SYMMETRY SET TO C1
 *  THREADS=1  - MULTI-THREADING NOT USED
 *  T=         - A TIME OF 172800.0 SECONDS REQUESTED
 *  DUMP=N     - RESTART FILE WRITTEN EVERY 7200.0 SECONDS REQUESTED
 *  THERMO     - THERMODYNAMIC QUANTITIES TO BE CALCULATED
 *******************************************************************************
oldgeo thermo nosym precise THREADS=1  pm3
 InChI=1S/C7H10/c1-7-5-3-2-4-6-7/h2-3H,1,4-6H2

   ATOM   CHEMICAL          X               Y               Z
  NUMBER   SYMBOL      (ANGSTROMS)     (ANGSTROMS)     (ANGSTROMS)

     1       C          0.13647207  *  -1.05125754  *   0.69068763  *
     2       C         -1.26970593  *  -1.04445070  *   0.10749034  *
     3       C          0.47291050  *   1.34356158  *  -0.05693820  *
     4       C          1.00672842  *  -0.05154406  *   0.00295774  *
     5       C         -1.79673366  *   0.33076754  *  -0.09087007  *
     6       C         -1.00878347  *   1.40391032  *  -0.16778559  *
     7       C          2.19173406  *  -0.37467142  *  -0.51315697  *
     8       H          0.56835626  *  -2.06931624  *   0.62669898  *
     9       H          0.10539982  *  -0.80201408  *   1.77042234  *
    10       H         -1.28611363  *  -1.56699467  *  -0.87034325  *
    11       H         -1.95091724  *  -1.61613245  *   0.76774588  *
    12       H          0.92208555  *   1.89523361  *  -0.90762515  *
    13       H          0.78557015  *   1.88624662  *   0.85911246  *
    14       H         -2.88384033  *   0.42497318  *  -0.18897323  *
    15       H         -1.43430838  *   2.40244447  *  -0.31889313  *
    16       H          2.59889954  *  -1.38071394  *  -0.46875191  *
    17       H          2.83223877  *   0.34652411  *  -1.01261653  *



          CARTESIAN COORDINATES 

    NO.       ATOM           X           Y           Z

     1         C          0.1365     -1.0513      0.6907
     2         C         -1.2697     -1.0445      0.1075
     3         C          0.4729      1.3436     -0.0569
     4         C          1.0067     -0.0515      0.0030
     5         C         -1.7967      0.3308     -0.0909
     6         C         -1.0088      1.4039     -0.1678
     7         C          2.1917     -0.3747     -0.5132
     8         H          0.5684     -2.0693      0.6267
     9         H          0.1054     -0.8020      1.7704
    10         H         -1.2861     -1.5670     -0.8703
    11         H         -1.9509     -1.6161      0.7677
    12         H          0.9221      1.8952     -0.9076
    13         H          0.7856      1.8862      0.8591
    14         H         -2.8838      0.4250     -0.1890
    15         H         -1.4343      2.4024     -0.3189
    16         H          2.5989     -1.3807     -0.4688
    17         H          2.8322      0.3465     -1.0126

  H: (PM3): J. J. P. STEWART, J. COMP. CHEM. 10, 209 (1989).
  C: (PM3): J. J. P. STEWART, J. COMP. CHEM. 10, 209 (1989).

           Empirical Formula: C7 H10  =    17 atoms



      MOLECULAR POINT GROUP   :   C1  


      RHF CALCULATION, NO. OF DOUBLY OCCUPIED LEVELS = 19



          HEAT OF FORMATION =      15.928286 KCALS/MOLE


          CARTESIAN COORDINATE DERIVATIVES

   NUMBER  ATOM         X            Y            Z

     1       C     -0.002989    -0.002597     0.006423
     2       C     -0.003512    -0.002207     0.002831
     3       C     -0.000226     0.001049     0.001748
     4       C      0.002115     0.001324    -0.000682
     5       C      0.007444    -0.002675    -0.014941
     6       C      0.001721     0.004740    -0.003289
     7       C     -0.001451     0.010156    -0.002312
     8       H     -0.006066     0.005258    -0.000058
     9       H      0.009982     0.001989    -0.000231
    10       H      0.005893    -0.004521     0.007496
    11       H      0.000440     0.000457    -0.001238
    12       H     -0.011703    -0.006665     0.005607
    13       H      0.005668     0.003418    -0.001489
    14       H      0.003660    -0.001171    -0.005836
    15       H     -0.003920    -0.003800     0.001120
    16       H      0.000778    -0.005890    -0.002086
    17       H     -0.007833     0.001137     0.006938



          GRADIENT NORM =   0.03600

          MOLECULAR WEIGHT =   94.16



          ROTATIONAL CONSTANTS IN CM(-1)

          A =    0.14756031   B =    0.08791426   C =    0.06029940



           PRINCIPAL MOMENTS OF INERTIA IN UNITS OF 10**(-40)*GRAM-CM**2

          A =      189.7038   B =      318.4097   C =      464.2294


          ORIENTATION OF MOLECULE IN FORCE CALCULATION

    NO.       ATOM         X         Y         Z

     1          C      -0.4249   -1.2411   -0.1824
     2          C       1.0974   -1.2411   -0.1824
     3          C      -0.4386    1.2901   -0.1824
     4          C      -0.9608    0.0206    0.4096
     5          C       1.6664    0.0516   -0.6445
     6          C       0.9728    1.1906   -0.6401
     7          C      -1.8591    0.0200    1.3935
     8          H      -0.8039   -2.1300    0.3591
     9          H      -0.8087   -1.3304   -1.2186
    10          H       1.4848   -1.4468    0.8359
    11          H       1.4712   -2.0655   -0.8208
    12          H      -0.5251    2.1226    0.5451
    13          H      -1.0759    1.5711   -1.0463
    14          H       2.7085    0.0308   -0.9818
    15          H       1.4282    2.1259   -0.9849
    16          H      -2.2567   -0.8929    1.8274
    17          H      -2.2562    0.9329    1.8281


    FIRST DERIVATIVES WILL BE USED IN THE CALCULATION OF SECOND DERIVATIVES

          ESTIMATED TIME TO COMPLETE CALCULATION =        0.80 SECONDS

    FOR POINT-GROUP C1   THERE ARE   1 UNIQUE SYMMETRY FUNCTIONS.

 STEP:   1 TIME =     0.02 SECS, INTEGRAL =      0.02 TIME LEFT: 172799.98
 STEP:   2 TIME =     0.02 SECS, INTEGRAL =      0.04 TIME LEFT: 172799.96
 STEP:   3 TIME =     0.01 SECS, INTEGRAL =      0.05 TIME LEFT: 172799.95
 STEP:   4 TIME =     0.01 SECS, INTEGRAL =      0.06 TIME LEFT: 172799.94
 STEP:   5 TIME =     0.01 SECS, INTEGRAL =      0.07 TIME LEFT: 172799.93
 STEP:   6 TIME =     0.01 SECS, INTEGRAL =      0.08 TIME LEFT: 172799.91
 STEP:   7 TIME =     0.02 SECS, INTEGRAL =      0.10 TIME LEFT: 172799.90
 STEP:   8 TIME =     0.01 SECS, INTEGRAL =      0.11 TIME LEFT: 172799.89
 STEP:   9 TIME =     0.01 SECS, INTEGRAL =      0.12 TIME LEFT: 172799.88
 STEP:  10 TIME =     0.02 SECS, INTEGRAL =      0.14 TIME LEFT: 172799.86
 STEP:  11 TIME =     0.01 SECS, INTEGRAL =      0.15 TIME LEFT: 172799.85
 STEP:  12 TIME =     0.01 SECS, INTEGRAL =      0.16 TIME LEFT: 172799.84
 STEP:  13 TIME =     0.01 SECS, INTEGRAL =      0.17 TIME LEFT: 172799.82
 STEP:  14 TIME =     0.02 SECS, INTEGRAL =      0.19 TIME LEFT: 172799.80
 STEP:  15 TIME =     0.02 SECS, INTEGRAL =      0.21 TIME LEFT: 172799.79
 STEP:  16 TIME =     0.02 SECS, INTEGRAL =      0.22 TIME LEFT: 172799.77
 STEP:  17 TIME =     0.01 SECS, INTEGRAL =      0.23 TIME LEFT: 172799.76
 STEP:  18 TIME =     0.01 SECS, INTEGRAL =      0.25 TIME LEFT: 172799.75
 STEP:  19 TIME =     0.01 SECS, INTEGRAL =      0.26 TIME LEFT: 172799.74
 STEP:  20 TIME =     0.01 SECS, INTEGRAL =      0.27 TIME LEFT: 172799.73
 STEP:  21 TIME =     0.01 SECS, INTEGRAL =      0.28 TIME LEFT: 172799.71
 STEP:  22 TIME =     0.01 SECS, INTEGRAL =      0.29 TIME LEFT: 172799.70
 STEP:  23 TIME =     0.01 SECS, INTEGRAL =      0.30 TIME LEFT: 172799.69
 STEP:  24 TIME =     0.01 SECS, INTEGRAL =      0.32 TIME LEFT: 172799.68
 STEP:  25 TIME =     0.01 SECS, INTEGRAL =      0.33 TIME LEFT: 172799.67
 STEP:  26 TIME =     0.01 SECS, INTEGRAL =      0.34 TIME LEFT: 172799.66
 STEP:  27 TIME =     0.01 SECS, INTEGRAL =      0.35 TIME LEFT: 172799.64
 STEP:  28 TIME =     0.01 SECS, INTEGRAL =      0.36 TIME LEFT: 172799.63
 STEP:  29 TIME =     0.01 SECS, INTEGRAL =      0.38 TIME LEFT: 172799.62
 STEP:  30 TIME =     0.01 SECS, INTEGRAL =      0.39 TIME LEFT: 172799.61
 STEP:  31 TIME =     0.01 SECS, INTEGRAL =      0.40 TIME LEFT: 172799.60
 STEP:  32 TIME =     0.01 SECS, INTEGRAL =      0.41 TIME LEFT: 172799.59
 STEP:  33 TIME =     0.01 SECS, INTEGRAL =      0.42 TIME LEFT: 172799.57
 STEP:  34 TIME =     0.02 SECS, INTEGRAL =      0.44 TIME LEFT: 172799.56
 STEP:  35 TIME =     0.01 SECS, INTEGRAL =      0.45 TIME LEFT: 172799.55
 STEP:  36 TIME =     0.01 SECS, INTEGRAL =      0.46 TIME LEFT: 172799.54
 STEP:  37 TIME =     0.01 SECS, INTEGRAL =      0.47 TIME LEFT: 172799.52
 STEP:  38 TIME =     0.01 SECS, INTEGRAL =      0.48 TIME LEFT: 172799.51
 STEP:  39 TIME =     0.01 SECS, INTEGRAL =      0.50 TIME LEFT: 172799.50
 STEP:  40 TIME =     0.01 SECS, INTEGRAL =      0.51 TIME LEFT: 172799.49
 STEP:  41 TIME =     0.02 SECS, INTEGRAL =      0.52 TIME LEFT: 172799.47
 STEP:  42 TIME =     0.02 SECS, INTEGRAL =      0.54 TIME LEFT: 172799.46
 STEP:  43 TIME =     0.02 SECS, INTEGRAL =      0.55 TIME LEFT: 172799.44
 STEP:  44 TIME =     0.02 SECS, INTEGRAL =      0.57 TIME LEFT: 172799.43
 STEP:  45 TIME =     0.02 SECS, INTEGRAL =      0.59 TIME LEFT: 172799.41
 STEP:  46 TIME =     0.02 SECS, INTEGRAL =      0.60 TIME LEFT: 172799.39
 STEP:  47 TIME =     0.01 SECS, INTEGRAL =      0.61 TIME LEFT: 172799.38
 STEP:  48 TIME =     0.01 SECS, INTEGRAL =      0.62 TIME LEFT: 172799.37
 STEP:  49 TIME =     0.02 SECS, INTEGRAL =      0.64 TIME LEFT: 172799.36
 STEP:  50 TIME =     0.01 SECS, INTEGRAL =      0.65 TIME LEFT: 172799.34
 STEP:  51 TIME =     0.01 SECS, INTEGRAL =      0.66 TIME LEFT: 172799.33

(To convert to Hartree/Bohr^2, multiply by (10^(-21) x N x a0^2)/(4.184 x 627.51) =  0.0642)


           FORCE MATRIX IN MILLIDYNES/ANGSTROM


                  C  1       C  2       C  3       C  4       C  5       C  6
 ------------------------------------------------------------------------------
     C    1  14.724958
     C    2   4.109922  14.712350
     C    3   0.607454   0.101771  15.042717
     C    4   4.770558   0.706262   4.713232  18.545216
     C    5   0.691702   5.012567   0.835897   0.061413  18.202460
     C    6   0.062516   0.850758   4.971180   0.717721  10.694305  18.210195
     C    7   0.814743   0.042096   0.819445  10.745761   0.003031   0.049603
     H    8   4.469795   0.431112   0.044540   0.461156   0.050825   0.004405
     H    9   4.435128   0.449305   0.016233   0.421709   0.009632   0.005548
     H   10   0.444302   4.420091   0.014500   0.008713   0.411022   0.029278
     H   11   0.430283   4.465690   0.008627   0.050753   0.434101   0.044582
     H   12   0.040501   0.011115   4.418637   0.448697   0.039873   0.422539
     H   13   0.011915   0.013861   4.379509   0.417029   0.034234   0.422952
     H   14   0.042460   0.426941   0.124536   0.003471   4.828289   0.444353
     H   15   0.004703   0.125299   0.425019   0.045576   0.444954   4.818628
     H   16   0.090505   0.011971   0.125607   0.476047   0.001048   0.013962
     H   17   0.130554   0.018722   0.087973   0.475826   0.001787   0.007552


                  C  7       H  8       H  9       H 10       H 11       H 12
 ------------------------------------------------------------------------------
     C    7  18.069144
     H    8   0.052829   5.078662
     H    9   0.033433   0.561310   5.025500
     H   10   0.001522   0.034158   0.045482   5.015475
     H   11   0.007868   0.025000   0.034479   0.568159   5.062563
     H   12   0.050727   0.006956   0.001938   0.001276   0.000419   5.007907
     H   13   0.027890   0.001089   0.002834   0.001869   0.000967   0.561608
     H   14   0.001538   0.007078   0.001446   0.017101   0.035795   0.015935
     H   15   0.008041   0.001012   0.000520   0.017738   0.013536   0.033306
     H   16   5.085242   0.029832   0.011367   0.000606   0.002121   0.004859
     H   17   5.086299   0.002648   0.017425   0.000762   0.003113   0.028117


                  H 13       H 14       H 15       H 16       H 17
 ------------------------------------------------------------------
     H   13   4.958810
     H   14   0.017576   5.203141
     H   15   0.023457   0.070034   5.194791
     H   16   0.016625   0.000512   0.002208   5.478387
     H   17   0.011980   0.000344   0.001547   0.416709   5.479677


          HEAT OF FORMATION =      15.928286 KCALS/MOLE

          ZERO POINT ENERGY      93.030 KCAL/MOL


           NORMAL COORDINATE ANALYSIS (Total motion = 1 Angstrom)


   Root No.       1         2         3         4         5         6         7         8

                 1 A       2 A       3 A       4 A       5 A       6 A       7 A       8 A   

                  76.1     152.0     361.4     398.4     421.0     496.6     553.4     627.4
  
           1    0.0132   -0.0085    0.0037    0.0075    0.0107   -0.0394   -0.0123    0.0116
           2   -0.0006    0.0135    0.0076    0.0483   -0.0103   -0.0178   -0.0318    0.0105
           3    0.0214   -0.0446    0.0003   -0.0035   -0.0346    0.0037   -0.0022    0.0019
           4    0.0126   -0.0083    0.0046    0.0071    0.0181   -0.0345   -0.0256    0.0206
           5    0.0068    0.0103   -0.0140    0.0000    0.0035    0.0494   -0.0148   -0.0081
           6    0.0124    0.0507   -0.0138   -0.0047   -0.0070   -0.0072    0.0104    0.0030
           7    0.0245    0.0022   -0.0016   -0.0003   -0.0077    0.0348    0.0120   -0.0097
           8    0.0090    0.0067    0.0096   -0.0134   -0.0390   -0.0402    0.0104    0.0086
           9    0.0498    0.0060    0.0073   -0.0160    0.0202   -0.0053    0.0055    0.0019
          10    0.0020   -0.0036    0.0036    0.0093   -0.0004   -0.0167    0.0908   -0.0172
          11   -0.0003    0.0003    0.0058    0.0187   -0.0403   -0.0188   -0.0087    0.0114
          12    0.0107   -0.0116    0.0031    0.0586    0.0199    0.0089    0.0382   -0.0117
          13   -0.0033   -0.0048    0.0134    0.0220    0.0107    0.0363   -0.0547    0.0040
          14   -0.0058   -0.0070    0.0079   -0.0095    0.0101    0.0251    0.0101   -0.0054
          15   -0.0415    0.0027    0.0612   -0.0099   -0.0020    0.0037    0.0192   -0.0006
          16   -0.0013   -0.0072   -0.0244    0.0075   -0.0150    0.0354   -0.0037   -0.0118
          17   -0.0049   -0.0076   -0.0147   -0.0174   -0.0063    0.0207    0.0422   -0.0145
          18   -0.0249   -0.0243   -0.0557   -0.0117    0.0042   -0.0297   -0.0134    0.0072
          19   -0.0455    0.0267   -0.0006   -0.0395   -0.0137   -0.0129    0.0175   -0.0019
          20   -0.0065   -0.0198   -0.0013   -0.0224    0.0621   -0.0131   -0.0023    0.0023
          21   -0.0320    0.0154   -0.0004    0.0149    0.0082    0.0152   -0.0359    0.0035
          22    0.0218   -0.0517   -0.0019   -0.0243   -0.0050    0.0154   -0.0458    0.0198
          23    0.0020   -0.0050    0.0071    0.0137   -0.0428   -0.0189   -0.0326    0.0257
          24    0.0319   -0.1062   -0.0046   -0.0851   -0.1037    0.0426   -0.0272    0.0329
          25    0.0091    0.0532   -0.0038    0.0191    0.0418   -0.0763   -0.0265    0.0292
          26   -0.0135    0.0659    0.0186    0.1501    0.0634   -0.0640    0.0161   -0.0381
          27    0.0239   -0.0716    0.0017   -0.0181   -0.0532    0.0226   -0.0011    0.0004
          28    0.0210   -0.0712    0.0201    0.0085   -0.0011   -0.0560   -0.0375    0.0399
          29    0.0485    0.0765   -0.1256   -0.0177    0.0100    0.0661   -0.0147   -0.0309
          30    0.0176    0.0878   -0.0435   -0.0094    0.0012    0.0052    0.0152   -0.0096
          31    0.0126    0.0354   -0.0205   -0.0231    0.0395   -0.0195    0.0095    0.0025
          32   -0.0158   -0.0265    0.0445   -0.0069    0.0068    0.0444    0.0041   -0.0012
          33    0.0417    0.1247   -0.1063   -0.0137    0.0017    0.0093    0.0071   -0.0178
          34    0.0890    0.0339    0.0876   -0.0409   -0.0060    0.0389   -0.0536   -0.0317
          35   -0.0270   -0.0091   -0.0194    0.0495   -0.0383   -0.0382    0.0511    0.0307
          36    0.0991    0.0280    0.0529   -0.0961    0.0206   -0.0078   -0.0510   -0.0267
          37   -0.0090   -0.0126   -0.0573    0.0064   -0.0250    0.0256   -0.0234    0.0011
          38    0.0776    0.0381    0.0740   -0.1174   -0.0477   -0.0516   -0.1065   -0.0240
          39    0.0969    0.0275    0.0709   -0.0565    0.0298   -0.0022   -0.0082   -0.0185
          40   -0.0210   -0.0102    0.0424    0.0211    0.0100    0.0534   -0.0557   -0.0061
          41   -0.0150   -0.0193    0.0313   -0.0103    0.0297   -0.0075   -0.0095    0.0108
          42   -0.0954   -0.0122    0.1480   -0.0116   -0.0039    0.0600    0.0163   -0.0333
          43   -0.0174   -0.0159   -0.0469   -0.0014   -0.0443    0.0050    0.0064   -0.0177
          44   -0.0114   -0.0184   -0.0338   -0.0169    0.0068    0.0323    0.0246   -0.0204
          45   -0.0642   -0.0649   -0.1377   -0.0220    0.0011   -0.0367   -0.0454   -0.0175
          46   -0.0709    0.0351    0.0042   -0.0311   -0.0997   -0.0702   -0.0985   -0.1976
          47   -0.0088   -0.0294   -0.0047   -0.0479    0.1255   -0.0125    0.0013   -0.0046
          48   -0.0602    0.0029   -0.0032   -0.0291    0.0573   -0.0345   -0.1361   -0.1897
          49   -0.0621    0.0458   -0.0091   -0.0966    0.0585    0.0494    0.0381    0.2146
          50   -0.0089   -0.0290   -0.0046   -0.0465    0.1265   -0.0131    0.0033   -0.0058
          51   -0.0421    0.0521   -0.0015    0.0113   -0.0557    0.0714   -0.0298    0.2185


   Root No.       9        10        11        12        13        14        15        16

                 9 A      10 A      11 A      12 A      13 A      14 A      15 A      16 A   

                 716.1     771.1     853.3     910.8     929.8     941.7     955.9     993.7
  
           1    0.0011    0.0100   -0.0112    0.0039   -0.0140   -0.0145   -0.0144   -0.0127
           2    0.0040   -0.0046    0.0131    0.0149   -0.0293   -0.0406   -0.0312   -0.0027
           3   -0.0037    0.0209    0.0233    0.0083    0.0160    0.0255   -0.0230    0.0141
           4   -0.0018    0.0061   -0.0210   -0.0102    0.0069   -0.0020    0.0073    0.0088
           5    0.0004   -0.0126    0.0333    0.0129   -0.0062    0.0081    0.0130   -0.0241
           6   -0.0195    0.0172    0.0230    0.0143   -0.0075   -0.0075    0.0245   -0.0074
           7   -0.0162    0.0108   -0.0171    0.0144    0.0066   -0.0172   -0.0014   -0.0030
           8    0.0061   -0.0111   -0.0228   -0.0005   -0.0110    0.0505    0.0273    0.0049
           9   -0.0073   -0.0237   -0.0130    0.0463    0.0100   -0.0084    0.0149    0.0080
          10    0.0209   -0.0179    0.0262   -0.0067   -0.0019   -0.0003   -0.0003    0.0032
          11    0.0069   -0.0074   -0.0036   -0.0027    0.0109   -0.0089    0.0045    0.0025
          12    0.0142   -0.0017   -0.0073   -0.0217   -0.0071    0.0048    0.0089   -0.0024
          13    0.0072   -0.0334    0.0259   -0.0085    0.0062    0.0272    0.0191    0.0252
          14   -0.0081    0.0015    0.0025   -0.0072    0.0065    0.0008    0.0011    0.0136
          15   -0.0151   -0.0123   -0.0063   -0.0257   -0.0107   -0.0138   -0.0048    0.0111
          16   -0.0180    0.0163   -0.0157   -0.0094   -0.0076    0.0075   -0.0081    0.0006
          17   -0.0224    0.0314   -0.0252   -0.0089   -0.0030   -0.0071   -0.0156    0.0091
          18   -0.0074   -0.0237    0.0148   -0.0104    0.0113    0.0111   -0.0268   -0.0175
          19    0.0032   -0.0102    0.0261    0.0080    0.0016   -0.0027   -0.0056   -0.0215
          20    0.0017   -0.0025   -0.0008   -0.0096    0.0409   -0.0208    0.0109   -0.0075
          21   -0.0036    0.0108   -0.0245   -0.0186   -0.0075    0.0059    0.0116   -0.0283
          22    0.0255   -0.0481   -0.0453   -0.0241   -0.0597   -0.0598   -0.0078   -0.0700
          23    0.0131   -0.0344    0.0004    0.0282   -0.0597   -0.0923   -0.0272    0.0110
          24    0.0300   -0.0740   -0.0227    0.0100   -0.0688   -0.0941   -0.0093   -0.0029
          25   -0.0413    0.0886    0.0020    0.0500    0.0264    0.0289    0.0293   -0.0410
          26   -0.0159    0.0849    0.0776    0.0030    0.0515    0.0782   -0.1062    0.0502
          27    0.0151   -0.0185    0.0110   -0.0088   -0.0076   -0.0032   -0.0326    0.0200
          28   -0.0389    0.0775    0.0287    0.0547    0.0274    0.0368   -0.0010   -0.0408
          29    0.1160   -0.0484   -0.0518   -0.0137    0.0368    0.0474   -0.0974   -0.0091
          30    0.0210   -0.0187   -0.0159   -0.0171   -0.0071   -0.0153    0.0031    0.0153
          31    0.0338   -0.0280   -0.1100   -0.0771    0.0252   -0.0090    0.0353    0.0101
          32   -0.0589    0.0095    0.0585    0.0146   -0.0127   -0.0001    0.0933   -0.0625
          33    0.0824   -0.0352   -0.0628   -0.0291    0.0129   -0.0002   -0.0656    0.0446
          34    0.0439    0.0611    0.0300   -0.0865   -0.0249   -0.0315   -0.0102   -0.0086
          35   -0.0055   -0.0513   -0.0659    0.0574   -0.0161    0.0625    0.0802    0.0236
          36    0.0156    0.0293    0.0448   -0.0355    0.0120   -0.0217   -0.0469   -0.0135
          37   -0.0644   -0.0093   -0.0545    0.0463    0.0308    0.0301   -0.0171   -0.0689
          38    0.0384    0.0556    0.0376   -0.1306   -0.0187    0.0931   -0.0348   -0.0525
          39    0.0403    0.0154    0.0357   -0.0226   -0.0113   -0.0310    0.0047    0.0372
          40    0.0699   -0.0064   -0.0009    0.0532    0.0274    0.0456    0.0021   -0.0060
          41    0.0429   -0.0051   -0.0174    0.0140    0.0558    0.0040   -0.0049    0.0239
          42    0.1764    0.0706   -0.0860    0.1645    0.0524    0.0380   -0.0609   -0.0867
          43    0.0410    0.0837   -0.0380   -0.0164   -0.0673    0.0147    0.0694   -0.0087
          44    0.0125    0.0564    0.0070    0.0003    0.0041   -0.0439    0.0109    0.0463
          45    0.1655    0.1326    0.0746    0.0070   -0.0493   -0.0810    0.1474    0.0678
          46   -0.0301   -0.0237    0.0027    0.0361    0.1384   -0.0825    0.0136    0.0957
          47   -0.0035   -0.0014   -0.0079    0.0168   -0.0739    0.0354   -0.0127    0.0086
          48   -0.0451    0.0020   -0.0638    0.0582   -0.1168    0.0483   -0.0173    0.1113
          49    0.0020    0.0231    0.0276    0.0653   -0.0961    0.0509   -0.0724    0.1300
          50   -0.0028   -0.0037    0.0029    0.0239   -0.0719    0.0308   -0.0196    0.0101
          51    0.0042    0.0443   -0.0347   -0.0363    0.1315   -0.0494    0.0144    0.0733


   Root No.      17        18        19        20        21        22        23        24

                17 A      18 A      19 A      20 A      21 A      22 A      23 A      24 A   

                1005.1    1031.5    1041.5    1057.4    1086.3    1110.2    1115.4    1164.8
  
           1    0.0223   -0.0107    0.0137   -0.0136    0.0020   -0.0316   -0.0183    0.0044
           2   -0.0046    0.0024    0.0004   -0.0044    0.0001    0.0013    0.0094    0.0049
           3   -0.0007    0.0123    0.0164    0.0001   -0.0141   -0.0324    0.0065    0.0073
           4   -0.0160    0.0101   -0.0102    0.0009   -0.0104    0.0309    0.0157   -0.0078
           5    0.0340   -0.0000    0.0001    0.0067   -0.0004   -0.0047    0.0088    0.0061
           6   -0.0086   -0.0057   -0.0227   -0.0140   -0.0042    0.0313   -0.0098   -0.0033
           7    0.0037    0.0309   -0.0036    0.0171   -0.0038   -0.0023   -0.0112    0.0013
           8    0.0045   -0.0087    0.0057   -0.0071   -0.0002    0.0035   -0.0094   -0.0021
           9   -0.0037    0.0047    0.0216   -0.0056   -0.0027   -0.0009    0.0039   -0.0010
          10    0.0066   -0.0038   -0.0176   -0.0036    0.0205    0.0011    0.0062    0.0012
          11   -0.0055    0.0037   -0.0057    0.0107   -0.0031   -0.0074    0.0032   -0.0117
          12    0.0091   -0.0052   -0.0198   -0.0020    0.0205    0.0009   -0.0005    0.0002
          13   -0.0241   -0.0131    0.0079   -0.0106    0.0081   -0.0030   -0.0063   -0.0014
          14   -0.0155    0.0078   -0.0001    0.0026    0.0053   -0.0023   -0.0105    0.0055
          15    0.0161    0.0158    0.0325    0.0198    0.0136    0.0034    0.0050   -0.0013
          16   -0.0061   -0.0328    0.0008   -0.0088   -0.0085    0.0057    0.0095    0.0002
          17   -0.0188   -0.0211    0.0010   -0.0102   -0.0014    0.0039   -0.0055   -0.0032
          18    0.0045   -0.0143   -0.0286    0.0152   -0.0136   -0.0024   -0.0074    0.0003
          19   -0.0222    0.0087    0.0206    0.0021   -0.0148   -0.0009    0.0009   -0.0001
          20    0.0076   -0.0117    0.0067   -0.0082    0.0032    0.0026   -0.0021    0.0041
          21   -0.0201    0.0013    0.0102    0.0021   -0.0033   -0.0015   -0.0041   -0.0001
          22    0.1323   -0.0148    0.0445   -0.0971   -0.0373    0.0686   -0.1524   -0.0015
          23   -0.0747   -0.0093   -0.0413    0.0355    0.0401   -0.0206    0.0904    0.0036
          24   -0.0412   -0.0118   -0.0325    0.0048    0.0254    0.0016    0.0419    0.0030
          25   -0.0122   -0.0774    0.0152    0.1079    0.1038   -0.2343    0.0038    0.0620
          26    0.0381    0.0794    0.0640   -0.0601   -0.1021    0.0416    0.0106   -0.0224
          27    0.0082    0.0312    0.0095   -0.0414   -0.0442    0.0398   -0.0007   -0.0124
          28    0.0076   -0.0255    0.0199    0.1348    0.0783    0.2469    0.0442   -0.0893
          29    0.0609    0.0165    0.0878    0.1252    0.0526    0.0518    0.0653   -0.0386
          30   -0.0120    0.0111   -0.0154   -0.0428   -0.0280   -0.0399   -0.0109    0.0180
          31    0.0214    0.0816   -0.0492   -0.0045   -0.1113   -0.0930    0.1840   -0.0941
          32    0.0742    0.0326   -0.0630   -0.0066   -0.0675   -0.0420    0.1131   -0.0467
          33   -0.0381   -0.0016    0.0359    0.0016    0.0215    0.0067   -0.0420    0.0166
          34    0.0376    0.0339   -0.0822    0.1699   -0.0787   -0.0350   -0.1347   -0.0467
          35    0.0210    0.0065    0.0101    0.0676   -0.0510   -0.0130   -0.0869   -0.0370
          36   -0.0196   -0.0145    0.0067   -0.0753    0.0480    0.0140    0.0780    0.0309
          37    0.0133    0.2071   -0.0220   -0.0715    0.1248   -0.0199   -0.0152   -0.0231
          38    0.0095    0.0456   -0.0560   -0.0763    0.0958   -0.0012    0.0012   -0.0195
          39   -0.0086   -0.1078    0.0141    0.0387   -0.0669    0.0106    0.0107    0.0132
          40   -0.0318   -0.0355   -0.0266   -0.0308   -0.0047   -0.0017   -0.0039   -0.0114
          41   -0.0698    0.1232   -0.0910    0.0467   -0.0271    0.0559   -0.0639    0.2658
          42   -0.0043   -0.0545   -0.0698   -0.0424   -0.0227    0.0021    0.0077   -0.0433
          43    0.0746   -0.0199    0.0577    0.0020   -0.0258    0.0641    0.1104    0.2323
          44   -0.0630    0.0113    0.0039   -0.0240    0.0223   -0.0299   -0.0628   -0.1382
          45   -0.0026    0.0883    0.0573   -0.0070    0.0271   -0.0164   -0.0210   -0.0555
          46    0.1037   -0.0384   -0.0367   -0.0108    0.0228    0.0123   -0.0026    0.0093
          47   -0.0104    0.0090   -0.0086    0.0030    0.0045   -0.0031    0.0064   -0.0036
          48    0.0570   -0.0003   -0.0755    0.0136    0.0367   -0.0015    0.0114   -0.0067
          49    0.0802    0.0164   -0.0600   -0.0023    0.0103   -0.0077    0.0076   -0.0110
          50   -0.0063    0.0147   -0.0028    0.0067   -0.0093   -0.0027   -0.0016   -0.0063
          51    0.1013   -0.0472   -0.0450   -0.0342    0.0485    0.0031    0.0025    0.0117


   Root No.      25        26        27        28        29        30        31        32

                25 A      26 A      27 A      28 A      29 A      30 A      31 A      32 A   

                1234.1    1293.0    1318.2    1357.8    1365.8    1393.1    1401.5    1420.6
  
           1   -0.0119    0.0372    0.0029    0.0153   -0.0229   -0.0175   -0.0363    0.0344
           2    0.0045   -0.0146    0.0107   -0.0054    0.0092    0.0214   -0.0209   -0.0308
           3    0.0036   -0.0097   -0.0015   -0.0000    0.0066    0.0108   -0.0092   -0.0186
           4   -0.0161   -0.0140   -0.0202    0.0303    0.0138    0.0191    0.0388   -0.0449
           5   -0.0076    0.0052   -0.0143    0.0164    0.0193   -0.0315   -0.0003   -0.0447
           6    0.0021    0.0040    0.0054   -0.0055   -0.0099    0.0084   -0.0009    0.0204
           7    0.0160    0.0104   -0.0210    0.0218    0.0294   -0.0179    0.0167    0.0336
           8    0.0069    0.0118   -0.0075   -0.0007   -0.0258   -0.0220    0.0145   -0.0263
           9   -0.0101   -0.0047    0.0117   -0.0089   -0.0010    0.0138   -0.0108   -0.0061
          10    0.0014    0.0031   -0.0080   -0.0091    0.0049    0.0071   -0.0009   -0.0063
          11    0.0236   -0.0194   -0.0297    0.0112   -0.0070    0.0051   -0.0074    0.0502
          12    0.0011   -0.0114    0.0106    0.0074   -0.0049   -0.0055    0.0039    0.0003
          13   -0.0021   -0.0041    0.0053   -0.0150   -0.0098    0.0043   -0.0066    0.0249
          14   -0.0204   -0.0138   -0.0114   -0.0079    0.0032    0.0039    0.0003    0.0441
          15    0.0056    0.0046    0.0012    0.0059    0.0023   -0.0028    0.0010   -0.0162
          16    0.0169    0.0109    0.0233   -0.0003   -0.0094    0.0022   -0.0073   -0.0408
          17   -0.0087   -0.0075    0.0068   -0.0075   -0.0050    0.0107   -0.0033    0.0048
          18   -0.0044   -0.0017   -0.0095    0.0018    0.0044   -0.0027    0.0035    0.0126
          19   -0.0013   -0.0007   -0.0035   -0.0102    0.0063    0.0116   -0.0054   -0.0087
          20   -0.0078    0.0054    0.0075   -0.0026   -0.0005   -0.0007   -0.0004   -0.0080
          21    0.0008    0.0027    0.0033    0.0117   -0.0068   -0.0132    0.0050    0.0110
          22    0.1119   -0.0918    0.0089   -0.1027    0.0326    0.0358    0.0953    0.0209
          23   -0.0728    0.0808    0.0434   -0.0187   -0.0084   -0.0570    0.0573    0.0162
          24   -0.0386    0.0543    0.0527   -0.0872    0.0112   -0.0719    0.1799    0.0425
          25    0.0614   -0.0644    0.0213   -0.0709    0.0381    0.0079    0.1131   -0.0217
          26   -0.0305    0.0674    0.0256   -0.0880    0.0112   -0.0733    0.1617    0.0579
          27   -0.0205    0.0218   -0.0066    0.0303   -0.0139    0.0046   -0.0623   -0.0016
          28    0.0376   -0.0183    0.0287   -0.0765    0.0139   -0.0764   -0.0892    0.0385
          29    0.0385    0.0623    0.0457    0.0362   -0.0906    0.1435    0.0619    0.0613
          30   -0.0096    0.0126   -0.0029    0.0332   -0.0242    0.0646    0.0503    0.0055
          31    0.0544   -0.0476    0.0441   -0.0996    0.0283   -0.0632   -0.0944    0.0160
          32    0.0440    0.0407    0.0451   -0.0042   -0.0544    0.0654    0.0120    0.0428
          33   -0.0223   -0.0527   -0.0301   -0.0454    0.0818   -0.1415   -0.0807   -0.0515
          34   -0.1112   -0.0325   -0.0067   -0.0751   -0.1244    0.0185   -0.0160   -0.0804
          35   -0.0602    0.0292    0.0930   -0.0038    0.0992    0.0433   -0.0210   -0.0048
          36    0.0548   -0.0260   -0.0916   -0.0092   -0.1379   -0.0523    0.0246   -0.0323
          37   -0.0666   -0.0345    0.0122   -0.0392   -0.0555    0.0216   -0.0169   -0.0312
          38   -0.0199    0.0197    0.1103    0.0331    0.1682    0.0511   -0.0241    0.0527
          39    0.0407    0.0272    0.0171    0.0415    0.1032    0.0040    0.0030    0.0571
          40   -0.0098   -0.0091    0.0014   -0.0152   -0.0091    0.0068   -0.0041    0.0291
          41    0.1290    0.0698    0.0775   -0.0128   -0.0305   -0.0145   -0.0369   -0.0525
          42   -0.0242   -0.0124   -0.0177    0.0095    0.0100    0.0017    0.0107   -0.0011
          43   -0.1054   -0.0652   -0.0146   -0.0319    0.0027    0.0315   -0.0179    0.0835
          44    0.0609    0.0360    0.0306    0.0094   -0.0135   -0.0049    0.0025   -0.0678
          45    0.0218    0.0144   -0.0010    0.0089    0.0020   -0.0086    0.0061   -0.0157
          46   -0.0210   -0.0629    0.0945    0.0538   -0.0322   -0.0455    0.0252    0.0013
          47    0.0152    0.0540   -0.0826   -0.0598    0.0358    0.0526   -0.0258   -0.0166
          48    0.0290    0.0612   -0.1060   -0.0583    0.0397    0.0504   -0.0212   -0.0019
          49    0.0146   -0.0836    0.0638    0.0648   -0.0401   -0.0422    0.0164    0.0381
          50    0.0097   -0.0689    0.0629    0.0661   -0.0404   -0.0493    0.0205    0.0383
          51   -0.0181    0.0929   -0.0653   -0.0710    0.0381    0.0447   -0.0222   -0.0419


   Root No.      33        34        35        36        37        38        39        40

                33 A      34 A      35 A      36 A      37 A      38 A      39 A      40 A   

                1462.3    1876.9    1885.9    2933.9    2944.4    2955.7    3011.4    3025.7
  
           1    0.0129    0.0082    0.0116   -0.0000    0.0011   -0.0008   -0.0003   -0.0102
           2   -0.0597   -0.0072   -0.0146   -0.0006   -0.0100    0.0149   -0.0001   -0.0133
           3   -0.0194   -0.0090   -0.0111    0.0016    0.0230   -0.0317   -0.0005   -0.0055
           4    0.0164   -0.0025    0.0034   -0.0000   -0.0016   -0.0006   -0.0002   -0.0135
           5    0.0362   -0.0212    0.0141   -0.0002   -0.0105   -0.0084    0.0002    0.0186
           6   -0.0087    0.0047   -0.0040   -0.0006   -0.0330   -0.0238   -0.0000   -0.0048
           7   -0.0640   -0.0094    0.0270   -0.0196    0.0005   -0.0003    0.0199   -0.0003
           8   -0.0579    0.0157    0.0066   -0.0159    0.0004   -0.0003   -0.0342    0.0005
           9    0.0382   -0.0037   -0.0158   -0.0525    0.0012   -0.0008    0.0002    0.0000
          10    0.0022   -0.0835   -0.1066    0.0003   -0.0004    0.0001   -0.0003    0.0002
          11    0.0978   -0.0015    0.0021    0.0001    0.0001    0.0000   -0.0005   -0.0002
          12   -0.0001    0.0912    0.1138   -0.0004    0.0003   -0.0003    0.0002   -0.0001
          13   -0.0151   -0.0549    0.0445   -0.0001   -0.0005   -0.0005   -0.0001    0.0036
          14   -0.0296    0.1300   -0.1028   -0.0001    0.0003    0.0001    0.0001    0.0001
          15    0.0110   -0.0077    0.0057   -0.0002    0.0001    0.0001    0.0000   -0.0012
          16    0.0436    0.0897   -0.0718   -0.0001    0.0001    0.0000    0.0025   -0.0002
          17    0.0056   -0.1073    0.0886    0.0003   -0.0001   -0.0000    0.0044   -0.0004
          18   -0.0160   -0.0089    0.0062   -0.0001   -0.0001   -0.0001   -0.0017    0.0001
          19    0.0051    0.0677    0.0830   -0.0003    0.0001   -0.0001    0.0002   -0.0001
          20   -0.0116    0.0007   -0.0006   -0.0002   -0.0001    0.0001   -0.0002   -0.0001
          21   -0.0063   -0.0742   -0.0905    0.0001   -0.0001    0.0000   -0.0001    0.0001
          22   -0.0005   -0.0081   -0.0280    0.0047    0.0579   -0.0882    0.0015    0.0601
          23    0.0051    0.0131    0.0199    0.0112    0.1347   -0.2027    0.0044    0.1560
          24    0.0611    0.0160    0.0207   -0.0064   -0.0781    0.1175   -0.0029   -0.1075
          25    0.0056    0.0001   -0.0003   -0.0054   -0.0723    0.1012    0.0031    0.0582
          26    0.0958   -0.0123   -0.0118   -0.0010   -0.0181    0.0243    0.0004    0.0040
          27   -0.0217   -0.0024   -0.0029   -0.0144   -0.2002    0.2618    0.0089    0.1751
          28   -0.0178   -0.0049    0.0035    0.0021    0.1014    0.0736    0.0009    0.0771
          29   -0.0457   -0.0033    0.0035   -0.0014   -0.0554   -0.0382   -0.0003   -0.0302
          30   -0.0089    0.0054   -0.0037    0.0057    0.2681    0.1818    0.0028    0.2279
          31   -0.0586   -0.0102    0.0061   -0.0016   -0.0822   -0.0649    0.0011    0.0824
          32   -0.0343   -0.0230    0.0142    0.0036    0.1776    0.1389   -0.0027   -0.1937
          33    0.0327    0.0039   -0.0077    0.0026    0.1320    0.1032   -0.0023   -0.1696
          34    0.0338   -0.0324   -0.0053   -0.0364    0.0006   -0.0006   -0.0165    0.0002
          35    0.0218   -0.0117   -0.0175    0.3125   -0.0054    0.0030    0.3346   -0.0038
          36   -0.0372    0.0228    0.0125    0.2633   -0.0045    0.0026    0.3219   -0.0037
          37    0.0478   -0.0167    0.0051    0.2762   -0.0065    0.0047   -0.2230    0.0025
          38    0.0545    0.0037    0.0066   -0.1238    0.0029   -0.0022    0.0759   -0.0009
          39   -0.0115    0.0054    0.0012    0.3703   -0.0089    0.0063   -0.3260    0.0036
          40   -0.0194   -0.0695    0.0569    0.0001    0.0066    0.0033   -0.0020   -0.0398
          41    0.0666   -0.0292    0.0222   -0.0001   -0.0011   -0.0010    0.0006    0.0022
          42   -0.0056    0.0300   -0.0243   -0.0008   -0.0029   -0.0016    0.0005    0.0122
          43    0.0082   -0.0579    0.0478   -0.0012   -0.0001   -0.0004   -0.0220    0.0017
          44    0.0262   -0.0471    0.0430   -0.0030    0.0001   -0.0006   -0.0516    0.0026
          45   -0.0074    0.0277   -0.0238   -0.0007   -0.0004   -0.0001    0.0181   -0.0012
          46   -0.0367    0.0083    0.0104   -0.0016    0.0007   -0.0009   -0.0002    0.0011
          47    0.0302    0.0749    0.0913   -0.0023    0.0011   -0.0012   -0.0010    0.0013
          48    0.0372   -0.0112   -0.0110    0.0007   -0.0010    0.0013    0.0008   -0.0009
          49    0.0248    0.0086    0.0108   -0.0011    0.0009   -0.0012   -0.0018   -0.0000
          50    0.0083   -0.0745   -0.0916    0.0014   -0.0015    0.0020    0.0012   -0.0004
          51   -0.0243   -0.0081   -0.0131    0.0017   -0.0006    0.0009    0.0012   -0.0003


   Root No.      41        42        43        44        45

                41 A      42 A      43 A      44 A      45 A   

                3031.6    3045.8    3066.2    3139.3    3141.1
  
           1   -0.0128   -0.0008    0.0006   -0.0002   -0.0002
           2   -0.0186   -0.0010    0.0009    0.0004   -0.0004
           3   -0.0056   -0.0001   -0.0001    0.0004    0.0004
           4    0.0092    0.0021   -0.0022    0.0000    0.0001
           5   -0.0141   -0.0030    0.0034    0.0000   -0.0001
           6    0.0021    0.0000   -0.0001    0.0000   -0.0000
           7   -0.0001    0.0011    0.0014    0.0003    0.0000
           8    0.0004   -0.0022   -0.0024    0.0002    0.0002
           9    0.0000   -0.0001   -0.0001   -0.0004    0.0003
          10   -0.0000    0.0002    0.0004    0.0004   -0.0044
          11   -0.0002    0.0001    0.0001   -0.0006   -0.0000
          12   -0.0000   -0.0001   -0.0002   -0.0004    0.0047
          13   -0.0041    0.0280   -0.0359    0.0000    0.0000
          14    0.0001   -0.0001    0.0052   -0.0000   -0.0000
          15    0.0013   -0.0091    0.0108   -0.0000    0.0000
          16    0.0004   -0.0142   -0.0098   -0.0000    0.0001
          17    0.0006   -0.0296   -0.0305    0.0001    0.0001
          18   -0.0002    0.0108    0.0095    0.0000   -0.0001
          19   -0.0002   -0.0000   -0.0000   -0.0029    0.0317
          20   -0.0002   -0.0000   -0.0000   -0.0645   -0.0057
          21    0.0001    0.0000    0.0000    0.0031   -0.0347
          22    0.0898    0.0047   -0.0034   -0.0020    0.0024
          23    0.2196    0.0111   -0.0082   -0.0011    0.0049
          24   -0.1507   -0.0077    0.0055    0.0026   -0.0035
          25    0.0726    0.0032   -0.0015   -0.0007   -0.0003
          26    0.0034    0.0001    0.0002    0.0002   -0.0003
          27    0.2190    0.0095   -0.0047   -0.0019   -0.0003
          28   -0.0525   -0.0095    0.0086    0.0000   -0.0001
          29    0.0193    0.0041   -0.0036    0.0000   -0.0001
          30   -0.1554   -0.0315    0.0289    0.0001   -0.0001
          31   -0.0669   -0.0140    0.0131    0.0002   -0.0002
          32    0.1484    0.0367   -0.0352   -0.0003    0.0004
          33    0.1296    0.0294   -0.0276   -0.0002    0.0004
          34    0.0002   -0.0034   -0.0029    0.0011    0.0007
          35   -0.0025    0.0220    0.0202    0.0006   -0.0028
          36   -0.0026    0.0225    0.0204   -0.0011   -0.0032
          37    0.0014   -0.0151   -0.0138    0.0006   -0.0005
          38   -0.0005    0.0039    0.0038   -0.0000    0.0004
          39    0.0020   -0.0193   -0.0179    0.0004   -0.0003
          40    0.0486   -0.3365    0.3938   -0.0001    0.0000
          41   -0.0017    0.0023   -0.0075    0.0000    0.0000
          42   -0.0154    0.1098   -0.1274    0.0000    0.0000
          43   -0.0035    0.1745    0.1499   -0.0002   -0.0003
          44   -0.0061    0.3481    0.3081   -0.0003   -0.0006
          45    0.0025   -0.1300   -0.1134    0.0001    0.0003
          46    0.0017   -0.0000   -0.0002    0.1883   -0.1478
          47    0.0025   -0.0001   -0.0003    0.4207   -0.3644
          48   -0.0016   -0.0000    0.0002   -0.2055    0.1613
          49    0.0002   -0.0003   -0.0003   -0.1583   -0.1782
          50   -0.0008    0.0005    0.0006    0.3479    0.4322
          51   -0.0005    0.0003    0.0004    0.1732    0.1950


           MASS-WEIGHTED COORDINATE ANALYSIS (NORMAL COORDINATES)


   Root No.       1         2         3         4         5         6         7         8

                 1 A       2 A       3 A       4 A       5 A       6 A       7 A       8 A   

                  76.1     152.0     361.4     398.4     421.0     496.6     553.4     627.4
  
           1    0.1054   -0.0716    0.0281    0.0578    0.0814   -0.2887   -0.0785    0.0881
           2   -0.0044    0.1137    0.0580    0.3709   -0.0782   -0.1304   -0.2027    0.0799
           3    0.1707   -0.3763    0.0021   -0.0269   -0.2623    0.0270   -0.0140    0.0141
           4    0.1006   -0.0702    0.0351    0.0544    0.1369   -0.2533   -0.1630    0.1571
           5    0.0543    0.0867   -0.1062    0.0002    0.0266    0.3621   -0.0942   -0.0617
           6    0.0991    0.4273   -0.1047   -0.0358   -0.0533   -0.0531    0.0665    0.0232
           7    0.1954    0.0184   -0.0121   -0.0023   -0.0586    0.2552    0.0764   -0.0739
           8    0.0715    0.0566    0.0733   -0.1031   -0.2955   -0.2945    0.0663    0.0657
           9    0.3972    0.0507    0.0555   -0.1229    0.1529   -0.0392    0.0351    0.0146
          10    0.0161   -0.0307    0.0270    0.0716   -0.0028   -0.1228    0.5791   -0.1311
          11   -0.0026    0.0024    0.0439    0.1434   -0.3054   -0.1377   -0.0553    0.0871
          12    0.0851   -0.0974    0.0232    0.4502    0.1511    0.0652    0.2437   -0.0895
          13   -0.0261   -0.0402    0.1020    0.1689    0.0809    0.2660   -0.3486    0.0302
          14   -0.0465   -0.0592    0.0603   -0.0727    0.0769    0.1838    0.0646   -0.0413
          15   -0.3313    0.0228    0.4652   -0.0762   -0.0154    0.0269    0.1225   -0.0048
          16   -0.0103   -0.0605   -0.1854    0.0575   -0.1140    0.2596   -0.0233   -0.0901
          17   -0.0391   -0.0641   -0.1116   -0.1338   -0.0474    0.1519    0.2693   -0.1102
          18   -0.1983   -0.2053   -0.4232   -0.0896    0.0319   -0.2181   -0.0855    0.0546
          19   -0.3631    0.2253   -0.0042   -0.3033   -0.1040   -0.0950    0.1116   -0.0147
          20   -0.0516   -0.1670   -0.0095   -0.1724    0.4705   -0.0964   -0.0144    0.0176
          21   -0.2555    0.1300   -0.0034    0.1143    0.0619    0.1114   -0.2290    0.0268
          22    0.0503   -0.1263   -0.0042   -0.0540   -0.0111    0.0328   -0.0845    0.0437
          23    0.0046   -0.0122    0.0155    0.0305   -0.0941   -0.0402   -0.0602    0.0567
          24    0.0736   -0.2595   -0.0102   -0.1893   -0.2277    0.0904   -0.0503    0.0726
          25    0.0211    0.1299   -0.0084    0.0425    0.0919   -0.1621   -0.0490    0.0644
          26   -0.0311    0.1609    0.0409    0.3341    0.1392   -0.1360    0.0297   -0.0841
          27    0.0553   -0.1750    0.0037   -0.0404   -0.1169    0.0480   -0.0021    0.0009
          28    0.0485   -0.1741    0.0443    0.0189   -0.0025   -0.1190   -0.0692    0.0880
          29    0.1120    0.1869   -0.2765   -0.0395    0.0219    0.1405   -0.0271   -0.0683
          30    0.0407    0.2146   -0.0957   -0.0210    0.0026    0.0110    0.0280   -0.0211
          31    0.0292    0.0865   -0.0451   -0.0515    0.0868   -0.0414    0.0175    0.0055
          32   -0.0364   -0.0647    0.0979   -0.0153    0.0150    0.0944    0.0076   -0.0027
          33    0.0964    0.3048   -0.2341   -0.0306    0.0037    0.0198    0.0131   -0.0393
          34    0.2055    0.0829    0.1929   -0.0911   -0.0132    0.0827   -0.0990   -0.0699
          35   -0.0624   -0.0223   -0.0428    0.1101   -0.0841   -0.0812    0.0944    0.0678
          36    0.2290    0.0683    0.1166   -0.2139    0.0452   -0.0165   -0.0943   -0.0589
          37   -0.0208   -0.0309   -0.1261    0.0143   -0.0549    0.0543   -0.0432    0.0024
          38    0.1792    0.0930    0.1629   -0.2613   -0.1047   -0.1097   -0.1967   -0.0530
          39    0.2237    0.0672    0.1561   -0.1257    0.0655   -0.0046   -0.0152   -0.0408
          40   -0.0484   -0.0248    0.0933    0.0469    0.0221    0.1135   -0.1029   -0.0136
          41   -0.0347   -0.0472    0.0689   -0.0229    0.0652   -0.0160   -0.0175    0.0237
          42   -0.2202   -0.0298    0.3259   -0.0259   -0.0087    0.1274    0.0301   -0.0734
          43   -0.0402   -0.0390   -0.1032   -0.0032   -0.0973    0.0107    0.0117   -0.0391
          44   -0.0264   -0.0449   -0.0744   -0.0375    0.0149    0.0686    0.0454   -0.0451
          45   -0.1483   -0.1587   -0.3032   -0.0491    0.0024   -0.0779   -0.0838   -0.0386
          46   -0.1638    0.0857    0.0093   -0.0692   -0.2189   -0.1492   -0.1820   -0.4360
          47   -0.0203   -0.0719   -0.0103   -0.1066    0.2756   -0.0265    0.0023   -0.0102
          48   -0.1391    0.0072   -0.0070   -0.0648    0.1258   -0.0733   -0.2515   -0.4185
          49   -0.1434    0.1120   -0.0201   -0.2150    0.1284    0.1049    0.0704    0.4734
          50   -0.0207   -0.0710   -0.0102   -0.1034    0.2778   -0.0278    0.0060   -0.0129
          51   -0.0972    0.1272   -0.0033    0.0251   -0.1224    0.1517   -0.0550    0.4822


   Root No.       9        10        11        12        13        14        15        16

                 9 A      10 A      11 A      12 A      13 A      14 A      15 A      16 A   

                 716.1     771.1     853.3     910.8     929.8     941.7     955.9     993.7
  
           1    0.0104    0.0898   -0.0974    0.0347   -0.1241   -0.1241   -0.1290   -0.1205
           2    0.0367   -0.0411    0.1134    0.1324   -0.2589   -0.3467   -0.2797   -0.0258
           3   -0.0336    0.1881    0.2024    0.0744    0.1413    0.2179   -0.2062    0.1336
           4   -0.0161    0.0547   -0.1821   -0.0908    0.0609   -0.0173    0.0651    0.0837
           5    0.0033   -0.1132    0.2890    0.1149   -0.0552    0.0692    0.1165   -0.2286
           6   -0.1788    0.1542    0.2001    0.1271   -0.0663   -0.0638    0.2198   -0.0699
           7   -0.1478    0.0972   -0.1484    0.1283    0.0585   -0.1473   -0.0129   -0.0283
           8    0.0558   -0.0998   -0.1976   -0.0045   -0.0974    0.4314    0.2448    0.0465
           9   -0.0667   -0.2129   -0.1132    0.4126    0.0881   -0.0718    0.1338    0.0758
          10    0.1913   -0.1611    0.2278   -0.0600   -0.0170   -0.0022   -0.0029    0.0307
          11    0.0628   -0.0667   -0.0310   -0.0241    0.0965   -0.0759    0.0402    0.0234
          12    0.1299   -0.0152   -0.0632   -0.1936   -0.0629    0.0407    0.0796   -0.0224
          13    0.0663   -0.2997    0.2250   -0.0756    0.0545    0.2328    0.1713    0.2395
          14   -0.0745    0.0138    0.0216   -0.0646    0.0572    0.0065    0.0099    0.1293
          15   -0.1383   -0.1101   -0.0548   -0.2295   -0.0949   -0.1179   -0.0434    0.1056
          16   -0.1647    0.1462   -0.1366   -0.0836   -0.0676    0.0638   -0.0728    0.0061
          17   -0.2046    0.2823   -0.2184   -0.0789   -0.0264   -0.0609   -0.1402    0.0866
          18   -0.0676   -0.2125    0.1288   -0.0926    0.0999    0.0949   -0.2406   -0.1659
          19    0.0289   -0.0918    0.2264    0.0711    0.0144   -0.0230   -0.0498   -0.2046
          20    0.0157   -0.0221   -0.0070   -0.0855    0.3622   -0.1780    0.0977   -0.0709
          21   -0.0328    0.0969   -0.2128   -0.1660   -0.0665    0.0503    0.1045   -0.2691
          22    0.0675   -0.1252   -0.1138   -0.0623   -0.1530   -0.1479   -0.0204   -0.1927
          23    0.0348   -0.0895    0.0010    0.0729   -0.1531   -0.2285   -0.0706    0.0303
          24    0.0796   -0.1926   -0.0570    0.0257   -0.1765   -0.2330   -0.0242   -0.0079
          25   -0.1095    0.2306    0.0050    0.1290    0.0676    0.0716    0.0762   -0.1129
          26   -0.0421    0.2208    0.1951    0.0078    0.1320    0.1935   -0.2759    0.1380
          27    0.0400   -0.0480    0.0276   -0.0228   -0.0194   -0.0079   -0.0848    0.0550
          28   -0.1031    0.2016    0.0722    0.1413    0.0702    0.0910   -0.0026   -0.1122
          29    0.3074   -0.1259   -0.1303   -0.0353    0.0943    0.1173   -0.2531   -0.0251
          30    0.0556   -0.0485   -0.0401   -0.0442   -0.0181   -0.0379    0.0080    0.0420
          31    0.0895   -0.0729   -0.2767   -0.1991    0.0647   -0.0222    0.0916    0.0277
          32   -0.1559    0.0248    0.1471    0.0377   -0.0326   -0.0002    0.2424   -0.1719
          33    0.2184   -0.0915   -0.1578   -0.0750    0.0329   -0.0006   -0.1704    0.1227
          34    0.1162    0.1589    0.0755   -0.2233   -0.0640   -0.0780   -0.0264   -0.0238
          35   -0.0146   -0.1334   -0.1656    0.1483   -0.0413    0.1548    0.2082    0.0649
          36    0.0412    0.0764    0.1126   -0.0917    0.0308   -0.0537   -0.1220   -0.0371
          37   -0.1706   -0.0241   -0.1371    0.1196    0.0789    0.0746   -0.0443   -0.1894
          38    0.1016    0.1447    0.0946   -0.3371   -0.0480    0.2304   -0.0905   -0.1443
          39    0.1069    0.0401    0.0898   -0.0585   -0.0289   -0.0766    0.0121    0.1023
          40    0.1851   -0.0166   -0.0022    0.1373    0.0702    0.1129    0.0054   -0.0165
          41    0.1137   -0.0132   -0.0438    0.0361    0.1430    0.0099   -0.0127    0.0658
          42    0.4673    0.1836   -0.2162    0.4248    0.1344    0.0941   -0.1581   -0.2385
          43    0.1087    0.2178   -0.0956   -0.0424   -0.1724    0.0365    0.1802   -0.0238
          44    0.0330    0.1468    0.0175    0.0007    0.0105   -0.1087    0.0284    0.1274
          45    0.4384    0.3450    0.1877    0.0181   -0.1264   -0.2004    0.3829    0.1866
          46   -0.0798   -0.0618    0.0069    0.0932    0.3547   -0.2043    0.0352    0.2634
          47   -0.0093   -0.0037   -0.0198    0.0433   -0.1895    0.0876   -0.0331    0.0237
          48   -0.1196    0.0051   -0.1603    0.1503   -0.2994    0.1195   -0.0448    0.3061
          49    0.0052    0.0600    0.0693    0.1687   -0.2464    0.1259   -0.1882    0.3575
          50   -0.0073   -0.0097    0.0073    0.0616   -0.1844    0.0763   -0.0508    0.0277
          51    0.0111    0.1154   -0.0873   -0.0937    0.3372   -0.1223    0.0375    0.2017


   Root No.      17        18        19        20        21        22        23        24

                17 A      18 A      19 A      20 A      21 A      22 A      23 A      24 A   

                1005.1    1031.5    1041.5    1057.4    1086.3    1110.2    1115.4    1164.8
  
           1    0.2045   -0.0926    0.1331   -0.1230    0.0197   -0.2444   -0.1580    0.0355
           2   -0.0420    0.0204    0.0035   -0.0398    0.0014    0.0100    0.0811    0.0390
           3   -0.0067    0.1065    0.1592    0.0012   -0.1372   -0.2503    0.0562    0.0582
           4   -0.1467    0.0872   -0.0987    0.0083   -0.1013    0.2392    0.1359   -0.0626
           5    0.3110   -0.0003    0.0014    0.0610   -0.0035   -0.0361    0.0764    0.0488
           6   -0.0785   -0.0489   -0.2205   -0.1272   -0.0408    0.2416   -0.0851   -0.0268
           7    0.0334    0.2676   -0.0352    0.1544   -0.0375   -0.0174   -0.0971    0.0105
           8    0.0409   -0.0749    0.0553   -0.0640   -0.0018    0.0271   -0.0811   -0.0168
           9   -0.0343    0.0406    0.2097   -0.0507   -0.0267   -0.0073    0.0335   -0.0077
          10    0.0609   -0.0324   -0.1701   -0.0328    0.2001    0.0088    0.0537    0.0092
          11   -0.0500    0.0323   -0.0549    0.0965   -0.0305   -0.0573    0.0275   -0.0939
          12    0.0836   -0.0451   -0.1915   -0.0185    0.2000    0.0068   -0.0044    0.0012
          13   -0.2207   -0.1134    0.0764   -0.0963    0.0792   -0.0235   -0.0543   -0.0115
          14   -0.1421    0.0672   -0.0008    0.0235    0.0515   -0.0178   -0.0904    0.0442
          15    0.1478    0.1369    0.3152    0.1790    0.1322    0.0262    0.0430   -0.0106
          16   -0.0557   -0.2838    0.0079   -0.0801   -0.0828    0.0441    0.0823    0.0018
          17   -0.1718   -0.1827    0.0097   -0.0923   -0.0138    0.0299   -0.0477   -0.0254
          18    0.0414   -0.1233   -0.2774    0.1377   -0.1328   -0.0184   -0.0638    0.0028
          19   -0.2036    0.0751    0.2001    0.0194   -0.1447   -0.0071    0.0078   -0.0006
          20    0.0700   -0.1012    0.0647   -0.0745    0.0309    0.0204   -0.0178    0.0329
          21   -0.1840    0.0109    0.0986    0.0186   -0.0319   -0.0117   -0.0357   -0.0006
          22    0.3508   -0.0371    0.1249   -0.2546   -0.1053    0.1536   -0.3816   -0.0035
          23   -0.1982   -0.0233   -0.1160    0.0933    0.1132   -0.0461    0.2264    0.0083
          24   -0.1092   -0.0295   -0.0913    0.0126    0.0716    0.0037    0.1050    0.0069
          25   -0.0323   -0.1938    0.0427    0.2830    0.2930   -0.5246    0.0094    0.1440
          26    0.1010    0.1989    0.1797   -0.1576   -0.2884    0.0932    0.0265   -0.0520
          27    0.0217    0.0781    0.0267   -0.1087   -0.1249    0.0891   -0.0019   -0.0288
          28    0.0202   -0.0639    0.0559    0.3536    0.2212    0.5528    0.1107   -0.2074
          29    0.1615    0.0414    0.2466    0.3286    0.1486    0.1160    0.1636   -0.0897
          30   -0.0317    0.0279   -0.0433   -0.1124   -0.0792   -0.0893   -0.0273    0.0417
          31    0.0568    0.2045   -0.1383   -0.0119   -0.3144   -0.2083    0.4608   -0.2185
          32    0.1968    0.0817   -0.1770   -0.0174   -0.1906   -0.0939    0.2832   -0.1085
          33   -0.1009   -0.0041    0.1009    0.0043    0.0607    0.0151   -0.1052    0.0385
          34    0.0997    0.0848   -0.2309    0.4458   -0.2221   -0.0783   -0.3374   -0.1086
          35    0.0556    0.0163    0.0283    0.1773   -0.1439   -0.0292   -0.2177   -0.0860
          36   -0.0519   -0.0363    0.0187   -0.1975    0.1356    0.0314    0.1954    0.0718
          37    0.0354    0.5187   -0.0619   -0.1876    0.3523   -0.0445   -0.0382   -0.0536
          38    0.0251    0.1142   -0.1573   -0.2001    0.2705   -0.0028    0.0031   -0.0452
          39   -0.0228   -0.2699    0.0397    0.1017   -0.1889    0.0236    0.0268    0.0306
          40   -0.0844   -0.0890   -0.0746   -0.0808   -0.0134   -0.0037   -0.0098   -0.0264
          41   -0.1853    0.3086   -0.2556    0.1225   -0.0766    0.1251   -0.1600    0.6174
          42   -0.0114   -0.1364   -0.1960   -0.1114   -0.0641    0.0047    0.0193   -0.1006
          43    0.1980   -0.0499    0.1619    0.0053   -0.0729    0.1435    0.2766    0.5396
          44   -0.1671    0.0282    0.0110   -0.0629    0.0631   -0.0669   -0.1572   -0.3209
          45   -0.0070    0.2210    0.1609   -0.0184    0.0765   -0.0367   -0.0525   -0.1289
          46    0.2750   -0.0962   -0.1031   -0.0282    0.0645    0.0275   -0.0064    0.0217
          47   -0.0277    0.0226   -0.0241    0.0079    0.0126   -0.0069    0.0161   -0.0085
          48    0.1512   -0.0008   -0.2121    0.0356    0.1036   -0.0034    0.0286   -0.0156
          49    0.2128    0.0410   -0.1686   -0.0060    0.0292   -0.0173    0.0189   -0.0255
          50   -0.0167    0.0367   -0.0079    0.0176   -0.0263   -0.0060   -0.0041   -0.0147
          51    0.2686   -0.1183   -0.1265   -0.0897    0.1369    0.0068    0.0062    0.0272


   Root No.      25        26        27        28        29        30        31        32

                25 A      26 A      27 A      28 A      29 A      30 A      31 A      32 A   

                1234.1    1293.0    1318.2    1357.8    1365.8    1393.1    1401.5    1420.6
  
           1   -0.1179    0.3668    0.0275    0.1512   -0.1990   -0.1600   -0.2997    0.2400
           2    0.0442   -0.1441    0.1022   -0.0530    0.0804    0.1950   -0.1727   -0.2147
           3    0.0360   -0.0958   -0.0141   -0.0002    0.0574    0.0985   -0.0757   -0.1296
           4   -0.1595   -0.1384   -0.1932    0.2986    0.1197    0.1738    0.3206   -0.3133
           5   -0.0753    0.0515   -0.1369    0.1620    0.1680   -0.2869   -0.0022   -0.3115
           6    0.0213    0.0399    0.0515   -0.0538   -0.0857    0.0770   -0.0074    0.1425
           7    0.1582    0.1024   -0.2010    0.2153    0.2557   -0.1634    0.1379    0.2344
           8    0.0684    0.1166   -0.0714   -0.0073   -0.2239   -0.2006    0.1197   -0.1834
           9   -0.0997   -0.0468    0.1116   -0.0876   -0.0084    0.1259   -0.0891   -0.0424
          10    0.0138    0.0307   -0.0769   -0.0900    0.0426    0.0647   -0.0071   -0.0441
          11    0.2342   -0.1909   -0.2843    0.1106   -0.0608    0.0463   -0.0616    0.3501
          12    0.0113   -0.1124    0.1009    0.0733   -0.0426   -0.0502    0.0322    0.0021
          13   -0.0209   -0.0400    0.0506   -0.1476   -0.0854    0.0394   -0.0544    0.1734
          14   -0.2025   -0.1358   -0.1087   -0.0778    0.0281    0.0353    0.0026    0.3075
          15    0.0560    0.0451    0.0112    0.0583    0.0201   -0.0258    0.0082   -0.1132
          16    0.1671    0.1076    0.2231   -0.0025   -0.0817    0.0197   -0.0605   -0.2845
          17   -0.0864   -0.0744    0.0652   -0.0737   -0.0431    0.0972   -0.0270    0.0332
          18   -0.0435   -0.0171   -0.0907    0.0173    0.0383   -0.0250    0.0290    0.0876
          19   -0.0125   -0.0072   -0.0334   -0.1002    0.0545    0.1062   -0.0447   -0.0610
          20   -0.0775    0.0533    0.0718   -0.0255   -0.0046   -0.0064   -0.0032   -0.0557
          21    0.0078    0.0271    0.0312    0.1150   -0.0592   -0.1207    0.0417    0.0769
          22    0.3215   -0.2624    0.0247   -0.2934    0.0820    0.0947    0.2283    0.0422
          23   -0.2091    0.2307    0.1201   -0.0533   -0.0211   -0.1506    0.1372    0.0326
          24   -0.1110    0.1551    0.1459   -0.2492    0.0282   -0.1899    0.4309    0.0858
          25    0.1765   -0.1840    0.0589   -0.2026    0.0959    0.0209    0.2709   -0.0439
          26   -0.0876    0.1926    0.0708   -0.2512    0.0283   -0.1935    0.3873    0.1169
          27   -0.0589    0.0621   -0.0183    0.0865   -0.0351    0.0123   -0.1492   -0.0032
          28    0.1080   -0.0524    0.0793   -0.2184    0.0349   -0.2017   -0.2136    0.0778
          29    0.1107    0.1781    0.1264    0.1034   -0.2282    0.3789    0.1483    0.1238
          30   -0.0275    0.0360   -0.0082    0.0947   -0.0610    0.1706    0.1206    0.0111
          31    0.1563   -0.1358    0.1221   -0.2844    0.0711   -0.1670   -0.2260    0.0323
          32    0.1265    0.1164    0.1248   -0.0121   -0.1370    0.1727    0.0288    0.0864
          33   -0.0640   -0.1505   -0.0834   -0.1297    0.2061   -0.3737   -0.1932   -0.1040
          34   -0.3196   -0.0928   -0.0187   -0.2146   -0.3133    0.0489   -0.0384   -0.1624
          35   -0.1730    0.0835    0.2576   -0.0107    0.2497    0.1143   -0.0504   -0.0098
          36    0.1575   -0.0743   -0.2537   -0.0263   -0.3473   -0.1381    0.0588   -0.0653
          37   -0.1913   -0.0985    0.0339   -0.1120   -0.1396    0.0571   -0.0405   -0.0631
          38   -0.0572    0.0563    0.3054    0.0945    0.4235    0.1350   -0.0577    0.1065
          39    0.1169    0.0777    0.0474    0.1186    0.2598    0.0105    0.0073    0.1154
          40   -0.0281   -0.0260    0.0038   -0.0435   -0.0230    0.0181   -0.0099    0.0588
          41    0.3708    0.1994    0.2146   -0.0367   -0.0768   -0.0383   -0.0883   -0.1061
          42   -0.0694   -0.0353   -0.0490    0.0270    0.0252    0.0046    0.0257   -0.0022
          43   -0.3028   -0.1863   -0.0403   -0.0912    0.0068    0.0832   -0.0429    0.1687
          44    0.1750    0.1028    0.0846    0.0268   -0.0341   -0.0128    0.0059   -0.1371
          45    0.0627    0.0412   -0.0027    0.0253    0.0050   -0.0227    0.0147   -0.0318
          46   -0.0604   -0.1796    0.2616    0.1537   -0.0812   -0.1202    0.0603    0.0027
          47    0.0436    0.1543   -0.2287   -0.1707    0.0901    0.1389   -0.0618   -0.0335
          48    0.0832    0.1747   -0.2936   -0.1665    0.0999    0.1332   -0.0508   -0.0039
          49    0.0418   -0.2387    0.1766    0.1850   -0.1010   -0.1114    0.0393    0.0770
          50    0.0278   -0.1969    0.1741    0.1888   -0.1019   -0.1303    0.0492    0.0775
          51   -0.0519    0.2654   -0.1808   -0.2027    0.0959    0.1182   -0.0531   -0.0846


   Root No.      33        34        35        36        37        38        39        40

                33 A      34 A      35 A      36 A      37 A      38 A      39 A      40 A   

                1462.3    1876.9    1885.9    2933.9    2944.4    2955.7    3011.4    3025.7
  
           1    0.0729    0.0315    0.0439   -0.0000    0.0081   -0.0057   -0.0018   -0.0756
[...]
 FREQUENCY          1318.24         C  7 -- H 16         +11.9% ( 40.2%)      0.1%
 TRANSITION DIPOLE   0.0293         C  3 -- H 12         +10.9% ( 38.4%)      0.0%
 TRAVEL (Ang.)       0.3935         C  3 -- C  6         +10.0% ( 36.7%)     86.7%
 REDUCED MASS        0.3304         C  3 -- H 13          +8.2% ( 33.4%)      0.1%
 EFFECTIVE MASS      4.0725
 FORCE CONSTANT      0.3382

 VIBRATION         28   28A           ATOM PAIR      ENERGY CONTRIBUTION    RADIAL
 FREQUENCY          1357.84         C  2 -- H 11         +12.8% ( 41.0%)      0.1%
 TRANSITION DIPOLE   0.0752         C  2 -- H 10         +10.4% ( 37.1%)      0.4%
 TRAVEL (Ang.)       0.4000         C  2 -- C  5         +10.1% ( 36.5%)     63.8%
 REDUCED MASS        0.3104         C  1 -- H  8          +9.7% ( 35.7%)      0.4%
 EFFECTIVE MASS      3.7391
 FORCE CONSTANT      0.3372

 VIBRATION         29   29A           ATOM PAIR      ENERGY CONTRIBUTION    RADIAL
 FREQUENCY          1365.85         C  3 -- H 12         +22.4% ( 52.3%)      4.8%
 TRANSITION DIPOLE   0.0702         C  3 -- H 13         +21.5% ( 51.2%)      5.1%
 TRAVEL (Ang.)       0.3588         C  3 -- C  6          +8.1% ( 31.5%)     80.8%
 REDUCED MASS        0.3835         C  2 -- H 11          +6.8% ( 28.8%)      1.0%
 EFFECTIVE MASS      3.4510
 FORCE CONSTANT      0.4216

 VIBRATION         30   30A           ATOM PAIR      ENERGY CONTRIBUTION    RADIAL
 FREQUENCY          1393.14         C  2 -- H 10         +16.4% ( 48.2%)      4.8%
 TRANSITION DIPOLE   0.1039         C  2 -- H 11         +15.0% ( 46.0%)      7.3%
 TRAVEL (Ang.)       0.3381         C  1 -- C  2         +10.4% ( 38.3%)     32.4%
 REDUCED MASS        0.4233         C  1 -- H  8          +7.7% ( 33.1%)      0.9%
 EFFECTIVE MASS      4.2456
 FORCE CONSTANT      0.4841

 VIBRATION         31   31A           ATOM PAIR      ENERGY CONTRIBUTION    RADIAL
 FREQUENCY          1401.52         C  1 -- H  8         +19.9% ( 50.8%)      5.2%
 TRANSITION DIPOLE   0.0684         C  1 -- H  9         +19.5% ( 50.4%)      4.7%
 TRAVEL (Ang.)       0.3168         C  1 -- C  2         +14.6% ( 43.6%)     91.9%
 REDUCED MASS        0.4795         C  2 -- H 11         +10.3% ( 36.6%)      3.0%
 EFFECTIVE MASS      3.8922
 FORCE CONSTANT      0.5550

 VIBRATION         32   32A           ATOM PAIR      ENERGY CONTRIBUTION    RADIAL
 FREQUENCY          1420.58         C  2 -- C  5         +15.1% ( 58.6%)     94.4%
 TRANSITION DIPOLE   0.1014         C  1 -- C  2         +10.4% ( 48.6%)     78.6%
 TRAVEL (Ang.)       0.1877         C  1 -- C  4          +9.4% ( 46.3%)     95.6%
 REDUCED MASS        1.3478         C  3 -- C  6          +7.8% ( 42.1%)     89.8%
 EFFECTIVE MASS      9.5657
 FORCE CONSTANT      1.6025

 VIBRATION         33   33A           ATOM PAIR      ENERGY CONTRIBUTION    RADIAL
 FREQUENCY          1462.31         C  3 -- C  4         +20.8% ( 70.2%)     96.6%
 TRANSITION DIPOLE   0.0555         C  1 -- C  4         +15.5% ( 60.7%)     82.6%
 TRAVEL (Ang.)       0.1380         C  3 -- C  6         +12.2% ( 53.7%)     70.7%
 REDUCED MASS        2.4220         C  4 -- C  7          +8.4% ( 44.6%)      0.3%
 EFFECTIVE MASS     10.7268
 FORCE CONSTANT      3.0515

 VIBRATION         34   34A           ATOM PAIR      ENERGY CONTRIBUTION    RADIAL
 FREQUENCY          1876.92         C  5 -- C  6         +27.0% ( 76.7%)    100.0%
 TRANSITION DIPOLE   0.1240         C  4 -- C  7         +17.8% ( 62.2%)    100.0%
 TRAVEL (Ang.)       0.1117         C  2 -- C  5          +8.8% ( 43.7%)     51.6%
 REDUCED MASS        2.8811         C  3 -- C  6          +8.4% ( 42.8%)     43.2%
 EFFECTIVE MASS     11.8507
 FORCE CONSTANT      5.9800

 VIBRATION         35   35A           ATOM PAIR      ENERGY CONTRIBUTION    RADIAL
 FREQUENCY          1885.91         C  4 -- C  7         +27.0% ( 76.6%)    100.0%
 TRANSITION DIPOLE   0.3249         C  5 -- C  6         +17.2% ( 61.2%)    100.0%
 TRAVEL (Ang.)       0.1113         C  3 -- C  4         +10.9% ( 48.8%)     29.9%
 REDUCED MASS        2.8842         C  1 -- C  4         +10.7% ( 48.2%)     37.7%
 EFFECTIVE MASS     11.8653
 FORCE CONSTANT      6.0440

 VIBRATION         36   36A           ATOM PAIR      ENERGY CONTRIBUTION    RADIAL
 FREQUENCY          2933.95         C  3 -- H 13         +55.7% ( 77.4%)     97.2%
 TRANSITION DIPOLE   0.0423         C  3 -- H 12         +42.0% ( 67.2%)     95.7%
 TRAVEL (Ang.)       0.2090         C  3 -- C  6          +1.1% ( 10.9%)      0.0%
 REDUCED MASS        0.5261         C  3 -- C  4          +1.1% ( 10.9%)      0.0%
 EFFECTIVE MASS      1.5368
 FORCE CONSTANT      2.6682

 VIBRATION         37   37A           ATOM PAIR      ENERGY CONTRIBUTION    RADIAL
 FREQUENCY          2944.40         C  2 -- H 10         +38.2% ( 64.3%)     97.3%
 TRANSITION DIPOLE   0.0227         C  2 -- H 11         +25.9% ( 52.9%)     95.3%
 TRAVEL (Ang.)       0.2787         C  1 -- H  9         +20.5% ( 47.1%)     97.4%
 REDUCED MASS        0.2948         C  1 -- H  8         +12.9% ( 37.4%)     94.9%
 EFFECTIVE MASS      1.5473
 FORCE CONSTANT      1.5060

 VIBRATION         38   38A           ATOM PAIR      ENERGY CONTRIBUTION    RADIAL
 FREQUENCY          2955.72         C  1 -- H  9         +35.6% ( 61.8%)     97.1%
 TRANSITION DIPOLE   0.0407         C  1 -- H  8         +28.7% ( 55.5%)     96.0%
 TRAVEL (Ang.)       0.2816         C  2 -- H 10         +17.9% ( 43.8%)     97.0%
 REDUCED MASS        0.2876         C  2 -- H 11         +15.6% ( 40.9%)     96.3%
 EFFECTIVE MASS      1.5372
 FORCE CONSTANT      1.4803

 VIBRATION         39   39A           ATOM PAIR      ENERGY CONTRIBUTION    RADIAL
 FREQUENCY          3011.43         C  3 -- H 12         +56.2% ( 74.0%)     98.4%
 TRANSITION DIPOLE   0.0872         C  3 -- H 13         +41.4% ( 63.5%)     96.7%
 TRAVEL (Ang.)       0.2151         C  6 -- H 15          +1.0% (  9.9%)    100.0%
 REDUCED MASS        0.4839         C  3 -- C  6          +0.7% (  8.1%)     19.1%
 EFFECTIVE MASS      1.2822
 FORCE CONSTANT      2.5858

 VIBRATION         40   40A           ATOM PAIR      ENERGY CONTRIBUTION    RADIAL
 FREQUENCY          3025.71         C  2 -- H 11         +35.0% ( 58.4%)     98.3%
 TRANSITION DIPOLE   0.0444         C  2 -- H 10         +27.7% ( 51.9%)     96.9%
 TRAVEL (Ang.)       0.2931         C  1 -- H  8         +18.9% ( 42.9%)     98.1%
 REDUCED MASS        0.2594         C  1 -- H  9         +16.1% ( 39.6%)     97.0%
 EFFECTIVE MASS      1.2822
 FORCE CONSTANT      1.3993

 VIBRATION         41   41A           ATOM PAIR      ENERGY CONTRIBUTION    RADIAL
 FREQUENCY          3031.62         C  1 -- H  8         +38.2% ( 61.0%)     98.6%
 TRANSITION DIPOLE   0.0623         C  1 -- H  9         +25.2% ( 49.5%)     96.2%
 TRAVEL (Ang.)       0.2884         C  2 -- H 11         +20.9% ( 45.1%)     98.7%
 REDUCED MASS        0.2675         C  2 -- H 10         +12.9% ( 35.4%)     96.0%
 EFFECTIVE MASS      1.2798
 FORCE CONSTANT      1.4485

 VIBRATION         42   42A           ATOM PAIR      ENERGY CONTRIBUTION    RADIAL
 FREQUENCY          3045.84         C  6 -- H 15         +55.1% ( 75.3%)    100.0%
 TRANSITION DIPOLE   0.2995         C  5 -- H 14         +40.9% ( 64.9%)    100.0%
 TRAVEL (Ang.)       0.2197         C  5 -- C  6          +1.1% ( 10.5%)      0.3%
 REDUCED MASS        0.4587         C  3 -- C  6          +0.7% (  8.7%)     23.2%
 EFFECTIVE MASS      1.4529
 FORCE CONSTANT      2.5071

 VIBRATION         43   43A           ATOM PAIR      ENERGY CONTRIBUTION    RADIAL
 FREQUENCY          3066.17         C  5 -- H 14         +54.0% ( 74.5%)     99.9%
 TRANSITION DIPOLE   0.2767         C  6 -- H 15         +41.1% ( 65.0%)     99.9%
 TRAVEL (Ang.)       0.2184         C  5 -- C  6          +2.0% ( 14.4%)     99.2%
 REDUCED MASS        0.4611         C  2 -- C  5          +0.9% (  9.6%)     17.2%
 EFFECTIVE MASS      1.5855
 FORCE CONSTANT      2.5541

 VIBRATION         44   44A           ATOM PAIR      ENERGY CONTRIBUTION    RADIAL
 FREQUENCY          3139.33         C  7 -- H 16         +57.7% ( 77.9%)     97.9%
 TRANSITION DIPOLE   0.1811         C  7 -- H 17         +41.0% ( 65.6%)     95.9%
 TRAVEL (Ang.)       0.1981         C  4 -- C  7          +1.3% ( 11.7%)      0.6%
 REDUCED MASS        0.5472
 EFFECTIVE MASS      1.6032
 FORCE CONSTANT      3.1772

 VIBRATION         45   45A           ATOM PAIR      ENERGY CONTRIBUTION    RADIAL
 FREQUENCY          3141.11         C  7 -- H 17         +58.0% ( 76.1%)     96.7%
 TRANSITION DIPOLE   0.3009         C  7 -- H 16         +40.4% ( 63.6%)     93.3%
 TRAVEL (Ang.)       0.2073         C  4 -- C  7          +1.5% ( 12.3%)     98.9%
 REDUCED MASS        0.4997
 EFFECTIVE MASS      1.3896
 FORCE CONSTANT      2.9048

      SYMMETRY NUMBER FOR POINT-GROUP C1  =  1


          SYSTEM IS A GROUND STATE



 InChI=1S/C7H10/c1-7-5-3-2-4-6-7/h2-3H,1,4-6H2


          MOLECULE IS NOT LINEAR

          THERE ARE 45 GENUINE VIBRATIONS IN THIS SYSTEM
          THIS THERMODYNAMICS CALCULATION IS LIMITED TO
          MOLECULES WHICH HAVE NO INTERNAL ROTATIONS




                    CALCULATED THERMODYNAMIC PROPERTIES
                                          *
   TEMP. (K)   PARTITION FUNCTION   H.O.F.    ENTHALPY  HEAT CAPACITY ENTROPY
                                   KCAL/MOL   CAL/MOLE    CAL/K/MOL  CAL/K/MOL


 298.00  VIB.     0.1526D+02                  2332.5635    19.5135    13.2435
         ROT.     0.1889D+06                   888.2803     2.9808    27.1233
         INT.     0.2883D+07                  3220.8438    22.4943    40.3668
         TRA.     0.8833D+27                  1480.4672     4.9680    39.5363
         TOT.                       15.928    4701.3110    27.4623    79.9031

 200.00  VIB.     0.4655D+01                   875.8033    10.4967     7.4352
         ROT.     0.1039D+06                   596.1613     2.9808    25.9347
         INT.     0.4835D+06                  1471.9646    13.4775    33.3698
         TRA.     0.4856D+27                   993.6021     4.9680    37.5551
         TOT.                       13.693    2465.5667    18.4455    70.9250

 210.00  VIB.     0.5203D+01                   984.8798    11.3234     7.9672
         ROT.     0.1117D+06                   625.9693     2.9808    26.0801
         INT.     0.5814D+06                  1610.8491    14.3042    34.0473
         TRA.     0.5225D+27                  1043.2822     4.9680    37.7975
         TOT.                       13.881    2654.1313    19.2722    71.8448

 220.00  VIB.     0.5828D+01                  1102.3657    12.1783     8.5136
         ROT.     0.1198D+06                   655.7774     2.9808    26.2188
         INT.     0.6984D+06                  1758.1431    15.1591    34.7323
         TRA.     0.5603D+27                  1092.9623     4.9680    38.0286
         TOT.                       14.078    2851.1054    20.1271    72.7610

 230.00  VIB.     0.6543D+01                  1228.5318    13.0591     9.0743
         ROT.     0.1281D+06                   685.5855     2.9808    26.3513
         INT.     0.8381D+06                  1914.1173    16.0399    35.4255
         TRA.     0.5989D+27                  1142.6424     4.9680    38.2495
         TOT.                       14.284    3056.7597    21.0079    73.6750

 240.00  VIB.     0.7363D+01                  1363.6245    13.9631     9.6491
         ROT.     0.1365D+06                   715.3935     2.9808    26.4781
         INT.     0.1005D+07                  2079.0180    16.9439    36.1272
         TRA.     0.6384D+27                  1192.3226     4.9680    38.4609
         TOT.                       14.498    3271.3406    21.9120    74.5881

 250.00  VIB.     0.8304D+01                  1507.8626    14.8876    10.2378
         ROT.     0.1452D+06                   745.2016     2.9808    26.5998
         INT.     0.1205D+07                  2253.0642    17.8685    36.8376
         TRA.     0.6787D+27                  1242.0027     4.9680    38.6637
         TOT.                       14.722    3495.0669    22.8365    75.5013

 260.00  VIB.     0.9386D+01                  1661.4355    15.8296    10.8400
         ROT.     0.1539D+06                   775.0097     2.9808    26.7167
         INT.     0.1445D+07                  2436.4452    18.8104    37.5567
         TRA.     0.7198D+27                  1291.6828     4.9680    38.8586
         TOT.                       14.955    3728.1280    23.7784    76.4152

 270.00  VIB.     0.1063D+02                  1824.5019    16.7858    11.4553
         ROT.     0.1629D+06                   804.8177     2.9808    26.8292
         INT.     0.1732D+07                  2629.3196    19.7666    38.2845
         TRA.     0.7618D+27                  1341.3629     4.9680    39.0461
         TOT.                       15.198    3970.6825    24.7346    77.3305

 280.00  VIB.     0.1207D+02                  1997.1895    17.7533    12.0832
         ROT.     0.1720D+06                   834.6258     2.9808    26.9376
         INT.     0.2077D+07                  2831.8153    20.7341    39.0208
         TRA.     0.8045D+27                  1391.0430     4.9680    39.2267
         TOT.                       15.450    4222.8582    25.7021    78.2475

 290.00  VIB.     0.1374D+02                  2179.5953    18.7290    12.7232
         ROT.     0.1813D+06                   864.4339     2.9808    27.0422
         INT.     0.2492D+07                  3044.0292    21.7098    39.7654
         TRA.     0.8479D+27                  1440.7231     4.9680    39.4011
         TOT.                       15.712    4484.7523    26.6778    79.1665

 300.00  VIB.     0.1567D+02                  2371.7869    19.7100    13.3746
         ROT.     0.1908D+06                   894.2419     2.9808    27.1433
         INT.     0.2991D+07                  3266.0289    22.6908    40.5179
         TRA.     0.8922D+27                  1490.4032     4.9680    39.5695
         TOT.                       15.983    4756.4321    27.6588    80.0874

 310.00  VIB.     0.1792D+02                  2573.8035    20.6935    14.0370
         ROT.     0.2004D+06                   924.0500     2.9808    27.2410
         INT.     0.3591D+07                  3497.8535    23.6743    41.2780
         TRA.     0.9372D+27                  1540.0833     4.9680    39.7324
         TOT.                       16.265    5037.9368    28.6424    81.0104

 320.00  VIB.     0.2052D+02                  2785.6578    21.6771    14.7095
         ROT.     0.2102D+06                   953.8580     2.9808    27.3356
         INT.     0.4314D+07                  3739.5159    24.6579    42.0451
         TRA.     0.9829D+27                  1589.7634     4.9680    39.8901
         TOT.                       16.556    5329.2793    29.6259    81.9353

 330.00  VIB.     0.2356D+02                  3007.3381    22.6584    15.3916
         ROT.     0.2201D+06                   983.6661     2.9808    27.4274
         INT.     0.5186D+07                  3991.0042    25.6392    42.8189
         TRA.     0.1029D+28                  1639.4435     4.9680    40.0430
         TOT.                       16.857    5630.4478    30.6072    82.8619

 340.00  VIB.     0.2710D+02                  3238.8104    23.6352    16.0825
         ROT.     0.2302D+06                  1013.4742     2.9808    27.5164
         INT.     0.6238D+07                  4252.2846    26.6160    43.5988
         TRA.     0.1076D+28                  1689.1236     4.9680    40.1913
         TOT.                       17.168    5941.4082    31.5840    83.7902

 350.00  VIB.     0.3123D+02                  3480.0204    24.6056    16.7816
         ROT.     0.2404D+06                  1043.2822     2.9808    27.6028
         INT.     0.7509D+07                  4523.3026    27.5864    44.3844
         TRA.     0.1124D+28                  1738.8037     4.9680    40.3353
         TOT.                       17.489    6262.1063    32.5544    84.7197

 360.00  VIB.     0.3606D+02                  3730.8960    25.5680    17.4883
         ROT.     0.2508D+06                  1073.0903     2.9808    27.6867
         INT.     0.9046D+07                  4803.9863    28.5488    45.1750
         TRA.     0.1173D+28                  1788.4838     4.9680    40.4753
         TOT.                       17.819    6592.4701    33.5168    85.6503

 370.00  VIB.     0.4172D+02                  3991.3493    26.5209    18.2019
         ROT.     0.2613D+06                  1102.8984     2.9808    27.7684
         INT.     0.1090D+08                  5094.2477    29.5017    45.9703
         TRA.     0.1222D+28                  1838.1639     4.9680    40.6114
         TOT.                       18.159    6932.4116    34.4698    86.5817

 380.00  VIB.     0.4836D+02                  4261.2788    27.4631    18.9217
         ROT.     0.2720D+06                  1132.7064     2.9808    27.8479
         INT.     0.1315D+08                  5393.9852    30.4439    46.7696
         TRA.     0.1272D+28                  1887.8440     4.9680    40.7439
         TOT.                       18.509    7281.8292    35.4119    87.5135

 390.00  VIB.     0.5615D+02                  4540.5711    28.3933    19.6471
         ROT.     0.2828D+06                  1162.5145     2.9808    27.9253
         INT.     0.1588D+08                  5703.0855    31.3741    47.5724
         TRA.     0.1322D+28                  1937.5242     4.9680    40.8729
         TOT.                       18.868    7640.6097    36.3422    88.4453

 400.00  VIB.     0.6531D+02                  4829.1031    29.3109    20.3775
         ROT.     0.2938D+06                  1192.3226     2.9808    28.0008
         INT.     0.1919D+08                  6021.4256    32.2917    48.3783
         TRA.     0.1374D+28                  1987.2043     4.9680    40.9987
         TOT.                       19.236    8008.6299    37.2597    89.3770

   *: NOTE: HEATS OF FORMATION ARE RELATIVE TO THE
            ELEMENTS IN THEIR STANDARD STATE AT 298K
              (=  Standard Enthalpy of Formation).

            Hvib:  Zero-point energy is not included.
                   frequencies of less than zero cm-1 are not included.
            Hrot = (3/2)RT
            Htra = (3/2)RT + pV = (5/2)RT

            Heat capacity is Cp, not Cv

          For more information, see: HTTP://OpenMOPAC.net/Manual/thermochemistry.html


           FORCE CONSTANT IN CARTESIAN COORDINATES (Millidynes/A)

    ATOM   CHEMICAL       X               Y               Z
   NUMBER   SYMBOL  FORCE CONSTANT  FORCE CONSTANT  FORCE CONSTANT

      1       C        8.180219        9.068764        8.216121
      2       C        8.346778        9.119722        7.971329
      3       C        8.945556        8.943681        8.085938
      4       C        8.987845        9.295033        9.691920
      5       C       10.618460       13.340201        3.282277
      6       C       10.227833       13.677744        3.317674
      7       C        8.070704        9.216484        9.289575
      8       H        1.200131        3.422676        1.806116
      9       H        1.174350        0.674749        4.434108
     10       H        1.183243        0.755399        4.321237
     11       H        1.186285        2.978331        2.189088
     12       H        0.686096        3.008127        2.591904
     13       H        2.009529        0.856383        3.276715
     14       H        4.677765        0.757587        0.815235
     15       H        1.496899        3.907198        0.840295
     16       H        1.129732        4.053101        1.281926
     17       H        1.131417        4.052956        1.281998

 **********************
 *                    *
 * JOB ENDED NORMALLY *
 *                    *
 **********************



 TOTAL JOB TIME:             1.95 SECONDS

 == MOPAC DONE ==
