 *******************************************************************************
 **                                                                           **
 **                              MOPAC v23.1.2                                **
 **                                                                           **
 *******************************************************************************
 **          Digital Object Identifier (DOI): 10.5281/zenodo.6511958          **
 **    Visit the DOI location for information on how to cite this program.    **
 *******************************************************************************

                              PM3 CALCULATION RESULTS

 *******************************************************************************
 *  CALCULATION DONE: (MAX THREADS = 1)              Tue Jun  3 16:29:22 2025  *
 *  PM3        - The PM3 Hamiltonian to be used
 *  PRECISE    - TIGHTER CRITERIA TO BE USED
 *  NOSYM      - POINT-GROUP SYMMETRY SET TO C1
 *  THREADS=1  - MULTI-THREADING NOT USED
 *  T=         - A TIME OF 172800.0 SECONDS REQUESTED
 *  DUMP=N     - RESTART FILE WRITTEN EVERY 7200.0 SECONDS REQUESTED
 *******************************************************************************
pm3  precise nosym THREADS=1
 InChI=1S/C10H12/c1-2-3-7-10-8-5-4-6-9-10/h2-8,10H,1,9H2

   ATOM   CHEMICAL          X               Y               Z
  NUMBER   SYMBOL      (ANGSTROMS)     (ANGSTROMS)     (ANGSTROMS)

     1       C         -0.51720000  *  -0.48260000  *  -0.00800000  *
     2       C         -1.23180000  *   0.88180000  *   0.12290000  *
     3       C         -1.18710000  *  -1.34380000  *  -1.05670000  *
     4       C          0.94110000  *  -0.28590000  *  -0.33340000  *
     5       C         -2.72860000  *   0.71620000  *   0.14980000  *
     6       C         -2.50660000  *  -1.26460000  *  -1.26110000  *
     7       C          1.80660000  *   0.13410000  *   0.59330000  *
     8       C         -3.31720000  *  -0.25770000  *  -0.55150000  *
     9       C          3.22780000  *   0.33430000  *   0.26850000  *
    10       C          4.09120000  *   0.75390000  *   1.18870000  *
    11       H         -0.60130000  *  -1.02450000  *   0.96060000  *
    12       H         -0.90300000  *   1.39580000  *   1.05160000  *
    13       H         -0.97230000  *   1.52900000  *  -0.74380000  *
    14       H         -0.61980000  *  -2.11070000  *  -1.57100000  *
    15       H          1.29000000  *  -0.47890000  *  -1.34260000  *
    16       H         -3.33610000  *   1.44340000  *   0.67370000  *
    17       H         -2.98860000  *  -1.94980000  *  -1.94640000  *
    18       H         -4.39720000  *  -0.31610000  *  -0.59350000  *
    19       H          3.58550000  *   0.13890000  *  -0.73580000  *
    20       H          1.45860000  *   0.33160000  *   1.60140000  *
    21       H          5.13230000  *   0.89490000  *   0.92900000  *
    22       H          3.77370000  *   0.96040000  *   2.20350000  *



          CARTESIAN COORDINATES 

    NO.       ATOM           X           Y           Z

     1         C         -0.5172     -0.4826     -0.0080
     2         C         -1.2318      0.8818      0.1229
     3         C         -1.1871     -1.3438     -1.0567
     4         C          0.9411     -0.2859     -0.3334
     5         C         -2.7286      0.7162      0.1498
     6         C         -2.5066     -1.2646     -1.2611
     7         C          1.8066      0.1341      0.5933
     8         C         -3.3172     -0.2577     -0.5515
     9         C          3.2278      0.3343      0.2685
    10         C          4.0912      0.7539      1.1887
    11         H         -0.6013     -1.0245      0.9606
    12         H         -0.9030      1.3958      1.0516
    13         H         -0.9723      1.5290     -0.7438
    14         H         -0.6198     -2.1107     -1.5710
    15         H          1.2900     -0.4789     -1.3426
    16         H         -3.3361      1.4434      0.6737
    17         H         -2.9886     -1.9498     -1.9464
    18         H         -4.3972     -0.3161     -0.5935
    19         H          3.5855      0.1389     -0.7358
    20         H          1.4586      0.3316      1.6014
    21         H          5.1323      0.8949      0.9290
    22         H          3.7737      0.9604      2.2035

  H: (PM3): J. J. P. STEWART, J. COMP. CHEM. 10, 209 (1989).
  C: (PM3): J. J. P. STEWART, J. COMP. CHEM. 10, 209 (1989).

           Empirical Formula: C10 H12  =    22 atoms



      MOLECULAR POINT GROUP   :   C1  


      RHF CALCULATION, NO. OF DOUBLY OCCUPIED LEVELS = 26


          Geometry optimization using EF

          DIAGONAL MATRIX USED AS START HESSIAN

 CYCLE:     1 TIME:   0.008 TIME LEFT:  2.00D  GRAD.:    71.063 HEAT:  58.22997
 CYCLE:     2 TIME:   0.016 TIME LEFT:  2.00D  GRAD.:    46.883 HEAT:  57.14680
 CYCLE:     3 TIME:   0.012 TIME LEFT:  2.00D  GRAD.:    39.435 HEAT:  56.73595
 CYCLE:     4 TIME:   0.008 TIME LEFT:  2.00D  GRAD.:    38.941 HEAT:  56.53433
 CYCLE:     5 TIME:   0.004 TIME LEFT:  2.00D  GRAD.:    36.963 HEAT:  56.23751
 CYCLE:     6 TIME:   0.012 TIME LEFT:  2.00D  GRAD.:    35.033 HEAT:  56.06162
 CYCLE:     7 TIME:   0.008 TIME LEFT:  2.00D  GRAD.:    35.613 HEAT:  55.99196
 CYCLE:     8 TIME:   0.008 TIME LEFT:  2.00D  GRAD.:    28.724 HEAT:  55.80753
 CYCLE:     9 TIME:   0.012 TIME LEFT:  2.00D  GRAD.:    20.151 HEAT:  55.70039
 CYCLE:    10 TIME:   0.004 TIME LEFT:  2.00D  GRAD.:    17.241 HEAT:  55.65992
 CYCLE:    11 TIME:   0.008 TIME LEFT:  2.00D  GRAD.:    10.780 HEAT:  55.58790
 CYCLE:    12 TIME:   0.008 TIME LEFT:  2.00D  GRAD.:    16.617 HEAT:  55.57399
 CYCLE:    13 TIME:   0.004 TIME LEFT:  2.00D  GRAD.:    15.767 HEAT:  55.53937
 CYCLE:    14 TIME:   0.012 TIME LEFT:  2.00D  GRAD.:    11.799 HEAT:  55.50626
 CYCLE:    15 TIME:   0.008 TIME LEFT:  2.00D  GRAD.:     7.762 HEAT:  55.48889
 CYCLE:    16 TIME:   0.008 TIME LEFT:  2.00D  GRAD.:     8.795 HEAT:  55.48021
 CYCLE:    17 TIME:   0.004 TIME LEFT:  2.00D  GRAD.:     8.161 HEAT:  55.47240
 CYCLE:    18 TIME:   0.008 TIME LEFT:  2.00D  GRAD.:     5.996 HEAT:  55.45722
 CYCLE:    19 TIME:   0.008 TIME LEFT:  2.00D  GRAD.:     7.349 HEAT:  55.45343
 CYCLE:    20 TIME:   0.008 TIME LEFT:  2.00D  GRAD.:     6.427 HEAT:  55.44045
 CYCLE:    21 TIME:   0.004 TIME LEFT:  2.00D  GRAD.:     7.439 HEAT:  55.43660
 CYCLE:    22 TIME:   0.008 TIME LEFT:  2.00D  GRAD.:     7.565 HEAT:  55.43099
 CYCLE:    23 TIME:   0.008 TIME LEFT:  2.00D  GRAD.:     5.390 HEAT:  55.41957
 CYCLE:    24 TIME:   0.008 TIME LEFT:  2.00D  GRAD.:     4.158 HEAT:  55.41497
 CYCLE:    25 TIME:   0.008 TIME LEFT:  2.00D  GRAD.:     4.199 HEAT:  55.41028
 CYCLE:    26 TIME:   0.004 TIME LEFT:  2.00D  GRAD.:     3.356 HEAT:  55.40246
 CYCLE:    27 TIME:   0.008 TIME LEFT:  2.00D  GRAD.:     3.937 HEAT:  55.39583
 CYCLE:    28 TIME:   0.004 TIME LEFT:  2.00D  GRAD.:     2.961 HEAT:  55.38902
 CYCLE:    29 TIME:   0.008 TIME LEFT:  2.00D  GRAD.:     2.484 HEAT:  55.38289
 CYCLE:    30 TIME:   0.008 TIME LEFT:  2.00D  GRAD.:     2.207 HEAT:  55.37751
 CYCLE:    31 TIME:   0.008 TIME LEFT:  2.00D  GRAD.:     3.321 HEAT:  55.36844
 CYCLE:    32 TIME:   0.004 TIME LEFT:  2.00D  GRAD.:     3.225 HEAT:  55.35851
 CYCLE:    33 TIME:   0.008 TIME LEFT:  2.00D  GRAD.:     2.464 HEAT:  55.34786
 CYCLE:    34 TIME:   0.008 TIME LEFT:  2.00D  GRAD.:     2.257 HEAT:  55.33674
 CYCLE:    35 TIME:   0.004 TIME LEFT:  2.00D  GRAD.:     2.434 HEAT:  55.32530
 CYCLE:    36 TIME:   0.008 TIME LEFT:  2.00D  GRAD.:     2.492 HEAT:  55.31075
 CYCLE:    37 TIME:   0.008 TIME LEFT:  2.00D  GRAD.:     2.636 HEAT:  55.29577
 CYCLE:    38 TIME:   0.008 TIME LEFT:  2.00D  GRAD.:     2.407 HEAT:  55.28193
 CYCLE:    39 TIME:   0.008 TIME LEFT:  2.00D  GRAD.:     2.419 HEAT:  55.26901
 CYCLE:    40 TIME:   0.008 TIME LEFT:  2.00D  GRAD.:     2.163 HEAT:  55.25885
 CYCLE:    41 TIME:   0.008 TIME LEFT:  2.00D  GRAD.:     1.808 HEAT:  55.24880
 CYCLE:    42 TIME:   0.008 TIME LEFT:  2.00D  GRAD.:     1.771 HEAT:  55.23791
 CYCLE:    43 TIME:   0.008 TIME LEFT:  2.00D  GRAD.:     1.821 HEAT:  55.23125
 CYCLE:    44 TIME:   0.008 TIME LEFT:  2.00D  GRAD.:     1.507 HEAT:  55.22570
 CYCLE:    45 TIME:   0.004 TIME LEFT:  2.00D  GRAD.:     1.466 HEAT:  55.22042
 CYCLE:    46 TIME:   0.008 TIME LEFT:  2.00D  GRAD.:     1.454 HEAT:  55.21492
 CYCLE:    47 TIME:   0.012 TIME LEFT:  2.00D  GRAD.:     1.453 HEAT:  55.21124
 CYCLE:    48 TIME:   0.004 TIME LEFT:  2.00D  GRAD.:     1.269 HEAT:  55.20758
 CYCLE:    49 TIME:   0.008 TIME LEFT:  2.00D  GRAD.:     1.261 HEAT:  55.20404
 CYCLE:    50 TIME:   0.008 TIME LEFT:  2.00D  GRAD.:     1.421 HEAT:  55.20036
 CYCLE:    51 TIME:   0.012 TIME LEFT:  2.00D  GRAD.:     1.370 HEAT:  55.19708
 CYCLE:    52 TIME:   0.008 TIME LEFT:  2.00D  GRAD.:     1.353 HEAT:  55.19181
 CYCLE:    53 TIME:   0.004 TIME LEFT:  2.00D  GRAD.:     1.273 HEAT:  55.18785
 CYCLE:    54 TIME:   0.008 TIME LEFT:  2.00D  GRAD.:     1.024 HEAT:  55.18499
 CYCLE:    55 TIME:   0.008 TIME LEFT:  2.00D  GRAD.:     0.950 HEAT:  55.18277
 CYCLE:    56 TIME:   0.008 TIME LEFT:  2.00D  GRAD.:     0.924 HEAT:  55.18055
 CYCLE:    57 TIME:   0.004 TIME LEFT:  2.00D  GRAD.:     0.949 HEAT:  55.17811
 CYCLE:    58 TIME:   0.012 TIME LEFT:  2.00D  GRAD.:     0.999 HEAT:  55.17570
 CYCLE:    59 TIME:   0.008 TIME LEFT:  2.00D  GRAD.:     0.964 HEAT:  55.17336
 CYCLE:    60 TIME:   0.004 TIME LEFT:  2.00D  GRAD.:     1.093 HEAT:  55.17046
 CYCLE:    61 TIME:   0.008 TIME LEFT:  2.00D  GRAD.:     1.437 HEAT:  55.16655
 CYCLE:    62 TIME:   0.008 TIME LEFT:  2.00D  GRAD.:     1.720 HEAT:  55.16108
 CYCLE:    63 TIME:   0.008 TIME LEFT:  2.00D  GRAD.:     2.147 HEAT:  55.15364
 CYCLE:    64 TIME:   0.012 TIME LEFT:  2.00D  GRAD.:     1.552 HEAT:  55.14876
 CYCLE:    65 TIME:   0.008 TIME LEFT:  2.00D  GRAD.:     2.066 HEAT:  55.14033
 CYCLE:    66 TIME:   0.008 TIME LEFT:  2.00D  GRAD.:     1.820 HEAT:  55.13468
 CYCLE:    67 TIME:   0.008 TIME LEFT:  2.00D  GRAD.:     2.037 HEAT:  55.12391
 CYCLE:    68 TIME:   0.008 TIME LEFT:  2.00D  GRAD.:     1.693 HEAT:  55.10852
 CYCLE:    69 TIME:   0.008 TIME LEFT:  2.00D  GRAD.:     2.459 HEAT:  55.10012
 CYCLE:    70 TIME:   0.004 TIME LEFT:  2.00D  GRAD.:     2.418 HEAT:  55.09226
 CYCLE:    71 TIME:   0.012 TIME LEFT:  2.00D  GRAD.:     2.444 HEAT:  55.07914
 CYCLE:    72 TIME:   0.008 TIME LEFT:  2.00D  GRAD.:     3.657 HEAT:  55.05381
 CYCLE:    73 TIME:   0.008 TIME LEFT:  2.00D  GRAD.:     2.485 HEAT:  55.04087
 CYCLE:    74 TIME:   0.008 TIME LEFT:  2.00D  GRAD.:     2.002 HEAT:  55.01820
 CYCLE:    75 TIME:   0.008 TIME LEFT:  2.00D  GRAD.:     3.678 HEAT:  55.01308
 CYCLE:    76 TIME:   0.008 TIME LEFT:  2.00D  GRAD.:     2.700 HEAT:  55.00702
 CYCLE:    77 TIME:   0.008 TIME LEFT:  2.00D  GRAD.:     2.050 HEAT:  54.99656
 CYCLE:    78 TIME:   0.008 TIME LEFT:  2.00D  GRAD.:     2.087 HEAT:  54.98733
 CYCLE:    79 TIME:   0.008 TIME LEFT:  2.00D  GRAD.:     1.911 HEAT:  54.98156
 CYCLE:    80 TIME:   0.008 TIME LEFT:  2.00D  GRAD.:     1.886 HEAT:  54.97529
 CYCLE:    81 TIME:   0.008 TIME LEFT:  2.00D  GRAD.:     1.272 HEAT:  54.97172
 CYCLE:    82 TIME:   0.008 TIME LEFT:  2.00D  GRAD.:     1.046 HEAT:  54.96732
 CYCLE:    83 TIME:   0.008 TIME LEFT:  2.00D  GRAD.:     2.461 HEAT:  54.96532
 CYCLE:    84 TIME:   0.004 TIME LEFT:  2.00D  GRAD.:     1.383 HEAT:  54.96128
 CYCLE:    85 TIME:   0.008 TIME LEFT:  2.00D  GRAD.:     1.152 HEAT:  54.95684
 CYCLE:    86 TIME:   0.008 TIME LEFT:  2.00D  GRAD.:     1.822 HEAT:  54.94923
 CYCLE:    87 TIME:   0.008 TIME LEFT:  2.00D  GRAD.:     1.300 HEAT:  54.94567
 CYCLE:    88 TIME:   0.008 TIME LEFT:  2.00D  GRAD.:     1.567 HEAT:  54.94040
 CYCLE:    89 TIME:   0.008 TIME LEFT:  2.00D  GRAD.:     1.451 HEAT:  54.93346
 CYCLE:    90 TIME:   0.012 TIME LEFT:  2.00D  GRAD.:     1.777 HEAT:  54.92855
 CYCLE:    91 TIME:   0.004 TIME LEFT:  2.00D  GRAD.:     1.993 HEAT:  54.92393
 CYCLE:    92 TIME:   0.012 TIME LEFT:  2.00D  GRAD.:     1.749 HEAT:  54.91970
 CYCLE:    93 TIME:   0.008 TIME LEFT:  2.00D  GRAD.:     1.440 HEAT:  54.91479
 CYCLE:    94 TIME:   0.012 TIME LEFT:  2.00D  GRAD.:     1.582 HEAT:  54.91208
 CYCLE:    95 TIME:   0.008 TIME LEFT:  2.00D  GRAD.:     2.975 HEAT:  54.90894
 CYCLE:    96 TIME:   0.008 TIME LEFT:  2.00D  GRAD.:     2.254 HEAT:  54.90482
 CYCLE:    97 TIME:   0.004 TIME LEFT:  2.00D  GRAD.:     1.801 HEAT:  54.90095
 CYCLE:    98 TIME:   0.016 TIME LEFT:  2.00D  GRAD.:     3.540 HEAT:  54.90116
 CYCLE:    99 TIME:   0.004 TIME LEFT:  2.00D  GRAD.:     1.545 HEAT:  54.89384
 CYCLE:   100 TIME:   0.008 TIME LEFT:  2.00D  GRAD.:     1.455 HEAT:  54.89166
 CYCLE:   101 TIME:   0.012 TIME LEFT:  2.00D  GRAD.:     3.329 HEAT:  54.88665
 CYCLE:   102 TIME:   0.008 TIME LEFT:  2.00D  GRAD.:     1.985 HEAT:  54.88140
 CYCLE:   103 TIME:   0.008 TIME LEFT:  2.00D  GRAD.:     1.609 HEAT:  54.86985
 CYCLE:   104 TIME:   0.008 TIME LEFT:  2.00D  GRAD.:     2.707 HEAT:  54.86868
 CYCLE:   105 TIME:   0.008 TIME LEFT:  2.00D  GRAD.:     1.695 HEAT:  54.86474
 CYCLE:   106 TIME:   0.008 TIME LEFT:  2.00D  GRAD.:     1.248 HEAT:  54.86272
 CYCLE:   107 TIME:   0.012 TIME LEFT:  2.00D  GRAD.:     1.978 HEAT:  54.85785
 CYCLE:   108 TIME:   0.008 TIME LEFT:  2.00D  GRAD.:     1.278 HEAT:  54.85442
 CYCLE:   109 TIME:   0.008 TIME LEFT:  2.00D  GRAD.:     1.148 HEAT:  54.85157
 CYCLE:   110 TIME:   0.008 TIME LEFT:  2.00D  GRAD.:     0.996 HEAT:  54.85008
 CYCLE:   111 TIME:   0.004 TIME LEFT:  2.00D  GRAD.:     0.712 HEAT:  54.84900
 CYCLE:   112 TIME:   0.008 TIME LEFT:  2.00D  GRAD.:     0.813 HEAT:  54.84802
 CYCLE:   113 TIME:   0.012 TIME LEFT:  2.00D  GRAD.:     0.800 HEAT:  54.84690
 CYCLE:   114 TIME:   0.008 TIME LEFT:  2.00D  GRAD.:     0.734 HEAT:  54.84582
 CYCLE:   115 TIME:   0.008 TIME LEFT:  2.00D  GRAD.:     0.676 HEAT:  54.84453
 CYCLE:   116 TIME:   0.008 TIME LEFT:  2.00D  GRAD.:     0.596 HEAT:  54.84396
 CYCLE:   117 TIME:   0.008 TIME LEFT:  2.00D  GRAD.:     0.618 HEAT:  54.84338
 CYCLE:   118 TIME:   0.008 TIME LEFT:  2.00D  GRAD.:     0.675 HEAT:  54.84273
 CYCLE:   119 TIME:   0.008 TIME LEFT:  2.00D  GRAD.:     0.847 HEAT:  54.84174
 CYCLE:   120 TIME:   0.008 TIME LEFT:  2.00D  GRAD.:     0.818 HEAT:  54.84085
 CYCLE:   121 TIME:   0.008 TIME LEFT:  2.00D  GRAD.:     0.854 HEAT:  54.83982
 CYCLE:   122 TIME:   0.008 TIME LEFT:  2.00D  GRAD.:     0.571 HEAT:  54.83923
 CYCLE:   123 TIME:   0.008 TIME LEFT:  2.00D  GRAD.:     0.420 HEAT:  54.83854
 CYCLE:   124 TIME:   0.008 TIME LEFT:  2.00D  GRAD.:     0.420 HEAT:  54.83828
 CYCLE:   125 TIME:   0.008 TIME LEFT:  2.00D  GRAD.:     0.428 HEAT:  54.83811
 CYCLE:   126 TIME:   0.008 TIME LEFT:  2.00D  GRAD.:     0.220 HEAT:  54.83776
 CYCLE:   127 TIME:   0.012 TIME LEFT:  2.00D  GRAD.:     0.171 HEAT:  54.83804
 CYCLE:   128 TIME:   0.008 TIME LEFT:  2.00D  GRAD.:     0.150 HEAT:  54.83767
 CYCLE:   129 TIME:   0.008 TIME LEFT:  2.00D  GRAD.:     0.165 HEAT:  54.83776
 CYCLE:   130 TIME:   0.004 TIME LEFT:  2.00D  GRAD.:     0.123 HEAT:  54.83765
 CYCLE:   131 TIME:   0.012 TIME LEFT:  2.00D  GRAD.:     0.144 HEAT:  54.83763
 CYCLE:   132 TIME:   0.008 TIME LEFT:  2.00D  GRAD.:     0.204 HEAT:  54.83763
 CYCLE:   133 TIME:   0.008 TIME LEFT:  2.00D  GRAD.:     0.145 HEAT:  54.83762
 CYCLE:   134 TIME:   0.008 TIME LEFT:  2.00D  GRAD.:     0.151 HEAT:  54.83761
 CYCLE:   135 TIME:   0.004 TIME LEFT:  2.00D  GRAD.:     0.130 HEAT:  54.83758
 CYCLE:   136 TIME:   0.008 TIME LEFT:  2.00D  GRAD.:     0.139 HEAT:  54.83756
 CYCLE:   137 TIME:   0.008 TIME LEFT:  2.00D  GRAD.:     0.125 HEAT:  54.83754
 CYCLE:   138 TIME:   0.008 TIME LEFT:  2.00D  GRAD.:     0.139 HEAT:  54.83751
 CYCLE:   139 TIME:   0.008 TIME LEFT:  2.00D  GRAD.:     0.147 HEAT:  54.83748
 CYCLE:   140 TIME:   0.008 TIME LEFT:  2.00D  GRAD.:     0.111 HEAT:  54.83744
 CYCLE:   141 TIME:   0.008 TIME LEFT:  2.00D  GRAD.:     0.044 HEAT:  54.83741

     GRADIENT =  0.04389 IS LESS THAN CUTOFF =  0.05000



 -------------------------------------------------------------------------------
 pm3  precise nosym THREADS=1
 InChI=1S/C10H12/c1-2-3-7-10-8-5-4-6-9-10/h2-8,10H,1,9H2



     GEOMETRY OPTIMISED USING EIGENVECTOR FOLLOWING (EF).     
     SCF FIELD WAS ACHIEVED                                   


                              PM3 CALCULATION
                                                       MOPAC v23.1.2 MacOS
                                                       Tue Jun  3 16:29:23 2025




          FINAL HEAT OF FORMATION =         54.83741 KCAL/MOL =     229.43973 KJ/MOL


          COSMO AREA              =        191.46 SQUARE ANGSTROMS
          COSMO VOLUME            =        188.86 CUBIC ANGSTROMS

          GRADIENT NORM           =          0.04389          =       0.00936 PER ATOM
          IONIZATION POTENTIAL    =          8.985924 EV
          HOMO LUMO ENERGIES (EV) =         -8.986  0.162
          NO. OF FILLED LEVELS    =         26
          MOLECULAR WEIGHT        =        132.2048         POINT GROUP:  C1  

          MOLECULAR DIMENSIONS (Angstroms)

            Atom       Atom       Distance
            H    21    H    18     9.83876
            H    17    H    12     4.35275
            H    22    H    13     2.94053


          SCF CALCULATIONS        =        150

          WALL-CLOCK TIME         =      1.117 SECONDS
          COMPUTATION TIME        =      0.713 SECONDS




   ATOM   CHEMICAL          X               Y               Z
  NUMBER   SYMBOL      (ANGSTROMS)     (ANGSTROMS)     (ANGSTROMS)

     1       C         -0.55929436  *  -0.24089298  *   0.11977553  *
     2       C         -1.44719309  *   1.00920283  *   0.09686640  *
     3       C         -1.05519290  *  -1.32438936  *  -0.78544052  *
     4       C          0.84038000  *   0.13491894  *  -0.25538792  *
     5       C         -2.88971765  *   0.70603460  *  -0.09818281  *
     6       C         -2.34397290  *  -1.41442273  *  -1.13602817  *
     7       C          1.86507304  *   0.04122100  *   0.59848734  *
     8       C         -3.30476422  *  -0.42464398  *  -0.68320204  *
     9       C          3.22001744  *   0.41340830  *   0.21916928  *
    10       C          4.24376956  *   0.32620950  *   1.06613820  *
    11       H         -0.57657044  *  -0.67363691  *   1.15299576  *
    12       H         -1.30432387  *   1.57603810  *   1.03747000  *
    13       H         -1.13578426  *   1.69704309  *  -0.71727754  *
    14       H         -0.31658880  *  -2.06105540  *  -1.11892322  *
    15       H          0.98216894  *   0.49698303  *  -1.28191728  *
    16       H         -3.60103106  *   1.47129189  *   0.22982024  *
    17       H         -2.71132831  *  -2.22847659  *  -1.76879790  *
    18       H         -4.36682564  *  -0.63366073  *  -0.84474019  *
    19       H          3.36726080  *   0.77391658  *  -0.80680680  *
    20       H          1.71805016  *  -0.32302822  *   1.62418079  *
    21       H          5.25631753  *   0.60239042  *   0.78882615  *
    22       H          4.14185186  *  -0.02515449  *   2.08935943  *

                             CARTESIAN COORDINATES

   1    C       -0.559294355    -0.240892984     0.119775528
   2    C       -1.447193088     1.009202826     0.096866401
   3    C       -1.055192902    -1.324389361    -0.785440521
   4    C        0.840380000     0.134918937    -0.255387918
   5    C       -2.889717651     0.706034600    -0.098182806
   6    C       -2.343972899    -1.414422730    -1.136028169
   7    C        1.865073040     0.041220996     0.598487341
   8    C       -3.304764224    -0.424643976    -0.683202037
   9    C        3.220017445     0.413408297     0.219169281
  10    C        4.243769564     0.326209499     1.066138199
  11    H       -0.576570440    -0.673636913     1.152995762
  12    H       -1.304323868     1.576038098     1.037470003
  13    H       -1.135784264     1.697043089    -0.717277537
  14    H       -0.316588801    -2.061055399    -1.118923222
  15    H        0.982168939     0.496983027    -1.281917283
  16    H       -3.601031057     1.471291890     0.229820240
  17    H       -2.711328314    -2.228476595    -1.768797901
  18    H       -4.366825639    -0.633660728    -0.844740187
  19    H        3.367260797     0.773916581    -0.806806805
  20    H        1.718050164    -0.323028220     1.624180794
  21    H        5.256317535     0.602390421     0.788826149
  22    H        4.141851865    -0.025154488     2.089359431


           Empirical Formula: C10 H12  =    22 atoms



      MOLECULAR POINT GROUP   :   C1  


                  EIGENVALUES  
 -40.47378 -35.83369 -31.60874 -30.05077 -27.27610 -22.66904 -21.21713 -20.10263
 -19.88325 -17.76512 -17.10461 -16.03981 -15.81175 -15.55113 -14.59049 -14.47554
 -13.70267 -13.48145 -12.77660 -12.44358 -12.17983 -12.02591 -11.63937 -11.41939
  -9.35902  -8.98592   0.16164   0.25886   2.03205   2.07110   3.08155   3.38332
   3.42595   3.52944   3.61679   3.65189   3.79047   3.87238   3.92932   4.06651
   4.08904   4.46390   4.59825   4.61754   4.96841   5.08805   5.27758   5.45707
   5.88334   6.00750   6.01703   6.17001


              NET ATOMIC CHARGES AND DIPOLE CONTRIBUTIONS

  ATOM NO.   TYPE          CHARGE      No. of ELECS.   s-Pop       p-Pop       
    1          C          -0.009732        4.0097     1.15339     2.85634
    2          C          -0.057639        4.0576     1.14869     2.90895
    3          C          -0.133134        4.1331     1.19894     2.93419
    4          C          -0.131434        4.1314     1.20047     2.93096
    5          C          -0.133978        4.1340     1.19636     2.93762
    6          C          -0.112071        4.1121     1.17897     2.93310
    7          C          -0.116123        4.1161     1.18378     2.93234
    8          C          -0.115806        4.1158     1.17904     2.93677
    9          C          -0.106941        4.1069     1.18117     2.92577
   10          C          -0.149390        4.1494     1.18374     2.96565
   11          H           0.071682        0.9283     0.92832
   12          H           0.056971        0.9430     0.94303
   13          H           0.060798        0.9392     0.93920
   14          H           0.104885        0.8951     0.89511
   15          H           0.105836        0.8942     0.89416
   16          H           0.099241        0.9008     0.90076
   17          H           0.102343        0.8977     0.89766
   18          H           0.102393        0.8976     0.89761
   19          H           0.098172        0.9018     0.90183
   20          H           0.103670        0.8963     0.89633
   21          H           0.079117        0.9209     0.92088
   22          H           0.081141        0.9189     0.91886
 DIPOLE           X         Y         Z       TOTAL
 POINT-CHG.     0.102     0.194     0.097     0.240
 HYBRID         0.026     0.014    -0.011     0.032
 SUM            0.128     0.208     0.087     0.259


          ATOMIC ORBITAL ELECTRON POPULATIONS

     Atom    s        px        py        pz   
    1  C   1.15339   0.92634   0.94256   0.98744
    2  C   1.14869   0.93037   0.96399   1.01459
    3  C   1.19894   0.96602   0.98117   0.98700
    4  C   1.20047   0.94609   0.99493   0.98994
    5  C   1.19636   0.96777   0.97834   0.99151
    6  C   1.17897   0.94538   0.98376   1.00396
    7  C   1.18378   0.93787   1.00693   0.98754
    8  C   1.17904   0.97805   0.95921   0.99951
    9  C   1.18117   0.93905   0.99913   0.98759
   10  C   1.18374   0.97673   1.00012   0.98881
   11  H   0.92832
   12  H   0.94303
   13  H   0.93920
   14  H   0.89511
   15  H   0.89416
   16  H   0.90076
   17  H   0.89766
   18  H   0.89761
   19  H   0.90183
   20  H   0.89633
   21  H   0.92088
   22  H   0.91886
 *******************************************************************************
 **                                                                           **
 **                              MOPAC v23.1.2                                **
 **                                                                           **
 *******************************************************************************
 **          Digital Object Identifier (DOI): 10.5281/zenodo.6511958          **
 **    Visit the DOI location for information on how to cite this program.    **
 *******************************************************************************

                              PM3 CALCULATION RESULTS

 *******************************************************************************
 *  CALCULATION DONE: (MAX THREADS = 1)              Tue Jun  3 16:29:23 2025  *
 *  PM3        - The PM3 Hamiltonian to be used
 *  OLDGEO     - PREVIOUS GEOMETRY TO BE USED
 *  PRECISE    - TIGHTER CRITERIA TO BE USED
 *  NOSYM      - POINT-GROUP SYMMETRY SET TO C1
 *  THREADS=1  - MULTI-THREADING NOT USED
 *  T=         - A TIME OF 172800.0 SECONDS REQUESTED
 *  DUMP=N     - RESTART FILE WRITTEN EVERY 7200.0 SECONDS REQUESTED
 *  THERMO     - THERMODYNAMIC QUANTITIES TO BE CALCULATED
 *******************************************************************************
oldgeo thermo nosym precise THREADS=1  pm3
 InChI=1S/C10H12/c1-2-3-7-10-8-5-4-6-9-10/h2-8,10H,1,9H2

   ATOM   CHEMICAL          X               Y               Z
  NUMBER   SYMBOL      (ANGSTROMS)     (ANGSTROMS)     (ANGSTROMS)

     1       C         -0.55929436  *  -0.24089298  *   0.11977553  *
     2       C         -1.44719309  *   1.00920283  *   0.09686640  *
     3       C         -1.05519290  *  -1.32438936  *  -0.78544052  *
     4       C          0.84038000  *   0.13491894  *  -0.25538792  *
     5       C         -2.88971765  *   0.70603460  *  -0.09818281  *
     6       C         -2.34397290  *  -1.41442273  *  -1.13602817  *
     7       C          1.86507304  *   0.04122100  *   0.59848734  *
     8       C         -3.30476422  *  -0.42464398  *  -0.68320204  *
     9       C          3.22001744  *   0.41340830  *   0.21916928  *
    10       C          4.24376956  *   0.32620950  *   1.06613820  *
    11       H         -0.57657044  *  -0.67363691  *   1.15299576  *
    12       H         -1.30432387  *   1.57603810  *   1.03747000  *
    13       H         -1.13578426  *   1.69704309  *  -0.71727754  *
    14       H         -0.31658880  *  -2.06105540  *  -1.11892322  *
    15       H          0.98216894  *   0.49698303  *  -1.28191728  *
    16       H         -3.60103106  *   1.47129189  *   0.22982024  *
    17       H         -2.71132831  *  -2.22847659  *  -1.76879790  *
    18       H         -4.36682564  *  -0.63366073  *  -0.84474019  *
    19       H          3.36726080  *   0.77391658  *  -0.80680680  *
    20       H          1.71805016  *  -0.32302822  *   1.62418079  *
    21       H          5.25631753  *   0.60239042  *   0.78882615  *
    22       H          4.14185186  *  -0.02515449  *   2.08935943  *



          CARTESIAN COORDINATES 

    NO.       ATOM           X           Y           Z

     1         C         -0.5593     -0.2409      0.1198
     2         C         -1.4472      1.0092      0.0969
     3         C         -1.0552     -1.3244     -0.7854
     4         C          0.8404      0.1349     -0.2554
     5         C         -2.8897      0.7060     -0.0982
     6         C         -2.3440     -1.4144     -1.1360
     7         C          1.8651      0.0412      0.5985
     8         C         -3.3048     -0.4246     -0.6832
     9         C          3.2200      0.4134      0.2192
    10         C          4.2438      0.3262      1.0661
    11         H         -0.5766     -0.6736      1.1530
    12         H         -1.3043      1.5760      1.0375
    13         H         -1.1358      1.6970     -0.7173
    14         H         -0.3166     -2.0611     -1.1189
    15         H          0.9822      0.4970     -1.2819
    16         H         -3.6010      1.4713      0.2298
    17         H         -2.7113     -2.2285     -1.7688
    18         H         -4.3668     -0.6337     -0.8447
    19         H          3.3673      0.7739     -0.8068
    20         H          1.7181     -0.3230      1.6242
    21         H          5.2563      0.6024      0.7888
    22         H          4.1419     -0.0252      2.0894

  H: (PM3): J. J. P. STEWART, J. COMP. CHEM. 10, 209 (1989).
  C: (PM3): J. J. P. STEWART, J. COMP. CHEM. 10, 209 (1989).

           Empirical Formula: C10 H12  =    22 atoms



      MOLECULAR POINT GROUP   :   C1  


      RHF CALCULATION, NO. OF DOUBLY OCCUPIED LEVELS = 26



          HEAT OF FORMATION =      54.837411 KCALS/MOLE


          CARTESIAN COORDINATE DERIVATIVES

   NUMBER  ATOM         X            Y            Z

     1       C      0.003676     0.000685    -0.007449
     2       C      0.004523    -0.003545     0.003061
     3       C      0.007217     0.002262    -0.002534
     4       C     -0.009451     0.005807    -0.003551
     5       C      0.002867    -0.007894     0.003588
     6       C     -0.004859     0.001635    -0.003331
     7       C      0.010092    -0.013278     0.009997
     8       C     -0.000412    -0.002165    -0.001219
     9       C     -0.018167    -0.002347    -0.004765
    10       C      0.004191     0.003224     0.005367
    11       H      0.005468     0.006702     0.010475
    12       H     -0.003288     0.002078     0.001381
    13       H      0.001368    -0.000345     0.000175
    14       H      0.004457     0.004016     0.001641
    15       H     -0.001451     0.005095     0.006718
    16       H     -0.008210     0.000583    -0.002540
    17       H      0.000281    -0.004031     0.000337
    18       H     -0.007128    -0.003048    -0.001867
    19       H     -0.002965    -0.007002     0.010768
    20       H      0.004499     0.008619    -0.015803
    21       H      0.001073    -0.002395    -0.000707
    22       H      0.006218     0.005343    -0.009746



          GRADIENT NORM =   0.04887

          MOLECULAR WEIGHT =  132.20



          ROTATIONAL CONSTANTS IN CM(-1)

          A =    0.14898375   B =    0.01889622   C =    0.01741879



           PRINCIPAL MOMENTS OF INERTIA IN UNITS OF 10**(-40)*GRAM-CM**2

          A =      187.8913   B =     1481.3942   C =     1607.0435


          ORIENTATION OF MOLECULE IN FORCE CALCULATION

    NO.       ATOM         X         Y         Z

     1          C       0.1088    0.2147    0.4526
     2          C       1.6423    0.2147    0.4526
     3          C      -0.4738    1.5930    0.4526
     4          C      -0.3897   -0.5486   -0.7348
     5          C       2.2333    1.3499    1.2095
     6          C       0.2042    2.6443    0.9291
     7          C      -1.0721   -1.6929   -0.6213
     8          C       1.5606    2.4879    1.4226
     9          C      -1.5475   -2.4248   -1.7860
    10          C      -2.2240   -3.5667   -1.6795
    11          H      -0.2494   -0.2689    1.3976
    12          H       2.0076   -0.7456    0.8659
    13          H       2.0349    0.2625   -0.5850
    14          H      -1.4970    1.6929    0.0751
    15          H      -0.1613   -0.1136   -1.7164
    16          H       3.2641    1.2245    1.5573
    17          H      -0.2372    3.6453    0.9616
    18          H       2.0076    3.3293    1.9611
    19          H      -1.3236   -1.9927   -2.7696
    20          H      -1.2992   -2.1232    0.3634
    21          H      -2.5810   -4.1169   -2.5446
    22          H      -2.4667   -4.0284   -0.7262


    FIRST DERIVATIVES WILL BE USED IN THE CALCULATION OF SECOND DERIVATIVES

          ESTIMATED TIME TO COMPLETE CALCULATION =        2.06 SECONDS

    FOR POINT-GROUP C1   THERE ARE   1 UNIQUE SYMMETRY FUNCTIONS.

 STEP:   1 TIME =     0.02 SECS, INTEGRAL =      0.02 TIME LEFT: 172799.97
 STEP:   2 TIME =     0.02 SECS, INTEGRAL =      0.05 TIME LEFT: 172799.95
 STEP:   3 TIME =     0.02 SECS, INTEGRAL =      0.07 TIME LEFT: 172799.92
 STEP:   4 TIME =     0.02 SECS, INTEGRAL =      0.09 TIME LEFT: 172799.90
 STEP:   5 TIME =     0.02 SECS, INTEGRAL =      0.11 TIME LEFT: 172799.88
 STEP:   6 TIME =     0.02 SECS, INTEGRAL =      0.13 TIME LEFT: 172799.86
 STEP:   7 TIME =     0.02 SECS, INTEGRAL =      0.15 TIME LEFT: 172799.84
 STEP:   8 TIME =     0.02 SECS, INTEGRAL =      0.18 TIME LEFT: 172799.82
 STEP:   9 TIME =     0.02 SECS, INTEGRAL =      0.20 TIME LEFT: 172799.80
 STEP:  10 TIME =     0.02 SECS, INTEGRAL =      0.21 TIME LEFT: 172799.78
 STEP:  11 TIME =     0.02 SECS, INTEGRAL =      0.23 TIME LEFT: 172799.76
 STEP:  12 TIME =     0.02 SECS, INTEGRAL =      0.25 TIME LEFT: 172799.74
 STEP:  13 TIME =     0.02 SECS, INTEGRAL =      0.28 TIME LEFT: 172799.71
 STEP:  14 TIME =     0.02 SECS, INTEGRAL =      0.30 TIME LEFT: 172799.69
 STEP:  15 TIME =     0.02 SECS, INTEGRAL =      0.32 TIME LEFT: 172799.67
 STEP:  16 TIME =     0.02 SECS, INTEGRAL =      0.35 TIME LEFT: 172799.64
 STEP:  17 TIME =     0.02 SECS, INTEGRAL =      0.37 TIME LEFT: 172799.62
 STEP:  18 TIME =     0.02 SECS, INTEGRAL =      0.39 TIME LEFT: 172799.60
 STEP:  19 TIME =     0.02 SECS, INTEGRAL =      0.41 TIME LEFT: 172799.58
 STEP:  20 TIME =     0.02 SECS, INTEGRAL =      0.44 TIME LEFT: 172799.55
 STEP:  21 TIME =     0.02 SECS, INTEGRAL =      0.46 TIME LEFT: 172799.53
 STEP:  22 TIME =     0.02 SECS, INTEGRAL =      0.48 TIME LEFT: 172799.51
 STEP:  23 TIME =     0.02 SECS, INTEGRAL =      0.50 TIME LEFT: 172799.49
 STEP:  24 TIME =     0.02 SECS, INTEGRAL =      0.52 TIME LEFT: 172799.47
 STEP:  25 TIME =     0.02 SECS, INTEGRAL =      0.54 TIME LEFT: 172799.45
 STEP:  26 TIME =     0.02 SECS, INTEGRAL =      0.56 TIME LEFT: 172799.43
 STEP:  27 TIME =     0.02 SECS, INTEGRAL =      0.58 TIME LEFT: 172799.41
 STEP:  28 TIME =     0.02 SECS, INTEGRAL =      0.61 TIME LEFT: 172799.39
 STEP:  29 TIME =     0.02 SECS, INTEGRAL =      0.63 TIME LEFT: 172799.36
 STEP:  30 TIME =     0.02 SECS, INTEGRAL =      0.65 TIME LEFT: 172799.34
 STEP:  31 TIME =     0.02 SECS, INTEGRAL =      0.68 TIME LEFT: 172799.32
 STEP:  32 TIME =     0.02 SECS, INTEGRAL =      0.70 TIME LEFT: 172799.30
 STEP:  33 TIME =     0.02 SECS, INTEGRAL =      0.71 TIME LEFT: 172799.28
 STEP:  34 TIME =     0.02 SECS, INTEGRAL =      0.74 TIME LEFT: 172799.25
 STEP:  35 TIME =     0.02 SECS, INTEGRAL =      0.76 TIME LEFT: 172799.23
 STEP:  36 TIME =     0.02 SECS, INTEGRAL =      0.79 TIME LEFT: 172799.21
 STEP:  37 TIME =     0.02 SECS, INTEGRAL =      0.81 TIME LEFT: 172799.18
 STEP:  38 TIME =     0.02 SECS, INTEGRAL =      0.83 TIME LEFT: 172799.16
 STEP:  39 TIME =     0.02 SECS, INTEGRAL =      0.85 TIME LEFT: 172799.14
 STEP:  40 TIME =     0.02 SECS, INTEGRAL =      0.88 TIME LEFT: 172799.12
 STEP:  41 TIME =     0.02 SECS, INTEGRAL =      0.90 TIME LEFT: 172799.09
 STEP:  42 TIME =     0.02 SECS, INTEGRAL =      0.92 TIME LEFT: 172799.07
 STEP:  43 TIME =     0.02 SECS, INTEGRAL =      0.94 TIME LEFT: 172799.05
 STEP:  44 TIME =     0.02 SECS, INTEGRAL =      0.96 TIME LEFT: 172799.03
 STEP:  45 TIME =     0.02 SECS, INTEGRAL =      0.98 TIME LEFT: 172799.01
 STEP:  46 TIME =     0.02 SECS, INTEGRAL =      1.00 TIME LEFT: 172798.99
 STEP:  47 TIME =     0.02 SECS, INTEGRAL =      1.02 TIME LEFT: 172798.97
 STEP:  48 TIME =     0.02 SECS, INTEGRAL =      1.05 TIME LEFT: 172798.95
 STEP:  49 TIME =     0.02 SECS, INTEGRAL =      1.07 TIME LEFT: 172798.92
 STEP:  50 TIME =     0.02 SECS, INTEGRAL =      1.09 TIME LEFT: 172798.90
 STEP:  51 TIME =     0.03 SECS, INTEGRAL =      1.12 TIME LEFT: 172798.87
 STEP:  52 TIME =     0.02 SECS, INTEGRAL =      1.14 TIME LEFT: 172798.85
 STEP:  53 TIME =     0.02 SECS, INTEGRAL =      1.17 TIME LEFT: 172798.82
 STEP:  54 TIME =     0.02 SECS, INTEGRAL =      1.19 TIME LEFT: 172798.80
 STEP:  55 TIME =     0.03 SECS, INTEGRAL =      1.22 TIME LEFT: 172798.77
 STEP:  56 TIME =     0.02 SECS, INTEGRAL =      1.24 TIME LEFT: 172798.75
 STEP:  57 TIME =     0.02 SECS, INTEGRAL =      1.26 TIME LEFT: 172798.73
 STEP:  58 TIME =     0.02 SECS, INTEGRAL =      1.29 TIME LEFT: 172798.71
 STEP:  59 TIME =     0.02 SECS, INTEGRAL =      1.31 TIME LEFT: 172798.68
 STEP:  60 TIME =     0.02 SECS, INTEGRAL =      1.33 TIME LEFT: 172798.66
 STEP:  61 TIME =     0.02 SECS, INTEGRAL =      1.36 TIME LEFT: 172798.64
 STEP:  62 TIME =     0.02 SECS, INTEGRAL =      1.38 TIME LEFT: 172798.61
 STEP:  63 TIME =     0.02 SECS, INTEGRAL =      1.40 TIME LEFT: 172798.59
 STEP:  64 TIME =     0.02 SECS, INTEGRAL =      1.42 TIME LEFT: 172798.57
 STEP:  65 TIME =     0.02 SECS, INTEGRAL =      1.45 TIME LEFT: 172798.55
 STEP:  66 TIME =     0.02 SECS, INTEGRAL =      1.46 TIME LEFT: 172798.53

(To convert to Hartree/Bohr^2, multiply by (10^(-21) x N x a0^2)/(4.184 x 627.51) =  0.0642)


           FORCE MATRIX IN MILLIDYNES/ANGSTROM


                  C  1       C  2       C  3       C  4       C  5       C  6
 ------------------------------------------------------------------------------
     C    1  14.883404
     C    2   3.756869  14.581904
     C    3   4.627612   0.636657  18.021077
     C    4   4.657008   0.689089   0.748511  18.026126
     C    5   0.643669   4.957321   0.151500   0.048792  17.999081
     C    6   0.837616   0.117636  10.311394   0.051286   1.136866  18.387673
     C    7   0.792918   0.037448   0.043176  10.426700   0.006997   0.007106
     C    8   0.119749   0.863042   1.130288   0.010450  10.292899   5.624428
     C    9   0.144054   0.020989   0.021646   1.070461   0.004386   0.004428
     C   10   0.014580   0.002772   0.002991   0.103209   0.000944   0.001315
     H   11   4.120642   0.423424   0.378218   0.450498   0.012263   0.034345
     H   12   0.434740   4.476299   0.047798   0.013761   0.436074   0.010037
     H   13   0.452224   4.368193   0.011403   0.063444   0.404878   0.019389
     H   14   0.435164   0.041483   4.849346   0.037085   0.013594   0.442355
     H   15   0.432763   0.021029   0.014730   4.769166   0.001905   0.003218
     H   16   0.043746   0.426562   0.015784   0.008932   4.848138   0.126787
     H   17   0.122262   0.006453   0.444161   0.013491   0.047191   4.863691
     H   18   0.005019   0.122234   0.047386   0.000947   0.446032   0.434791
     H   19   0.002933   0.000780   0.001019   0.041228   0.000513   0.000465
     H   20   0.083726   0.009363   0.009745   0.466264   0.002382   0.002155
     H   21   0.010999   0.001768   0.001933   0.008046   0.000457   0.000514
     H   22   0.006127   0.001133   0.001301   0.005441   0.000384   0.000502


                  C  7       C  8       C  9       C 10       H 11       H 12
 ------------------------------------------------------------------------------
     C    7  18.471693
     C    8   0.001698  18.383692
     C    9   5.578196   0.000660  18.448354
     C   10   1.075501   0.000310  10.786124  17.887578
     H   11   0.055627   0.017377   0.002042   0.001072   4.570133
     H   12   0.002114   0.046996   0.000810   0.000315   0.035149   5.065698
     H   13   0.003360   0.034656   0.001438   0.000349   0.042629   0.572544
     H   14   0.003679   0.127241   0.001759   0.000491   0.015091   0.007515
     H   15   0.465751   0.002094   0.089594   0.006320   0.037466   0.001697
     H   16   0.001519   0.445076   0.000816   0.000366   0.004078   0.035749
     H   17   0.001660   0.434783   0.001030   0.000405   0.016094   0.001040
     H   18   0.000399   4.867852   0.000272   0.000226   0.000822   0.013056
     H   19   0.446920   0.000254   4.772911   0.452103   0.000669   0.000207
     H   20   4.745187   0.000608   0.444784   0.038449   0.029506   0.000578
     H   21   0.139163   0.000148   0.460101   5.112561   0.000209   0.000141
     H   22   0.103190   0.000185   0.488055   5.075379   0.000325   0.000178


                  H 13       H 14       H 15       H 16       H 17       H 18
 ------------------------------------------------------------------------------
     H   13   4.976958
     H   14   0.004619   5.226360
     H   15   0.025302   0.004782   5.150636
     H   16   0.017138   0.009464   0.000768   5.222212
     H   17   0.000767   0.066577   0.000461   0.007873   5.230306
     H   18   0.017353   0.007686   0.000492   0.066048   0.030726   5.235470
     H   19   0.000298   0.000602   0.028346   0.000129   0.000124   0.000093
     H   20   0.000887   0.001232   0.104876   0.000422   0.000504   0.000208
     H   21   0.000167   0.000290   0.004822   0.000122   0.000158   0.000087
     H   22   0.000189   0.000352   0.003286   0.000155   0.000171   0.000109


                  H 19       H 20       H 21       H 22
 ------------------------------------------------------
     H   19   5.141268
     H   20   0.035726   5.119669
     H   21   0.080134   0.002616   5.496888
     H   22   0.119218   0.025713   0.421789   5.469085


          HEAT OF FORMATION =      54.837411 KCALS/MOLE

          ZERO POINT ENERGY     116.713 KCAL/MOL


           NORMAL COORDINATE ANALYSIS (Total motion = 1 Angstrom)


   Root No.       1         2         3         4         5         6         7         8

                 1 A       2 A       3 A       4 A       5 A       6 A       7 A       8 A   

                  17.1      61.0      74.9     141.3     172.2     259.2     319.2     384.0
  
           1   -0.0249    0.0073   -0.0204    0.0111   -0.0023   -0.0010    0.0011   -0.0154
           2    0.0156    0.0134    0.0115   -0.0073   -0.0022    0.0141    0.0004    0.0172
           3    0.0009   -0.0337    0.0030    0.0028   -0.0161   -0.0161    0.0050   -0.0164
           4   -0.0247    0.0067   -0.0202    0.0102   -0.0031   -0.0005   -0.0024   -0.0201
           5   -0.0144    0.0216   -0.0045    0.0025   -0.0212   -0.0076   -0.0328    0.0027
           6    0.0001   -0.0409   -0.0039    0.0114    0.0314    0.0167   -0.0173   -0.0093
           7    0.0023    0.0107   -0.0064    0.0051   -0.0066    0.0145   -0.0212   -0.0177
           8    0.0269    0.0151    0.0172   -0.0088   -0.0057    0.0207   -0.0124    0.0174
           9   -0.0002   -0.0317    0.0083   -0.0158    0.0099   -0.0350   -0.0286    0.0113
          10   -0.0376    0.0015   -0.0263    0.0046    0.0162    0.0016    0.0121    0.0430
          11    0.0231    0.0040    0.0158   -0.0055    0.0219   -0.0172    0.0151   -0.0236
          12    0.0014   -0.0246    0.0027    0.0045   -0.0416    0.0031    0.0095   -0.0117
          13   -0.0021   -0.0083   -0.0040   -0.0057   -0.0003    0.0120   -0.0088   -0.0122
          14   -0.0254   -0.0133   -0.0103    0.0062    0.0008    0.0195   -0.0265   -0.0207
          15   -0.0010    0.0246   -0.0083    0.0200   -0.0053   -0.0333   -0.0326    0.0110
          16    0.0230    0.0022    0.0070   -0.0034   -0.0116   -0.0079   -0.0264   -0.0022
          17    0.0139    0.0003    0.0099   -0.0003   -0.0080    0.0020   -0.0196    0.0073
          18   -0.0009    0.0139    0.0054   -0.0231    0.0210    0.0397   -0.0134    0.0166
          19   -0.0038    0.0060    0.0530    0.0448    0.0208   -0.0006    0.0149    0.0194
          20    0.0029    0.0031   -0.0318   -0.0297    0.0198   -0.0164    0.0222   -0.0078
          21    0.0006   -0.0057   -0.0009    0.0019   -0.0398    0.0150    0.0379    0.0136
          22    0.0200   -0.0138    0.0087   -0.0114   -0.0009   -0.0023   -0.0322    0.0128
          23   -0.0123   -0.0215   -0.0037    0.0065    0.0006    0.0006   -0.0453    0.0006
          24   -0.0012    0.0527   -0.0037    0.0009   -0.0076    0.0219   -0.0037   -0.0246
          25   -0.0109   -0.0045    0.0457   -0.0377   -0.0083   -0.0081    0.0292    0.0002
          26    0.0068   -0.0143   -0.0260    0.0237   -0.0007   -0.0061    0.0477    0.0025
          27    0.0011    0.0097   -0.0015    0.0020   -0.0132    0.0099    0.0250    0.0166
          28    0.0559   -0.0076   -0.0322   -0.0121   -0.0012   -0.0078    0.0301   -0.0028
          29   -0.0329   -0.0102    0.0202    0.0080   -0.0001   -0.0088    0.0497    0.0028
          30   -0.0007    0.0350   -0.0006   -0.0046    0.0474   -0.0202    0.0180   -0.0073
          31   -0.0343    0.0154   -0.0223    0.0095   -0.0302   -0.0233    0.0031   -0.0285
          32    0.0232    0.0171    0.0129   -0.0031   -0.0197    0.0424    0.0127    0.0205
          33    0.0012   -0.0285    0.0029    0.0042   -0.0346   -0.0095    0.0123   -0.0186
          34   -0.0433    0.0151   -0.0285    0.0152   -0.0306   -0.0286   -0.0159   -0.0320
          35   -0.0213    0.0011   -0.0081    0.0041   -0.0067    0.0133   -0.0307   -0.0163
          36    0.0005   -0.0964   -0.0049    0.0103    0.0906    0.0919    0.0005   -0.0433
          37   -0.0250    0.0019   -0.0256    0.0144    0.0304    0.0247   -0.0043   -0.0144
          38   -0.0228    0.0842   -0.0098    0.0089   -0.0802   -0.0871   -0.0610    0.0360
          39   -0.0003   -0.0396   -0.0062    0.0135    0.0415    0.0232   -0.0194   -0.0068
          40    0.0042    0.0242   -0.0077    0.0087   -0.0120    0.0352   -0.0107   -0.0326
          41    0.0468    0.0279    0.0279   -0.0164   -0.0076    0.0377   -0.0235    0.0203
          42   -0.0003   -0.0644    0.0147   -0.0279    0.0235   -0.0865   -0.0594    0.0538
          43   -0.0731   -0.0074   -0.0951   -0.0581    0.0171    0.0017    0.0106    0.1044
          44    0.0446   -0.0046    0.0584    0.0328    0.0348   -0.0350    0.0094   -0.0769
          45    0.0027   -0.0302    0.0057    0.0069   -0.0345   -0.0051    0.0065   -0.0209
          46   -0.0044   -0.0187   -0.0028   -0.0128    0.0089    0.0375   -0.0012   -0.0226
          47   -0.0453   -0.0304   -0.0205    0.0090    0.0151    0.0460   -0.0073   -0.0449
          48   -0.0015    0.0485   -0.0153    0.0417   -0.0266   -0.0980   -0.0485    0.0328
          49    0.0426    0.0090    0.0170   -0.0052   -0.0234   -0.0180   -0.0123   -0.0071
          50    0.0226    0.0030    0.0142   -0.0005   -0.0140   -0.0036   -0.0137    0.0038
          51   -0.0015    0.0218    0.0096   -0.0440    0.0475    0.0796   -0.0170    0.0673
          52    0.0367   -0.0303    0.0209   -0.0236    0.0099    0.0045   -0.0400    0.0409
          53   -0.0207   -0.0443   -0.0081    0.0104    0.0102   -0.0038   -0.0581    0.0086
          54   -0.0019    0.1021   -0.0069    0.0049   -0.0314    0.0233    0.0229   -0.0603
          55   -0.0725   -0.0103    0.1004   -0.1341   -0.0428   -0.0151    0.0367   -0.0341
          56    0.0432   -0.0316   -0.0573    0.0853   -0.0220    0.0135    0.0610    0.0327
          57    0.0030    0.0009   -0.0028    0.0070   -0.0297    0.0163    0.0325    0.0214
          58    0.0328    0.0169    0.1199    0.1225    0.0378   -0.0023    0.0145   -0.0226
          59   -0.0186    0.0147   -0.0728   -0.0783    0.0272   -0.0141    0.0256    0.0289
          60   -0.0003    0.0020   -0.0034   -0.0015   -0.0313    0.0150    0.0387    0.0196
          61    0.0524   -0.0163   -0.0439   -0.0846   -0.0344   -0.0093    0.0317   -0.0394
          62   -0.0313   -0.0241    0.0285    0.0556   -0.0290    0.0181    0.0540    0.0485
          63   -0.0004    0.0474   -0.0010   -0.0049    0.0797   -0.0370    0.0153   -0.0215
          64    0.1181   -0.0018   -0.0902    0.0829    0.0382   -0.0061    0.0299    0.0304
          65   -0.0696    0.0073    0.0533   -0.0533    0.0290   -0.0379    0.0482   -0.0417
          66   -0.0026    0.0449    0.0007   -0.0101    0.0718   -0.0342    0.0171   -0.0209


   Root No.       9        10        11        12        13        14        15        16

                 9 A      10 A      11 A      12 A      13 A      14 A      15 A      16 A   

                 404.7     477.0     549.9     570.1     590.1     620.5     747.7     798.5
  
           1    0.0236    0.0053    0.0305    0.0113    0.0060   -0.0039   -0.0078   -0.0003
           2    0.0026   -0.0050    0.0194    0.0056    0.0501    0.0021   -0.0055   -0.0073
           3   -0.0356    0.0002   -0.0098    0.0464   -0.0073   -0.0006    0.0137    0.0012
           4    0.0229    0.0024    0.0311    0.0094    0.0292   -0.0100   -0.0123   -0.0040
           5   -0.0105   -0.0013   -0.0331   -0.0151    0.0262    0.0017    0.0090   -0.0108
           6    0.0049   -0.0014   -0.0193   -0.0035    0.0154   -0.0003   -0.0085    0.0278
           7    0.0030    0.0162    0.0094    0.0061   -0.0706   -0.0045    0.0089    0.0244
           8   -0.0093   -0.0002    0.0234    0.0099    0.0177    0.0068   -0.0082    0.0059
           9    0.0004   -0.0306    0.0251   -0.0156   -0.0161    0.0044   -0.0217   -0.0192
          10   -0.0239   -0.0176   -0.0011    0.0220   -0.0056    0.0305    0.0041   -0.0010
          11    0.0223   -0.0137   -0.0133    0.0312    0.0008   -0.0193    0.0062   -0.0025
          12   -0.0256    0.0213    0.0232    0.0206    0.0278   -0.0017    0.0090   -0.0070
          13   -0.0058   -0.0089   -0.0279   -0.0065    0.0714   -0.0045    0.0025    0.0063
          14   -0.0058   -0.0076   -0.0108   -0.0148   -0.0053   -0.0023    0.0109   -0.0028
          15    0.0246    0.0199   -0.0107   -0.0024    0.0229   -0.0051   -0.0178    0.0041
          16   -0.0109   -0.0134   -0.0121   -0.0208   -0.0106    0.0023    0.0101    0.0028
          17   -0.0046   -0.0085    0.0513    0.0119   -0.0262    0.0067   -0.0160    0.0226
          18    0.0064    0.0304   -0.0028    0.0135   -0.0129   -0.0006   -0.0086   -0.0259
          19   -0.0059   -0.0134   -0.0069    0.0161   -0.0044    0.0186    0.0038   -0.0037
          20    0.0137   -0.0149   -0.0140    0.0287   -0.0058   -0.0121    0.0072   -0.0003
          21    0.0241   -0.0000   -0.0049   -0.0261   -0.0087   -0.0001   -0.0058    0.0018
          22   -0.0009    0.0097   -0.0209   -0.0118   -0.0011    0.0010    0.0154   -0.0147
          23    0.0062    0.0134   -0.0051   -0.0128   -0.0432   -0.0008    0.0160   -0.0136
          24   -0.0204   -0.0280   -0.0045   -0.0188   -0.0179    0.0021   -0.0129    0.0046
          25   -0.0010    0.0063   -0.0005   -0.0141   -0.0065   -0.0523   -0.0006    0.0015
          26   -0.0038    0.0155   -0.0028   -0.0216   -0.0065    0.0317   -0.0014    0.0004
          27    0.0358   -0.0280   -0.0227    0.0127   -0.0182    0.0014    0.0035    0.0007
          28   -0.0019    0.0118   -0.0011   -0.0163   -0.0049    0.0063   -0.0011    0.0010
          29   -0.0071    0.0172   -0.0015   -0.0273   -0.0085   -0.0031   -0.0019    0.0013
          30   -0.0183    0.0155    0.0027   -0.0111   -0.0014    0.0000    0.0006    0.0003
          31    0.0240    0.0050    0.0515    0.0157    0.0259   -0.0150   -0.0187   -0.0510
          32   -0.0083    0.0225    0.0374    0.0253    0.0779    0.0054    0.0180    0.0127
          33   -0.0389    0.0139    0.0080    0.0561    0.0146   -0.0031    0.0218   -0.0078
          34    0.0034    0.0154    0.0019    0.0341   -0.0270   -0.0123   -0.0178    0.0480
          35   -0.0104   -0.0148   -0.0196   -0.0298    0.0104    0.0002    0.0310   -0.0342
          36    0.0232   -0.0463    0.0425   -0.0617    0.0286   -0.0016    0.0498   -0.0794
          37    0.0588   -0.0039    0.0678   -0.0268    0.0498   -0.0123   -0.0244   -0.0553
          38   -0.0195    0.0505   -0.1001    0.0358    0.0022    0.0009   -0.0611    0.1076
          39    0.0191   -0.0020   -0.0068   -0.0164    0.0236   -0.0017   -0.0151    0.0113
          40   -0.0124    0.0294   -0.0168    0.0320   -0.0945   -0.0093   -0.0233   -0.0542
          41   -0.0267    0.0035   -0.0140   -0.0014    0.0045    0.0083   -0.0193   -0.0457
          42    0.0366   -0.0659    0.0867   -0.0885    0.0470    0.0184    0.0621    0.1804
          43   -0.0826   -0.0394    0.0024    0.0410   -0.0129   -0.0061    0.0125   -0.0184
          44    0.0312   -0.0042   -0.0269    0.0739   -0.0012    0.0008    0.0264    0.0043
          45   -0.0345    0.0197    0.0172    0.0438    0.0243   -0.0013    0.0197   -0.0079
          46   -0.0192   -0.0143   -0.0496   -0.0034    0.0685   -0.0039   -0.0673    0.0577
          47   -0.0050   -0.0116   -0.0086    0.0044    0.0147   -0.0093   -0.0825    0.0688
          48    0.0652    0.0343    0.0562   -0.0050    0.0376   -0.0096    0.1545   -0.1227
          49   -0.0372   -0.0533   -0.0113   -0.0202    0.0240    0.0095   -0.0695   -0.0612
          50   -0.0177   -0.0286    0.0507    0.0113   -0.0123    0.0100   -0.0564   -0.0107
          51    0.0498    0.1064    0.0169    0.0307    0.0442   -0.0007    0.1483    0.1369
          52    0.0063    0.0441   -0.0135    0.0165   -0.0468    0.0046   -0.0638   -0.0215
          53    0.0212    0.0446   -0.0465   -0.0042   -0.0239   -0.0087   -0.0494   -0.0218
          54   -0.0494   -0.1053    0.0549   -0.0556   -0.0086    0.0114    0.1547    0.0229
          55    0.0324    0.0167   -0.0062   -0.0216   -0.0074    0.0286   -0.0030    0.0062
          56   -0.0067    0.0097   -0.0034   -0.0405   -0.0146   -0.0158   -0.0057    0.0006
          57    0.0406   -0.0269   -0.0234    0.0021   -0.0214   -0.0010    0.0010    0.0018
          58    0.0416   -0.0119   -0.0266    0.0241   -0.0064    0.1119    0.0043    0.0026
          59    0.0147   -0.0461   -0.0288    0.0377   -0.0278   -0.0681    0.0089   -0.0013
          60    0.0348   -0.0134   -0.0159   -0.0196   -0.0187   -0.0030   -0.0048    0.0028
          61    0.0547    0.0057   -0.0246    0.0077   -0.0073    0.2890    0.0034   -0.0057
          62    0.0150   -0.0318   -0.0225   -0.0022   -0.0321   -0.1724    0.0072    0.0052
          63   -0.0565    0.0505    0.0263   -0.0389    0.0146   -0.0089   -0.0075    0.0007
          64   -0.0590    0.0245    0.0213   -0.0435   -0.0002   -0.1883   -0.0068    0.0058
          65   -0.0321    0.0673    0.0207   -0.0596    0.0116    0.1139   -0.0121   -0.0003
          66   -0.0460    0.0441    0.0200   -0.0346    0.0102    0.0071   -0.0061    0.0007


   Root No.      17        18        19        20        21        22        23        24

                17 A      18 A      19 A      20 A      21 A      22 A      23 A      24 A   

                 835.4     908.3     921.8     935.2     943.9     954.5     965.1     970.9
  
           1   -0.0122    0.0069   -0.0050    0.0021   -0.0078   -0.0094   -0.0107   -0.0167
           2   -0.0169    0.0001    0.0001   -0.0097   -0.0068   -0.0027   -0.0078   -0.0206
           3    0.0043   -0.0015    0.0016    0.0058   -0.0042    0.0044    0.0084    0.0144
           4    0.0071   -0.0098    0.0067   -0.0290    0.0111    0.0089    0.0086    0.0229
           5   -0.0016    0.0072   -0.0058    0.0554   -0.0082   -0.0038   -0.0060   -0.0076
           6    0.0232    0.0030   -0.0020   -0.0192   -0.0014   -0.0072   -0.0024   -0.0123
           7    0.0068   -0.0047    0.0024    0.0385   -0.0075    0.0020    0.0119   -0.0314
           8    0.0093    0.0031   -0.0023   -0.0114    0.0070   -0.0008    0.0077    0.0174
           9    0.0206    0.0007    0.0003    0.0103   -0.0030    0.0021   -0.0249    0.0061
          10   -0.0065    0.0379   -0.0359   -0.0020   -0.0078   -0.0273   -0.0002    0.0081
          11   -0.0080   -0.0223    0.0216   -0.0013   -0.0130    0.0169   -0.0011   -0.0077
          12   -0.0260   -0.0003    0.0014   -0.0004    0.0061   -0.0025   -0.0073   -0.0117
          13    0.0402   -0.0030    0.0005    0.0210    0.0017    0.0039    0.0190   -0.0053
          14    0.0048   -0.0029    0.0018   -0.0141    0.0036    0.0022    0.0145    0.0040
          15   -0.0087   -0.0040    0.0016    0.0155    0.0005    0.0049   -0.0213    0.0021
          16   -0.0228   -0.0017    0.0019   -0.0116    0.0013    0.0035   -0.0079    0.0185
          17    0.0331    0.0029   -0.0027    0.0301    0.0011    0.0006    0.0003    0.0075
          18    0.0138    0.0033   -0.0022   -0.0143    0.0024   -0.0075    0.0177   -0.0276
          19   -0.0048   -0.0299   -0.0261   -0.0020   -0.0031    0.0381   -0.0016   -0.0093
          20   -0.0090    0.0179    0.0161   -0.0001   -0.0108   -0.0223    0.0003    0.0022
          21    0.0077    0.0016   -0.0004   -0.0038   -0.0290    0.0011    0.0018    0.0032
          22   -0.0079    0.0019   -0.0003   -0.0224    0.0003   -0.0038   -0.0147   -0.0038
          23   -0.0171   -0.0019    0.0025   -0.0402    0.0027   -0.0013   -0.0137   -0.0020
          24   -0.0362   -0.0013    0.0003   -0.0019    0.0022    0.0042    0.0250    0.0191
          25    0.0016   -0.0201   -0.0006    0.0028    0.0026   -0.0271    0.0005    0.0035
          26    0.0028    0.0116    0.0007    0.0002    0.0118    0.0155   -0.0003   -0.0016
          27    0.0011    0.0002    0.0003    0.0005   -0.0017    0.0021    0.0018    0.0032
          28    0.0026   -0.0010    0.0019    0.0024    0.0108   -0.0180    0.0003    0.0043
          29    0.0043   -0.0001   -0.0005    0.0020    0.0184    0.0094   -0.0002   -0.0018
          30   -0.0002   -0.0008    0.0013    0.0065    0.0527   -0.0036   -0.0032   -0.0037
          31   -0.0513   -0.0028   -0.0011    0.0412   -0.0112    0.0029   -0.0679    0.0187
          32   -0.0642    0.0028    0.0013   -0.0489   -0.0116   -0.0139    0.0204   -0.0920
          33   -0.0358   -0.0035    0.0035    0.0024   -0.0090    0.0030    0.0001   -0.0106
          34    0.0525   -0.0154    0.0108   -0.1003    0.0291    0.0142    0.0568    0.0876
          35   -0.0085    0.0072   -0.0072    0.0875   -0.0040    0.0031    0.0153    0.0336
          36   -0.0387    0.0086   -0.0094    0.1218   -0.0082    0.0044    0.0022    0.0281
          37   -0.0508   -0.0114    0.0170    0.0157    0.0074    0.0087   -0.0604    0.0045
          38    0.0595    0.0026    0.0050   -0.0803   -0.0001   -0.0198   -0.0296   -0.0480
          39    0.0034    0.0020    0.0022   -0.0053   -0.0024   -0.0075   -0.0298   -0.0206
          40    0.0581   -0.0039    0.0036    0.0418   -0.0112    0.0079   -0.0495    0.0032
          41    0.0284   -0.0009   -0.0001   -0.0543    0.0277    0.0120   -0.0141    0.0922
          42   -0.1133   -0.0018   -0.0031   -0.0082    0.0124   -0.0107    0.1358   -0.0671
          43   -0.0146   -0.1207    0.3104    0.0139   -0.0139    0.0796    0.0029   -0.0221
          44   -0.0275    0.0720   -0.1890   -0.0037   -0.0126   -0.0434    0.0019    0.0217
          45   -0.0359    0.0047   -0.0118    0.0023    0.0049   -0.0044   -0.0053   -0.0052
          46   -0.0011   -0.0062    0.0031    0.0289   -0.0012    0.0056   -0.0466   -0.0071
          47   -0.0041   -0.0235    0.0156   -0.0391    0.0196    0.0236   -0.0252    0.0390
          48    0.1112   -0.0021   -0.0013   -0.0157    0.0153    0.0074    0.1587    0.0212
          49    0.0080    0.0166   -0.0116   -0.0522    0.0185   -0.0189    0.0447    0.0062
          50    0.0484    0.0117   -0.0091    0.0096    0.0092   -0.0107    0.0272   -0.0032
          51   -0.0117   -0.0129    0.0091    0.0612   -0.0011    0.0365   -0.0891    0.1710
          52   -0.0611    0.0124   -0.0091    0.0334    0.0003   -0.0055    0.0466    0.0371
          53   -0.0734   -0.0113    0.0048   -0.0016    0.0077    0.0178    0.0628    0.0331
          54    0.0964    0.0044    0.0042   -0.1116   -0.0048   -0.0238   -0.1446   -0.0680
          55    0.0068    0.2223    0.0463   -0.0164   -0.0165    0.1520    0.0029   -0.0079
          56    0.0123   -0.1320   -0.0302    0.0018   -0.0684   -0.0812    0.0088    0.0223
          57    0.0064   -0.0077   -0.0027   -0.0032   -0.0420    0.0004    0.0064    0.0112
          58   -0.0014    0.1127    0.2860    0.0051   -0.0559   -0.1145    0.0124    0.0281
          59   -0.0028   -0.0675   -0.1716   -0.0121   -0.0590    0.0787    0.0043   -0.0065
          60    0.0113   -0.0028   -0.0105   -0.0074   -0.0625    0.0101    0.0067    0.0084
          61    0.0003   -0.0587   -0.0233    0.0131    0.1267    0.0709   -0.0085   -0.0269
          62   -0.0012    0.0297    0.0218    0.0279    0.2067   -0.0639   -0.0098   -0.0009
          63    0.0049    0.0041   -0.0025   -0.0148   -0.1184    0.0067    0.0070    0.0092
          64    0.0073    0.1348    0.0187   -0.0223   -0.0922    0.1445    0.0054   -0.0122
          65    0.0130   -0.0766   -0.0178   -0.0160   -0.1838   -0.0654    0.0141    0.0301
          66    0.0054   -0.0032   -0.0030   -0.0092   -0.0776    0.0020    0.0054    0.0079


   Root No.      25        26        27        28        29        30        31        32

                25 A      26 A      27 A      28 A      29 A      30 A      31 A      32 A   

                1021.8    1029.7    1036.5    1072.5    1082.4    1108.3    1128.6    1145.4
  
           1    0.0047    0.0123   -0.0227   -0.0029    0.0101   -0.0266   -0.0047   -0.0042
           2    0.0227    0.0049   -0.0054    0.0082    0.0123   -0.0152   -0.0149    0.0020
           3   -0.0096   -0.0048    0.0080   -0.0135    0.0008    0.0031    0.0153   -0.0056
           4   -0.0049   -0.0066    0.0118    0.0033    0.0071    0.0252   -0.0048    0.0009
           5   -0.0196    0.0017   -0.0094    0.0198    0.0070    0.0063   -0.0004   -0.0015
           6    0.0014    0.0150   -0.0337    0.0085    0.0005   -0.0107    0.0042    0.0109
           7    0.0044   -0.0072    0.0124    0.0230   -0.0091   -0.0060   -0.0044    0.0058
           8   -0.0157   -0.0010   -0.0005   -0.0133   -0.0063   -0.0042   -0.0031    0.0055
           9    0.0332    0.0042    0.0029    0.0219    0.0090   -0.0011    0.0032    0.0044
          10    0.0040    0.0062    0.0104    0.0017   -0.0033   -0.0015   -0.0125    0.0003
          11   -0.0012   -0.0027   -0.0085    0.0030    0.0017   -0.0042   -0.0196   -0.0043
          12    0.0026    0.0021   -0.0051    0.0121   -0.0072    0.0002   -0.0415   -0.0033
          13    0.0199   -0.0031    0.0122   -0.0292   -0.0097    0.0044    0.0011    0.0050
          14    0.0129    0.0022   -0.0013   -0.0024   -0.0109   -0.0015    0.0056   -0.0088
          15   -0.0122   -0.0171    0.0345   -0.0192    0.0117   -0.0050   -0.0024   -0.0031
          16    0.0065    0.0017   -0.0010    0.0282   -0.0050   -0.0145    0.0003   -0.0031
          17    0.0014    0.0015   -0.0015   -0.0265    0.0011    0.0129    0.0040   -0.0001
          18   -0.0254   -0.0080    0.0087    0.0005   -0.0049   -0.0053   -0.0006   -0.0004
          19    0.0000   -0.0152   -0.0101    0.0013    0.0012   -0.0036   -0.0089   -0.0016
          20    0.0009    0.0092    0.0056    0.0030   -0.0006   -0.0036   -0.0145   -0.0012
          21    0.0002    0.0011   -0.0010   -0.0003    0.0020   -0.0043   -0.0075   -0.0018
          22   -0.0072   -0.0000   -0.0013   -0.0291    0.0122    0.0116   -0.0013   -0.0019
          23    0.0020   -0.0032    0.0082   -0.0275    0.0011    0.0038   -0.0000   -0.0051
          24    0.0257    0.0101   -0.0131   -0.0214    0.0005    0.0092    0.0002    0.0005
          25   -0.0040    0.0331    0.0117   -0.0002   -0.0006    0.0002   -0.0004   -0.0000
          26    0.0022   -0.0198   -0.0067   -0.0004    0.0005   -0.0004   -0.0008   -0.0004
          27   -0.0033   -0.0028    0.0023   -0.0005   -0.0037    0.0053   -0.0042   -0.0015
          28    0.0064   -0.0448   -0.0129   -0.0009    0.0008    0.0000    0.0033    0.0003
          29   -0.0040    0.0264    0.0085   -0.0014    0.0004    0.0003    0.0054    0.0007
          30    0.0017    0.0024   -0.0007   -0.0007    0.0010    0.0005    0.0067    0.0011
          31   -0.0702    0.0230   -0.0883   -0.1059   -0.1029   -0.1347    0.1564    0.1031
          32    0.0989   -0.0106    0.0603    0.1023    0.1172    0.0443    0.2172    0.0263
          33    0.0015   -0.0083    0.0160   -0.0046    0.0094   -0.0079    0.1936    0.0462
          34   -0.0861    0.0042   -0.0354    0.0547    0.1686   -0.0216   -0.0253    0.0962
          35   -0.0847   -0.0043   -0.0149    0.0609    0.0981   -0.0031   -0.0124    0.0403
          36   -0.0791   -0.0087   -0.0043    0.0490    0.0661    0.0068   -0.0040    0.0261
          37   -0.0333   -0.0036   -0.0179    0.0651   -0.1305    0.1828    0.0311   -0.0164
          38    0.0022    0.0421   -0.1026    0.0869   -0.0527    0.0638    0.0194    0.0147
          39   -0.0098    0.0175   -0.0490    0.0366   -0.0555    0.0538    0.0204    0.0050
          40    0.0490    0.0027    0.0084    0.0456    0.0026   -0.0093   -0.0018    0.0121
          41   -0.0253   -0.0216    0.0470    0.1240   -0.0943   -0.0227   -0.0325    0.2116
          42   -0.0917   -0.0286    0.0270    0.0053   -0.0505   -0.0035   -0.0106    0.0456
          43   -0.0243   -0.0236   -0.0187    0.0019   -0.0238    0.0338    0.0122    0.0016
          44   -0.0155   -0.0008    0.0335    0.0165   -0.0517    0.0807    0.0234    0.0066
          45   -0.0106   -0.0040    0.0066    0.0182   -0.0361    0.0465   -0.0173    0.0016
          46   -0.0096   -0.0226    0.0466   -0.0405    0.0087    0.0053   -0.0047    0.0058
          47   -0.0184   -0.0498    0.1021    0.1042   -0.0255   -0.0410    0.0293   -0.1263
          48    0.0619    0.0222   -0.0311    0.0458   -0.0439   -0.0142    0.0222   -0.0431
          49   -0.1062   -0.0029   -0.0204    0.0766   -0.0314   -0.1018    0.0765   -0.1921
          50   -0.0512   -0.0018   -0.0081   -0.0085   -0.0113   -0.0243    0.0365   -0.0800
          51    0.0438    0.0257   -0.0349    0.0358   -0.0094   -0.0416    0.0423   -0.0940
          52   -0.0261    0.0430   -0.1019   -0.0317    0.0763    0.1434    0.0249   -0.0532
          53    0.0722   -0.0070    0.0406   -0.0241   -0.0457   -0.0756   -0.0154    0.0292
          54   -0.0670   -0.0203    0.0220   -0.0293    0.0194    0.0232    0.0035   -0.0138
          55    0.0039   -0.0972   -0.0267   -0.0028   -0.0084    0.0211    0.0229    0.0022
          56   -0.0171    0.0505    0.0277   -0.0039   -0.0159    0.0355    0.0383    0.0041
          57   -0.0101   -0.0017    0.0087   -0.0026   -0.0129    0.0259    0.0172    0.0008
          58   -0.0032    0.0375    0.0362   -0.0035   -0.0014    0.0043    0.0703    0.0192
          59   -0.0060   -0.0319   -0.0037   -0.0051    0.0044    0.0045    0.1144    0.0254
          60   -0.0038   -0.0047    0.0055   -0.0049    0.0030    0.0015    0.0646    0.0141
          61   -0.0224    0.1742    0.0477   -0.0025    0.0018    0.0007    0.0211    0.0038
          62    0.0219   -0.1004   -0.0317   -0.0045    0.0058    0.0007    0.0362    0.0062
          63   -0.0033   -0.0075    0.0002    0.0017   -0.0031    0.0007   -0.0190   -0.0037
          64   -0.0276    0.1456    0.0472   -0.0009   -0.0044    0.0038    0.0014    0.0002
          65    0.0042   -0.0928   -0.0191   -0.0017   -0.0040    0.0058    0.0018   -0.0005
          66   -0.0032   -0.0069    0.0013   -0.0007   -0.0027    0.0043    0.0028    0.0001


   Root No.      33        34        35        36        37        38        39        40

                33 A      34 A      35 A      36 A      37 A      38 A      39 A      40 A   

                1156.3    1173.7    1214.6    1223.0    1228.7    1274.5    1300.9    1327.2
  
           1   -0.0062    0.0087    0.0006    0.0232    0.0095    0.0117    0.0249    0.0649
           2    0.0100    0.0080   -0.0027   -0.0173    0.0111    0.0145    0.0193   -0.0479
           3    0.0061   -0.0285   -0.0278   -0.0052    0.0186    0.0281    0.0329    0.0051
           4   -0.0025   -0.0125   -0.0065    0.0092    0.0099    0.0118    0.0216   -0.0278
           5    0.0021   -0.0037   -0.0042    0.0074    0.0071    0.0101    0.0193   -0.0030
           6    0.0019    0.0075    0.0011    0.0050   -0.0000    0.0029    0.0093   -0.0122
           7    0.0028   -0.0011   -0.0015   -0.0028    0.0013    0.0002   -0.0037   -0.0309
           8   -0.0031   -0.0014   -0.0007   -0.0179    0.0017    0.0054    0.0149    0.0150
           9   -0.0040    0.0048    0.0024   -0.0010   -0.0029   -0.0026   -0.0015   -0.0064
          10    0.0043   -0.0038   -0.0069   -0.0047   -0.0018    0.0046   -0.0105   -0.0085
          11    0.0017   -0.0059   -0.0116    0.0038   -0.0016    0.0118   -0.0107    0.0050
          12   -0.0012    0.0070    0.0247    0.0033    0.0137   -0.0428   -0.0306   -0.0005
          13   -0.0017    0.0025    0.0047    0.0041   -0.0076   -0.0104   -0.0191    0.0028
          14    0.0010    0.0007    0.0009    0.0167   -0.0010   -0.0025   -0.0064   -0.0207
          15    0.0006    0.0030    0.0023    0.0113   -0.0024   -0.0034   -0.0083   -0.0089
          16    0.0031    0.0023   -0.0017   -0.0171    0.0034    0.0073    0.0170   -0.0095
          17   -0.0058   -0.0004    0.0038   -0.0020   -0.0062   -0.0077   -0.0094    0.0179
          18   -0.0004   -0.0012   -0.0010   -0.0086    0.0009    0.0023    0.0057   -0.0003
          19    0.0021   -0.0065   -0.0035    0.0027   -0.0010   -0.0033   -0.0127    0.0034
          20    0.0051   -0.0105   -0.0071    0.0007   -0.0014   -0.0093   -0.0222   -0.0004
          21    0.0056   -0.0189    0.0134   -0.0006   -0.0159    0.0623   -0.0048   -0.0006
          22    0.0001    0.0007    0.0019   -0.0149   -0.0035   -0.0037   -0.0043    0.0318
          23   -0.0035   -0.0019    0.0004    0.0102   -0.0006   -0.0021   -0.0064   -0.0021
          24   -0.0017    0.0001    0.0015   -0.0026   -0.0025   -0.0033   -0.0052    0.0131
          25    0.0006   -0.0020   -0.0007    0.0003   -0.0046    0.0024   -0.0056    0.0015
          26    0.0009   -0.0036    0.0001    0.0006   -0.0063    0.0073   -0.0103    0.0017
          27   -0.0030    0.0061   -0.0204    0.0034   -0.0246   -0.0567    0.0142    0.0006
          28    0.0005   -0.0033    0.0034    0.0004   -0.0049   -0.0045    0.0019    0.0006
          29    0.0012   -0.0061    0.0057    0.0006   -0.0091   -0.0086    0.0035    0.0011
          30   -0.0025    0.0093   -0.0003   -0.0019    0.0155    0.0173   -0.0036   -0.0002
          31    0.0734    0.0428   -0.0247   -0.0533   -0.0659   -0.0238   -0.0514   -0.0933
          32   -0.0339   -0.0165   -0.0512    0.0432   -0.0665   -0.0174   -0.0393    0.0543
          33    0.0149   -0.0300   -0.0615   -0.0035   -0.0470   -0.0023   -0.0268   -0.0027
          34   -0.0522    0.0247    0.0238   -0.0822   -0.0399   -0.0380   -0.0746   -0.0749
          35   -0.0242    0.0054    0.0072   -0.0501   -0.0142   -0.0157   -0.0250    0.0340
          36   -0.0175   -0.0056   -0.0002   -0.0440   -0.0058   -0.0119   -0.0100    0.0979
          37   -0.0443   -0.1098   -0.0357   -0.0816    0.0081   -0.0106   -0.0395   -0.0158
          38   -0.0231   -0.0295   -0.0066   -0.0587   -0.0031   -0.0169   -0.0151    0.0979
          39   -0.0147   -0.0323   -0.0110   -0.0347   -0.0010   -0.0077   -0.0158    0.0040
          40   -0.0006    0.0058    0.0017    0.0056   -0.0015   -0.0025   -0.0064   -0.0287
          41    0.0494   -0.0065   -0.0153    0.1728    0.0172    0.0046   -0.0133    0.0798
          42    0.0190   -0.0156   -0.0114    0.0313    0.0103    0.0061   -0.0002    0.0016
          43   -0.0438    0.1020    0.0761    0.0186   -0.0826    0.0698    0.0427    0.0109
          44   -0.0623    0.1483    0.1129    0.0014   -0.1329    0.1099    0.0599   -0.0197
          45   -0.0403    0.0973    0.1014    0.0074   -0.0613    0.0133    0.0122   -0.0067
          46   -0.0052    0.0010    0.0045    0.0093   -0.0065   -0.0096   -0.0191   -0.0005
          47    0.1910    0.0814    0.0190   -0.1009   -0.0210   -0.0152   -0.0125    0.1165
          48    0.0765    0.0349    0.0100   -0.0450   -0.0142   -0.0131   -0.0161    0.0488
          49   -0.1005   -0.0219    0.0051    0.0901   -0.0058   -0.0173   -0.0430   -0.0520
          50   -0.0514   -0.0111    0.0070    0.0446   -0.0107   -0.0192   -0.0365    0.0032
          51   -0.0498   -0.0126    0.0014    0.0436   -0.0035   -0.0088   -0.0229   -0.0217
          52    0.1641    0.0416    0.0049    0.1075   -0.0010   -0.0070   -0.0253   -0.0544
          53   -0.1090   -0.0268   -0.0002   -0.0675   -0.0037   -0.0017    0.0044    0.0551
          54    0.0259    0.0054    0.0008    0.0168   -0.0009   -0.0029   -0.0079   -0.0005
          55   -0.0322    0.1095   -0.0803   -0.0075    0.0957    0.0189   -0.0248    0.0001
          56   -0.0515    0.1772   -0.1296   -0.0134    0.1569    0.0342   -0.0416    0.0006
          57   -0.0333    0.1100   -0.0951   -0.0042    0.0658   -0.0442   -0.0015   -0.0003
          58    0.0055   -0.0160    0.1291   -0.0111    0.0962   -0.0325   -0.0098   -0.0092
          59    0.0026   -0.0264    0.2092   -0.0067    0.1601   -0.0552   -0.0120    0.0069
          60    0.0051   -0.0281    0.1398   -0.0070    0.0744    0.0387    0.0022   -0.0005
          61   -0.0019    0.0051    0.0163   -0.0023    0.0173   -0.0387    0.0577   -0.0090
          62   -0.0036    0.0089    0.0285   -0.0037    0.0303   -0.0682    0.1015   -0.0152
          63    0.0010   -0.0022   -0.0209    0.0020   -0.0189    0.0604   -0.0810    0.0132
          64    0.0004   -0.0057    0.0011    0.0027   -0.0223   -0.1012    0.0794   -0.0098
          65    0.0003   -0.0099    0.0023    0.0049   -0.0373   -0.1656    0.1294   -0.0160
          66   -0.0033    0.0080   -0.0055    0.0009   -0.0032   -0.0780    0.0711   -0.0104


   Root No.      41        42        43        44        45        46        47        48

                41 A      42 A      43 A      44 A      45 A      46 A      47 A      48 A   

                1364.0    1386.0    1417.3    1445.5    1838.4    1843.9    1858.5    1884.4
  
           1    0.0008   -0.0315    0.0236   -0.0275    0.0059    0.0019    0.0013    0.0087
           2    0.0053    0.0142    0.0608    0.0315    0.0149   -0.0105   -0.0219    0.0113
           3   -0.0002   -0.0056    0.0384    0.0006    0.0106    0.0001   -0.0055    0.0127
           4   -0.0287    0.0469   -0.0377    0.0369    0.0010   -0.0019    0.0039    0.0024
           5   -0.0176   -0.0331   -0.0342    0.0406    0.0020   -0.0134    0.0181    0.0018
           6   -0.0131   -0.0175   -0.0252    0.0297    0.0014   -0.0070    0.0086    0.0014
           7    0.0041    0.0091    0.0123    0.0132   -0.0132    0.0447    0.0476    0.0082
           8   -0.0153   -0.0113   -0.0226   -0.0559   -0.0273    0.0912    0.1115    0.0204
           9   -0.0017    0.0007   -0.0015   -0.0070   -0.0100    0.0353    0.0411    0.0083
          10    0.0138    0.0059   -0.0088   -0.0008   -0.0438   -0.0061    0.0052   -0.0805
          11    0.0208    0.0016   -0.0185   -0.0026   -0.0714   -0.0140    0.0066   -0.1339
          12   -0.0014    0.0020   -0.0235   -0.0018   -0.0123   -0.0027    0.0010   -0.0143
          13    0.0145   -0.0002    0.0176   -0.0229    0.0080   -0.0499    0.0422    0.0012
          14    0.0027    0.0019    0.0073   -0.0560   -0.0179    0.1104   -0.1067   -0.0059
          15    0.0062    0.0026    0.0105   -0.0325   -0.0046    0.0279   -0.0285   -0.0019
          16   -0.0181   -0.0076   -0.0226   -0.0654    0.0240   -0.0882   -0.0644   -0.0130
          17    0.0016   -0.0015   -0.0109    0.0202    0.0206   -0.0672   -0.0927   -0.0158
          18   -0.0069   -0.0031   -0.0108   -0.0208    0.0134   -0.0472   -0.0448   -0.0083
          19    0.0069    0.0011   -0.0149   -0.0027    0.0305    0.0033   -0.0064    0.0892
          20    0.0098    0.0037   -0.0228   -0.0030    0.0512    0.0058   -0.0106    0.1475
          21    0.0387    0.0062   -0.0210   -0.0031   -0.0074   -0.0037   -0.0034    0.0281
          22    0.0056   -0.0015   -0.0013    0.0712   -0.0179    0.0959   -0.0552   -0.0006
          23    0.0068    0.0076    0.0121   -0.0007    0.0152   -0.0957    0.0941    0.0050
          24    0.0053    0.0019    0.0041    0.0287   -0.0006   -0.0022    0.0165    0.0017
          25   -0.0128   -0.0017    0.0044    0.0002    0.0717    0.0228    0.0107   -0.0507
          26   -0.0192   -0.0021    0.0062    0.0007    0.1199    0.0382    0.0178   -0.0837
          27   -0.0395   -0.0061    0.0224    0.0029    0.0094    0.0042    0.0034   -0.0259
          28   -0.0148   -0.0023    0.0098    0.0013   -0.0650   -0.0199   -0.0083    0.0321
          29   -0.0255   -0.0040    0.0167    0.0021   -0.1096   -0.0335   -0.0139    0.0542
          30    0.0101    0.0014   -0.0044   -0.0006    0.0067    0.0022    0.0010   -0.0054
          31    0.0041    0.0525   -0.0272    0.0204   -0.0099    0.0044    0.0061   -0.0136
          32    0.0039   -0.0210   -0.0639   -0.0142   -0.0131   -0.0026    0.0059   -0.0223
          33    0.0011    0.0079   -0.0432   -0.0042   -0.0077    0.0008    0.0060   -0.0115
          34    0.0671   -0.1603    0.0729   -0.0066    0.0044   -0.0163   -0.0000   -0.0004
          35    0.0250    0.0371    0.0424   -0.0164    0.0035   -0.0201    0.0147    0.0000
          36    0.0047    0.2620    0.0502   -0.0556    0.0029   -0.0137    0.0088    0.0006
          37    0.0605   -0.1744    0.0743   -0.0255    0.0043   -0.0034    0.0007    0.0045
          38    0.0089    0.2589    0.0577   -0.0586    0.0016   -0.0027   -0.0019    0.0008
          39    0.0209   -0.0599    0.0245   -0.0041    0.0024   -0.0027    0.0033    0.0033
          40    0.0054    0.0086    0.0143    0.0148   -0.0164    0.0579    0.0638    0.0123
          41    0.0448   -0.0095    0.0696    0.0895    0.0101   -0.0205   -0.0439   -0.0035
          42    0.0115    0.0017    0.0234    0.0244   -0.0043    0.0196    0.0176    0.0049
          43   -0.0002   -0.0013    0.0117    0.0004    0.0041    0.0008   -0.0003    0.0064
          44    0.0044    0.0069    0.0273    0.0086    0.0047    0.0001   -0.0020    0.0054
          45   -0.0130    0.0020    0.0015    0.0032    0.0450    0.0074   -0.0054    0.0985
          46    0.0148    0.0031    0.0189   -0.0259    0.0101   -0.0644    0.0568    0.0018
          47    0.0201   -0.0363    0.0051    0.0959   -0.0001   -0.0092    0.0255    0.0015
          48    0.0159   -0.0164    0.0110    0.0310    0.0048   -0.0334    0.0359    0.0016
          49    0.0327    0.0280    0.0466    0.0588   -0.0087    0.0159    0.0767    0.0097
          50    0.0242    0.0136    0.0176    0.0780    0.0118   -0.0411   -0.0532   -0.0103
          51    0.0184    0.0151    0.0248    0.0432   -0.0014   -0.0003    0.0207    0.0021
          52    0.0204    0.0096    0.0393   -0.0777    0.0009   -0.0268    0.0752    0.0068
          53   -0.0010    0.0020   -0.0124    0.0990    0.0067   -0.0385    0.0296    0.0010
          54    0.0083    0.0031    0.0122    0.0050    0.0035   -0.0287    0.0441    0.0032
          55    0.0225    0.0033   -0.0140   -0.0015   -0.0007   -0.0012   -0.0018    0.0169
          56    0.0381    0.0054   -0.0239   -0.0031    0.0035   -0.0007   -0.0024    0.0255
          57   -0.0085   -0.0020    0.0071    0.0012   -0.0835   -0.0260   -0.0113    0.0472
          58   -0.0280   -0.0005    0.0149    0.0044    0.0085    0.0041    0.0025   -0.0150
          59   -0.0486   -0.0101    0.0211    0.0016    0.0169    0.0059    0.0038   -0.0201
          60    0.0080    0.0000    0.0046    0.0004   -0.0433   -0.0064    0.0063   -0.0959
          61    0.0774    0.0088   -0.0237   -0.0022   -0.0143   -0.0044   -0.0020    0.0082
          62    0.1370    0.0154   -0.0425   -0.0044   -0.0184   -0.0059   -0.0027    0.0113
          63   -0.1252   -0.0150    0.0464    0.0050   -0.0952   -0.0288   -0.0115    0.0416
          64    0.0661    0.0068   -0.0178   -0.0015    0.0048    0.0013    0.0005   -0.0014
          65    0.1061    0.0110   -0.0281   -0.0024    0.0025    0.0006    0.0001    0.0007
          66    0.0882    0.0103   -0.0317   -0.0033    0.0986    0.0304    0.0129   -0.0528


   Root No.      49        50        51        52        53        54        55        56

                49 A      50 A      51 A      52 A      53 A      54 A      55 A      56 A   

                2841.7    2939.4    3024.6    3027.8    3037.2    3039.6    3054.3    3057.0
  
           1    0.0215    0.0012    0.0008    0.0000    0.0002    0.0003    0.0000    0.0002
[...]
 EFFECTIVE MASS      3.3797
 FORCE CONSTANT      0.6990

 VIBRATION         43   43A           ATOM PAIR      ENERGY CONTRIBUTION    RADIAL
 FREQUENCY          1417.33         C  1 -- C  2         +15.4% ( 60.9%)     22.3%
 TRANSITION DIPOLE   0.2840         C  1 -- C  4         +13.6% ( 57.2%)     90.1%
 TRAVEL (Ang.)       0.1641         C  1 -- C  3         +11.5% ( 52.6%)     60.5%
 REDUCED MASS        1.7672         C  1 -- H 11         +10.8% ( 50.9%)      0.0%
 EFFECTIVE MASS      9.3894
 FORCE CONSTANT      2.0916

 VIBRATION         44   44A           ATOM PAIR      ENERGY CONTRIBUTION    RADIAL
 FREQUENCY          1445.45         C  6 -- C  8         +18.1% ( 64.2%)     99.9%
 TRANSITION DIPOLE   0.0931         C  2 -- C  5         +12.8% ( 53.9%)     99.5%
 TRAVEL (Ang.)       0.1725         C  5 -- C  8         +10.5% ( 49.0%)      0.6%
 REDUCED MASS        1.5686         C  3 -- C  6          +8.5% ( 44.1%)      1.9%
 EFFECTIVE MASS     10.2596
 FORCE CONSTANT      1.9310

 VIBRATION         45   45A           ATOM PAIR      ENERGY CONTRIBUTION    RADIAL
 FREQUENCY          1838.44         C  9 -- C 10         +33.6% ( 85.6%)     99.2%
 TRANSITION DIPOLE   0.1042         C  7 -- C  9         +11.7% ( 50.6%)     56.3%
 TRAVEL (Ang.)       0.1091         C  9 -- H 19         +10.9% ( 48.7%)      4.8%
 REDUCED MASS        3.0820         C  4 -- C  7          +9.6% ( 45.7%)     98.6%
 EFFECTIVE MASS     11.8474
 FORCE CONSTANT      6.1374

 VIBRATION         46   46A           ATOM PAIR      ENERGY CONTRIBUTION    RADIAL
 FREQUENCY          1843.94         C  5 -- C  8         +23.4% ( 71.9%)     99.2%
 TRANSITION DIPOLE   0.3046         C  3 -- C  6         +17.9% ( 63.0%)     98.6%
 TRAVEL (Ang.)       0.1188         C  6 -- C  8         +15.5% ( 58.7%)     98.7%
 REDUCED MASS        2.5889         C  8 -- H 18          +7.5% ( 40.8%)      2.2%
 EFFECTIVE MASS     11.9434
 FORCE CONSTANT      5.1863

 VIBRATION         47   47A           ATOM PAIR      ENERGY CONTRIBUTION    RADIAL
 FREQUENCY          1858.48         C  3 -- C  6         +24.0% ( 71.7%)     99.5%
 TRANSITION DIPOLE   0.3678         C  5 -- C  8         +20.0% ( 65.6%)     99.2%
 TRAVEL (Ang.)       0.1176         C  6 -- C  8         +12.2% ( 51.2%)      0.2%
 REDUCED MASS        2.6223         C  1 -- C  3          +8.2% ( 42.0%)     49.7%
 EFFECTIVE MASS     11.7786
 FORCE CONSTANT      5.3363

 VIBRATION         48   48A           ATOM PAIR      ENERGY CONTRIBUTION    RADIAL
 FREQUENCY          1884.44         C  4 -- C  7         +34.0% ( 86.4%)     95.5%
 TRANSITION DIPOLE   0.1950         C  7 -- C  9         +18.1% ( 62.9%)     55.4%
 TRAVEL (Ang.)       0.0982         C  7 -- H 20         +11.8% ( 50.8%)      2.4%
 REDUCED MASS        3.7106         C  1 -- C  4          +9.8% ( 46.3%)     52.6%
 EFFECTIVE MASS     11.7869
 FORCE CONSTANT      7.7634

 VIBRATION         49   49A           ATOM PAIR      ENERGY CONTRIBUTION    RADIAL
 FREQUENCY          2841.71         C  1 -- H 11         +96.5% ( 99.8%)    100.0%
 TRANSITION DIPOLE   0.0541         C  1 -- C  2          +1.0% ( 10.4%)      8.4%
 TRAVEL (Ang.)       0.1604         C  1 -- C  4          +1.0% ( 10.3%)     12.3%
 REDUCED MASS        0.9223         C  1 -- C  3          +1.0% ( 10.2%)      6.1%
 EFFECTIVE MASS      1.4428
 FORCE CONSTANT      4.3880

 VIBRATION         50   50A           ATOM PAIR      ENERGY CONTRIBUTION    RADIAL
 FREQUENCY          2939.41         C  2 -- H 13         +64.3% ( 83.1%)     97.9%
 TRANSITION DIPOLE   0.0488         C  2 -- H 12         +33.2% ( 59.7%)     94.1%
 TRAVEL (Ang.)       0.2020         C  2 -- C  5          +1.1% ( 10.9%)      0.1%
 REDUCED MASS        0.5620         C  1 -- C  2          +1.1% ( 10.8%)      0.4%
 EFFECTIVE MASS      1.5288
 FORCE CONSTANT      2.8609

 VIBRATION         51   51A           ATOM PAIR      ENERGY CONTRIBUTION    RADIAL
 FREQUENCY          3024.58         C  2 -- H 12         +65.4% ( 79.8%)     99.1%
 TRANSITION DIPOLE   0.0723         C  2 -- H 13         +31.8% ( 55.7%)     94.7%
 TRAVEL (Ang.)       0.2073         C  5 -- H 16          +1.1% ( 10.4%)    100.0%
 REDUCED MASS        0.5187         C  2 -- C  5          +0.7% (  8.0%)     18.1%
 EFFECTIVE MASS      1.2873
 FORCE CONSTANT      2.7959

 VIBRATION         52   52A           ATOM PAIR      ENERGY CONTRIBUTION    RADIAL
 FREQUENCY          3027.81         C  7 -- H 20         +79.7% ( 90.8%)    100.0%
 TRANSITION DIPOLE   0.1373         C  9 -- H 19         +17.0% ( 41.9%)    100.0%
 TRAVEL (Ang.)       0.1839         C  7 -- C  9          +1.6% ( 12.9%)     17.2%
 REDUCED MASS        0.6586         C  4 -- C  7          +1.2% ( 11.4%)     37.6%
 EFFECTIVE MASS      1.5307
 FORCE CONSTANT      3.5575

 VIBRATION         53   53A           ATOM PAIR      ENERGY CONTRIBUTION    RADIAL
 FREQUENCY          3037.16         C  9 -- H 19         +55.9% ( 75.6%)    100.0%
 TRANSITION DIPOLE   0.4191         C  4 -- H 15         +29.7% ( 55.1%)    100.0%
 TRAVEL (Ang.)       0.2346         C  7 -- H 20         +11.4% ( 34.2%)    100.0%
 REDUCED MASS        0.4036         C  9 -- C 10          +0.8% (  9.3%)     30.6%
 EFFECTIVE MASS      1.4731
 FORCE CONSTANT      2.1933

 VIBRATION         54   54A           ATOM PAIR      ENERGY CONTRIBUTION    RADIAL
 FREQUENCY          3039.61         C  4 -- H 15         +67.2% ( 83.2%)    100.0%
 TRANSITION DIPOLE   0.0772         C  9 -- H 19         +23.8% ( 49.5%)    100.0%
 TRAVEL (Ang.)       0.2093         C  7 -- H 20          +5.5% ( 23.9%)     99.7%
 REDUCED MASS        0.5062         C  4 -- C  7          +1.4% ( 12.1%)     40.7%
 EFFECTIVE MASS      1.5369
 FORCE CONSTANT      2.7555

 VIBRATION         55   55A           ATOM PAIR      ENERGY CONTRIBUTION    RADIAL
 FREQUENCY          3054.28         C  6 -- H 17         +28.9% ( 54.6%)    100.0%
 TRANSITION DIPOLE   0.2475         C  3 -- H 14         +24.2% ( 50.0%)    100.0%
 TRAVEL (Ang.)       0.3066         C  8 -- H 18         +23.1% ( 48.8%)    100.0%
 REDUCED MASS        0.2348         C  5 -- H 16         +21.2% ( 46.8%)    100.0%
 EFFECTIVE MASS      1.4704
 FORCE CONSTANT      1.2905

 VIBRATION         56   56A           ATOM PAIR      ENERGY CONTRIBUTION    RADIAL
 FREQUENCY          3056.97         C  5 -- H 16         +37.4% ( 62.0%)    100.0%
 TRANSITION DIPOLE   0.3032         C  3 -- H 14         +29.5% ( 55.1%)    100.0%
 TRAVEL (Ang.)       0.2879         C  8 -- H 18         +15.5% ( 39.9%)     99.9%
 REDUCED MASS        0.2661         C  6 -- H 17         +14.7% ( 38.9%)    100.0%
 EFFECTIVE MASS      1.4570
 FORCE CONSTANT      1.4654

 VIBRATION         57   57A           ATOM PAIR      ENERGY CONTRIBUTION    RADIAL
 FREQUENCY          3071.23         C  3 -- H 14         +29.0% ( 54.7%)     99.9%
 TRANSITION DIPOLE   0.4211         C  6 -- H 17         +23.4% ( 49.2%)     99.8%
 TRAVEL (Ang.)       0.3053         C  5 -- H 16         +22.0% ( 47.6%)     99.9%
 REDUCED MASS        0.2356         C  8 -- H 18         +21.8% ( 47.4%)     99.9%
 EFFECTIVE MASS      1.5758
 FORCE CONSTANT      1.3092

 VIBRATION         58   58A           ATOM PAIR      ENERGY CONTRIBUTION    RADIAL
 FREQUENCY          3080.47         C  8 -- H 18         +36.7% ( 61.4%)    100.0%
 TRANSITION DIPOLE   0.3529         C  6 -- H 17         +29.9% ( 55.5%)    100.0%
 TRAVEL (Ang.)       0.2853         C  5 -- H 16         +15.3% ( 39.6%)     99.8%
 REDUCED MASS        0.2690         C  3 -- H 14         +14.2% ( 38.2%)     99.8%
 EFFECTIVE MASS      1.6103
 FORCE CONSTANT      1.5040

 VIBRATION         59   59A           ATOM PAIR      ENERGY CONTRIBUTION    RADIAL
 FREQUENCY          3136.25         C 10 -- H 22         +94.5% ( 98.8%)     99.9%
 TRANSITION DIPOLE   0.2282         C 10 -- H 21          +4.2% ( 20.7%)     59.8%
 TRAVEL (Ang.)       0.1553         C  9 -- C 10          +1.3% ( 11.7%)     27.3%
 REDUCED MASS        0.8913
 EFFECTIVE MASS      1.5236
 FORCE CONSTANT      5.1651

 VIBRATION         60   60A           ATOM PAIR      ENERGY CONTRIBUTION    RADIAL
 FREQUENCY          3147.40         C 10 -- H 21         +94.3% ( 97.9%)     99.8%
 TRANSITION DIPOLE   0.3093         C 10 -- H 22          +3.4% ( 18.6%)     19.0%
 TRAVEL (Ang.)       0.1575         C  9 -- C 10          +1.5% ( 12.5%)     65.9%
 REDUCED MASS        0.8632         C  9 -- H 19          +0.7% (  8.3%)     94.8%
 EFFECTIVE MASS      1.4742
 FORCE CONSTANT      5.0380

      SYMMETRY NUMBER FOR POINT-GROUP C1  =  1


          SYSTEM IS A GROUND STATE



 InChI=1S/C10H12/c1-2-3-7-10-8-5-4-6-9-10/h2-8,10H,1,9H2


          MOLECULE IS NOT LINEAR

          THERE ARE 60 GENUINE VIBRATIONS IN THIS SYSTEM
          THIS THERMODYNAMICS CALCULATION IS LIMITED TO
          MOLECULES WHICH HAVE NO INTERNAL ROTATIONS




                    CALCULATED THERMODYNAMIC PROPERTIES
                                          *
   TEMP. (K)   PARTITION FUNCTION   H.O.F.    ENTHALPY  HEAT CAPACITY ENTROPY
                                   KCAL/MOL   CAL/MOLE    CAL/K/MOL  CAL/K/MOL


 298.00  VIB.     0.2533D+04                  4467.3872    31.1134    30.5650
         ROT.     0.7545D+06                   888.2803     2.9808    29.8752
         INT.     0.1911D+10                  5355.6675    34.0942    60.4402
         TRA.     0.1470D+28                  1480.4672     4.9680    40.5480
         TOT.                       54.837    6836.1346    39.0622   100.9881

 200.00  VIB.     0.2150D+03                  2007.8782    19.3915    20.7122
         ROT.     0.4148D+06                   596.1613     2.9808    28.6865
         INT.     0.8920D+08                  2604.0394    22.3723    49.3987
         TRA.     0.8080D+27                   993.6021     4.9680    38.5668
         TOT.                       51.599    3597.6416    27.3404    87.9655

 210.00  VIB.     0.2767D+03                  2207.2267    20.4835    21.6846
         ROT.     0.4463D+06                   625.9693     2.9808    28.8319
         INT.     0.1235D+09                  2833.1960    23.4643    50.5165
         TRA.     0.8694D+27                  1043.2822     4.9680    38.8092
         TOT.                       51.878    3876.4782    28.4324    89.3257

 220.00  VIB.     0.3559D+03                  2417.6534    21.6069    22.6633
         ROT.     0.4786D+06                   655.7774     2.9808    28.9706
         INT.     0.1703D+09                  3073.4308    24.5877    51.6339
         TRA.     0.9322D+27                  1092.9623     4.9680    39.0403
         TOT.                       52.168    4166.3931    29.5557    90.6742

 230.00  VIB.     0.4575D+03                  2639.4609    22.7593    23.6491
         ROT.     0.5116D+06                   685.5855     2.9808    29.1031
         INT.     0.2340D+09                  3325.0463    25.7401    52.7522
         TRA.     0.9965D+27                  1142.6424     4.9680    39.2612
         TOT.                       52.469    4467.6888    30.7081    92.0133

 240.00  VIB.     0.5880D+03                  2872.9262    23.9379    24.6425
         ROT.     0.5453D+06                   715.3935     2.9808    29.2300
         INT.     0.3207D+09                  3588.3197    26.9187    53.8725
         TRA.     0.1062D+28                  1192.3226     4.9680    39.4726
         TOT.                       52.782    4780.6423    31.8867    93.3451

 250.00  VIB.     0.7558D+03                  3118.2958    25.1396    25.6440
         ROT.     0.5797D+06                   745.2016     2.9808    29.3517
         INT.     0.4382D+09                  3863.4974    28.1204    54.9956
         TRA.     0.1129D+28                  1242.0027     4.9680    39.6754
         TOT.                       53.107    5105.5001    33.0884    94.6711

 260.00  VIB.     0.9716D+03                  3375.7823    26.3607    26.6537
         ROT.     0.6149D+06                   775.0097     2.9808    29.4686
         INT.     0.5974D+09                  4150.7919    29.3415    56.1223
         TRA.     0.1198D+28                  1291.6828     4.9680    39.8703
         TOT.                       53.444    5442.4747    34.3095    95.9925

 270.00  VIB.     0.1249D+04                  3645.5617    27.5975    27.6717
         ROT.     0.6507D+06                   804.8177     2.9808    29.5811
         INT.     0.8130D+09                  4450.3795    30.5784    57.2528
         TRA.     0.1267D+28                  1341.3629     4.9680    40.0578
         TOT.                       53.793    5791.7423    35.5464    97.3105

 280.00  VIB.     0.1607D+04                  3927.7734    28.8465    28.6979
         ROT.     0.6872D+06                   834.6258     2.9808    29.6895
         INT.     0.1104D+10                  4762.3992    31.8273    58.3874
         TRA.     0.1338D+28                  1391.0430     4.9680    40.2384
         TOT.                       54.155    6153.4422    36.7953    98.6258

 290.00  VIB.     0.2069D+04                  4222.5196    30.1038    29.7321
         ROT.     0.7243D+06                   864.4339     2.9808    29.7941
         INT.     0.1498D+10                  5086.9534    33.0847    59.5262
         TRA.     0.1411D+28                  1440.7231     4.9680    40.4128
         TOT.                       54.529    6527.6765    38.0527    99.9389

 300.00  VIB.     0.2664D+04                  4529.8667    31.3661    30.7739
         ROT.     0.7621D+06                   894.2419     2.9808    29.8951
         INT.     0.2030D+10                  5424.1086    34.3469    60.6691
         TRA.     0.1484D+28                  1490.4032     4.9680    40.5812
         TOT.                       54.916    6914.5118    39.3149   101.2502

 310.00  VIB.     0.3433D+04                  4849.8467    32.6299    31.8230
         ROT.     0.8005D+06                   924.0500     2.9808    29.9929
         INT.     0.2748D+10                  5773.8967    35.6107    61.8159
         TRA.     0.1559D+28                  1540.0833     4.9680    40.7441
         TOT.                       55.315    7313.9800    40.5787   102.5600

 320.00  VIB.     0.4427D+04                  5182.4597    33.8922    32.8789
         ROT.     0.8395D+06                   953.8580     2.9808    30.0875
         INT.     0.3717D+10                  6136.3178    36.8730    62.9664
         TRA.     0.1635D+28                  1589.7634     4.9680    40.9018
         TOT.                       55.727    7726.0812    41.8410   103.8682

 330.00  VIB.     0.5714D+04                  5527.6759    35.1501    33.9411
         ROT.     0.8792D+06                   983.6661     2.9808    30.1792
         INT.     0.5024D+10                  6511.3420    38.1309    64.1203
         TRA.     0.1713D+28                  1639.4435     4.9680    41.0547
         TOT.                       56.152    8150.7855    43.0989   105.1750

 340.00  VIB.     0.7379D+04                  5885.4383    36.4010    35.0090
         ROT.     0.9195D+06                  1013.4742     2.9808    30.2682
         INT.     0.6785D+10                  6898.9124    39.3818    65.2773
         TRA.     0.1791D+28                  1689.1236     4.9680    41.2030
         TOT.                       56.589    8588.0361    44.3499   106.4803

 350.00  VIB.     0.9538D+04                  6255.6657    37.6427    36.0822
         ROT.     0.9603D+06                  1043.2822     2.9808    30.3546
         INT.     0.9160D+10                  7298.9479    40.6235    66.4368
         TRA.     0.1871D+28                  1738.8037     4.9680    41.3470
         TOT.                       57.039    9037.7516    45.5915   107.7838

 360.00  VIB.     0.1234D+05                  6638.2552    38.8731    37.1599
         ROT.     0.1002D+07                  1073.0903     2.9808    30.4386
         INT.     0.1236D+11                  7711.3455    41.8539    67.5984
         TRA.     0.1951D+28                  1788.4838     4.9680    41.4870
         TOT.                       57.501    9499.8293    46.8220   109.0854

 370.00  VIB.     0.1597D+05                  7033.0850    40.0905    38.2416
         ROT.     0.1044D+07                  1102.8984     2.9808    30.5203
         INT.     0.1667D+11                  8135.9834    43.0713    68.7618
         TRA.     0.2033D+28                  1838.1639     4.9680    41.6231
         TOT.                       57.975    9974.1473    48.0393   110.3849

 380.00  VIB.     0.2069D+05                  7440.0169    41.2933    39.3267
         ROT.     0.1086D+07                  1132.7064     2.9808    30.5997
         INT.     0.2248D+11                  8572.7233    44.2741    69.9265
         TRA.     0.2116D+28                  1887.8440     4.9680    41.7556
         TOT.                       58.462   10460.5674    49.2421   111.6821

 390.00  VIB.     0.2683D+05                  7858.8987    42.4803    40.4147
         ROT.     0.1130D+07                  1162.5145     2.9808    30.6772
         INT.     0.3030D+11                  9021.4131    45.4611    71.0919
         TRA.     0.2200D+28                  1937.5242     4.9680    41.8846
         TOT.                       58.960   10958.9373    50.4291   112.9765

 400.00  VIB.     0.3480D+05                  8289.5665    43.6504    41.5050
         ROT.     0.1173D+07                  1192.3226     2.9808    30.7526
         INT.     0.4083D+11                  9481.8890    46.6312    72.2577
         TRA.     0.2285D+28                  1987.2043     4.9680    42.0104
         TOT.                       59.470   11469.0933    51.5992   114.2681

   *: NOTE: HEATS OF FORMATION ARE RELATIVE TO THE
            ELEMENTS IN THEIR STANDARD STATE AT 298K
              (=  Standard Enthalpy of Formation).

            Hvib:  Zero-point energy is not included.
                   frequencies of less than zero cm-1 are not included.
            Hrot = (3/2)RT
            Htra = (3/2)RT + pV = (5/2)RT

            Heat capacity is Cp, not Cv

          For more information, see: HTTP://OpenMOPAC.net/Manual/thermochemistry.html


           FORCE CONSTANT IN CARTESIAN COORDINATES (Millidynes/A)

    ATOM   CHEMICAL       X               Y               Z
   NUMBER   SYMBOL  FORCE CONSTANT  FORCE CONSTANT  FORCE CONSTANT

      1       C        8.075908        9.059123        8.573408
      2       C        8.106651        9.047269        8.037843
      3       C       10.310106       12.324818        4.307524
      4       C        5.951174       11.942616        9.165245
      5       C       10.423515       12.274374        4.279396
      6       C       10.468390       13.090869        4.071058
      7       C        5.687886       11.941990        9.892867
      8       C       10.447923       12.763436        4.414219
      9       C        5.674585       12.022959        9.753454
     10       C        5.424432       11.810141        9.053493
     11       H        1.077707        1.363893        3.402005
     12       H        1.160036        3.861791        1.328636
     13       H        1.237377        0.657869        4.357005
     14       H        4.544796        0.795473        0.927408
     15       H        0.654884        1.334051        4.227772
     16       H        4.602717        0.762610        0.896143
     17       H        1.424421        4.422595        0.418079
     18       H        1.445004        3.304435        1.520947
     19       H        0.640029        1.320815        4.249383
     20       H        0.648847        1.325901        4.222095
     21       H        0.932829        1.798408        3.739273
     22       H        0.665858        1.452553        4.341020

 **********************
 *                    *
 * JOB ENDED NORMALLY *
 *                    *
 **********************



 TOTAL JOB TIME:             3.87 SECONDS

 == MOPAC DONE ==
