 *******************************************************************************
 **                                                                           **
 **                              MOPAC v23.1.2                                **
 **                                                                           **
 *******************************************************************************
 **          Digital Object Identifier (DOI): 10.5281/zenodo.6511958          **
 **    Visit the DOI location for information on how to cite this program.    **
 *******************************************************************************

                              PM3 CALCULATION RESULTS

 *******************************************************************************
 *  CALCULATION DONE: (MAX THREADS = 1)              Tue Jun  3 16:34:32 2025  *
 *  PM3        - The PM3 Hamiltonian to be used
 *  PRECISE    - TIGHTER CRITERIA TO BE USED
 *  NOSYM      - POINT-GROUP SYMMETRY SET TO C1
 *  THREADS=1  - MULTI-THREADING NOT USED
 *  T=         - A TIME OF 172800.0 SECONDS REQUESTED
 *  DUMP=N     - RESTART FILE WRITTEN EVERY 7200.0 SECONDS REQUESTED
 *******************************************************************************
pm3  precise nosym THREADS=1
 InChI=1S/C7H8/c1-2-7-5-3-4-6-7/h3,5H,1,4,6H2

   ATOM   CHEMICAL          X               Y               Z
  NUMBER   SYMBOL      (ANGSTROMS)     (ANGSTROMS)     (ANGSTROMS)

     1       C         -0.59710000  *  -1.03190000  *  -0.04380000  *
     2       C         -1.90200000  *  -0.27910000  *   0.26040000  *
     3       C          0.41950000  *   0.05270000  *  -0.05860000  *
     4       C         -1.49480000  *   1.15650000  *   0.38760000  *
     5       C         -0.19980000  *   1.33040000  *   0.20820000  *
     6       C          2.96540000  *  -0.29510000  *  -0.50310000  *
     7       C          1.69380000  *  -0.12120000  *  -0.28110000  *
     8       H         -0.64730000  *  -1.53230000  *  -1.03530000  *
     9       H         -0.36730000  *  -1.77040000  *   0.75470000  *
    10       H         -2.63060000  *  -0.39460000  *  -0.57050000  *
    11       H         -2.35160000  *  -0.63180000  *   1.21330000  *
    12       H         -2.18070000  *   1.96540000  *   0.60250000  *
    13       H          0.30670000  *   2.28600000  *   0.25610000  *
    14       H          3.34960000  *  -1.28750000  *  -0.69530000  *
    15       H          3.63630000  *   0.55290000  *  -0.49520000  *



          CARTESIAN COORDINATES 

    NO.       ATOM           X           Y           Z

     1         C         -0.5971     -1.0319     -0.0438
     2         C         -1.9020     -0.2791      0.2604
     3         C          0.4195      0.0527     -0.0586
     4         C         -1.4948      1.1565      0.3876
     5         C         -0.1998      1.3304      0.2082
     6         C          2.9654     -0.2951     -0.5031
     7         C          1.6938     -0.1212     -0.2811
     8         H         -0.6473     -1.5323     -1.0353
     9         H         -0.3673     -1.7704      0.7547
    10         H         -2.6306     -0.3946     -0.5705
    11         H         -2.3516     -0.6318      1.2133
    12         H         -2.1807      1.9654      0.6025
    13         H          0.3067      2.2860      0.2561
    14         H          3.3496     -1.2875     -0.6953
    15         H          3.6363      0.5529     -0.4952

  H: (PM3): J. J. P. STEWART, J. COMP. CHEM. 10, 209 (1989).
  C: (PM3): J. J. P. STEWART, J. COMP. CHEM. 10, 209 (1989).

           Empirical Formula: C7 H8  =    15 atoms



      MOLECULAR POINT GROUP   :   C1  


      RHF CALCULATION, NO. OF DOUBLY OCCUPIED LEVELS = 18


          Geometry optimization using EF

          DIAGONAL MATRIX USED AS START HESSIAN

 CYCLE:     1 TIME:   0.012 TIME LEFT:  2.00D  GRAD.:    94.682 HEAT:  107.2435
 CYCLE:     2 TIME:   0.004 TIME LEFT:  2.00D  GRAD.:   206.652 HEAT:  105.1641
 CYCLE:     3 TIME:   0.004 TIME LEFT:  2.00D  GRAD.:   121.905 HEAT:  94.19904
 CYCLE:     4 TIME:   0.008 TIME LEFT:  2.00D  GRAD.:   215.184 HEAT:  93.75572
 CYCLE:     5 TIME:   0.004 TIME LEFT:  2.00D  GRAD.:    66.218 HEAT:  84.58531
 CYCLE:     6 TIME:   0.004 TIME LEFT:  2.00D  GRAD.:   174.894 HEAT:  83.42401
 CYCLE:     7 TIME:   0.008 TIME LEFT:  2.00D  GRAD.:   115.665 HEAT:  75.96103
 CYCLE:     8 TIME:   0.004 TIME LEFT:  2.00D  GRAD.:   152.020 HEAT:  73.92765
 CYCLE:     9 TIME:   0.004 TIME LEFT:  2.00D  GRAD.:    98.810 HEAT:  66.20049
 CYCLE:    10 TIME:   0.012 TIME LEFT:  2.00D  GRAD.:    81.027 HEAT:  63.82195
 CYCLE:    11 TIME:   0.004 TIME LEFT:  2.00D  GRAD.:    82.885 HEAT:  63.17280
 CYCLE:    12 TIME:   0.004 TIME LEFT:  2.00D  GRAD.:    43.590 HEAT:  61.51391
 CYCLE:    13 TIME:   0.004 TIME LEFT:  2.00D  GRAD.:    77.028 HEAT:  61.31325
 CYCLE:    14 TIME:   0.008 TIME LEFT:  2.00D  GRAD.:    47.621 HEAT:  59.75521
 CYCLE:    15 TIME:   0.004 TIME LEFT:  2.00D  GRAD.:    70.842 HEAT:  59.39673
 CYCLE:    16 TIME:   0.008 TIME LEFT:  2.00D  GRAD.:    55.197 HEAT:  58.41206
 CYCLE:    17 TIME:   0.004 TIME LEFT:  2.00D  GRAD.:    54.357 HEAT:  57.85085
 CYCLE:    18 TIME:   0.008 TIME LEFT:  2.00D  GRAD.:    50.498 HEAT:  57.84713
 CYCLE:    19 TIME:   0.004 TIME LEFT:  2.00D  GRAD.:    23.617 HEAT:  57.01894
 CYCLE:    20 TIME:   0.004 TIME LEFT:  2.00D  GRAD.:    12.200 HEAT:  56.77690
 CYCLE:    21 TIME:   0.004 TIME LEFT:  2.00D  GRAD.:     7.799 HEAT:  56.69478
 CYCLE:    22 TIME:   0.008 TIME LEFT:  2.00D  GRAD.:    13.423 HEAT:  56.64120
 CYCLE:    23 TIME:   0.004 TIME LEFT:  2.00D  GRAD.:    13.469 HEAT:  56.62249
 CYCLE:    24 TIME:   0.008 TIME LEFT:  2.00D  GRAD.:     7.287 HEAT:  56.56613
 CYCLE:    25 TIME:   0.004 TIME LEFT:  2.00D  GRAD.:     5.346 HEAT:  56.54259
 CYCLE:    26 TIME:   0.004 TIME LEFT:  2.00D  GRAD.:     3.206 HEAT:  56.52203
 CYCLE:    27 TIME:   0.004 TIME LEFT:  2.00D  GRAD.:     2.457 HEAT:  56.50030
 CYCLE:    28 TIME:   0.008 TIME LEFT:  2.00D  GRAD.:     1.812 HEAT:  56.49557
 CYCLE:    29 TIME:   0.004 TIME LEFT:  2.00D  GRAD.:     1.341 HEAT:  56.49164
 CYCLE:    30 TIME:   0.008 TIME LEFT:  2.00D  GRAD.:     0.948 HEAT:  56.48807
 CYCLE:    31 TIME:   0.004 TIME LEFT:  2.00D  GRAD.:     0.881 HEAT:  56.48714
 CYCLE:    32 TIME:   0.004 TIME LEFT:  2.00D  GRAD.:     0.489 HEAT:  56.48654
 CYCLE:    33 TIME:   0.008 TIME LEFT:  2.00D  GRAD.:     0.539 HEAT:  56.48594
 CYCLE:    34 TIME:   0.004 TIME LEFT:  2.00D  GRAD.:     0.626 HEAT:  56.48512
 CYCLE:    35 TIME:   0.008 TIME LEFT:  2.00D  GRAD.:     0.507 HEAT:  56.48458
 CYCLE:    36 TIME:   0.004 TIME LEFT:  2.00D  GRAD.:     0.394 HEAT:  56.48421
 CYCLE:    37 TIME:   0.004 TIME LEFT:  2.00D  GRAD.:     0.429 HEAT:  56.48390
 CYCLE:    38 TIME:   0.008 TIME LEFT:  2.00D  GRAD.:     0.471 HEAT:  56.48352
 CYCLE:    39 TIME:   0.004 TIME LEFT:  2.00D  GRAD.:     0.399 HEAT:  56.48315
 CYCLE:    40 TIME:   0.008 TIME LEFT:  2.00D  GRAD.:     0.269 HEAT:  56.48287
 CYCLE:    41 TIME:   0.004 TIME LEFT:  2.00D  GRAD.:     0.209 HEAT:  56.48276
 CYCLE:    42 TIME:   0.004 TIME LEFT:  2.00D  GRAD.:     0.149 HEAT:  56.48264
 CYCLE:    43 TIME:   0.004 TIME LEFT:  2.00D  GRAD.:     0.133 HEAT:  56.48259
 CYCLE:    44 TIME:   0.004 TIME LEFT:  2.00D  GRAD.:     0.104 HEAT:  56.48255
 CYCLE:    45 TIME:   0.008 TIME LEFT:  2.00D  GRAD.:     0.087 HEAT:  56.48252
 CYCLE:    46 TIME:   0.004 TIME LEFT:  2.00D  GRAD.:     0.091 HEAT:  56.48251
 CYCLE:    47 TIME:   0.004 TIME LEFT:  2.00D  GRAD.:     0.095 HEAT:  56.48249
 CYCLE:    48 TIME:   0.004 TIME LEFT:  2.00D  GRAD.:     0.099 HEAT:  56.48246
 CYCLE:    49 TIME:   0.004 TIME LEFT:  2.00D  GRAD.:     0.089 HEAT:  56.48243
 CYCLE:    50 TIME:   0.008 TIME LEFT:  2.00D  GRAD.:     0.073 HEAT:  56.48240
 CYCLE:    51 TIME:   0.004 TIME LEFT:  2.00D  GRAD.:     0.055 HEAT:  56.48239
 CYCLE:    52 TIME:   0.004 TIME LEFT:  2.00D  GRAD.:     0.091 HEAT:  56.48238
 CYCLE:    53 TIME:   0.004 TIME LEFT:  2.00D  GRAD.:     0.055 HEAT:  56.48237
 CYCLE:    54 TIME:   0.004 TIME LEFT:  2.00D  GRAD.:     0.039 HEAT:  56.48237

     GRADIENT =  0.03893 IS LESS THAN CUTOFF =  0.05000



 -------------------------------------------------------------------------------
 pm3  precise nosym THREADS=1
 InChI=1S/C7H8/c1-2-7-5-3-4-6-7/h3,5H,1,4,6H2



     GEOMETRY OPTIMISED USING EIGENVECTOR FOLLOWING (EF).     
     SCF FIELD WAS ACHIEVED                                   


                              PM3 CALCULATION
                                                       MOPAC v23.1.2 MacOS
                                                       Tue Jun  3 16:34:32 2025




          FINAL HEAT OF FORMATION =         56.48237 KCAL/MOL =     236.32223 KJ/MOL


          COSMO AREA              =        144.19 SQUARE ANGSTROMS
          COSMO VOLUME            =        132.22 CUBIC ANGSTROMS

          GRADIENT NORM           =          0.03893          =       0.01005 PER ATOM
          IONIZATION POTENTIAL    =          8.824976 EV
          HOMO LUMO ENERGIES (EV) =         -8.825  0.274
          NO. OF FILLED LEVELS    =         18
          MOLECULAR WEIGHT        =         92.1402         POINT GROUP:  C1  

          MOLECULAR DIMENSIONS (Angstroms)

            Atom       Atom       Distance
            H    15    H    12     6.44106
            H    13    H     8     4.11163
            H    14    H    11     3.08715


          SCF CALCULATIONS        =         59

          WALL-CLOCK TIME         =      0.305 SECONDS
          COMPUTATION TIME        =      0.158 SECONDS




   ATOM   CHEMICAL          X               Y               Z
  NUMBER   SYMBOL      (ANGSTROMS)     (ANGSTROMS)     (ANGSTROMS)

     1       C         -0.59213020  *  -1.02754978  *   0.05314157  *
     2       C         -1.91266470  *  -0.27717933  *   0.30928914  *
     3       C          0.44583007  *   0.05584648  *  -0.06529667  *
     4       C         -1.53696665  *   1.17227530  *   0.31863868  *
     5       C         -0.22221376  *   1.35106740  *   0.10951769  *
     6       C          2.98375462  *  -0.30299762  *  -0.50399305  *
     7       C          1.72050148  *  -0.12501562  *  -0.28556294  *
     8       H         -0.63617095  *  -1.63714078  *  -0.86727461  *
     9       H         -0.34701729  *  -1.72363974  *   0.87539541  *
    10       H         -2.66583768  *  -0.48257186  *  -0.47314147  *
    11       H         -2.37692980  *  -0.56874717  *   1.26903010  *
    12       H         -2.28142797  *   1.95085697  *   0.48050445  *
    13       H          0.31578615  *   2.29728382  *   0.06710926  *
    14       H          3.40121684  *  -0.33834261  *  -1.50697471  *
    15       H          3.70164590  *  -0.42787619  *   0.30255828  *

                             CARTESIAN COORDINATES

   1    C       -0.592130196    -1.027549781     0.053141574
   2    C       -1.912664703    -0.277179332     0.309289140
   3    C        0.445830074     0.055846480    -0.065296671
   4    C       -1.536966650     1.172275299     0.318638680
   5    C       -0.222213757     1.351067399     0.109517686
   6    C        2.983754620    -0.302997623    -0.503993051
   7    C        1.720501477    -0.125015621    -0.285562944
   8    H       -0.636170950    -1.637140780    -0.867274609
   9    H       -0.347017288    -1.723639745     0.875395414
  10    H       -2.665837679    -0.482571856    -0.473141467
  11    H       -2.376929805    -0.568747168     1.269030104
  12    H       -2.281427967     1.950856968     0.480504453
  13    H        0.315786154     2.297283821     0.067109255
  14    H        3.401216843    -0.338342609    -1.506974714
  15    H        3.701645898    -0.427876189     0.302558277


           Empirical Formula: C7 H8  =    15 atoms



      MOLECULAR POINT GROUP   :   C1  


                  EIGENVALUES  
 -39.77301 -32.44955 -28.15633 -27.08046 -21.51841 -19.24835 -18.09265 -16.86285
 -16.00160 -14.97236 -14.54756 -13.77897 -13.14244 -12.91187 -12.55385 -11.11468
 -10.34028  -8.82498   0.27416   1.09359   1.95404   2.96040   3.38326   3.62594
   3.90467   3.95054   3.97960   4.19617   4.28674   4.42008   4.80333   5.00513
   5.04217   5.66640   5.84645   6.67611


              NET ATOMIC CHARGES AND DIPOLE CONTRIBUTIONS

  ATOM NO.   TYPE          CHARGE      No. of ELECS.   s-Pop       p-Pop       
    1          C          -0.047057        4.0471     1.15112     2.89594
    2          C          -0.068814        4.0688     1.15534     2.91348
    3          C          -0.030255        4.0303     1.15724     2.87301
    4          C          -0.144090        4.1441     1.20468     2.93941
    5          C          -0.099580        4.0996     1.18558     2.91400
    6          C          -0.075664        4.0757     1.14593     2.92973
    7          C          -0.180874        4.1809     1.20553     2.97535
    8          H           0.059144        0.9409     0.94086
    9          H           0.059157        0.9408     0.94084
   10          H           0.058225        0.9418     0.94178
   11          H           0.058232        0.9418     0.94177
   12          H           0.111783        0.8882     0.88822
   13          H           0.116227        0.8838     0.88377
   14          H           0.091776        0.9082     0.90822
   15          H           0.091788        0.9082     0.90821
 DIPOLE           X         Y         Z       TOTAL
 POINT-CHG.    -0.315    -0.180     0.043     0.365
 HYBRID         0.059    -0.004    -0.010     0.060
 SUM           -0.256    -0.184     0.033     0.317


          ATOMIC ORBITAL ELECTRON POPULATIONS

     Atom    s        px        py        pz   
    1  C   1.15112   0.92844   0.95444   1.01306
    2  C   1.15534   0.96618   0.93675   1.01055
    3  C   1.15724   0.90406   0.94885   1.02010
    4  C   1.20468   0.96733   0.97108   1.00100
    5  C   1.18558   0.94840   0.95495   1.01065
    6  C   1.14593   0.91666   1.01270   1.00037
    7  C   1.20553   0.96013   0.99595   1.01928
    8  H   0.94086
    9  H   0.94084
   10  H   0.94178
   11  H   0.94177
   12  H   0.88822
   13  H   0.88377
   14  H   0.90822
   15  H   0.90821
 *******************************************************************************
 **                                                                           **
 **                              MOPAC v23.1.2                                **
 **                                                                           **
 *******************************************************************************
 **          Digital Object Identifier (DOI): 10.5281/zenodo.6511958          **
 **    Visit the DOI location for information on how to cite this program.    **
 *******************************************************************************

                              PM3 CALCULATION RESULTS

 *******************************************************************************
 *  CALCULATION DONE: (MAX THREADS = 1)              Tue Jun  3 16:34:32 2025  *
 *  PM3        - The PM3 Hamiltonian to be used
 *  OLDGEO     - PREVIOUS GEOMETRY TO BE USED
 *  PRECISE    - TIGHTER CRITERIA TO BE USED
 *  NOSYM      - POINT-GROUP SYMMETRY SET TO C1
 *  THREADS=1  - MULTI-THREADING NOT USED
 *  T=         - A TIME OF 172800.0 SECONDS REQUESTED
 *  DUMP=N     - RESTART FILE WRITTEN EVERY 7200.0 SECONDS REQUESTED
 *  THERMO     - THERMODYNAMIC QUANTITIES TO BE CALCULATED
 *******************************************************************************
oldgeo thermo nosym precise THREADS=1  pm3
 InChI=1S/C7H8/c1-2-7-5-3-4-6-7/h3,5H,1,4,6H2

   ATOM   CHEMICAL          X               Y               Z
  NUMBER   SYMBOL      (ANGSTROMS)     (ANGSTROMS)     (ANGSTROMS)

     1       C         -0.59213020  *  -1.02754978  *   0.05314157  *
     2       C         -1.91266470  *  -0.27717933  *   0.30928914  *
     3       C          0.44583007  *   0.05584648  *  -0.06529667  *
     4       C         -1.53696665  *   1.17227530  *   0.31863868  *
     5       C         -0.22221376  *   1.35106740  *   0.10951769  *
     6       C          2.98375462  *  -0.30299762  *  -0.50399305  *
     7       C          1.72050148  *  -0.12501562  *  -0.28556294  *
     8       H         -0.63617095  *  -1.63714078  *  -0.86727461  *
     9       H         -0.34701729  *  -1.72363974  *   0.87539541  *
    10       H         -2.66583768  *  -0.48257186  *  -0.47314147  *
    11       H         -2.37692980  *  -0.56874717  *   1.26903010  *
    12       H         -2.28142797  *   1.95085697  *   0.48050445  *
    13       H          0.31578615  *   2.29728382  *   0.06710926  *
    14       H          3.40121684  *  -0.33834261  *  -1.50697471  *
    15       H          3.70164590  *  -0.42787619  *   0.30255828  *



          CARTESIAN COORDINATES 

    NO.       ATOM           X           Y           Z

     1         C         -0.5921     -1.0275      0.0531
     2         C         -1.9127     -0.2772      0.3093
     3         C          0.4458      0.0558     -0.0653
     4         C         -1.5370      1.1723      0.3186
     5         C         -0.2222      1.3511      0.1095
     6         C          2.9838     -0.3030     -0.5040
     7         C          1.7205     -0.1250     -0.2856
     8         H         -0.6362     -1.6371     -0.8673
     9         H         -0.3470     -1.7236      0.8754
    10         H         -2.6658     -0.4826     -0.4731
    11         H         -2.3769     -0.5687      1.2690
    12         H         -2.2814      1.9509      0.4805
    13         H          0.3158      2.2973      0.0671
    14         H          3.4012     -0.3383     -1.5070
    15         H          3.7016     -0.4279      0.3026

  H: (PM3): J. J. P. STEWART, J. COMP. CHEM. 10, 209 (1989).
  C: (PM3): J. J. P. STEWART, J. COMP. CHEM. 10, 209 (1989).

           Empirical Formula: C7 H8  =    15 atoms



      MOLECULAR POINT GROUP   :   C1  


      RHF CALCULATION, NO. OF DOUBLY OCCUPIED LEVELS = 18



          HEAT OF FORMATION =      56.482369 KCALS/MOLE


          CARTESIAN COORDINATE DERIVATIVES

   NUMBER  ATOM         X            Y            Z

     1       C      0.000328    -0.000082    -0.001267
     2       C     -0.003492     0.010932     0.002295
     3       C      0.005505    -0.005473     0.000906
     4       C     -0.005040     0.005132     0.002660
     5       C     -0.011187     0.008380    -0.000514
     6       C      0.009786     0.004420    -0.003793
     7       C      0.002428    -0.009231    -0.003869
     8       H      0.003422    -0.007228    -0.003095
     9       H     -0.017268    -0.007691     0.000763
    10       H     -0.005116     0.004759     0.000446
    11       H     -0.002038    -0.000092    -0.000112
    12       H      0.004428    -0.006744     0.002197
    13       H     -0.002474     0.010569    -0.000216
    14       H      0.013103    -0.005832     0.002935
    15       H      0.007615    -0.001819     0.000664



          GRADIENT NORM =   0.04048

          MOLECULAR WEIGHT =   92.14



          ROTATIONAL CONSTANTS IN CM(-1)

          A =    0.24371700   B =    0.05986026   C =    0.04942391



           PRINCIPAL MOMENTS OF INERTIA IN UNITS OF 10**(-40)*GRAM-CM**2

          A =      114.8576   B =      467.6350   C =      566.3808


          ORIENTATION OF MOLECULE IN FORCE CALCULATION

    NO.       ATOM         X         Y         Z

     1          C       0.0589   -1.3263   -0.0001
     2          C       1.5992   -1.3263   -0.0001
     3          C      -0.3229    0.1296   -0.0001
     4          C       1.9848    0.1206    0.0001
     5          C       0.9099    0.9262    0.0001
     6          C      -2.7465    1.0721    0.0000
     7          C      -1.5404    0.6024   -0.0001
     8          H      -0.3533   -1.8445    0.8843
     9          H      -0.3536   -1.8446   -0.8843
    10          H       2.0148   -1.8435    0.8840
    11          H       2.0148   -1.8433   -0.8841
    12          H       3.0293    0.4300    0.0003
    13          H       0.9026    2.0155    0.0002
    14          H      -3.2884    1.2829    0.9184
    15          H      -3.2886    1.2832   -0.9181


    FIRST DERIVATIVES WILL BE USED IN THE CALCULATION OF SECOND DERIVATIVES

          ESTIMATED TIME TO COMPLETE CALCULATION =        1.41 SECONDS

    FOR POINT-GROUP C1   THERE ARE   1 UNIQUE SYMMETRY FUNCTIONS.

 STEP:   1 TIME =     0.01 SECS, INTEGRAL =      0.01 TIME LEFT: 172799.98
 STEP:   2 TIME =     0.01 SECS, INTEGRAL =      0.02 TIME LEFT: 172799.97
 STEP:   3 TIME =     0.01 SECS, INTEGRAL =      0.03 TIME LEFT: 172799.96
 STEP:   4 TIME =     0.01 SECS, INTEGRAL =      0.04 TIME LEFT: 172799.95
 STEP:   5 TIME =     0.01 SECS, INTEGRAL =      0.05 TIME LEFT: 172799.94
 STEP:   6 TIME =     0.01 SECS, INTEGRAL =      0.07 TIME LEFT: 172799.93
 STEP:   7 TIME =     0.01 SECS, INTEGRAL =      0.07 TIME LEFT: 172799.92
 STEP:   8 TIME =     0.01 SECS, INTEGRAL =      0.08 TIME LEFT: 172799.91
 STEP:   9 TIME =     0.01 SECS, INTEGRAL =      0.09 TIME LEFT: 172799.90
 STEP:  10 TIME =     0.01 SECS, INTEGRAL =      0.11 TIME LEFT: 172799.89
 STEP:  11 TIME =     0.01 SECS, INTEGRAL =      0.11 TIME LEFT: 172799.88
 STEP:  12 TIME =     0.01 SECS, INTEGRAL =      0.12 TIME LEFT: 172799.87
 STEP:  13 TIME =     0.01 SECS, INTEGRAL =      0.14 TIME LEFT: 172799.86
 STEP:  14 TIME =     0.01 SECS, INTEGRAL =      0.15 TIME LEFT: 172799.84
 STEP:  15 TIME =     0.01 SECS, INTEGRAL =      0.16 TIME LEFT: 172799.83
 STEP:  16 TIME =     0.01 SECS, INTEGRAL =      0.17 TIME LEFT: 172799.82
 STEP:  17 TIME =     0.01 SECS, INTEGRAL =      0.18 TIME LEFT: 172799.81
 STEP:  18 TIME =     0.01 SECS, INTEGRAL =      0.19 TIME LEFT: 172799.80
 STEP:  19 TIME =     0.01 SECS, INTEGRAL =      0.20 TIME LEFT: 172799.79
 STEP:  20 TIME =     0.01 SECS, INTEGRAL =      0.21 TIME LEFT: 172799.78
 STEP:  21 TIME =     0.01 SECS, INTEGRAL =      0.23 TIME LEFT: 172799.77
 STEP:  22 TIME =     0.01 SECS, INTEGRAL =      0.24 TIME LEFT: 172799.75
 STEP:  23 TIME =     0.01 SECS, INTEGRAL =      0.25 TIME LEFT: 172799.75
 STEP:  24 TIME =     0.01 SECS, INTEGRAL =      0.26 TIME LEFT: 172799.73
 STEP:  25 TIME =     0.01 SECS, INTEGRAL =      0.27 TIME LEFT: 172799.72
 STEP:  26 TIME =     0.01 SECS, INTEGRAL =      0.28 TIME LEFT: 172799.71
 STEP:  27 TIME =     0.01 SECS, INTEGRAL =      0.29 TIME LEFT: 172799.70
 STEP:  28 TIME =     0.01 SECS, INTEGRAL =      0.30 TIME LEFT: 172799.69
 STEP:  29 TIME =     0.01 SECS, INTEGRAL =      0.32 TIME LEFT: 172799.68
 STEP:  30 TIME =     0.01 SECS, INTEGRAL =      0.33 TIME LEFT: 172799.66
 STEP:  31 TIME =     0.01 SECS, INTEGRAL =      0.34 TIME LEFT: 172799.65
 STEP:  32 TIME =     0.01 SECS, INTEGRAL =      0.35 TIME LEFT: 172799.64
 STEP:  33 TIME =     0.01 SECS, INTEGRAL =      0.36 TIME LEFT: 172799.63
 STEP:  34 TIME =     0.01 SECS, INTEGRAL =      0.38 TIME LEFT: 172799.62
 STEP:  35 TIME =     0.01 SECS, INTEGRAL =      0.39 TIME LEFT: 172799.61
 STEP:  36 TIME =     0.01 SECS, INTEGRAL =      0.40 TIME LEFT: 172799.59
 STEP:  37 TIME =     0.01 SECS, INTEGRAL =      0.41 TIME LEFT: 172799.58
 STEP:  38 TIME =     0.01 SECS, INTEGRAL =      0.42 TIME LEFT: 172799.57
 STEP:  39 TIME =     0.02 SECS, INTEGRAL =      0.44 TIME LEFT: 172799.55
 STEP:  40 TIME =     0.01 SECS, INTEGRAL =      0.45 TIME LEFT: 172799.54
 STEP:  41 TIME =     0.02 SECS, INTEGRAL =      0.46 TIME LEFT: 172799.53
 STEP:  42 TIME =     0.01 SECS, INTEGRAL =      0.48 TIME LEFT: 172799.52
 STEP:  43 TIME =     0.01 SECS, INTEGRAL =      0.49 TIME LEFT: 172799.50
 STEP:  44 TIME =     0.02 SECS, INTEGRAL =      0.50 TIME LEFT: 172799.49
 STEP:  45 TIME =     0.01 SECS, INTEGRAL =      0.52 TIME LEFT: 172799.48

(To convert to Hartree/Bohr^2, multiply by (10^(-21) x N x a0^2)/(4.184 x 627.51) =  0.0642)


           FORCE MATRIX IN MILLIDYNES/ANGSTROM


                  C  1       C  2       C  3       C  4       C  5       C  6
 ------------------------------------------------------------------------------
     C    1  14.448553
     C    2   3.653218  14.612557
     C    3   4.288252   0.834564  19.561534
     C    4   0.885981   4.637822   1.464682  18.163072
     C    5   0.886030   1.165405   5.056623  10.221373  18.497053
     C    6   0.067409   0.006817   0.802207   0.024229   0.095159  18.133237
     C    7   0.762851   0.060884  11.083895   0.113895   1.028903  11.893687
     H    8   4.550116   0.438657   0.432756   0.028304   0.028507   0.006170
     H    9   4.549966   0.438669   0.432750   0.028315   0.028513   0.006168
     H   10   0.435716   4.529028   0.030795   0.430126   0.038922   0.001858
     H   11   0.435721   4.528996   0.030788   0.430136   0.038917   0.001859
     H   12   0.043156   0.412275   0.113047   5.030358   0.445562   0.005616
     H   13   0.039512   0.117123   0.430232   0.445054   5.035812   0.003947
     H   14   0.075371   0.003681   0.043116   0.005948   0.079463   5.006060
     H   15   0.075365   0.003682   0.043142   0.005947   0.079457   5.006198


                  C  7       H  8       H  9       H 10       H 11       H 12
 ------------------------------------------------------------------------------
     C    7  24.904590
     H    8   0.019372   5.150211
     H    9   0.019370   0.568195   5.150124
     H   10   0.005313   0.030015   0.026777   5.135529
     H   11   0.005311   0.026785   0.030018   0.571389   5.135536
     H   12   0.008233   0.003560   0.003562   0.013965   0.013956   5.423924
     H   13   0.010948   0.002780   0.002781   0.016151   0.016151   0.047084
     H   14   0.479363   0.008781   0.008784   0.001258   0.001034   0.005378
     H   15   0.479372   0.008788   0.008775   0.001034   0.001258   0.005378


                  H 13       H 14       H 15
 ------------------------------------------
     H   13   5.425392
     H   14   0.001757   5.385515
     H   15   0.001758   0.408497   5.385666


          HEAT OF FORMATION =      56.482369 KCALS/MOLE

          ZERO POINT ENERGY      78.672 KCAL/MOL


           NORMAL COORDINATE ANALYSIS (Total motion = 1 Angstrom)


   Root No.       1         2         3         4         5         6         7         8

                 1 A       2 A       3 A       4 A       5 A       6 A       7 A       8 A   

                  91.1     165.3     230.7     349.0     524.6     552.5     562.3     571.6
  
           1    0.0000    0.0259   -0.0000    0.0000   -0.0000   -0.0509    0.0000   -0.0103
           2    0.0000   -0.0385    0.0000    0.0000   -0.0000   -0.0130   -0.0000   -0.0570
           3   -0.0483   -0.0000   -0.0262   -0.0076   -0.0011    0.0000    0.0061   -0.0000
           4    0.0000    0.0282   -0.0000    0.0000   -0.0000   -0.0694    0.0000   -0.0003
           5   -0.0000    0.0132   -0.0000    0.0000    0.0000    0.0248   -0.0000    0.0086
           6    0.0541   -0.0000    0.0192   -0.0162   -0.0052   -0.0000    0.0001   -0.0000
           7    0.0000   -0.0204    0.0000    0.0000    0.0000    0.0437   -0.0000   -0.0019
           8   -0.0000   -0.0522    0.0000    0.0000    0.0000   -0.0122   -0.0000   -0.0463
           9   -0.0381    0.0000    0.0459   -0.0117    0.0557    0.0001    0.0598   -0.0001
          10   -0.0000   -0.0185    0.0000   -0.0000   -0.0000   -0.0275   -0.0000   -0.0294
          11    0.0000    0.0255    0.0000   -0.0000    0.0000    0.0285   -0.0000    0.0202
          12    0.0177   -0.0000   -0.0465    0.0516    0.0090    0.0000    0.0169   -0.0000
          13   -0.0000   -0.0451    0.0000    0.0000    0.0000   -0.0043   -0.0000   -0.0435
          14    0.0000   -0.0117   -0.0000    0.0000    0.0000    0.0523   -0.0000   -0.0114
          15   -0.0378    0.0000    0.0104   -0.0578   -0.0073   -0.0000   -0.0291    0.0001
          16    0.0000    0.0300   -0.0000   -0.0000    0.0000    0.0756   -0.0000    0.0193
          17   -0.0000    0.0777   -0.0000    0.0000   -0.0000   -0.0246   -0.0000   -0.0246
          18    0.0449   -0.0000   -0.0314   -0.0147   -0.0020   -0.0000   -0.0038    0.0000
          19   -0.0000   -0.0139    0.0000   -0.0000    0.0000    0.0456    0.0000    0.0758
          20    0.0000   -0.0351    0.0000   -0.0000   -0.0000   -0.0630    0.0002    0.1344
          21   -0.0033    0.0000    0.0527    0.0802   -0.0341   -0.0000   -0.0254    0.0001
          22   -0.0612    0.0441   -0.0330    0.0074   -0.0185   -0.0737   -0.0084    0.0064
          23   -0.0282   -0.0526   -0.0678    0.0017   -0.0969   -0.0013   -0.0618   -0.0718
          24   -0.0938    0.0001   -0.0823   -0.0033   -0.0691   -0.0022   -0.0353   -0.0010
          25    0.0612    0.0441    0.0330   -0.0074    0.0184   -0.0737    0.0085    0.0064
          26    0.0282   -0.0526    0.0678   -0.0017    0.0969   -0.0012    0.0616   -0.0721
          27   -0.0938   -0.0001   -0.0823   -0.0033   -0.0691    0.0021   -0.0353    0.0012
          28   -0.0606    0.0454   -0.0298    0.0106    0.0101   -0.0705    0.0170    0.0206
          29    0.0424    0.0272    0.0634   -0.0729   -0.0270    0.0297   -0.0537    0.0278
          30    0.1077    0.0000    0.0713   -0.0654   -0.0268    0.0024   -0.0412    0.0009
          31    0.0606    0.0454    0.0298   -0.0106   -0.0101   -0.0705   -0.0169    0.0207
          32   -0.0424    0.0272   -0.0634    0.0729    0.0270    0.0299    0.0538    0.0276
          33    0.1077   -0.0000    0.0713   -0.0654   -0.0268   -0.0025   -0.0412   -0.0007
          34   -0.0000   -0.0290    0.0000   -0.0000    0.0000   -0.0156   -0.0000   -0.0395
          35    0.0000    0.0609    0.0000   -0.0000   -0.0000   -0.0150    0.0001    0.0512
          36    0.0373   -0.0000   -0.1188    0.1410    0.0073   -0.0000   -0.0100    0.0000
          37   -0.0000   -0.0833    0.0000    0.0000    0.0000   -0.0394   -0.0001   -0.1057
          38    0.0000   -0.0119   -0.0000    0.0000    0.0000    0.0517   -0.0000   -0.0116
          39   -0.0732    0.0000    0.0095   -0.1291   -0.0544   -0.0002   -0.1781    0.0004
          40    0.0330    0.0492   -0.0737   -0.0723    0.1343    0.0956   -0.0288   -0.0124
          41   -0.0141    0.1270    0.0115    0.0875    0.2113   -0.0044   -0.1903   -0.1172
          42    0.0677   -0.0000   -0.0782   -0.0788    0.0297    0.0054    0.0238    0.0019
          43   -0.0330    0.0492    0.0737    0.0723   -0.1342    0.0958    0.0286   -0.0125
          44    0.0141    0.1270   -0.0115   -0.0874   -0.2113   -0.0038    0.1901   -0.1180
          45    0.0677    0.0000   -0.0782   -0.0789    0.0297   -0.0054    0.0239   -0.0021


   Root No.       9        10        11        12        13        14        15        16

                 9 A      10 A      11 A      12 A      13 A      14 A      15 A      16 A   

                 761.2     770.4     818.5     921.3     921.3     957.8     988.6     997.0
  
           1   -0.0588   -0.0000    0.0000   -0.0014   -0.0067    0.0000   -0.0055    0.0000
           2   -0.0247   -0.0000   -0.0000    0.0146    0.0702   -0.0000   -0.0048    0.0000
           3    0.0000    0.0026    0.0339    0.0097   -0.0018   -0.0244    0.0000    0.0330
           4   -0.0321   -0.0000    0.0000    0.0034    0.0161   -0.0000    0.0058    0.0000
           5    0.0806    0.0000   -0.0000   -0.0013   -0.0062    0.0000   -0.0024    0.0000
           6    0.0000   -0.0273    0.0252   -0.0105    0.0019    0.0182   -0.0000   -0.0357
           7   -0.0172   -0.0000    0.0000   -0.0019   -0.0092   -0.0000    0.0011    0.0000
           8   -0.0356   -0.0000    0.0000   -0.0015   -0.0071   -0.0000    0.0026    0.0000
           9   -0.0001    0.0319   -0.0199    0.0025   -0.0004    0.0317   -0.0000   -0.0237
          10    0.1136    0.0001   -0.0000    0.0020    0.0098   -0.0000   -0.0020   -0.0000
          11    0.0388    0.0000   -0.0000    0.0005    0.0025   -0.0000    0.0007   -0.0000
          12    0.0000   -0.0174   -0.0209   -0.0012    0.0002    0.0143    0.0000    0.0514
          13    0.0395    0.0000    0.0000   -0.0077   -0.0372    0.0000   -0.0016   -0.0000
          14   -0.0675   -0.0000    0.0000   -0.0120   -0.0577    0.0000   -0.0014   -0.0000
          15    0.0000   -0.0315   -0.0182    0.0123   -0.0022   -0.0471   -0.0000   -0.0218
          16   -0.0194   -0.0000   -0.0000    0.0064    0.0308   -0.0000   -0.0345    0.0000
          17    0.0053    0.0000    0.0000   -0.0025   -0.0121   -0.0000   -0.0896    0.0000
          18    0.0000   -0.0038    0.0032    0.0644   -0.0117    0.0111   -0.0000   -0.0028
          19   -0.0139   -0.0000   -0.0000    0.0030    0.0144   -0.0000    0.0128    0.0000
          20    0.0005    0.0000   -0.0000   -0.0011   -0.0051    0.0000    0.0326   -0.0000
          21    0.0000   -0.0049    0.0009   -0.0563    0.0102   -0.0151    0.0000    0.0051
          22   -0.0374    0.0496   -0.1053   -0.0054   -0.0485    0.0476   -0.0073    0.0594
          23   -0.0548   -0.0210   -0.0897   -0.0100    0.1305    0.0561   -0.0043   -0.1413
          24   -0.0057    0.0144   -0.0731   -0.0078    0.0122    0.0336   -0.0007   -0.0240
          25   -0.0372   -0.0496    0.1053   -0.0144   -0.0468   -0.0475   -0.0073   -0.0594
          26   -0.0548    0.0210    0.0897    0.0616    0.1175   -0.0561   -0.0043    0.1413
          27    0.0056    0.0144   -0.0731   -0.0121   -0.0086    0.0336    0.0007   -0.0240
          28   -0.0561   -0.0398    0.1049   -0.0033   -0.0329   -0.0739    0.0128   -0.0171
          29    0.0797    0.1147   -0.0569    0.0277   -0.0511   -0.1009    0.0027    0.1021
          30    0.0077    0.0630   -0.0619    0.0102   -0.0027   -0.0067   -0.0004    0.0353
          31   -0.0562    0.0398   -0.1049   -0.0102   -0.0316    0.0739    0.0128    0.0171
          32    0.0800   -0.1147    0.0569   -0.0461   -0.0376    0.1009    0.0027   -0.1021
          33   -0.0079    0.0630   -0.0619    0.0106   -0.0011   -0.0067    0.0004    0.0353
          34    0.1192    0.0000   -0.0000   -0.0060   -0.0288    0.0000   -0.0080    0.0000
          35    0.0239   -0.0000   -0.0000    0.0264    0.1270   -0.0000    0.0207    0.0000
          36   -0.0003    0.2997    0.0634    0.0293   -0.0053   -0.1098   -0.0000   -0.1773
          37   -0.0255   -0.0000    0.0000   -0.0268   -0.1291   -0.0000   -0.0024   -0.0000
          38   -0.0685   -0.0000   -0.0000   -0.0123   -0.0592   -0.0000   -0.0014   -0.0000
          39   -0.0001    0.1284    0.1711   -0.0740    0.0135    0.2256    0.0000    0.0814
          40   -0.0237    0.0076   -0.0232   -0.2277    0.0949   -0.0397    0.1420    0.0040
          41    0.0128   -0.0317   -0.0191    0.0852   -0.0381    0.0140    0.3633   -0.0186
          42   -0.0034    0.0085   -0.0065   -0.1006    0.0308   -0.0166    0.0002    0.0040
          43   -0.0237   -0.0077    0.0232    0.2491    0.0081    0.0397    0.1420   -0.0040
          44    0.0127    0.0318    0.0192   -0.0942   -0.0054   -0.0140    0.3633    0.0185
          45    0.0034    0.0085   -0.0065   -0.1057    0.0068   -0.0166   -0.0001    0.0040


   Root No.      17        18        19        20        21        22        23        24

                17 A      18 A      19 A      20 A      21 A      22 A      23 A      24 A   

                1041.0    1060.2    1071.6    1094.8    1106.5    1212.1    1226.9    1281.8
  
           1   -0.0574   -0.0238   -0.0000   -0.0000    0.0180    0.0194   -0.0306    0.0456
           2   -0.0349    0.0088    0.0000    0.0000   -0.0002   -0.0065    0.0070   -0.0309
           3   -0.0000   -0.0000    0.0207   -0.0433    0.0000   -0.0000    0.0000   -0.0000
           4    0.0502    0.0126    0.0000   -0.0000   -0.0230    0.0146    0.0316   -0.0365
           5   -0.0383    0.0365    0.0000   -0.0000    0.0055    0.0070   -0.0002   -0.0172
           6   -0.0000   -0.0000    0.0128    0.0478   -0.0000    0.0000   -0.0000   -0.0000
           7    0.0130   -0.0099   -0.0000   -0.0000   -0.0045   -0.0103   -0.0257   -0.0063
           8    0.0135    0.0087    0.0000    0.0000    0.0021   -0.0437    0.0103    0.0045
           9    0.0000    0.0000   -0.0263   -0.0036    0.0000   -0.0000   -0.0000   -0.0000
          10    0.0119   -0.0310   -0.0000    0.0000   -0.0014    0.0006    0.0065    0.0110
          11    0.0228   -0.0356   -0.0000    0.0000    0.0049    0.0274    0.0160    0.0030
          12    0.0000    0.0000   -0.0326   -0.0034    0.0000    0.0000    0.0000   -0.0000
          13    0.0117   -0.0087   -0.0000   -0.0000   -0.0031   -0.0154   -0.0091    0.0123
          14    0.0190   -0.0314   -0.0000   -0.0000   -0.0085    0.0093    0.0082    0.0020
          15   -0.0000   -0.0000    0.0186    0.0017   -0.0000   -0.0000   -0.0000    0.0000
          16   -0.0075    0.0170    0.0000    0.0000    0.0040   -0.0025    0.0034   -0.0221
          17    0.0078   -0.0051   -0.0000   -0.0000   -0.0019   -0.0012   -0.0011    0.0084
          18    0.0000   -0.0000   -0.0016    0.0003   -0.0000   -0.0000    0.0000    0.0000
          19   -0.0056    0.0030    0.0000   -0.0000    0.0011    0.0046   -0.0127   -0.0159
          20   -0.0065   -0.0043   -0.0000   -0.0000    0.0011    0.0063    0.0039    0.0077
          21   -0.0000    0.0000    0.0045   -0.0006    0.0000   -0.0000    0.0000   -0.0000
          22   -0.1398   -0.0177    0.1172    0.2282    0.0775   -0.1055    0.0362   -0.0684
          23    0.0115    0.0169   -0.1297   -0.0640   -0.0572    0.1110   -0.0745    0.0852
          24   -0.0106    0.0051    0.0005    0.0264   -0.0039    0.0098   -0.0147    0.0133
          25   -0.1398   -0.0176   -0.1172   -0.2280    0.0777   -0.1055    0.0362   -0.0685
          26    0.0115    0.0168    0.1297    0.0639   -0.0572    0.1111   -0.0745    0.0852
          27    0.0106   -0.0051    0.0006    0.0264    0.0039   -0.0098    0.0147   -0.0132
          28    0.0715    0.1218   -0.1559    0.1975   -0.1104   -0.0546   -0.0092    0.0170
          29   -0.0350    0.1544   -0.1355    0.0308   -0.0659   -0.0554   -0.0801    0.0675
          30   -0.0090    0.0149    0.0081   -0.0274   -0.0006   -0.0037   -0.0238    0.0215
          31    0.0715    0.1217    0.1560   -0.1975   -0.1104   -0.0546   -0.0092    0.0170
          32   -0.0350    0.1543    0.1355   -0.0308   -0.0660   -0.0554   -0.0801    0.0675
          33    0.0090   -0.0148    0.0081   -0.0274    0.0006    0.0036    0.0238   -0.0215
          34   -0.0489   -0.0412   -0.0000   -0.0000   -0.0695    0.0476    0.0451   -0.0087
          35    0.2312   -0.0019    0.0000    0.0001    0.2283   -0.1276   -0.1075    0.0697
          36   -0.0000   -0.0000    0.0641    0.0144    0.0000   -0.0000   -0.0000    0.0000
          37    0.0451    0.2368    0.0001    0.0000    0.2130    0.1970    0.0394   -0.0285
          38    0.0216   -0.0330   -0.0000   -0.0000   -0.0078    0.0103    0.0097    0.0022
          39    0.0000    0.0000   -0.0403    0.0002    0.0000    0.0000    0.0000   -0.0000
          40   -0.0265    0.0405    0.0035   -0.0001    0.0139   -0.0270    0.1496    0.1410
          41   -0.0038   -0.0203   -0.0066    0.0022   -0.0045    0.0112   -0.0585   -0.0546
          42   -0.0073    0.0150    0.0020   -0.0003    0.0056   -0.0158    0.0912    0.1040
          43   -0.0265    0.0405   -0.0034    0.0002    0.0139   -0.0270    0.1495    0.1410
          44   -0.0038   -0.0203    0.0065   -0.0022   -0.0045    0.0112   -0.0584   -0.0545
          45    0.0073   -0.0150    0.0020   -0.0003   -0.0056    0.0158   -0.0913   -0.1041


   Root No.      25        26        27        28        29        30        31        32

                25 A      26 A      27 A      28 A      29 A      30 A      31 A      32 A   

                1347.6    1373.4    1394.8    1412.7    1577.5    1803.1    2272.4    2974.6
  
           1   -0.0217    0.0304    0.0103    0.0240   -0.0269    0.0051    0.0036    0.0000
           2    0.0221   -0.0189    0.0576    0.0257    0.0387    0.0055   -0.0078    0.0000
           3    0.0000   -0.0000   -0.0000   -0.0000    0.0000    0.0000   -0.0000    0.0256
           4   -0.0465   -0.0338   -0.0025   -0.0225   -0.0013    0.0084    0.0022    0.0000
           5   -0.0424   -0.0228   -0.0568    0.0398    0.0005   -0.0181   -0.0029    0.0000
           6   -0.0000   -0.0000   -0.0000    0.0000   -0.0000   -0.0000    0.0000   -0.0360
           7   -0.0160    0.0157   -0.0159   -0.0054    0.1684   -0.0274   -0.1730    0.0000
           8   -0.0353    0.0757   -0.0383   -0.0273   -0.0416    0.0049    0.0655    0.0000
           9   -0.0000    0.0000   -0.0000   -0.0000    0.0000   -0.0000   -0.0000    0.0001
          10    0.0206    0.0162    0.0118   -0.0076   -0.0269   -0.1755    0.0094    0.0000
          11    0.0331    0.0494    0.0182   -0.0254    0.0236    0.1626   -0.0030   -0.0000
          12    0.0000    0.0000    0.0000   -0.0000   -0.0000   -0.0000    0.0000   -0.0000
          13    0.0025   -0.0557    0.0032    0.0207   -0.0394    0.2070    0.0030   -0.0000
          14    0.0124   -0.0467    0.0160    0.0087   -0.0389   -0.1213    0.0064   -0.0000
          15    0.0000   -0.0000    0.0000    0.0000   -0.0000    0.0000    0.0000   -0.0001
          16    0.0038    0.0198    0.0019   -0.0064   -0.1252    0.0073   -0.1376    0.0000
          17   -0.0025   -0.0059   -0.0018    0.0018    0.0492   -0.0025    0.0536   -0.0000
          18   -0.0000   -0.0000   -0.0000    0.0000    0.0000   -0.0000    0.0000    0.0000
          19    0.0025    0.0016    0.0016    0.0004    0.0324   -0.0051    0.3031   -0.0000
          20    0.0026   -0.0061    0.0037    0.0025   -0.0147   -0.0032   -0.1176    0.0000
          21    0.0000    0.0000    0.0000   -0.0000   -0.0000    0.0000   -0.0000    0.0000
          22    0.1255   -0.0659   -0.0639   -0.1070    0.0421    0.0020   -0.0069    0.0717
          23    0.0571   -0.0709   -0.1327   -0.0695   -0.0314    0.0008    0.0016    0.0932
          24    0.0789   -0.0665   -0.1266   -0.1017   -0.0075   -0.0056   -0.0032   -0.1541
          25    0.1255   -0.0659   -0.0639   -0.1070    0.0421    0.0020   -0.0069   -0.0718
          26    0.0571   -0.0709   -0.1327   -0.0695   -0.0314    0.0008    0.0016   -0.0932
          27   -0.0790    0.0665    0.1266    0.1017    0.0074    0.0056    0.0032   -0.1542
          28    0.1636    0.0740   -0.0235    0.1088    0.0051   -0.0196    0.0022    0.1039
          29   -0.0158   -0.0237    0.1308   -0.1073   -0.0056   -0.0321   -0.0007   -0.1316
          30   -0.0728   -0.0446    0.1042   -0.1287   -0.0080   -0.0007    0.0037    0.2172
          31    0.1636    0.0740   -0.0235    0.1088    0.0051   -0.0196    0.0022   -0.1039
          32   -0.0159   -0.0237    0.1308   -0.1074   -0.0056   -0.0321   -0.0007    0.1316
          33    0.0728    0.0446   -0.1042    0.1287    0.0080    0.0007   -0.0037    0.2172
          34    0.0274    0.0566    0.0181   -0.0303   -0.0126   -0.1409    0.0169   -0.0000
          35    0.0163   -0.0852    0.0026    0.0462   -0.0482   -0.1039    0.0046   -0.0000
          36    0.0000    0.0000    0.0000    0.0000   -0.0000   -0.0000    0.0000   -0.0007
          37    0.0681    0.0625    0.0404   -0.0259    0.0589   -0.0596   -0.0087   -0.0000
          38    0.0139   -0.0479    0.0176    0.0076   -0.0458   -0.1651    0.0140   -0.0000
          39    0.0000    0.0000    0.0000   -0.0000    0.0000   -0.0000   -0.0000   -0.0004
          40   -0.0104   -0.0326   -0.0034    0.0074    0.0418   -0.0005   -0.0631   -0.0001
          41    0.0033    0.0141    0.0006   -0.0034   -0.0159    0.0002    0.0245   -0.0003
          42   -0.0094   -0.0347   -0.0036    0.0094    0.1243   -0.0070    0.1080    0.0000
          43   -0.0104   -0.0326   -0.0034    0.0074    0.0417   -0.0005   -0.0631    0.0001
          44    0.0033    0.0141    0.0006   -0.0034   -0.0159    0.0002    0.0246    0.0003
          45    0.0094    0.0347    0.0036   -0.0094   -0.1243    0.0070   -0.1080    0.0000


   Root No.      33        34        35        36        37        38        39

                33 A      34 A      35 A      36 A      37 A      38 A      39 A   

                2990.0    3056.7    3061.5    3114.4    3119.0    3119.1    3137.2
  
           1   -0.0000    0.0083    0.0185   -0.0001    0.0001   -0.0000    0.0010
           2   -0.0000    0.0096    0.0236   -0.0003   -0.0000    0.0000    0.0013
           3   -0.0360   -0.0000   -0.0000   -0.0000   -0.0000   -0.0000   -0.0000
           4    0.0000    0.0191   -0.0071    0.0000   -0.0002    0.0000   -0.0012
           5    0.0000   -0.0237    0.0097   -0.0000    0.0001   -0.0000    0.0018
           6   -0.0253   -0.0000   -0.0000    0.0000   -0.0000    0.0000   -0.0000
           7   -0.0000   -0.0004   -0.0001    0.0007    0.0002   -0.0000    0.0017
           8   -0.0000    0.0004    0.0005   -0.0003   -0.0002    0.0000   -0.0001
           9   -0.0001    0.0000    0.0000   -0.0000   -0.0000   -0.0002    0.0000
          10    0.0000   -0.0011    0.0007    0.0016   -0.0370    0.0002   -0.0390
          11    0.0000   -0.0008    0.0003    0.0005   -0.0109    0.0001   -0.0064
          12   -0.0001   -0.0000    0.0000    0.0000   -0.0000   -0.0000   -0.0000
          13    0.0000   -0.0002   -0.0000    0.0002    0.0002   -0.0000    0.0048
          14    0.0000   -0.0002    0.0003   -0.0008    0.0359   -0.0002   -0.0421
          15   -0.0002   -0.0000   -0.0000   -0.0000    0.0000   -0.0000   -0.0000
          16   -0.0000    0.0000    0.0000    0.0431    0.0015   -0.0003    0.0005
          17    0.0000   -0.0000   -0.0000   -0.0168   -0.0006    0.0001   -0.0002
          18   -0.0000   -0.0000   -0.0000   -0.0003   -0.0003   -0.0646    0.0000
          19    0.0000    0.0002    0.0002   -0.0078   -0.0003    0.0000   -0.0007
          20   -0.0000   -0.0000   -0.0000    0.0030    0.0003   -0.0000    0.0001
          21   -0.0000    0.0000    0.0000   -0.0000   -0.0000   -0.0004    0.0000
          22   -0.1065   -0.0456   -0.1133    0.0007    0.0001   -0.0000   -0.0027
          23   -0.1310   -0.0584   -0.1411    0.0008   -0.0003   -0.0000   -0.0034
          24    0.2162    0.1137    0.2766   -0.0015    0.0003    0.0000    0.0067
          25    0.1066   -0.0456   -0.1133    0.0007    0.0001    0.0000   -0.0027
          26    0.1310   -0.0584   -0.1410    0.0008   -0.0003    0.0000   -0.0034
          27    0.2162   -0.1136   -0.2764    0.0015   -0.0003    0.0000   -0.0067
          28    0.0769   -0.1138    0.0472   -0.0000    0.0006   -0.0000    0.0043
          29   -0.0925    0.1417   -0.0572    0.0001   -0.0031    0.0000   -0.0071
          30    0.1522   -0.2777    0.1128   -0.0001    0.0039   -0.0000    0.0122
          31   -0.0769   -0.1138    0.0472   -0.0000    0.0006    0.0000    0.0043
          32    0.0924    0.1417   -0.0571    0.0001   -0.0031    0.0000   -0.0071
          33    0.1522    0.2778   -0.1128    0.0001   -0.0039    0.0000   -0.0122
          34    0.0000    0.0115   -0.0120   -0.0195    0.4361   -0.0026    0.3965
          35    0.0000    0.0019   -0.0033   -0.0058    0.1323   -0.0008    0.1177
          36   -0.0006    0.0000   -0.0000   -0.0000    0.0001    0.0000    0.0001
          37    0.0000   -0.0004   -0.0001   -0.0000    0.0004   -0.0000   -0.0030
          38    0.0000    0.0062   -0.0101    0.0107   -0.4254    0.0026    0.4440
          39   -0.0003    0.0000   -0.0000    0.0000   -0.0000   -0.0000    0.0000
          40    0.0001   -0.0003   -0.0006   -0.2164   -0.0086   -0.2356   -0.0019
          41    0.0003    0.0001    0.0003    0.0842    0.0033    0.0916    0.0008
          42   -0.0000    0.0006    0.0012    0.3920    0.0154    0.3866    0.0035
          43   -0.0001   -0.0003   -0.0006   -0.2142   -0.0061    0.2382   -0.0019
          44   -0.0003    0.0001    0.0003    0.0834    0.0023   -0.0927    0.0008
          45   -0.0000   -0.0006   -0.0012   -0.3881   -0.0112    0.3909   -0.0035


           MASS-WEIGHTED COORDINATE ANALYSIS (NORMAL COORDINATES)


   Root No.       1         2         3         4         5         6         7         8

                 1 A       2 A       3 A       4 A       5 A       6 A       7 A       8 A   

                  91.1     165.3     230.7     349.0     524.6     552.5     562.3     571.6
  
           1    0.0000    0.1705   -0.0000    0.0000   -0.0001   -0.2900    0.0002   -0.0527
           2    0.0000   -0.2530    0.0000    0.0000   -0.0000   -0.0744   -0.0003   -0.2908
           3   -0.3690   -0.0000   -0.2060   -0.0524   -0.0079    0.0000    0.0484   -0.0000
           4    0.0000    0.1852   -0.0000    0.0000   -0.0001   -0.3955    0.0004   -0.0017
           5   -0.0000    0.0869   -0.0000    0.0000    0.0000    0.1417   -0.0001    0.0437
           6    0.4135   -0.0000    0.1515   -0.1120   -0.0384   -0.0000    0.0006   -0.0000
           7    0.0000   -0.1344    0.0000    0.0000    0.0000    0.2494   -0.0003   -0.0095
           8   -0.0000   -0.3432    0.0000    0.0000    0.0000   -0.0694   -0.0003   -0.2363
           9   -0.2908    0.0000    0.3618   -0.0810    0.4149    0.0003    0.4721   -0.0006
          10   -0.0000   -0.1215    0.0001   -0.0000   -0.0000   -0.1567   -0.0001   -0.1500
          11    0.0000    0.1674    0.0000   -0.0000    0.0000    0.1624   -0.0000    0.1030
          12    0.1352   -0.0000   -0.3665    0.3556    0.0671    0.0001    0.1334   -0.0002
          13   -0.0000   -0.2967    0.0000    0.0001    0.0000   -0.0248   -0.0003   -0.2218
          14    0.0000   -0.0772   -0.0000    0.0000    0.0001    0.2983   -0.0003   -0.0584
          15   -0.2887    0.0000    0.0820   -0.3985   -0.0545   -0.0002   -0.2295    0.0003
          16    0.0000    0.1972   -0.0001   -0.0001    0.0001    0.4307   -0.0003    0.0986
          17   -0.0000    0.5106   -0.0000    0.0000   -0.0000   -0.1402   -0.0000   -0.1256
          18    0.3430   -0.0000   -0.2475   -0.1013   -0.0151   -0.0000   -0.0300    0.0000
          19   -0.0000   -0.0913    0.0000   -0.0000    0.0000    0.2597    0.0003    0.3868
          20    0.0000   -0.2307    0.0000   -0.0000   -0.0001   -0.3594    0.0013    0.6862
          21   -0.0248    0.0000    0.4150    0.5534   -0.2541   -0.0001   -0.2007    0.0003
          22   -0.1355    0.0840   -0.0752    0.0149   -0.0398   -0.1218   -0.0192    0.0095
          23   -0.0624   -0.1002   -0.1547    0.0033   -0.2089   -0.0021   -0.1412   -0.1062
          24   -0.2076    0.0002   -0.1878   -0.0066   -0.1490   -0.0036   -0.0807   -0.0015
          25    0.1354    0.0841    0.0752   -0.0149    0.0398   -0.1217    0.0195    0.0095
          26    0.0624   -0.1002    0.1547   -0.0033    0.2088   -0.0019    0.1409   -0.1066
          27   -0.2076   -0.0002   -0.1878   -0.0066   -0.1490    0.0035   -0.0807    0.0017
          28   -0.1340    0.0864   -0.0681    0.0212    0.0217   -0.1163    0.0389    0.0305
          29    0.0938    0.0518    0.1446   -0.1457   -0.0583    0.0491   -0.1228    0.0411
          30    0.2384    0.0001    0.1626   -0.1307   -0.0577    0.0040   -0.0943    0.0013
          31    0.1340    0.0864    0.0681   -0.0212   -0.0218   -0.1164   -0.0386    0.0306
          32   -0.0938    0.0518   -0.1446    0.1457    0.0583    0.0493    0.1228    0.0408
          33    0.2384   -0.0001    0.1626   -0.1306   -0.0577   -0.0042   -0.0942   -0.0011
          34   -0.0000   -0.0553    0.0000   -0.0000    0.0000   -0.0257   -0.0000   -0.0584
          35    0.0000    0.1160    0.0000   -0.0000   -0.0000   -0.0247    0.0001    0.0757
          36    0.0826   -0.0000   -0.2711    0.2817    0.0158   -0.0000   -0.0229    0.0000
          37   -0.0000   -0.1587    0.0000    0.0000    0.0000   -0.0651   -0.0001   -0.1563
          38    0.0000   -0.0226   -0.0000    0.0000    0.0000    0.0853   -0.0001   -0.0171
          39   -0.1619    0.0000    0.0217   -0.2579   -0.1173   -0.0003   -0.4069    0.0005
          40    0.0730    0.0937   -0.1682   -0.1445    0.2896    0.1578   -0.0658   -0.0183
          41   -0.0313    0.2419    0.0263    0.1748    0.4556   -0.0072   -0.4350   -0.1733
          42    0.1498   -0.0000   -0.1785   -0.1575    0.0641    0.0090    0.0544    0.0029
          43   -0.0729    0.0937    0.1681    0.1445   -0.2894    0.1581    0.0655   -0.0185
          44    0.0313    0.2419   -0.0263   -0.1747   -0.4556   -0.0062    0.4345   -0.1746
          45    0.1498    0.0000   -0.1785   -0.1576    0.0640   -0.0090    0.0546   -0.0030


   Root No.       9        10        11        12        13        14        15        16

                 9 A      10 A      11 A      12 A      13 A      14 A      15 A      16 A   

                 761.2     770.4     818.5     921.3     921.3     957.8     988.6     997.0
  
           1   -0.3001   -0.0002    0.0000   -0.0093   -0.0478    0.0000   -0.0290    0.0000
           2   -0.1261   -0.0001   -0.0000    0.0981    0.5041   -0.0001   -0.0252    0.0001
           3    0.0000    0.0205    0.2964    0.0649   -0.0127   -0.2060    0.0000    0.2658
           4   -0.1635   -0.0001    0.0000    0.0225    0.1156   -0.0000    0.0307    0.0000
           5    0.4111    0.0003   -0.0001   -0.0087   -0.0447    0.0000   -0.0125    0.0000
           6    0.0002   -0.2165    0.2203   -0.0702    0.0137    0.1533   -0.0000   -0.2879
           7   -0.0876   -0.0001    0.0000   -0.0129   -0.0662   -0.0000    0.0058    0.0000
           8   -0.1816   -0.0001    0.0001   -0.0099   -0.0508   -0.0000    0.0138    0.0000
           9   -0.0003    0.2531   -0.1742    0.0169   -0.0032    0.2669   -0.0000   -0.1908
          10    0.5794    0.0004   -0.0001    0.0137    0.0705   -0.0000   -0.0104   -0.0000
          11    0.1978    0.0001   -0.0000    0.0035    0.0181   -0.0000    0.0035   -0.0001
          12    0.0001   -0.1380   -0.1833   -0.0080    0.0015    0.1210    0.0000    0.4148
          13    0.2016    0.0002    0.0000   -0.0520   -0.2674    0.0001   -0.0086   -0.0000
          14   -0.3441   -0.0002    0.0001   -0.0806   -0.4139    0.0001   -0.0074   -0.0001
          15    0.0001   -0.2500   -0.1597    0.0825   -0.0161   -0.3974   -0.0000   -0.1761
          16   -0.0987   -0.0001   -0.0000    0.0430    0.2209   -0.0000   -0.1816    0.0000
          17    0.0271    0.0000    0.0000   -0.0170   -0.0871   -0.0000   -0.4711    0.0000
          18    0.0000   -0.0301    0.0280    0.4327   -0.0842    0.0934   -0.0000   -0.0229
          19   -0.0709   -0.0001   -0.0000    0.0202    0.1036   -0.0000    0.0674    0.0000
          20    0.0025    0.0000   -0.0000   -0.0071   -0.0364    0.0000    0.1712   -0.0000
          21    0.0000   -0.0387    0.0081   -0.3778    0.0735   -0.1277    0.0000    0.0411
          22   -0.0552    0.1140   -0.2670   -0.0105   -0.1007    0.1162   -0.0111    0.1388
          23   -0.0809   -0.0483   -0.2275   -0.0195    0.2714    0.1370   -0.0065   -0.3301
          24   -0.0084    0.0332   -0.1853   -0.0152    0.0254    0.0821   -0.0010   -0.0561
          25   -0.0550   -0.1141    0.2669   -0.0280   -0.0973   -0.1161   -0.0111   -0.1388
          26   -0.0809    0.0482    0.2275    0.1199    0.2442   -0.1371   -0.0065    0.3301
          27    0.0083    0.0332   -0.1853   -0.0236   -0.0178    0.0821    0.0010   -0.0561
          28   -0.0828   -0.0916    0.2660   -0.0063   -0.0685   -0.1805    0.0195   -0.0399
          29    0.1178    0.2638   -0.1443    0.0538   -0.1061   -0.2463    0.0042    0.2384
          30    0.0114    0.1450   -0.1570    0.0199   -0.0056   -0.0165   -0.0006    0.0826
          31   -0.0830    0.0914   -0.2659   -0.0198   -0.0658    0.1805    0.0195    0.0399
          32    0.1182   -0.2636    0.1443   -0.0897   -0.0781    0.2464    0.0042   -0.2384
          33   -0.0116    0.1449   -0.1570    0.0205   -0.0023   -0.0164    0.0006    0.0825
          34    0.1761    0.0000   -0.0000   -0.0116   -0.0598    0.0000   -0.0122    0.0000
          35    0.0354   -0.0000   -0.0000    0.0514    0.2640   -0.0000    0.0315    0.0000
          36   -0.0004    0.6890    0.1607    0.0571   -0.0111   -0.2682   -0.0000   -0.4140
          37   -0.0376   -0.0000    0.0000   -0.0522   -0.2684   -0.0000   -0.0036   -0.0000
          38   -0.1012   -0.0001   -0.0000   -0.0240   -0.1232   -0.0000   -0.0021   -0.0000
          39   -0.0001    0.2953    0.4338   -0.1440    0.0281    0.5512    0.0000    0.1900
          40   -0.0350    0.0176   -0.0589   -0.4429    0.1973   -0.0970    0.2163    0.0095
          41    0.0188   -0.0730   -0.0486    0.1657   -0.0791    0.0342    0.5533   -0.0433
          42   -0.0050    0.0196   -0.0165   -0.1957    0.0640   -0.0404    0.0002    0.0094
          43   -0.0350   -0.0176    0.0589    0.4845    0.0168    0.0970    0.2163   -0.0094
          44    0.0188    0.0730    0.0486   -0.1832   -0.0112   -0.0342    0.5534    0.0433
          45    0.0050    0.0196   -0.0165   -0.2056    0.0140   -0.0405   -0.0001    0.0094


   Root No.      17        18        19        20        21        22        23        24

                17 A      18 A      19 A      20 A      21 A      22 A      23 A      24 A   

                1041.0    1060.2    1071.6    1094.8    1106.5    1212.1    1226.9    1281.8
  
           1   -0.4099   -0.1778   -0.0001   -0.0000    0.1521    0.1649   -0.2709    0.3729
           2   -0.2492    0.0661    0.0000    0.0000   -0.0019   -0.0557    0.0618   -0.2526
           3   -0.0000   -0.0001    0.1665   -0.3017    0.0001   -0.0000    0.0000   -0.0000
           4    0.3584    0.0943    0.0001   -0.0001   -0.1945    0.1239    0.2796   -0.2986
           5   -0.2733    0.2728    0.0001   -0.0000    0.0461    0.0598   -0.0022   -0.1407
           6   -0.0001   -0.0000    0.1032    0.3335   -0.0001    0.0000   -0.0000   -0.0000
           7    0.0928   -0.0743   -0.0000   -0.0000   -0.0381   -0.0878   -0.2278   -0.0514
           8    0.0964    0.0649    0.0001    0.0000    0.0176   -0.3716    0.0915    0.0366
           9    0.0000    0.0001   -0.2110   -0.0251    0.0000   -0.0000   -0.0000   -0.0000
          10    0.0849   -0.2316   -0.0001    0.0000   -0.0115    0.0047    0.0573    0.0903
          11    0.1625   -0.2661   -0.0001    0.0000    0.0417    0.2331    0.1412    0.0242
          12    0.0001    0.0001   -0.2619   -0.0236    0.0000    0.0000    0.0000   -0.0000
          13    0.0832   -0.0648   -0.0001   -0.0000   -0.0261   -0.1309   -0.0806    0.1003
          14    0.1356   -0.2347   -0.0001   -0.0000   -0.0720    0.0795    0.0721    0.0165
          15   -0.0000   -0.0001    0.1497    0.0121   -0.0000   -0.0000   -0.0000    0.0000
          16   -0.0539    0.1274    0.0001    0.0000    0.0339   -0.0215    0.0301   -0.1812
          17    0.0558   -0.0382   -0.0000   -0.0000   -0.0163   -0.0100   -0.0100    0.0690
          18    0.0000   -0.0000   -0.0129    0.0021   -0.0000   -0.0000    0.0000    0.0000
          19   -0.0396    0.0226    0.0000   -0.0000    0.0094    0.0392   -0.1126   -0.1298
          20   -0.0464   -0.0322   -0.0000   -0.0000    0.0094    0.0532    0.0346    0.0629
          21   -0.0000    0.0000    0.0360   -0.0043    0.0000   -0.0000    0.0000   -0.0000
          22   -0.2890   -0.0384    0.2725    0.4608    0.1897   -0.2600    0.0928   -0.1623
          23    0.0237    0.0367   -0.3017   -0.1293   -0.1399    0.2736   -0.1910    0.2019
          24   -0.0219    0.0110    0.0012    0.0532   -0.0096    0.0242   -0.0378    0.0314
          25   -0.2891   -0.0382   -0.2725   -0.4605    0.1901   -0.2601    0.0928   -0.1623
          26    0.0237    0.0364    0.3017    0.1291   -0.1401    0.2738   -0.1911    0.2020
          27    0.0220   -0.0110    0.0013    0.0534    0.0095   -0.0241    0.0377   -0.0314
          28    0.1477    0.2638   -0.3626    0.3988   -0.2703   -0.1345   -0.0237    0.0404
          29   -0.0723    0.3344   -0.3151    0.0622   -0.1614   -0.1364   -0.2053    0.1601
          30   -0.0187    0.0322    0.0188   -0.0553   -0.0015   -0.0090   -0.0610    0.0509
          31    0.1477    0.2635    0.3628   -0.3989   -0.2702   -0.1346   -0.0237    0.0404
          32   -0.0724    0.3341    0.3153   -0.0622   -0.1615   -0.1365   -0.2053    0.1601
          33    0.0187   -0.0321    0.0188   -0.0553    0.0015    0.0090    0.0609   -0.0509
          34   -0.1010   -0.0892   -0.0001   -0.0001   -0.1701    0.1174    0.1155   -0.0206
          35    0.4781   -0.0041    0.0001    0.0002    0.5587   -0.3145   -0.2756    0.1652
          36   -0.0000   -0.0001    0.1490    0.0291    0.0000   -0.0000   -0.0000    0.0000
          37    0.0933    0.5130    0.0003    0.0001    0.5213    0.4855    0.1010   -0.0675
          38    0.0446   -0.0715   -0.0000   -0.0000   -0.0192    0.0254    0.0248    0.0052
          39    0.0000    0.0001   -0.0938    0.0004    0.0000    0.0000    0.0000   -0.0000
          40   -0.0549    0.0878    0.0081   -0.0003    0.0339   -0.0665    0.3834    0.3343
          41   -0.0079   -0.0441   -0.0153    0.0044   -0.0109    0.0275   -0.1499   -0.1293
          42   -0.0152    0.0325    0.0047   -0.0007    0.0137   -0.0388    0.2339    0.2465
          43   -0.0548    0.0878   -0.0080    0.0003    0.0339   -0.0665    0.3834    0.3343
          44   -0.0079   -0.0441    0.0152   -0.0044   -0.0109    0.0275   -0.1498   -0.1292
          45    0.0152   -0.0325    0.0047   -0.0007   -0.0137    0.0388   -0.2341   -0.2467


   Root No.      25        26        27        28        29        30        31        32

                25 A      26 A      27 A      28 A      29 A      30 A      31 A      32 A   

                1347.6    1373.4    1394.8    1412.7    1577.5    1803.1    2272.4    2974.6
  
           1   -0.1605    0.2010    0.0721    0.1846   -0.1098    0.0147    0.0089    0.0000
           2    0.1630   -0.1253    0.4025    0.1978    0.1580    0.0157   -0.0191    0.0000
           3    0.0000   -0.0000   -0.0000   -0.0000    0.0000    0.0000   -0.0000    0.1768
           4   -0.3433   -0.2238   -0.0175   -0.1735   -0.0053    0.0240    0.0054    0.0000
           5   -0.3131   -0.1509   -0.3974    0.3061    0.0021   -0.0518   -0.0071    0.0000
           6   -0.0000   -0.0000   -0.0000    0.0000   -0.0000   -0.0000    0.0000   -0.2492
           7   -0.1179    0.1036   -0.1115   -0.0413    0.6869   -0.0786   -0.4262    0.0000
           8   -0.2607    0.5009   -0.2680   -0.2103   -0.1698    0.0140    0.1614    0.0000
           9   -0.0000    0.0000   -0.0000   -0.0000    0.0000   -0.0000   -0.0000    0.0004
          10    0.1519    0.1074    0.0824   -0.0582   -0.1097   -0.5033    0.0231    0.0000
          11    0.2449    0.3268    0.1275   -0.1955    0.0964    0.4663   -0.0075   -0.0000
          12    0.0000    0.0000    0.0000   -0.0000   -0.0000   -0.0000    0.0000   -0.0002
          13    0.0183   -0.3684    0.0224    0.1595   -0.1605    0.5939    0.0075   -0.0000
          14    0.0915   -0.3089    0.1121    0.0668   -0.1586   -0.3481    0.0157   -0.0000
          15    0.0000   -0.0000    0.0000    0.0000   -0.0000    0.0000    0.0000   -0.0006
          16    0.0283    0.1311    0.0131   -0.0495   -0.5105    0.0210   -0.3390    0.0000
          17   -0.0187   -0.0390   -0.0129    0.0139    0.2005   -0.0073    0.1320   -0.0000
          18   -0.0000   -0.0000   -0.0000    0.0000    0.0001   -0.0000    0.0000    0.0001
          19    0.0184    0.0103    0.0113    0.0029    0.1320   -0.0146    0.7468   -0.0000
          20    0.0191   -0.0404    0.0259    0.0194   -0.0601   -0.0091   -0.2897    0.0000
          21    0.0000    0.0000    0.0000   -0.0000   -0.0001    0.0000   -0.0000    0.0001
          22    0.2686   -0.1262   -0.1295   -0.2387    0.0497    0.0016   -0.0050    0.1438
          23    0.1223   -0.1358   -0.2687   -0.1551   -0.0371    0.0006    0.0012    0.1867
          24    0.1689   -0.1275   -0.2564   -0.2268   -0.0088   -0.0047   -0.0023   -0.3089
          25    0.2687   -0.1262   -0.1294   -0.2387    0.0497    0.0016   -0.0050   -0.1439
          26    0.1223   -0.1358   -0.2687   -0.1551   -0.0371    0.0006    0.0012   -0.1868
          27   -0.1690    0.1275    0.2564    0.2269    0.0088    0.0047    0.0023   -0.3090
          28    0.3502    0.1418   -0.0477    0.2426    0.0061   -0.0163    0.0016    0.2082
          29   -0.0339   -0.0454    0.2650   -0.2394   -0.0066   -0.0267   -0.0005   -0.2637
          30   -0.1559   -0.0855    0.2111   -0.2871   -0.0094   -0.0006    0.0026    0.4352
          31    0.3502    0.1418   -0.0477    0.2426    0.0061   -0.0163    0.0016   -0.2082
          32   -0.0339   -0.0454    0.2650   -0.2394   -0.0066   -0.0267   -0.0005    0.2637
          33    0.1559    0.0855   -0.2111    0.2871    0.0094    0.0006   -0.0026    0.4353
          34    0.0587    0.1085    0.0366   -0.0676   -0.0148   -0.1171    0.0120   -0.0000
          35    0.0349   -0.1632    0.0052    0.1031   -0.0570   -0.0864    0.0033   -0.0000
          36    0.0000    0.0000    0.0000    0.0000   -0.0000   -0.0000    0.0000   -0.0014
          37    0.1458    0.1198    0.0818   -0.0577    0.0696   -0.0495   -0.0062   -0.0000
          38    0.0297   -0.0917    0.0357    0.0170   -0.0542   -0.1372    0.0100   -0.0000
          39    0.0000    0.0000    0.0000   -0.0000    0.0000   -0.0000   -0.0000   -0.0007
          40   -0.0223   -0.0624   -0.0068    0.0166    0.0494   -0.0004   -0.0450   -0.0002
          41    0.0072    0.0271    0.0012   -0.0076   -0.0188    0.0002    0.0175   -0.0005
          42   -0.0202   -0.0664   -0.0072    0.0209    0.1468   -0.0058    0.0771    0.0001
          43   -0.0222   -0.0624   -0.0068    0.0166    0.0493   -0.0004   -0.0451    0.0002
          44    0.0072    0.0271    0.0012   -0.0076   -0.0188    0.0002    0.0175    0.0005
          45    0.0202    0.0664    0.0072   -0.0209   -0.1469    0.0058   -0.0771    0.0001


   Root No.      33        34        35        36        37        38        39

                33 A      34 A      35 A      36 A      37 A      38 A      39 A   

                2990.0    3056.7    3061.5    3114.4    3119.0    3119.1    3137.2
  
           1   -0.0001    0.0549    0.1235   -0.0004    0.0007   -0.0000    0.0054
           2   -0.0000    0.0640    0.1576   -0.0013   -0.0001    0.0000    0.0073
           3   -0.2488   -0.0000   -0.0001   -0.0000   -0.0000   -0.0001   -0.0000
           4    0.0000    0.1270   -0.0476    0.0001   -0.0013    0.0000   -0.0067
           5    0.0000   -0.1573    0.0647   -0.0000    0.0006   -0.0000    0.0100
           6   -0.1753   -0.0000   -0.0000    0.0000   -0.0000    0.0000   -0.0000
           7   -0.0000   -0.0029   -0.0006    0.0034    0.0012   -0.0000    0.0093
           8   -0.0000    0.0030    0.0032   -0.0017   -0.0009    0.0000   -0.0007
           9   -0.0005    0.0000    0.0000   -0.0000   -0.0000   -0.0011    0.0000
          10    0.0000   -0.0070    0.0048    0.0084   -0.1968    0.0011   -0.2108
          11    0.0000   -0.0055    0.0020    0.0026   -0.0578    0.0003   -0.0346
          12   -0.0006   -0.0000    0.0000    0.0000   -0.0000   -0.0000   -0.0000
          13    0.0000   -0.0015   -0.0003    0.0010    0.0013   -0.0000    0.0258
          14    0.0000   -0.0013    0.0022   -0.0043    0.1909   -0.0011   -0.2273
          15   -0.0016   -0.0000   -0.0000   -0.0000    0.0000   -0.0001   -0.0000
          16   -0.0000    0.0001    0.0002    0.2248    0.0080   -0.0013    0.0026
          17    0.0000   -0.0001   -0.0001   -0.0875   -0.0031    0.0005   -0.0011
          18   -0.0001   -0.0000   -0.0000   -0.0017   -0.0018   -0.3213    0.0000
          19    0.0000    0.0012    0.0015   -0.0408   -0.0017    0.0002   -0.0037
          20   -0.0000   -0.0002   -0.0003    0.0159    0.0014   -0.0001    0.0008
          21   -0.0003    0.0000    0.0000   -0.0000   -0.0000   -0.0022    0.0000
          22   -0.2135   -0.0877   -0.2190    0.0011    0.0001   -0.0000   -0.0042
          23   -0.2625   -0.1123   -0.2728    0.0013   -0.0004   -0.0000   -0.0053
          24    0.4333    0.2186    0.5347   -0.0023    0.0004    0.0001    0.0105
          25    0.2137   -0.0877   -0.2191    0.0011    0.0001    0.0000   -0.0042
          26    0.2627   -0.1123   -0.2727    0.0013   -0.0004    0.0000   -0.0053
          27    0.4335   -0.2185   -0.5344    0.0023   -0.0004    0.0000   -0.0105
          28    0.1541   -0.2188    0.0912   -0.0001    0.0009   -0.0000    0.0067
          29   -0.1854    0.2725   -0.1105    0.0002   -0.0047    0.0000   -0.0111
          30    0.3052   -0.5342    0.2181   -0.0002    0.0060   -0.0000    0.0191
          31   -0.1541   -0.2189    0.0912   -0.0001    0.0009    0.0000    0.0067
          32    0.1853    0.2725   -0.1105    0.0002   -0.0047    0.0000   -0.0111
          33    0.3052    0.5342   -0.2181    0.0002   -0.0060    0.0000   -0.0191
          34    0.0000    0.0221   -0.0233   -0.0294    0.6711   -0.0037    0.6200
          35    0.0000    0.0037   -0.0064   -0.0088    0.2035   -0.0011    0.1840
          36   -0.0012    0.0000   -0.0000   -0.0000    0.0001    0.0000    0.0001
          37    0.0000   -0.0007   -0.0002   -0.0000    0.0007   -0.0000   -0.0047
          38    0.0000    0.0119   -0.0195    0.0162   -0.6545    0.0037    0.6942
          39   -0.0007    0.0000   -0.0000    0.0000   -0.0000   -0.0000    0.0000
          40    0.0003   -0.0007   -0.0012   -0.3271   -0.0133   -0.3397   -0.0029
          41    0.0006    0.0003    0.0005    0.1272    0.0051    0.1320    0.0012
          42   -0.0001    0.0012    0.0023    0.5924    0.0237    0.5573    0.0055
          43   -0.0003   -0.0007   -0.0012   -0.3236   -0.0094    0.3434   -0.0029
          44   -0.0006    0.0003    0.0005    0.1261    0.0036   -0.1336    0.0012
          45   -0.0001   -0.0012   -0.0023   -0.5864   -0.0172    0.5635   -0.0055


          DESCRIPTION OF VIBRATIONS


 VIBRATION          1    1A           ATOM PAIR      ENERGY CONTRIBUTION    RADIAL
 FREQUENCY            91.06         C  1 -- C  2         +21.7% (697.9%)      0.0%
 TRANSITION DIPOLE   0.0692         C  2 -- C  4          +9.9% (470.8%)      0.0%
 TRAVEL (Ang.)       0.8883         C  2 -- H 10          +9.8% (470.3%)     95.6%
 REDUCED MASS        0.9385         C  2 -- H 11          +9.8% (470.3%)     95.6%
 EFFECTIVE MASS    389.8797
 FORCE CONSTANT      0.0046

 VIBRATION          2    2A           ATOM PAIR      ENERGY CONTRIBUTION    RADIAL
 FREQUENCY           165.32         C  3 -- C  4         +12.8% (291.0%)      0.0%
 TRANSITION DIPOLE   0.1436         C  3 -- C  5         +10.6% (264.5%)      0.1%
 TRAVEL (Ang.)       0.5035         C  1 -- C  3          +9.5% (250.1%)      0.1%
 REDUCED MASS        1.6091         C  3 -- C  7          +8.1% (231.6%)      0.0%
 EFFECTIVE MASS     56.9019
 FORCE CONSTANT      0.0259

 VIBRATION          3    3A           ATOM PAIR      ENERGY CONTRIBUTION    RADIAL
 FREQUENCY           230.65         C  6 -- C  7         +12.5% (164.1%)      0.0%
 TRANSITION DIPOLE   0.2047         C  1 -- C  3         +10.2% (147.9%)      0.0%
 TRAVEL (Ang.)       0.5767         C  2 -- C  4          +7.7% (128.4%)      0.0%
 REDUCED MASS        0.8789         C  1 -- H  9          +7.6% (127.7%)     44.3%
 EFFECTIVE MASS     39.4987
 FORCE CONSTANT      0.0275

 VIBRATION          4    4A           ATOM PAIR      ENERGY CONTRIBUTION    RADIAL
 FREQUENCY           349.03         C  4 -- C  5         +17.3% (104.2%)      0.0%
 TRANSITION DIPOLE   0.2095         C  6 -- C  7         +12.8% ( 89.6%)      0.0%
 TRAVEL (Ang.)       0.3421         C  3 -- C  7         +10.5% ( 81.3%)      0.0%
 REDUCED MASS        1.6510         C  6 -- H 14          +9.2% ( 75.9%)      6.3%
 EFFECTIVE MASS     16.7045
 FORCE CONSTANT      0.1185

 VIBRATION          5    5A           ATOM PAIR      ENERGY CONTRIBUTION    RADIAL
 FREQUENCY           524.57         C  6 -- H 14         +19.9% ( 75.6%)      0.0%
 TRANSITION DIPOLE   0.0720         C  6 -- H 15         +19.9% ( 75.6%)      0.0%
 TRAVEL (Ang.)       0.4661         C  3 -- C  7         +12.3% ( 59.4%)      0.0%
 REDUCED MASS        0.5916         C  1 -- H  8          +9.4% ( 51.9%)      0.0%
 EFFECTIVE MASS      4.6966
 FORCE CONSTANT      0.0959

 VIBRATION          6    6A           ATOM PAIR      ENERGY CONTRIBUTION    RADIAL
 FREQUENCY           552.52         C  6 -- H 15         +10.7% (117.3%)     31.1%
 TRANSITION DIPOLE   0.1740         C  6 -- H 14         +10.7% (117.3%)     31.1%
 TRAVEL (Ang.)       0.2741         C  6 -- C  7         +10.2% (114.7%)      8.2%
 REDUCED MASS        1.6243         C  3 -- C  7          +9.5% (110.2%)     15.6%
 EFFECTIVE MASS     17.4554
 FORCE CONSTANT      0.2921

 VIBRATION          7    7A           ATOM PAIR      ENERGY CONTRIBUTION    RADIAL
 FREQUENCY           562.30         C  3 -- C  5         +14.9% ( 62.7%)      0.0%
 TRANSITION DIPOLE   0.1964         C  6 -- H 14         +12.8% ( 58.1%)      0.2%
 TRAVEL (Ang.)       0.3968         C  6 -- H 15         +12.7% ( 58.0%)      0.2%
 REDUCED MASS        0.7615         C  3 -- C  7         +12.7% ( 58.0%)      0.0%
 EFFECTIVE MASS      5.9195         C  3 -- C  4         +10.2% ( 51.9%)      0.0%
 FORCE CONSTANT      0.1419

 VIBRATION          8    8A           ATOM PAIR      ENERGY CONTRIBUTION    RADIAL
 FREQUENCY           571.57         C  3 -- C  7         +19.2% ( 97.2%)      0.1%
 TRANSITION DIPOLE   0.4818         C  6 -- C  7         +13.5% ( 81.3%)      0.1%
 TRAVEL (Ang.)       0.1566         C  3 -- C  4          +8.7% ( 65.4%)     14.9%
 REDUCED MASS        4.8106         C  1 -- C  2          +7.5% ( 60.5%)      2.3%
 EFFECTIVE MASS     13.0183
 FORCE CONSTANT      0.9259

 VIBRATION          9    9A           ATOM PAIR      ENERGY CONTRIBUTION    RADIAL
 FREQUENCY           761.15         C  2 -- C  4         +17.9% (120.2%)      0.0%
 TRANSITION DIPOLE   0.0691         C  3 -- C  4         +16.0% (113.5%)     75.2%
 TRAVEL (Ang.)       0.1842         C  4 -- C  5         +14.6% (108.6%)      0.1%
 REDUCED MASS        2.6098         C  4 -- H 12          +9.5% ( 87.7%)     99.1%
 EFFECTIVE MASS     16.3398
 FORCE CONSTANT      0.8909

 VIBRATION         10   10A           ATOM PAIR      ENERGY CONTRIBUTION    RADIAL
 FREQUENCY           770.37         C  4 -- H 12         +31.2% ( 75.6%)      0.0%
 TRANSITION DIPOLE   0.4609         C  2 -- H 11         +15.2% ( 52.8%)      8.2%
 TRAVEL (Ang.)       0.4786         C  2 -- H 10         +15.2% ( 52.8%)      8.3%
 REDUCED MASS        0.3822         C  5 -- H 13         +10.6% ( 44.0%)      0.0%
 EFFECTIVE MASS      3.0411
 FORCE CONSTANT      0.1336

 VIBRATION         11   11A           ATOM PAIR      ENERGY CONTRIBUTION    RADIAL
 FREQUENCY           818.50         C  1 -- H  8         +18.2% ( 65.3%)      9.0%
 TRANSITION DIPOLE   0.2297         C  1 -- H  9         +18.2% ( 65.3%)      9.0%
 TRAVEL (Ang.)       0.5554         C  2 -- H 11         +12.5% ( 54.2%)      7.7%
 REDUCED MASS        0.2670         C  2 -- H 10         +12.5% ( 54.2%)      7.7%
 EFFECTIVE MASS      3.6906         C  5 -- H 13         +10.2% ( 48.9%)      0.0%
 FORCE CONSTANT      0.1054

 VIBRATION         12   12A           ATOM PAIR      ENERGY CONTRIBUTION    RADIAL
 FREQUENCY           921.29         C  6 -- H 15         +33.0% ( 77.1%)     13.0%
 TRANSITION DIPOLE   0.0723         C  6 -- H 14         +32.3% ( 76.3%)      9.6%
 TRAVEL (Ang.)       0.2934         C  6 -- C  7         +20.2% ( 60.3%)      0.1%
 REDUCED MASS        0.8500         C  3 -- C  7          +2.3% ( 20.5%)      0.6%
 EFFECTIVE MASS      5.3431
 FORCE CONSTANT      0.4251

 VIBRATION         13   13A           ATOM PAIR      ENERGY CONTRIBUTION    RADIAL
 FREQUENCY           921.31         C  4 -- C  5         +13.0% ( 67.3%)      0.0%
 TRANSITION DIPOLE   0.1189         C  1 -- C  3         +11.8% ( 64.1%)     91.8%
 TRAVEL (Ang.)       0.2149         C  1 -- C  2         +11.7% ( 64.0%)      8.1%
 REDUCED MASS        1.5842         C  3 -- C  5         +11.0% ( 62.1%)     77.7%
 EFFECTIVE MASS     10.1981         C  1 -- H  8         +10.3% ( 59.9%)     43.5%
 FORCE CONSTANT      0.7923         C  5 -- H 13         +10.2% ( 59.8%)     97.7%
                            C  1 -- H  9         +10.1% ( 59.4%)     29.8%

 VIBRATION         14   14A           ATOM PAIR      ENERGY CONTRIBUTION    RADIAL
 FREQUENCY           957.82         C  5 -- H 13         +26.6% ( 62.6%)      0.0%
 TRANSITION DIPOLE   0.1987         C  2 -- H 11          +9.1% ( 36.7%)      6.4%
 TRAVEL (Ang.)       0.3698         C  2 -- H 10          +9.1% ( 36.7%)      6.4%
 REDUCED MASS        0.5148         C  3 -- C  5          +7.7% ( 33.6%)      0.0%
 EFFECTIVE MASS      4.3204
 FORCE CONSTANT      0.2782

 VIBRATION         15   15A           ATOM PAIR      ENERGY CONTRIBUTION    RADIAL
 FREQUENCY           988.56         C  6 -- H 15         +43.5% ( 65.2%)      0.0%
 TRANSITION DIPOLE   0.5386         C  6 -- H 14         +43.5% ( 65.2%)      0.0%
 TRAVEL (Ang.)       0.2555         C  6 -- C  7         +10.3% ( 31.8%)      0.0%
 REDUCED MASS        1.0452         C  3 -- C  7          +0.9% (  9.3%)      0.0%
 EFFECTIVE MASS      3.0837
 FORCE CONSTANT      0.6018

 VIBRATION         16   16A           ATOM PAIR      ENERGY CONTRIBUTION    RADIAL
 FREQUENCY           996.98         C  4 -- H 12         +15.1% ( 51.2%)      0.0%
 TRANSITION DIPOLE   0.1414         C  1 -- H  8         +12.3% ( 46.1%)     10.3%
 TRAVEL (Ang.)       0.3358         C  1 -- H  9         +12.3% ( 46.1%)     10.3%
 REDUCED MASS        0.5998         C  1 -- C  2         +11.7% ( 45.1%)      0.0%
 EFFECTIVE MASS      5.0728         C  2 -- C  4         +11.0% ( 43.6%)      0.0%
 FORCE CONSTANT      0.3513

 VIBRATION         17   17A           ATOM PAIR      ENERGY CONTRIBUTION    RADIAL
 FREQUENCY          1041.03         C  1 -- C  2         +22.8% ( 78.6%)     99.9%
 TRANSITION DIPOLE   0.0519         C  1 -- C  3         +11.7% ( 56.2%)     11.5%
 TRAVEL (Ang.)       0.2294         C  2 -- C  4         +11.6% ( 56.1%)     46.5%
 REDUCED MASS        1.2313         C  1 -- H  8          +9.9% ( 51.8%)     40.6%
 EFFECTIVE MASS      8.3906
 FORCE CONSTANT      0.7862

 VIBRATION         18   18A           ATOM PAIR      ENERGY CONTRIBUTION    RADIAL
 FREQUENCY          1060.18         C  5 -- H 13         +16.9% ( 59.7%)      7.0%
 TRANSITION DIPOLE   0.0944         C  2 -- C  4         +16.7% ( 59.3%)     92.2%
 TRAVEL (Ang.)       0.3672         C  4 -- C  5         +10.9% ( 47.9%)     45.6%
 REDUCED MASS        0.4718         C  2 -- H 10          +9.7% ( 45.2%)     10.9%
 EFFECTIVE MASS      5.6983
 FORCE CONSTANT      0.3124

 VIBRATION         19   19A           ATOM PAIR      ENERGY CONTRIBUTION    RADIAL
 FREQUENCY          1071.60         C  2 -- H 11         +20.5% ( 48.4%)      1.3%
 TRANSITION DIPOLE   0.0462         C  2 -- H 10         +20.5% ( 48.4%)      1.3%
 TRAVEL (Ang.)       0.4916         C  1 -- H  8         +16.1% ( 42.8%)      4.4%
 REDUCED MASS        0.2604         C  1 -- H  9         +16.1% ( 42.8%)      4.4%
 EFFECTIVE MASS      2.5676
 FORCE CONSTANT      0.1762

 VIBRATION         20   20A           ATOM PAIR      ENERGY CONTRIBUTION    RADIAL
 FREQUENCY          1094.78         C  1 -- H  8         +19.8% ( 55.0%)      8.4%
 TRANSITION DIPOLE   0.0102         C  1 -- H  9         +19.8% ( 54.9%)      8.4%
 TRAVEL (Ang.)       0.3867         C  2 -- H 11         +16.5% ( 50.2%)     11.5%
 REDUCED MASS        0.4118         C  2 -- H 10         +16.5% ( 50.2%)     11.5%
 EFFECTIVE MASS      3.3638         C  1 -- C  2         +14.5% ( 47.1%)      0.0%
 FORCE CONSTANT      0.2908

[...]
 FORCE CONSTANT      0.1761

 VIBRATION         22   22A           ATOM PAIR      ENERGY CONTRIBUTION    RADIAL
 FREQUENCY          1212.06         C  5 -- H 13         +16.2% ( 49.7%)      0.9%
 TRANSITION DIPOLE   0.0562         C  4 -- H 12         +11.4% ( 41.7%)      0.7%
 TRAVEL (Ang.)       0.3613         C  3 -- C  4         +10.9% ( 40.7%)      2.2%
 REDUCED MASS        0.4262         C  1 -- H  9         +10.2% ( 39.5%)      0.2%
 EFFECTIVE MASS      3.2414         C  1 -- H  8         +10.2% ( 39.5%)      0.2%
 FORCE CONSTANT      0.3689

 VIBRATION         23   23A           ATOM PAIR      ENERGY CONTRIBUTION    RADIAL
 FREQUENCY          1226.89         C  1 -- C  2         +10.2% ( 39.8%)     98.7%
 TRANSITION DIPOLE   0.0041         C  6 -- H 14          +9.8% ( 39.0%)      0.0%
 TRAVEL (Ang.)       0.4161         C  6 -- H 15          +9.8% ( 38.9%)      0.0%
 REDUCED MASS        0.3174         C  1 -- C  3          +8.5% ( 36.2%)     11.6%
 EFFECTIVE MASS      3.8026
 FORCE CONSTANT      0.2815

 VIBRATION         24   24A           ATOM PAIR      ENERGY CONTRIBUTION    RADIAL
 FREQUENCY          1281.82         C  1 -- C  2         +15.2% ( 50.3%)     97.3%
 TRANSITION DIPOLE   0.0376         C  1 -- H  9         +13.0% ( 46.5%)      0.0%
 TRAVEL (Ang.)       0.2656         C  1 -- H  8         +13.0% ( 46.4%)      0.0%
 REDUCED MASS        0.7455         C  6 -- H 14         +11.3% ( 43.3%)      2.1%
 EFFECTIVE MASS      4.9270         C  6 -- H 15         +11.3% ( 43.3%)      2.1%
 FORCE CONSTANT      0.7217

 VIBRATION         25   25A           ATOM PAIR      ENERGY CONTRIBUTION    RADIAL
 FREQUENCY          1347.59         C  2 -- C  4         +16.2% ( 51.8%)     79.9%
 TRANSITION DIPOLE   0.0127         C  2 -- H 11         +15.9% ( 51.2%)      0.0%
 TRAVEL (Ang.)       0.2457         C  2 -- H 10         +15.9% ( 51.2%)      0.0%
 REDUCED MASS        0.8288         C  1 -- C  2          +8.5% ( 37.4%)     12.8%
 EFFECTIVE MASS      5.5213
 FORCE CONSTANT      0.8868

 VIBRATION         26   26A           ATOM PAIR      ENERGY CONTRIBUTION    RADIAL
 FREQUENCY          1373.39         C  3 -- C  5         +20.7% ( 69.0%)     79.5%
 TRANSITION DIPOLE   0.0701         C  4 -- C  5         +12.0% ( 52.6%)      0.0%
 TRAVEL (Ang.)       0.1676         C  3 -- C  4         +11.1% ( 50.6%)      0.1%
 REDUCED MASS        1.7472         C  1 -- C  3         +10.4% ( 48.8%)     99.0%
 EFFECTIVE MASS      9.4828
 FORCE CONSTANT      1.9417

 VIBRATION         27   27A           ATOM PAIR      ENERGY CONTRIBUTION    RADIAL
 FREQUENCY          1394.80         C  1 -- C  2         +14.2% ( 49.3%)      1.2%
 TRANSITION DIPOLE   0.0340         C  1 -- H  9         +13.2% ( 47.4%)      6.1%
 TRAVEL (Ang.)       0.2449         C  1 -- H  8         +13.2% ( 47.4%)      6.1%
 REDUCED MASS        0.8061         C  1 -- C  3         +12.8% ( 46.7%)     75.0%
 EFFECTIVE MASS      5.7892         C  2 -- H 11         +11.4% ( 44.2%)      4.8%
 FORCE CONSTANT      0.9240         C  2 -- H 10         +11.4% ( 44.2%)      4.8%

 VIBRATION         28   28A           ATOM PAIR      ENERGY CONTRIBUTION    RADIAL
 FREQUENCY          1412.74         C  2 -- H 10         +16.1% ( 47.2%)      6.0%
 TRANSITION DIPOLE   0.1117         C  2 -- H 11         +16.1% ( 47.2%)      6.0%
 TRAVEL (Ang.)       0.3369         C  2 -- C  4         +10.4% ( 37.9%)     78.2%
 REDUCED MASS        0.4205         C  1 -- H  9         +10.2% ( 37.5%)      5.7%
 EFFECTIVE MASS      4.3313         C  1 -- H  8         +10.2% ( 37.5%)      5.7%
 FORCE CONSTANT      0.4945         C  1 -- C  2         +10.0% ( 37.2%)     91.6%

 VIBRATION         29   29A           ATOM PAIR      ENERGY CONTRIBUTION    RADIAL
 FREQUENCY          1577.50         C  3 -- C  5         +18.3% ( 76.2%)     69.3%
 TRANSITION DIPOLE   0.1288         C  1 -- C  3         +17.2% ( 73.8%)     36.3%
 TRAVEL (Ang.)       0.1014         C  3 -- C  4         +16.6% ( 72.6%)     90.2%
 REDUCED MASS        4.1580         C  6 -- C  7         +12.9% ( 63.9%)    100.0%
 EFFECTIVE MASS     11.5434         C  3 -- C  7         +12.6% ( 63.2%)     97.0%
 FORCE CONSTANT      6.0964

 VIBRATION         30   30A           ATOM PAIR      ENERGY CONTRIBUTION    RADIAL
 FREQUENCY          1803.13         C  4 -- C  5         +40.0% (100.1%)    100.0%
 TRANSITION DIPOLE   0.3225         C  3 -- C  5         +12.5% ( 55.9%)     23.3%
 TRAVEL (Ang.)       0.0835         C  2 -- C  4         +12.2% ( 55.3%)     24.4%
 REDUCED MASS        5.3603         C  3 -- C  4         +11.9% ( 54.5%)     47.2%
 EFFECTIVE MASS     11.9020         C  5 -- H 13         +11.4% ( 53.5%)     10.1%
 FORCE CONSTANT     10.2682         C  4 -- H 12         +11.3% ( 53.3%)     10.0%

 VIBRATION         31   31A           ATOM PAIR      ENERGY CONTRIBUTION    RADIAL
 FREQUENCY          2272.39         C  3 -- C  7         +40.7% ( 86.9%)    100.0%
 TRANSITION DIPOLE   0.2305         C  6 -- C  7         +36.8% ( 82.5%)    100.0%
 TRAVEL (Ang.)       0.0723         C  1 -- C  3          +5.5% ( 31.8%)     36.6%
 REDUCED MASS        5.6728         C  3 -- C  4          +5.4% ( 31.7%)     87.9%
 EFFECTIVE MASS     11.9050
 FORCE CONSTANT     17.2588

 VIBRATION         32   32A           ATOM PAIR      ENERGY CONTRIBUTION    RADIAL
 FREQUENCY          2974.62         C  2 -- H 11         +32.5% ( 59.3%)     96.5%
 TRANSITION DIPOLE   0.0030         C  2 -- H 10         +32.5% ( 59.3%)     96.5%
 TRAVEL (Ang.)       0.2804         C  1 -- H  9         +16.3% ( 42.0%)     96.4%
 REDUCED MASS        0.2883         C  1 -- H  8         +16.3% ( 42.0%)     96.4%
 EFFECTIVE MASS      1.5529
 FORCE CONSTANT      1.5028

 VIBRATION         33   33A           ATOM PAIR      ENERGY CONTRIBUTION    RADIAL
 FREQUENCY          2989.96         C  1 -- H  9         +32.7% ( 59.1%)     96.7%
 TRANSITION DIPOLE   0.0784         C  1 -- H  8         +32.7% ( 59.1%)     96.7%
 TRAVEL (Ang.)       0.2799         C  2 -- H 11         +16.3% ( 41.7%)     96.8%
 REDUCED MASS        0.2879         C  2 -- H 10         +16.3% ( 41.7%)     96.8%
 EFFECTIVE MASS      1.5278
 FORCE CONSTANT      1.5163

 VIBRATION         34   34A           ATOM PAIR      ENERGY CONTRIBUTION    RADIAL
 FREQUENCY          3056.65         C  2 -- H 11         +42.2% ( 64.1%)     97.5%
 TRANSITION DIPOLE   0.0910         C  2 -- H 10         +42.2% ( 64.1%)     97.5%
 TRAVEL (Ang.)       0.2459         C  1 -- H  8          +7.1% ( 26.3%)     97.4%
 REDUCED MASS        0.3649         C  1 -- H  9          +7.1% ( 26.3%)     97.4%
 EFFECTIVE MASS      1.2849
 FORCE CONSTANT      2.0085

 VIBRATION         35   35A           ATOM PAIR      ENERGY CONTRIBUTION    RADIAL
 FREQUENCY          3061.54         C  1 -- H  8         +42.3% ( 64.1%)     97.6%
 TRANSITION DIPOLE   0.1271         C  1 -- H  9         +42.2% ( 64.1%)     97.6%
 TRAVEL (Ang.)       0.2457         C  2 -- H 10          +7.0% ( 26.1%)     97.7%
 REDUCED MASS        0.3649         C  2 -- H 11          +7.0% ( 26.1%)     97.7%
 EFFECTIVE MASS      1.2791
 FORCE CONSTANT      2.0151

 VIBRATION         36   36A           ATOM PAIR      ENERGY CONTRIBUTION    RADIAL
 FREQUENCY          3114.45         C  6 -- H 14         +49.5% ( 70.5%)     95.3%
 TRANSITION DIPOLE   0.3539         C  6 -- H 15         +48.5% ( 69.7%)     95.1%
 TRAVEL (Ang.)       0.2114         C  6 -- C  7          +1.8% ( 13.4%)    100.0%
 REDUCED MASS        0.4847         C  4 -- H 12          +0.1% (  3.2%)    100.0%
 EFFECTIVE MASS      1.4141
 FORCE CONSTANT      2.7700

 VIBRATION         37   37A           ATOM PAIR      ENERGY CONTRIBUTION    RADIAL
 FREQUENCY          3118.99         C  4 -- H 12         +51.6% ( 73.2%)    100.0%
 TRANSITION DIPOLE   0.3923         C  5 -- H 13         +44.9% ( 68.4%)    100.0%
 TRAVEL (Ang.)       0.2154         C  4 -- C  5          +1.1% ( 10.9%)      0.1%
 REDUCED MASS        0.4659         C  3 -- C  4          +0.8% (  9.0%)     92.2%
 EFFECTIVE MASS      1.4681
 FORCE CONSTANT      2.6703

 VIBRATION         38   38A           ATOM PAIR      ENERGY CONTRIBUTION    RADIAL
 FREQUENCY          3119.14         C  6 -- H 15         +49.9% ( 72.3%)     97.2%
 TRANSITION DIPOLE   0.2131         C  6 -- H 14         +48.9% ( 71.6%)     97.1%
 TRAVEL (Ang.)       0.2013         C  6 -- C  7          +1.2% ( 11.2%)      0.0%
 REDUCED MASS        0.5333
 EFFECTIVE MASS      1.5942
 FORCE CONSTANT      3.0568

 VIBRATION         39   39A           ATOM PAIR      ENERGY CONTRIBUTION    RADIAL
 FREQUENCY          3137.24         C  5 -- H 13         +50.7% ( 72.9%)     99.9%
 TRANSITION DIPOLE   0.3879         C  4 -- H 12         +44.0% ( 67.9%)     99.9%
 TRAVEL (Ang.)       0.2142         C  4 -- C  5          +2.4% ( 16.0%)     99.8%
 REDUCED MASS        0.4684         C  3 -- C  5          +1.0% ( 10.3%)     23.0%
 EFFECTIVE MASS      1.6516
 FORCE CONSTANT      2.7160

      SYMMETRY NUMBER FOR POINT-GROUP C1  =  1


          SYSTEM IS A GROUND STATE



 InChI=1S/C7H8/c1-2-7-5-3-4-6-7/h3,5H,1,4,6H2


          MOLECULE IS NOT LINEAR

          THERE ARE 39 GENUINE VIBRATIONS IN THIS SYSTEM
          THIS THERMODYNAMICS CALCULATION IS LIMITED TO
          MOLECULES WHICH HAVE NO INTERNAL ROTATIONS




                    CALCULATED THERMODYNAMIC PROPERTIES
                                          *
   TEMP. (K)   PARTITION FUNCTION   H.O.F.    ENTHALPY  HEAT CAPACITY ENTROPY
                                   KCAL/MOL   CAL/MOLE    CAL/K/MOL  CAL/K/MOL


 298.00  VIB.     0.1465D+02                  2310.7011    18.5075    13.0890
         ROT.     0.1968D+06                   888.2803     2.9808    27.2043
         INT.     0.2883D+07                  3198.9814    21.4883    40.2932
         TRA.     0.8551D+27                  1480.4672     4.9680    39.4718
         TOT.                       56.482    4679.4486    26.4563    79.7650

 200.00  VIB.     0.4423D+01                   900.4511    10.4730     7.4570
         ROT.     0.1082D+06                   596.1613     2.9808    26.0156
         INT.     0.4785D+06                  1496.6124    13.4538    33.4726
         TRA.     0.4701D+27                   993.6021     4.9680    37.4906
         TOT.                       54.293    2490.2145    18.4218    70.9632

 210.00  VIB.     0.4958D+01                  1008.9099    11.2227     7.9860
         ROT.     0.1164D+06                   625.9693     2.9808    26.1610
         INT.     0.5771D+06                  1634.8793    14.2035    34.1470
         TRA.     0.5058D+27                  1043.2822     4.9680    37.7330
         TOT.                       54.481    2678.1615    19.1716    71.8801

 220.00  VIB.     0.5568D+01                  1124.9812    11.9951     8.5258
         ROT.     0.1248D+06                   655.7774     2.9808    26.2997
         INT.     0.6950D+06                  1780.7586    14.9759    34.8255
         TRA.     0.5424D+27                  1092.9623     4.9680    37.9641
         TOT.                       54.677    2873.7210    19.9439    72.7897

 230.00  VIB.     0.6265D+01                  1248.8796    12.7877     9.0764
         ROT.     0.1334D+06                   685.5855     2.9808    26.4322
         INT.     0.8359D+06                  1934.4651    15.7686    35.5086
         TRA.     0.5798D+27                  1142.6424     4.9680    38.1850
         TOT.                       54.880    3077.1075    20.7366    73.6936

 240.00  VIB.     0.7062D+01                  1380.7951    13.5981     9.6378
         ROT.     0.1422D+06                   715.3935     2.9808    26.5591
         INT.     0.1004D+07                  2096.1887    16.5789    36.1968
         TRA.     0.6180D+27                  1192.3226     4.9680    38.3964
         TOT.                       55.091    3288.5112    21.5469    74.5932

 250.00  VIB.     0.7975D+01                  1520.8914    14.4234    10.2095
         ROT.     0.1512D+06                   745.2016     2.9808    26.6807
         INT.     0.1206D+07                  2266.0930    17.4042    36.8903
         TRA.     0.6570D+27                  1242.0027     4.9680    38.5992
         TOT.                       55.311    3508.0957    22.3722    75.4895

 260.00  VIB.     0.9022D+01                  1669.3045    15.2610    10.7915
         ROT.     0.1603D+06                   775.0097     2.9808    26.7977
         INT.     0.1447D+07                  2444.3142    18.2418    37.5892
         TRA.     0.6968D+27                  1291.6828     4.9680    38.7941
         TOT.                       55.539    3735.9969    23.2098    76.3832

 270.00  VIB.     0.1022D+02                  1826.1428    16.1080    11.3833
         ROT.     0.1697D+06                   804.8177     2.9808    26.9102
         INT.     0.1735D+07                  2630.9605    19.0888    38.2935
         TRA.     0.7374D+27                  1341.3629     4.9680    38.9816
         TOT.                       55.775    3972.3234    24.0568    77.2750

 280.00  VIB.     0.1161D+02                  1991.4872    16.9618    11.9846
         ROT.     0.1792D+06                   834.6258     2.9808    27.0186
         INT.     0.2080D+07                  2826.1130    19.9426    39.0031
         TRA.     0.7788D+27                  1391.0430     4.9680    39.1622
         TOT.                       56.020    4217.1560    24.9106    78.1653

 290.00  VIB.     0.1320D+02                  2165.3925    17.8198    12.5947
         ROT.     0.1889D+06                   864.4339     2.9808    27.1232
         INT.     0.2494D+07                  3029.8263    20.8006    39.7179
         TRA.     0.8209D+27                  1440.7231     4.9680    39.3366
         TOT.                       56.273    4470.5494    25.7686    79.0545

 300.00  VIB.     0.1504D+02                  2347.8881    18.6795    13.2133
         ROT.     0.1987D+06                   894.2419     2.9808    27.2242
         INT.     0.2990D+07                  3242.1300    21.6603    40.4375
         TRA.     0.8637D+27                  1490.4032     4.9680    39.5050
         TOT.                       56.535    4732.5332    26.6283    79.9425

 310.00  VIB.     0.1717D+02                  2538.9800    19.5387    13.8398
         ROT.     0.2088D+06                   924.0500     2.9808    27.3219
         INT.     0.3584D+07                  3463.0300    22.5195    41.1618
         TRA.     0.9072D+27                  1540.0833     4.9680    39.6679
         TOT.                       56.806    5003.1133    27.4875    80.8297

 320.00  VIB.     0.1962D+02                  2738.6526    20.3953    14.4737
         ROT.     0.2189D+06                   953.8580     2.9808    27.4166
         INT.     0.4297D+07                  3692.5107    23.3761    41.8903
         TRA.     0.9515D+27                  1589.7634     4.9680    39.8256
         TOT.                       57.085    5282.2741    28.3441    81.7159

 330.00  VIB.     0.2247D+02                  2946.8706    21.2474    15.1144
         ROT.     0.2293D+06                   983.6661     2.9808    27.5083
         INT.     0.5152D+07                  3930.5367    24.2282    42.6227
         TRA.     0.9964D+27                  1639.4435     4.9680    39.9785
         TOT.                       57.373    5569.9802    29.1962    82.6012

 340.00  VIB.     0.2577D+02                  3163.5807    22.0935    15.7612
         ROT.     0.2398D+06                  1013.4742     2.9808    27.5973
         INT.     0.6178D+07                  4177.0549    25.0743    43.3585
         TRA.     0.1042D+28                  1689.1236     4.9680    40.1268
         TOT.                       57.669    5866.1785    30.0423    83.4853

 350.00  VIB.     0.2959D+02                  3388.7142    22.9319    16.4138
         ROT.     0.2504D+06                  1043.2822     2.9808    27.6837
         INT.     0.7411D+07                  4431.9964    25.9127    44.0975
         TRA.     0.1088D+28                  1738.8037     4.9680    40.2708
         TOT.                       57.974    6170.8002    30.8807    84.3683

 360.00  VIB.     0.3404D+02                  3622.1883    23.7614    17.0714
         ROT.     0.2613D+06                  1073.0903     2.9808    27.7677
         INT.     0.8892D+07                  4695.2786    26.7422    44.8391
         TRA.     0.1135D+28                  1788.4838     4.9680    40.4108
         TOT.                       58.287    6483.7624    31.7102    85.2499

 370.00  VIB.     0.3921D+02                  3863.9084    24.5809    17.7337
         ROT.     0.2722D+06                  1102.8984     2.9808    27.8493
         INT.     0.1067D+08                  4966.8068    27.5617    45.5830
         TRA.     0.1183D+28                  1838.1639     4.9680    40.5469
         TOT.                       58.608    6804.9707    32.5297    86.1299

 380.00  VIB.     0.4522D+02                  4113.7698    25.3895    18.4000
         ROT.     0.2833D+06                  1132.7064     2.9808    27.9288
         INT.     0.1281D+08                  5246.4762    28.3703    46.3288
         TRA.     0.1231D+28                  1887.8440     4.9680    40.6794
         TOT.                       58.937    7134.3203    33.3383    87.0082

 390.00  VIB.     0.5222D+02                  4371.6591    26.1864    19.0698
         ROT.     0.2946D+06                  1162.5145     2.9808    28.0063
         INT.     0.1538D+08                  5534.1735    29.1672    47.0761
         TRA.     0.1280D+28                  1937.5242     4.9680    40.8084
         TOT.                       59.275    7471.6977    34.1352    87.8845

 400.00  VIB.     0.6039D+02                  4637.4560    26.9709    19.7427
         ROT.     0.3060D+06                  1192.3226     2.9808    28.0817
         INT.     0.1848D+08                  5829.7785    29.9517    47.8244
         TRA.     0.1330D+28                  1987.2043     4.9680    40.9342
         TOT.                       59.620    7816.9828    34.9197    88.7587

   *: NOTE: HEATS OF FORMATION ARE RELATIVE TO THE
            ELEMENTS IN THEIR STANDARD STATE AT 298K
              (=  Standard Enthalpy of Formation).

            Hvib:  Zero-point energy is not included.
                   frequencies of less than zero cm-1 are not included.
            Hrot = (3/2)RT
            Htra = (3/2)RT + pV = (5/2)RT

            Heat capacity is Cp, not Cv

          For more information, see: HTTP://OpenMOPAC.net/Manual/thermochemistry.html


           FORCE CONSTANT IN CARTESIAN COORDINATES (Millidynes/A)

    ATOM   CHEMICAL       X               Y               Z
   NUMBER   SYMBOL  FORCE CONSTANT  FORCE CONSTANT  FORCE CONSTANT

      1       C        7.861800        8.913153        8.124787
      2       C        7.805555        9.253061        8.089828
      3       C       16.598379        9.265314        2.394026
      4       C       14.549452       10.258918        2.318134
      5       C       12.001334       13.467617        2.120968
      6       C       14.112193        3.711928        8.386933
      7       C       21.787712        4.893320        1.568363
      8       H        1.283171        1.560817        3.572712
      9       H        1.283838        1.561020        3.571845
     10       H        1.286406        1.546953        3.559413
     11       H        1.286568        1.546462        3.559776
     12       H        4.981107        1.094785        0.343380
     13       H        0.704877        5.368121        0.347365
     14       H        1.725833        0.513176        4.012369
     15       H        1.726986        0.513671        4.010864

 **********************
 *                    *
 * JOB ENDED NORMALLY *
 *                    *
 **********************



 TOTAL JOB TIME:             1.21 SECONDS

 == MOPAC DONE ==
