 *******************************************************************************
 **                                                                           **
 **                              MOPAC v23.1.2                                **
 **                                                                           **
 *******************************************************************************
 **          Digital Object Identifier (DOI): 10.5281/zenodo.6511958          **
 **    Visit the DOI location for information on how to cite this program.    **
 *******************************************************************************

                              PM3 CALCULATION RESULTS

 *******************************************************************************
 *  CALCULATION DONE: (MAX THREADS = 1)              Tue Jun  3 16:32:06 2025  *
 *  PM3        - The PM3 Hamiltonian to be used
 *  PRECISE    - TIGHTER CRITERIA TO BE USED
 *  NOSYM      - POINT-GROUP SYMMETRY SET TO C1
 *  THREADS=1  - MULTI-THREADING NOT USED
 *  T=         - A TIME OF 172800.0 SECONDS REQUESTED
 *  DUMP=N     - RESTART FILE WRITTEN EVERY 7200.0 SECONDS REQUESTED
 *******************************************************************************
pm3  precise nosym THREADS=1
 InChI=1S/C10H10/c1-8-6-7-9-4-2-3-5-10(8)9/h2-3,5-7H,4H2,1H3

   ATOM   CHEMICAL          X               Y               Z
  NUMBER   SYMBOL      (ANGSTROMS)     (ANGSTROMS)     (ANGSTROMS)

     1       C          2.06980000  *   0.89610000  *   0.31400000  *
     2       C         -2.76670000  *  -0.75600000  *  -0.38370000  *
     3       C          0.57540000  *   0.90920000  *   0.18860000  *
     4       C         -1.59040000  *   0.12020000  *  -0.09350000  *
     5       C         -0.19600000  *  -0.28970000  *  -0.01840000  *
     6       C          2.61740000  *  -0.51620000  *   0.18950000  *
     7       C         -1.62060000  *   1.44680000  *   0.03460000  *
     8       C         -0.24910000  *   1.94680000  *   0.22390000  *
     9       C          0.36410000  *  -1.49150000  *  -0.12140000  *
    10       C          1.83700000  *  -1.59880000  *  -0.00940000  *
    11       H          2.51090000  *   1.52760000  *  -0.48550000  *
    12       H          2.35890000  *   1.31180000  *   1.30210000  *
    13       H         -2.67600000  *  -1.70710000  *   0.18090000  *
    14       H         -3.71060000  *  -0.25400000  *  -0.08240000  *
    15       H         -2.80250000  *  -0.97800000  *  -1.47040000  *
    16       H          3.68870000  *  -0.65400000  *   0.26380000  *
    17       H          2.29580000  *  -2.57590000  *  -0.09000000  *
    18       H          0.04440000  *   2.97970000  *   0.35590000  *
    19       H         -0.23840000  *  -2.37540000  *  -0.28450000  *
    20       H         -2.51200000  *   2.05860000  *  -0.01410000  *



          CARTESIAN COORDINATES 

    NO.       ATOM           X           Y           Z

     1         C          2.0698      0.8961      0.3140
     2         C         -2.7667     -0.7560     -0.3837
     3         C          0.5754      0.9092      0.1886
     4         C         -1.5904      0.1202     -0.0935
     5         C         -0.1960     -0.2897     -0.0184
     6         C          2.6174     -0.5162      0.1895
     7         C         -1.6206      1.4468      0.0346
     8         C         -0.2491      1.9468      0.2239
     9         C          0.3641     -1.4915     -0.1214
    10         C          1.8370     -1.5988     -0.0094
    11         H          2.5109      1.5276     -0.4855
    12         H          2.3589      1.3118      1.3021
    13         H         -2.6760     -1.7071      0.1809
    14         H         -3.7106     -0.2540     -0.0824
    15         H         -2.8025     -0.9780     -1.4704
    16         H          3.6887     -0.6540      0.2638
    17         H          2.2958     -2.5759     -0.0900
    18         H          0.0444      2.9797      0.3559
    19         H         -0.2384     -2.3754     -0.2845
    20         H         -2.5120      2.0586     -0.0141

  H: (PM3): J. J. P. STEWART, J. COMP. CHEM. 10, 209 (1989).
  C: (PM3): J. J. P. STEWART, J. COMP. CHEM. 10, 209 (1989).

           Empirical Formula: C10 H10  =    20 atoms



      MOLECULAR POINT GROUP   :   C1  


      RHF CALCULATION, NO. OF DOUBLY OCCUPIED LEVELS = 25


          Geometry optimization using EF

          DIAGONAL MATRIX USED AS START HESSIAN

 CYCLE:     1 TIME:   0.012 TIME LEFT:  2.00D  GRAD.:   148.438 HEAT:  60.41082
 CYCLE:     2 TIME:   0.008 TIME LEFT:  2.00D  GRAD.:   155.777 HEAT:  59.49039
 CYCLE:     3 TIME:   0.008 TIME LEFT:  2.00D  GRAD.:   129.245 HEAT:  58.60064
 CYCLE:     4 TIME:   0.008 TIME LEFT:  2.00D  GRAD.:   116.568 HEAT:  57.64641
 CYCLE:     5 TIME:   0.012 TIME LEFT:  2.00D  GRAD.:    59.691 HEAT:  55.48893
 CYCLE:     6 TIME:   0.012 TIME LEFT:  2.00D  GRAD.:    40.928 HEAT:  55.04466
 CYCLE:     7 TIME:   0.008 TIME LEFT:  2.00D  GRAD.:    18.745 HEAT:  54.75008
 CYCLE:     8 TIME:   0.012 TIME LEFT:  2.00D  GRAD.:    16.406 HEAT:  54.68198
 CYCLE:     9 TIME:   0.008 TIME LEFT:  2.00D  GRAD.:    11.071 HEAT:  54.59589
 CYCLE:    10 TIME:   0.008 TIME LEFT:  2.00D  GRAD.:    18.014 HEAT:  54.53648
 CYCLE:    11 TIME:   0.004 TIME LEFT:  2.00D  GRAD.:    13.805 HEAT:  54.42908
 CYCLE:    12 TIME:   0.008 TIME LEFT:  2.00D  GRAD.:    14.380 HEAT:  54.39892
 CYCLE:    13 TIME:   0.008 TIME LEFT:  2.00D  GRAD.:    14.844 HEAT:  54.39016
 CYCLE:    14 TIME:   0.008 TIME LEFT:  2.00D  GRAD.:     8.579 HEAT:  54.34794
 CYCLE:    15 TIME:   0.012 TIME LEFT:  2.00D  GRAD.:     6.250 HEAT:  54.33702
 CYCLE:    16 TIME:   0.008 TIME LEFT:  2.00D  GRAD.:     6.309 HEAT:  54.33317
 CYCLE:    17 TIME:   0.004 TIME LEFT:  2.00D  GRAD.:     5.437 HEAT:  54.32695
 CYCLE:    18 TIME:   0.008 TIME LEFT:  2.00D  GRAD.:     3.233 HEAT:  54.31854
 CYCLE:    19 TIME:   0.008 TIME LEFT:  2.00D  GRAD.:     3.156 HEAT:  54.31195
 CYCLE:    20 TIME:   0.004 TIME LEFT:  2.00D  GRAD.:     3.265 HEAT:  54.30383
 CYCLE:    21 TIME:   0.008 TIME LEFT:  2.00D  GRAD.:     3.111 HEAT:  54.29762
 CYCLE:    22 TIME:   0.008 TIME LEFT:  2.00D  GRAD.:     2.623 HEAT:  54.29394
 CYCLE:    23 TIME:   0.004 TIME LEFT:  2.00D  GRAD.:     2.659 HEAT:  54.28967
 CYCLE:    24 TIME:   0.008 TIME LEFT:  2.00D  GRAD.:     2.131 HEAT:  54.28496
 CYCLE:    25 TIME:   0.008 TIME LEFT:  2.00D  GRAD.:     2.489 HEAT:  54.28164
 CYCLE:    26 TIME:   0.004 TIME LEFT:  2.00D  GRAD.:     1.402 HEAT:  54.27867
 CYCLE:    27 TIME:   0.008 TIME LEFT:  2.00D  GRAD.:     1.450 HEAT:  54.27676
 CYCLE:    28 TIME:   0.008 TIME LEFT:  2.00D  GRAD.:     1.433 HEAT:  54.27508
 CYCLE:    29 TIME:   0.004 TIME LEFT:  2.00D  GRAD.:     1.184 HEAT:  54.27392
 CYCLE:    30 TIME:   0.008 TIME LEFT:  2.00D  GRAD.:     0.916 HEAT:  54.27312
 CYCLE:    31 TIME:   0.008 TIME LEFT:  2.00D  GRAD.:     0.788 HEAT:  54.27230
 CYCLE:    32 TIME:   0.008 TIME LEFT:  2.00D  GRAD.:     0.586 HEAT:  54.27160
 CYCLE:    33 TIME:   0.004 TIME LEFT:  2.00D  GRAD.:     0.573 HEAT:  54.27121
 CYCLE:    34 TIME:   0.008 TIME LEFT:  2.00D  GRAD.:     0.551 HEAT:  54.27092
 CYCLE:    35 TIME:   0.008 TIME LEFT:  2.00D  GRAD.:     0.390 HEAT:  54.27058
 CYCLE:    36 TIME:   0.004 TIME LEFT:  2.00D  GRAD.:     0.297 HEAT:  54.27040
 CYCLE:    37 TIME:   0.008 TIME LEFT:  2.00D  GRAD.:     0.239 HEAT:  54.27032
 CYCLE:    38 TIME:   0.008 TIME LEFT:  2.00D  GRAD.:     0.221 HEAT:  54.27024
 CYCLE:    39 TIME:   0.004 TIME LEFT:  2.00D  GRAD.:     0.225 HEAT:  54.27011
 CYCLE:    40 TIME:   0.008 TIME LEFT:  2.00D  GRAD.:     0.254 HEAT:  54.26997
 CYCLE:    41 TIME:   0.008 TIME LEFT:  2.00D  GRAD.:     0.302 HEAT:  54.26976
 CYCLE:    42 TIME:   0.004 TIME LEFT:  2.00D  GRAD.:     0.384 HEAT:  54.26946
 CYCLE:    43 TIME:   0.008 TIME LEFT:  2.00D  GRAD.:     0.479 HEAT:  54.26915
 CYCLE:    44 TIME:   0.008 TIME LEFT:  2.00D  GRAD.:     0.461 HEAT:  54.26875
 CYCLE:    45 TIME:   0.008 TIME LEFT:  2.00D  GRAD.:     0.511 HEAT:  54.26810
 CYCLE:    46 TIME:   0.004 TIME LEFT:  2.00D  GRAD.:     0.435 HEAT:  54.26762
 CYCLE:    47 TIME:   0.008 TIME LEFT:  2.00D  GRAD.:     0.390 HEAT:  54.26705
 CYCLE:    48 TIME:   0.004 TIME LEFT:  2.00D  GRAD.:     0.404 HEAT:  54.26667
 CYCLE:    49 TIME:   0.008 TIME LEFT:  2.00D  GRAD.:     0.714 HEAT:  54.26589
 CYCLE:    50 TIME:   0.008 TIME LEFT:  2.00D  GRAD.:     0.603 HEAT:  54.26528
 CYCLE:    51 TIME:   0.008 TIME LEFT:  2.00D  GRAD.:     0.566 HEAT:  54.26388
 CYCLE:    52 TIME:   0.004 TIME LEFT:  2.00D  GRAD.:     0.612 HEAT:  54.26323
 CYCLE:    53 TIME:   0.008 TIME LEFT:  2.00D  GRAD.:     0.431 HEAT:  54.26265
 CYCLE:    54 TIME:   0.004 TIME LEFT:  2.00D  GRAD.:     0.445 HEAT:  54.26205
 CYCLE:    55 TIME:   0.008 TIME LEFT:  2.00D  GRAD.:     0.522 HEAT:  54.26124
 CYCLE:    56 TIME:   0.008 TIME LEFT:  2.00D  GRAD.:     0.439 HEAT:  54.26063
 CYCLE:    57 TIME:   0.008 TIME LEFT:  2.00D  GRAD.:     0.933 HEAT:  54.25980
 CYCLE:    58 TIME:   0.008 TIME LEFT:  2.00D  GRAD.:     0.475 HEAT:  54.25922
 CYCLE:    59 TIME:   0.008 TIME LEFT:  2.00D  GRAD.:     0.483 HEAT:  54.25856
 CYCLE:    60 TIME:   0.008 TIME LEFT:  2.00D  GRAD.:     0.654 HEAT:  54.25725
 CYCLE:    61 TIME:   0.008 TIME LEFT:  2.00D  GRAD.:     0.449 HEAT:  54.25668
 CYCLE:    62 TIME:   0.004 TIME LEFT:  2.00D  GRAD.:     1.516 HEAT:  54.25728
 CYCLE:    63 TIME:   0.008 TIME LEFT:  2.00D  GRAD.:     0.354 HEAT:  54.25578
 CYCLE:    64 TIME:   0.008 TIME LEFT:  2.00D  GRAD.:     0.246 HEAT:  54.25551
 CYCLE:    65 TIME:   0.008 TIME LEFT:  2.00D  GRAD.:     0.266 HEAT:  54.25539
 CYCLE:    66 TIME:   0.008 TIME LEFT:  2.00D  GRAD.:     0.634 HEAT:  54.25523
 CYCLE:    67 TIME:   0.004 TIME LEFT:  2.00D  GRAD.:     0.283 HEAT:  54.25508
 CYCLE:    68 TIME:   0.008 TIME LEFT:  2.00D  GRAD.:     0.101 HEAT:  54.25493
 CYCLE:    69 TIME:   0.008 TIME LEFT:  2.00D  GRAD.:     0.085 HEAT:  54.25481
 CYCLE:    70 TIME:   0.008 TIME LEFT:  2.00D  GRAD.:     0.130 HEAT:  54.25470
 CYCLE:    71 TIME:   0.008 TIME LEFT:  2.00D  GRAD.:     0.166 HEAT:  54.25459
 CYCLE:    72 TIME:   0.004 TIME LEFT:  2.00D  GRAD.:     0.208 HEAT:  54.25441
 CYCLE:    73 TIME:   0.008 TIME LEFT:  2.00D  GRAD.:     0.184 HEAT:  54.25423
 CYCLE:    74 TIME:   0.008 TIME LEFT:  2.00D  GRAD.:     0.123 HEAT:  54.25426
 CYCLE:    75 TIME:   0.008 TIME LEFT:  2.00D  GRAD.:     0.127 HEAT:  54.25418
 CYCLE:    76 TIME:   0.004 TIME LEFT:  2.00D  GRAD.:     0.141 HEAT:  54.25413
 CYCLE:    77 TIME:   0.008 TIME LEFT:  2.00D  GRAD.:     0.086 HEAT:  54.25409
 CYCLE:    78 TIME:   0.008 TIME LEFT:  2.00D  GRAD.:     0.148 HEAT:  54.25404
 CYCLE:    79 TIME:   0.008 TIME LEFT:  2.00D  GRAD.:     0.098 HEAT:  54.25399
 CYCLE:    80 TIME:   0.004 TIME LEFT:  2.00D  GRAD.:     0.085 HEAT:  54.25395
 CYCLE:    81 TIME:   0.008 TIME LEFT:  2.00D  GRAD.:     0.173 HEAT:  54.25385
 CYCLE:    82 TIME:   0.008 TIME LEFT:  2.00D  GRAD.:     0.068 HEAT:  54.25382
 CYCLE:    83 TIME:   0.008 TIME LEFT:  2.00D  GRAD.:     0.041 HEAT:  54.25377

     GRADIENT =  0.04106 IS LESS THAN CUTOFF =  0.05000



 -------------------------------------------------------------------------------
 pm3  precise nosym THREADS=1
 InChI=1S/C10H10/c1-8-6-7-9-4-2-3-5-10(8)9/h2-3,5-7H,4H2,1H3



     GEOMETRY OPTIMISED USING EIGENVECTOR FOLLOWING (EF).     
     SCF FIELD WAS ACHIEVED                                   


                              PM3 CALCULATION
                                                       MOPAC v23.1.2 MacOS
                                                       Tue Jun  3 16:32:06 2025




          FINAL HEAT OF FORMATION =         54.25377 KCAL/MOL =     226.99778 KJ/MOL


          COSMO AREA              =        173.22 SQUARE ANGSTROMS
          COSMO VOLUME            =        173.23 CUBIC ANGSTROMS

          GRADIENT NORM           =          0.04106          =       0.00918 PER ATOM
          IONIZATION POTENTIAL    =          8.599353 EV
          HOMO LUMO ENERGIES (EV) =         -8.599 -0.883
          NO. OF FILLED LEVELS    =         25
          MOLECULAR WEIGHT        =        130.1890         POINT GROUP:  C1  

          MOLECULAR DIMENSIONS (Angstroms)

            Atom       Atom       Distance
            H    16    H    14     7.40508
            H    18    H    17     5.55439
            H    15    H    12     1.86770


          SCF CALCULATIONS        =         91

          WALL-CLOCK TIME         =      0.609 SECONDS
          COMPUTATION TIME        =      0.384 SECONDS




   ATOM   CHEMICAL          X               Y               Z
  NUMBER   SYMBOL      (ANGSTROMS)     (ANGSTROMS)     (ANGSTROMS)

     1       C          2.05828404  *   0.86056389  *   0.31641774  *
     2       C         -2.73271406  *  -0.77237893  *  -0.36010367  *
     3       C          0.59098352  *   0.93055030  *   0.18579284  *
     4       C         -1.59937284  *   0.13481984  *  -0.12822126  *
     5       C         -0.19570326  *  -0.29724085  *  -0.05020714  *
     6       C          2.59164744  *  -0.52263916  *   0.18856238  *
     7       C         -1.62958958  *   1.48671736  *   0.04771227  *
     8       C         -0.26548297  *   1.98516489  *   0.24336674  *
     9       C          0.38310084  *  -1.50636130  *  -0.15054618  *
    10       C          1.82269241  *  -1.60393872  *  -0.02502792  *
    11       H          2.53590503  *   1.50302382  *  -0.45243442  *
    12       H          2.36962879  *   1.27743053  *   1.29685006  *
    13       H         -2.75206588  *  -1.57578467  *   0.38875840  *
    14       H         -3.69220223  *  -0.24213418  *  -0.31186574  *
    15       H         -2.65815431  *  -1.24471635  *  -1.34922587  *
    16       H          3.67930371  *  -0.62471734  *   0.27952559  *
    17       H          2.26773677  *  -2.60107729  *  -0.11124888  *
    18       H         -0.02230502  *   3.03268710  *   0.40468001  *
    19       H         -0.20059854  *  -2.41664743  *  -0.32326103  *
    20       H         -2.50917500  *   2.12734407  *   0.04890630  *

                             CARTESIAN COORDINATES

   1    C        2.058284036     0.860563895     0.316417737
   2    C       -2.732714064    -0.772378928    -0.360103672
   3    C        0.590983519     0.930550299     0.185792838
   4    C       -1.599372835     0.134819840    -0.128221264
   5    C       -0.195703257    -0.297240853    -0.050207138
   6    C        2.591647436    -0.522639158     0.188562380
   7    C       -1.629589577     1.486717357     0.047712271
   8    C       -0.265482967     1.985164893     0.243366743
   9    C        0.383100844    -1.506361300    -0.150546175
  10    C        1.822692413    -1.603938723    -0.025027921
  11    H        2.535905031     1.503023824    -0.452434415
  12    H        2.369628788     1.277430528     1.296850062
  13    H       -2.752065877    -1.575784673     0.388758395
  14    H       -3.692202225    -0.242134179    -0.311865737
  15    H       -2.658154308    -1.244716347    -1.349225867
  16    H        3.679303713    -0.624717343     0.279525588
  17    H        2.267736772    -2.601077294    -0.111248879
  18    H       -0.022305024     3.032687096     0.404680006
  19    H       -0.200598538    -2.416647429    -0.323261030
  20    H       -2.509174996     2.127344071     0.048906302


           Empirical Formula: C10 H10  =    20 atoms



      MOLECULAR POINT GROUP   :   C1  


                  EIGENVALUES  
 -41.18235 -35.56205 -31.97022 -29.15850 -26.84239 -23.49030 -21.86725 -19.79504
 -19.06788 -17.11808 -16.03436 -15.92572 -15.19228 -14.85094 -14.75057 -14.30149
 -13.86370 -13.05874 -12.96001 -12.53400 -12.19345 -12.01197 -11.27359  -8.98985
  -8.59935  -0.88344   1.03167   2.01912   2.41413   3.03006   3.14123   3.25177
   3.43285   3.62814   3.68205   4.05894   4.10458   4.21911   4.34181   4.36397
   4.54423   4.59751   4.61527   4.83586   5.18998   5.49803   5.55560   6.20960
   6.36490   6.37838


              NET ATOMIC CHARGES AND DIPOLE CONTRIBUTIONS

  ATOM NO.   TYPE          CHARGE      No. of ELECS.   s-Pop       p-Pop       
    1          C          -0.000536        4.0005     1.12362     2.87692
    2          C          -0.041985        4.0420     1.11449     2.92749
    3          C          -0.118212        4.1182     1.19153     2.92668
    4          C          -0.107089        4.1071     1.18740     2.91969
    5          C          -0.062249        4.0622     1.17976     2.88249
    6          C          -0.099816        4.0998     1.19787     2.90195
    7          C          -0.109827        4.1098     1.19092     2.91891
    8          C          -0.123650        4.1236     1.18704     2.93660
    9          C          -0.006355        4.0064     1.17348     2.83288
   10          C          -0.138625        4.1386     1.18065     2.95798
   11          H           0.072310        0.9277     0.92769
   12          H           0.072267        0.9277     0.92773
   13          H           0.042862        0.9571     0.95714
   14          H           0.042966        0.9570     0.95703
   15          H           0.043507        0.9565     0.95649
   16          H           0.096638        0.9034     0.90336
   17          H           0.104206        0.8958     0.89579
   18          H           0.115022        0.8850     0.88498
   19          H           0.104366        0.8956     0.89563
   20          H           0.114199        0.8858     0.88580
 DIPOLE           X         Y         Z       TOTAL
 POINT-CHG.     0.814    -0.584    -0.002     1.002
 HYBRID         0.093    -0.040     0.002     0.101
 SUM            0.906    -0.624    -0.000     1.101


          ATOMIC ORBITAL ELECTRON POPULATIONS

     Atom    s        px        py        pz   
    1  C   1.12362   0.92505   0.94567   1.00619
    2  C   1.11449   0.95236   0.97586   0.99927
    3  C   1.19153   0.94353   0.94996   1.03320
    4  C   1.18740   0.92702   0.95590   1.03677
    5  C   1.17976   0.93465   0.94023   1.00761
    6  C   1.19787   0.98323   0.95255   0.96617
    7  C   1.19092   0.96004   0.94376   1.01511
    8  C   1.18704   0.93524   0.96768   1.03368
    9  C   1.17348   0.93973   0.96109   0.93206
   10  C   1.18065   0.94611   0.97956   1.03231
   11  H   0.92769
   12  H   0.92773
   13  H   0.95714
   14  H   0.95703
   15  H   0.95649
   16  H   0.90336
   17  H   0.89579
   18  H   0.88498
   19  H   0.89563
   20  H   0.88580
 *******************************************************************************
 **                                                                           **
 **                              MOPAC v23.1.2                                **
 **                                                                           **
 *******************************************************************************
 **          Digital Object Identifier (DOI): 10.5281/zenodo.6511958          **
 **    Visit the DOI location for information on how to cite this program.    **
 *******************************************************************************

                              PM3 CALCULATION RESULTS

 *******************************************************************************
 *  CALCULATION DONE: (MAX THREADS = 1)              Tue Jun  3 16:32:06 2025  *
 *  PM3        - The PM3 Hamiltonian to be used
 *  OLDGEO     - PREVIOUS GEOMETRY TO BE USED
 *  PRECISE    - TIGHTER CRITERIA TO BE USED
 *  NOSYM      - POINT-GROUP SYMMETRY SET TO C1
 *  THREADS=1  - MULTI-THREADING NOT USED
 *  T=         - A TIME OF 172800.0 SECONDS REQUESTED
 *  DUMP=N     - RESTART FILE WRITTEN EVERY 7200.0 SECONDS REQUESTED
 *  THERMO     - THERMODYNAMIC QUANTITIES TO BE CALCULATED
 *******************************************************************************
oldgeo thermo nosym precise THREADS=1  pm3
 InChI=1S/C10H10/c1-8-6-7-9-4-2-3-5-10(8)9/h2-3,5-7H,4H2,1H3

   ATOM   CHEMICAL          X               Y               Z
  NUMBER   SYMBOL      (ANGSTROMS)     (ANGSTROMS)     (ANGSTROMS)

     1       C          2.05828404  *   0.86056389  *   0.31641774  *
     2       C         -2.73271406  *  -0.77237893  *  -0.36010367  *
     3       C          0.59098352  *   0.93055030  *   0.18579284  *
     4       C         -1.59937284  *   0.13481984  *  -0.12822126  *
     5       C         -0.19570326  *  -0.29724085  *  -0.05020714  *
     6       C          2.59164744  *  -0.52263916  *   0.18856238  *
     7       C         -1.62958958  *   1.48671736  *   0.04771227  *
     8       C         -0.26548297  *   1.98516489  *   0.24336674  *
     9       C          0.38310084  *  -1.50636130  *  -0.15054618  *
    10       C          1.82269241  *  -1.60393872  *  -0.02502792  *
    11       H          2.53590503  *   1.50302382  *  -0.45243442  *
    12       H          2.36962879  *   1.27743053  *   1.29685006  *
    13       H         -2.75206588  *  -1.57578467  *   0.38875840  *
    14       H         -3.69220223  *  -0.24213418  *  -0.31186574  *
    15       H         -2.65815431  *  -1.24471635  *  -1.34922587  *
    16       H          3.67930371  *  -0.62471734  *   0.27952559  *
    17       H          2.26773677  *  -2.60107729  *  -0.11124888  *
    18       H         -0.02230502  *   3.03268710  *   0.40468001  *
    19       H         -0.20059854  *  -2.41664743  *  -0.32326103  *
    20       H         -2.50917500  *   2.12734407  *   0.04890630  *



          CARTESIAN COORDINATES 

    NO.       ATOM           X           Y           Z

     1         C          2.0583      0.8606      0.3164
     2         C         -2.7327     -0.7724     -0.3601
     3         C          0.5910      0.9306      0.1858
     4         C         -1.5994      0.1348     -0.1282
     5         C         -0.1957     -0.2972     -0.0502
     6         C          2.5916     -0.5226      0.1886
     7         C         -1.6296      1.4867      0.0477
     8         C         -0.2655      1.9852      0.2434
     9         C          0.3831     -1.5064     -0.1505
    10         C          1.8227     -1.6039     -0.0250
    11         H          2.5359      1.5030     -0.4524
    12         H          2.3696      1.2774      1.2969
    13         H         -2.7521     -1.5758      0.3888
    14         H         -3.6922     -0.2421     -0.3119
    15         H         -2.6582     -1.2447     -1.3492
    16         H          3.6793     -0.6247      0.2795
    17         H          2.2677     -2.6011     -0.1112
    18         H         -0.0223      3.0327      0.4047
    19         H         -0.2006     -2.4166     -0.3233
    20         H         -2.5092      2.1273      0.0489

  H: (PM3): J. J. P. STEWART, J. COMP. CHEM. 10, 209 (1989).
  C: (PM3): J. J. P. STEWART, J. COMP. CHEM. 10, 209 (1989).

           Empirical Formula: C10 H10  =    20 atoms



      MOLECULAR POINT GROUP   :   C1  


      RHF CALCULATION, NO. OF DOUBLY OCCUPIED LEVELS = 25



          HEAT OF FORMATION =      54.253772 KCALS/MOLE


          CARTESIAN COORDINATE DERIVATIVES

   NUMBER  ATOM         X            Y            Z

     1       C     -0.002413     0.002765     0.001161
     2       C      0.003308     0.007737    -0.004055
     3       C      0.001746     0.003733    -0.004236
     4       C     -0.001404    -0.005100    -0.004117
     5       C      0.002836     0.004111    -0.004456
     6       C     -0.005317     0.007030    -0.001729
     7       C      0.006095     0.000448     0.001302
     8       C      0.006688     0.008632    -0.003808
     9       C     -0.006685     0.002665     0.003039
    10       C      0.001145    -0.002311    -0.000620
    11       H     -0.011268    -0.006902     0.002939
    12       H     -0.009067    -0.002281     0.002550
    13       H      0.004333    -0.004362    -0.002789
    14       H      0.001892    -0.014767    -0.001120
    15       H      0.010188    -0.003333     0.017339
    16       H      0.001285    -0.002216     0.002566
    17       H      0.009757     0.001277    -0.002612
    18       H     -0.008486    -0.001694     0.002420
    19       H      0.000004     0.001816    -0.002437
    20       H     -0.004637     0.002753    -0.001338



          GRADIENT NORM =   0.04180

          MOLECULAR WEIGHT =  130.19



          ROTATIONAL CONSTANTS IN CM(-1)

          A =    0.08570276   B =    0.04120751   C =    0.02812126



           PRINCIPAL MOMENTS OF INERTIA IN UNITS OF 10**(-40)*GRAM-CM**2

          A =      326.6260   B =      679.3120   C =      995.4301


          ORIENTATION OF MOLECULE IN FORCE CALCULATION

    NO.       ATOM         X         Y         Z

     1          C      -2.1449    0.1237    0.0031
     2          C       2.9617    0.1237    0.0031
     3          C      -0.7734    0.6658    0.0031
     4          C       1.5776    0.6192    0.0013
     5          C       0.3886   -0.2463   -0.0008
     6          C      -2.1861   -1.3637   -0.0038
     7          C       1.1504    1.9141    0.0040
     8          C      -0.3147    1.9459    0.0054
     9          C       0.2455   -1.5830   -0.0075
    10          C      -1.0906   -2.1422   -0.0087
    11          H      -2.6966    0.4949    0.8919
    12          H      -2.7002    0.5035   -0.8797
    13          H       3.1376   -0.5530   -0.8441
    14          H       3.6860    0.9453   -0.0645
    15          H       3.1739   -0.4375    0.9235
    16          H      -3.1859   -1.8132   -0.0047
    17          H      -1.1778   -3.2340   -0.0139
    18          H      -0.8992    2.8628    0.0080
    19          H       1.1070   -2.2588   -0.0127
    20          H       1.7706    2.8082    0.0049


    FIRST DERIVATIVES WILL BE USED IN THE CALCULATION OF SECOND DERIVATIVES

          ESTIMATED TIME TO COMPLETE CALCULATION =        2.81 SECONDS

    FOR POINT-GROUP C1   THERE ARE   1 UNIQUE SYMMETRY FUNCTIONS.

 STEP:   1 TIME =     0.02 SECS, INTEGRAL =      0.02 TIME LEFT: 172799.97
 STEP:   2 TIME =     0.02 SECS, INTEGRAL =      0.04 TIME LEFT: 172799.95
 STEP:   3 TIME =     0.02 SECS, INTEGRAL =      0.06 TIME LEFT: 172799.93
 STEP:   4 TIME =     0.02 SECS, INTEGRAL =      0.08 TIME LEFT: 172799.91
 STEP:   5 TIME =     0.02 SECS, INTEGRAL =      0.10 TIME LEFT: 172799.89
 STEP:   6 TIME =     0.02 SECS, INTEGRAL =      0.12 TIME LEFT: 172799.87
 STEP:   7 TIME =     0.02 SECS, INTEGRAL =      0.14 TIME LEFT: 172799.85
 STEP:   8 TIME =     0.02 SECS, INTEGRAL =      0.16 TIME LEFT: 172799.82
 STEP:   9 TIME =     0.02 SECS, INTEGRAL =      0.19 TIME LEFT: 172799.80
 STEP:  10 TIME =     0.02 SECS, INTEGRAL =      0.21 TIME LEFT: 172799.78
 STEP:  11 TIME =     0.02 SECS, INTEGRAL =      0.23 TIME LEFT: 172799.75
 STEP:  12 TIME =     0.02 SECS, INTEGRAL =      0.26 TIME LEFT: 172799.73
 STEP:  13 TIME =     0.02 SECS, INTEGRAL =      0.28 TIME LEFT: 172799.71
 STEP:  14 TIME =     0.02 SECS, INTEGRAL =      0.30 TIME LEFT: 172799.68
 STEP:  15 TIME =     0.02 SECS, INTEGRAL =      0.33 TIME LEFT: 172799.66
 STEP:  16 TIME =     0.02 SECS, INTEGRAL =      0.35 TIME LEFT: 172799.64
 STEP:  17 TIME =     0.02 SECS, INTEGRAL =      0.37 TIME LEFT: 172799.62
 STEP:  18 TIME =     0.02 SECS, INTEGRAL =      0.39 TIME LEFT: 172799.60
 STEP:  19 TIME =     0.02 SECS, INTEGRAL =      0.41 TIME LEFT: 172799.57
 STEP:  20 TIME =     0.02 SECS, INTEGRAL =      0.43 TIME LEFT: 172799.55
 STEP:  21 TIME =     0.02 SECS, INTEGRAL =      0.45 TIME LEFT: 172799.54
 STEP:  22 TIME =     0.02 SECS, INTEGRAL =      0.47 TIME LEFT: 172799.52
 STEP:  23 TIME =     0.02 SECS, INTEGRAL =      0.49 TIME LEFT: 172799.50
 STEP:  24 TIME =     0.02 SECS, INTEGRAL =      0.52 TIME LEFT: 172799.47
 STEP:  25 TIME =     0.02 SECS, INTEGRAL =      0.54 TIME LEFT: 172799.45
 STEP:  26 TIME =     0.02 SECS, INTEGRAL =      0.56 TIME LEFT: 172799.43
 STEP:  27 TIME =     0.02 SECS, INTEGRAL =      0.59 TIME LEFT: 172799.40
 STEP:  28 TIME =     0.02 SECS, INTEGRAL =      0.61 TIME LEFT: 172799.38
 STEP:  29 TIME =     0.02 SECS, INTEGRAL =      0.63 TIME LEFT: 172799.36
 STEP:  30 TIME =     0.02 SECS, INTEGRAL =      0.65 TIME LEFT: 172799.34
 STEP:  31 TIME =     0.02 SECS, INTEGRAL =      0.68 TIME LEFT: 172799.31
 STEP:  32 TIME =     0.02 SECS, INTEGRAL =      0.70 TIME LEFT: 172799.29
 STEP:  33 TIME =     0.02 SECS, INTEGRAL =      0.71 TIME LEFT: 172799.27
 STEP:  34 TIME =     0.02 SECS, INTEGRAL =      0.73 TIME LEFT: 172799.25
 STEP:  35 TIME =     0.02 SECS, INTEGRAL =      0.75 TIME LEFT: 172799.23
 STEP:  36 TIME =     0.02 SECS, INTEGRAL =      0.77 TIME LEFT: 172799.21
 STEP:  37 TIME =     0.02 SECS, INTEGRAL =      0.79 TIME LEFT: 172799.20
 STEP:  38 TIME =     0.02 SECS, INTEGRAL =      0.81 TIME LEFT: 172799.18
 STEP:  39 TIME =     0.02 SECS, INTEGRAL =      0.83 TIME LEFT: 172799.16
 STEP:  40 TIME =     0.02 SECS, INTEGRAL =      0.85 TIME LEFT: 172799.14
 STEP:  41 TIME =     0.02 SECS, INTEGRAL =      0.87 TIME LEFT: 172799.12
 STEP:  42 TIME =     0.02 SECS, INTEGRAL =      0.89 TIME LEFT: 172799.09
 STEP:  43 TIME =     0.02 SECS, INTEGRAL =      0.92 TIME LEFT: 172799.07
 STEP:  44 TIME =     0.02 SECS, INTEGRAL =      0.94 TIME LEFT: 172799.05
 STEP:  45 TIME =     0.02 SECS, INTEGRAL =      0.96 TIME LEFT: 172799.03
 STEP:  46 TIME =     0.02 SECS, INTEGRAL =      0.98 TIME LEFT: 172799.01
 STEP:  47 TIME =     0.02 SECS, INTEGRAL =      1.00 TIME LEFT: 172798.99
 STEP:  48 TIME =     0.02 SECS, INTEGRAL =      1.02 TIME LEFT: 172798.97
 STEP:  49 TIME =     0.02 SECS, INTEGRAL =      1.04 TIME LEFT: 172798.95
 STEP:  50 TIME =     0.02 SECS, INTEGRAL =      1.06 TIME LEFT: 172798.93
 STEP:  51 TIME =     0.02 SECS, INTEGRAL =      1.09 TIME LEFT: 172798.90
 STEP:  52 TIME =     0.02 SECS, INTEGRAL =      1.11 TIME LEFT: 172798.88
 STEP:  53 TIME =     0.02 SECS, INTEGRAL =      1.12 TIME LEFT: 172798.86
 STEP:  54 TIME =     0.02 SECS, INTEGRAL =      1.14 TIME LEFT: 172798.84
 STEP:  55 TIME =     0.02 SECS, INTEGRAL =      1.16 TIME LEFT: 172798.82
 STEP:  56 TIME =     0.02 SECS, INTEGRAL =      1.18 TIME LEFT: 172798.80
 STEP:  57 TIME =     0.02 SECS, INTEGRAL =      1.20 TIME LEFT: 172798.79
 STEP:  58 TIME =     0.02 SECS, INTEGRAL =      1.22 TIME LEFT: 172798.77
 STEP:  59 TIME =     0.02 SECS, INTEGRAL =      1.24 TIME LEFT: 172798.75
 STEP:  60 TIME =     0.02 SECS, INTEGRAL =      1.27 TIME LEFT: 172798.72

(To convert to Hartree/Bohr^2, multiply by (10^(-21) x N x a0^2)/(4.184 x 627.51) =  0.0642)


           FORCE MATRIX IN MILLIDYNES/ANGSTROM


                  C  1       C  2       C  3       C  4       C  5       C  6
 ------------------------------------------------------------------------------
     C    1  15.104307
     C    2   0.013052  14.874060
     C    3   5.318477   0.048918  18.937731
     C    4   0.089221   5.534221   1.149466  18.564056
     C    5   0.619939   0.523980   4.613469   4.691199  19.409539
     C    6   4.857971   0.002242   0.766907   0.126952   0.321381  17.706491
     C    7   0.135217   0.677708   1.670887   8.932210   1.576094   0.102632
     C    8   0.622107   0.112310   9.071657   1.588250   1.504829   0.105985
     C    9   0.171863   0.029220   0.957973   0.897158   9.598024   1.245435
     C   10   0.847515   0.006754   0.187812   0.235272   1.348347   9.888853
     H   11   4.361214   0.002761   0.413063   0.008226   0.026143   0.416321
     H   12   4.362582   0.002662   0.413260   0.008124   0.026095   0.416409
     H   13   0.001235   4.696429   0.006363   0.453253   0.015827   0.000966
     H   14   0.001398   4.753756   0.008422   0.468652   0.045451   0.000272
     H   15   0.001506   4.688315   0.006335   0.449139   0.015027   0.001052
     H   16   0.419982   0.000574   0.056763   0.013166   0.015128   4.817740
     H   17   0.120784   0.000724   0.005177   0.010277   0.049058   0.443936
     H   18   0.047997   0.006568   0.455970   0.048874   0.102466   0.002922
     H   19   0.007308   0.008221   0.121146   0.072040   0.454995   0.049083
     H   20   0.006931   0.046806   0.048055   0.452210   0.100402   0.002770


                  C  7       C  8       C  9       C 10       H 11       H 12
 ------------------------------------------------------------------------------
     C    7  17.895085
     C    8   4.990577  17.961806
     C    9   0.232383   0.212292  18.100243
     C   10   0.128070   0.127348   5.530299  18.029803
     H   11   0.013193   0.017967   0.019037   0.042524   4.950182
     H   12   0.013128   0.017855   0.018957   0.042509   0.565797   4.951267
     H   13   0.027383   0.015367   0.007207   0.001296   0.000237   0.000364
     H   14   0.025547   0.003164   0.002344   0.000589   0.000072   0.000129
     H   15   0.023988   0.016101   0.005982   0.001388   0.000459   0.000265
     H   16   0.007997   0.007612   0.123296   0.441503   0.028487   0.028535
     H   17   0.005474   0.005002   0.438334   4.843060   0.016254   0.016237
     H   18   0.418176   5.086905   0.009665   0.007110   0.007207   0.007177
     H   19   0.018252   0.022625   4.858915   0.435276   0.001554   0.001546
     H   20   5.066744   0.416977   0.007925   0.008173   0.000942   0.000935


                  H 13       H 14       H 15       H 16       H 17       H 18
 ------------------------------------------------------------------------------
     H   13   5.408074
     H   14   0.557675   5.453373
     H   15   0.574794   0.560250   5.401760
     H   16   0.000159   0.000088   0.000155   5.186285
     H   17   0.000206   0.000143   0.000203   0.066680   5.206084
     H   18   0.000845   0.000612   0.000713   0.001005   0.000355   5.485529
     H   19   0.006515   0.000871   0.004706   0.008562   0.029798   0.007820
     H   20   0.005349   0.010761   0.005951   0.000878   0.000573   0.008342


                  H 19       H 20
 ------------------------------
     H   19   5.214839
     H   20   0.002713   5.463080


          HEAT OF FORMATION =      54.253772 KCALS/MOLE

          ZERO POINT ENERGY     105.056 KCAL/MOL


           NORMAL COORDINATE ANALYSIS (Total motion = 1 Angstrom)


   Root No.       1         2         3         4         5         6         7         8

                 1 A       2 A       3 A       4 A       5 A       6 A       7 A       8 A   

                  64.5     108.4     155.7     238.4     276.0     299.7     425.5     469.9
  
           1    0.0000    0.0001   -0.0000   -0.0001   -0.0001   -0.0001    0.0000   -0.0069
           2    0.0000   -0.0002   -0.0000    0.0098    0.0001   -0.0001    0.0000   -0.0200
           3   -0.0106    0.0605    0.0093   -0.0001   -0.0281    0.0052    0.0010   -0.0001
           4   -0.0003   -0.0001    0.0002    0.0458    0.0000    0.0003    0.0000    0.0088
           5   -0.0003   -0.0001    0.0003    0.0785   -0.0001   -0.0001   -0.0000    0.0173
           6   -0.0109    0.0437   -0.0435    0.0003   -0.0041   -0.0274   -0.0006    0.0001
           7   -0.0000    0.0000   -0.0000    0.0117    0.0000   -0.0001    0.0001   -0.0236
           8    0.0001   -0.0000   -0.0001   -0.0222   -0.0002    0.0001   -0.0002    0.0486
           9   -0.0059    0.0096    0.0201   -0.0001    0.0654   -0.0287    0.0269    0.0000
          10   -0.0000    0.0000    0.0000    0.0105    0.0000    0.0000    0.0001   -0.0110
          11    0.0002    0.0000   -0.0001   -0.0162   -0.0000   -0.0001    0.0001   -0.0335
          12    0.0002    0.0020    0.0134    0.0001    0.0185    0.0618    0.0007    0.0002
          13    0.0000    0.0000    0.0000    0.0124    0.0000   -0.0000    0.0001   -0.0446
          14    0.0001   -0.0000   -0.0002   -0.0270   -0.0002    0.0000   -0.0000    0.0186
          15   -0.0005    0.0099    0.0473   -0.0001    0.0624    0.0234    0.0069    0.0001
          16    0.0001    0.0000   -0.0001   -0.0299    0.0001   -0.0000   -0.0001    0.0086
          17   -0.0001    0.0000    0.0003    0.0132   -0.0001   -0.0002    0.0003   -0.0311
          18    0.0024   -0.0016   -0.0619    0.0002    0.0152    0.0278   -0.0473   -0.0002
          19   -0.0000   -0.0000   -0.0001    0.0012   -0.0001   -0.0000   -0.0001    0.0340
          20    0.0002    0.0001   -0.0000   -0.0183    0.0000   -0.0001    0.0000   -0.0214
          21    0.0034   -0.0419   -0.0114   -0.0000   -0.0398    0.0495    0.0124   -0.0003
          22   -0.0001   -0.0000   -0.0000    0.0059   -0.0000   -0.0001   -0.0001    0.0325
          23    0.0001    0.0001   -0.0001   -0.0215   -0.0001    0.0002   -0.0001    0.0353
          24   -0.0015   -0.0378   -0.0021   -0.0001    0.0019   -0.0613   -0.0178    0.0002
          25    0.0002    0.0000    0.0000   -0.0239    0.0000   -0.0000   -0.0000   -0.0219
          26    0.0000    0.0001   -0.0003   -0.0245    0.0003    0.0002    0.0002    0.0172
          27    0.0129   -0.0183    0.0644   -0.0003   -0.0311   -0.0161   -0.0435   -0.0001
          28    0.0002   -0.0000   -0.0001   -0.0385    0.0001   -0.0000    0.0000    0.0054
          29   -0.0001    0.0002    0.0001    0.0015    0.0001    0.0001   -0.0002   -0.0343
          30    0.0134   -0.0374   -0.0135   -0.0000   -0.0185   -0.0174    0.0648    0.0001
          31   -0.0068    0.0550    0.0135    0.0088   -0.0990    0.0253    0.0226   -0.0229
          32    0.0082   -0.0433   -0.0499    0.0241    0.0483    0.0149   -0.0701   -0.0462
          33   -0.0183    0.1131    0.0390   -0.0004   -0.1113    0.0149    0.0462    0.0006
          34    0.0067   -0.0545   -0.0134    0.0093    0.0982   -0.0254   -0.0223   -0.0239
          35   -0.0082    0.0423    0.0495    0.0237   -0.0473   -0.0151    0.0697   -0.0456
          36   -0.0184    0.1137    0.0395   -0.0002   -0.1121    0.0149    0.0469   -0.0001
          37    0.0666    0.0354   -0.0377    0.1035   -0.0129   -0.0660   -0.0023    0.0536
          38    0.2199    0.0255    0.0026    0.0965    0.0118    0.0163    0.0022    0.0315
          39   -0.1733    0.0305   -0.0535   -0.0012   -0.0167   -0.0550   -0.0030   -0.0010
          40    0.0056    0.0029   -0.0030   -0.0206   -0.0008   -0.0049    0.0000   -0.0422
          41    0.0166    0.0018    0.0006    0.1389    0.0007    0.0011    0.0000    0.0643
          42    0.2573    0.0988   -0.0748    0.0023   -0.0040   -0.0700    0.0001    0.0005
          43   -0.0743   -0.0391    0.0418    0.0931    0.0136    0.0725    0.0023    0.0466
          44   -0.2401   -0.0282   -0.0022    0.0968   -0.0132   -0.0177   -0.0026    0.0332
          45   -0.1404    0.0356   -0.0548   -0.0000   -0.0155   -0.0556   -0.0028    0.0004
          46    0.0002    0.0000   -0.0002   -0.0370    0.0002    0.0001   -0.0002    0.0092
          47   -0.0001    0.0001    0.0007    0.0290   -0.0004   -0.0004    0.0006   -0.0329
          48    0.0025   -0.0135   -0.1469    0.0006    0.0557    0.0724   -0.1083   -0.0002
          49    0.0003   -0.0001   -0.0001   -0.0561    0.0002    0.0001    0.0002    0.0307
          50   -0.0001    0.0004    0.0003    0.0027    0.0002    0.0002   -0.0009   -0.0360
          51    0.0232   -0.0824   -0.0500    0.0001   -0.0225   -0.0329    0.1960    0.0006
          52   -0.0001   -0.0001   -0.0001    0.0009   -0.0001   -0.0002   -0.0003    0.0869
          53    0.0001    0.0001   -0.0000   -0.0247    0.0000    0.0004   -0.0000    0.0702
          54   -0.0014   -0.0627   -0.0218   -0.0001   -0.0414   -0.1453   -0.0825    0.0007
          55    0.0003   -0.0000    0.0001   -0.0444   -0.0000   -0.0000   -0.0003    0.0068
          56    0.0002    0.0002   -0.0005   -0.0501    0.0009    0.0003    0.0008    0.0535
          57    0.0258   -0.0324    0.1081   -0.0005   -0.1144   -0.0290   -0.1717   -0.0003
          58    0.0000   -0.0000   -0.0001   -0.0004   -0.0001    0.0000   -0.0002    0.0771
          59    0.0002    0.0001    0.0000   -0.0168    0.0002   -0.0002    0.0001   -0.0509
          60    0.0092   -0.0682   -0.0474   -0.0001   -0.1151    0.0853    0.0368   -0.0011


   Root No.       9        10        11        12        13        14        15        16

                 9 A      10 A      11 A      12 A      13 A      14 A      15 A      16 A   

                 525.1     527.8     547.6     682.3     724.2     747.5     799.5     828.2
  
           1   -0.0239   -0.0009    0.0677   -0.0004   -0.0371   -0.0000    0.0586    0.0003
           2    0.0532    0.0003    0.0050   -0.0000   -0.0102    0.0001   -0.0343   -0.0003
           3    0.0004   -0.0104   -0.0003   -0.0306    0.0004   -0.0183   -0.0002    0.0211
           4   -0.0251    0.0007   -0.0561   -0.0006   -0.0567   -0.0001   -0.0284   -0.0002
           5    0.0118   -0.0004    0.0194    0.0003    0.0263   -0.0000   -0.0045    0.0001
           6   -0.0001    0.0028   -0.0001   -0.0079   -0.0002   -0.0002   -0.0001    0.0056
           7   -0.0192   -0.0006    0.0425   -0.0001   -0.0026    0.0000    0.0235    0.0001
           8    0.0024   -0.0002    0.0139   -0.0002   -0.0247   -0.0001   -0.0017   -0.0000
           9    0.0004   -0.0476   -0.0009   -0.0423    0.0002    0.0320    0.0000    0.0009
          10   -0.0390    0.0004   -0.0383   -0.0001   -0.0213   -0.0000   -0.0202   -0.0002
          11   -0.0487   -0.0004    0.0129    0.0001    0.0175    0.0000   -0.0366   -0.0001
          12   -0.0005    0.0650    0.0015   -0.0496    0.0011    0.0008    0.0001    0.0035
          13   -0.0295    0.0001   -0.0040    0.0002    0.0034   -0.0000    0.0069   -0.0000
          14   -0.0275    0.0002   -0.0295   -0.0003   -0.0096    0.0001    0.0128   -0.0001
          15   -0.0001    0.0025    0.0004    0.0858   -0.0010   -0.0148   -0.0003    0.0156
          16    0.0611   -0.0000    0.0231   -0.0004   -0.0312   -0.0001   -0.0447   -0.0003
          17    0.0541    0.0003    0.0060   -0.0002   -0.0156    0.0001   -0.0149   -0.0000
          18    0.0002   -0.0039   -0.0000    0.0040   -0.0000   -0.0200    0.0001   -0.0135
          19   -0.0171   -0.0004   -0.0004    0.0005    0.0601    0.0000   -0.0183   -0.0000
          20   -0.0445   -0.0004    0.0275    0.0001    0.0309    0.0000   -0.0370   -0.0000
          21    0.0003   -0.0347   -0.0004    0.0096    0.0001    0.0004    0.0002   -0.0294
          22   -0.0087   -0.0004    0.0110    0.0006    0.0632    0.0000   -0.0138    0.0000
          23   -0.0055   -0.0006    0.0290   -0.0005   -0.0372   -0.0000    0.0108    0.0001
          24   -0.0003    0.0316    0.0006    0.0138   -0.0003    0.0045    0.0002   -0.0362
          25    0.0546    0.0006   -0.0196    0.0002    0.0266    0.0000    0.0146    0.0001
          26   -0.0334    0.0004   -0.0393    0.0002   -0.0095   -0.0000    0.0299    0.0001
          27   -0.0001   -0.0206   -0.0006    0.0044   -0.0002   -0.0014    0.0000   -0.0026
          28    0.0432    0.0004   -0.0178    0.0001    0.0053   -0.0000    0.0084    0.0000
          29    0.0212    0.0009   -0.0514    0.0006    0.0329    0.0002    0.0672    0.0004
          30    0.0000    0.0107   -0.0001   -0.0107    0.0003   -0.0313    0.0004   -0.0116
          31   -0.0313    0.0615    0.0773    0.1041   -0.0415    0.0273    0.0913   -0.0597
          32    0.0481   -0.0228    0.0119   -0.0317   -0.0095   -0.0770   -0.0079    0.0080
          33   -0.0015    0.0397    0.0028    0.0507   -0.0028    0.0335    0.0073   -0.0210
          34   -0.0304   -0.0632    0.0747   -0.1042   -0.0390   -0.0272    0.0916    0.0602
          35    0.0478    0.0230    0.0128    0.0310   -0.0105    0.0765   -0.0082   -0.0079
          36    0.0015    0.0402   -0.0014    0.0513    0.0017    0.0342   -0.0079   -0.0213
          37    0.0228   -0.0560   -0.0668    0.0653   -0.0752    0.0006    0.0257   -0.0348
          38    0.0268    0.0200    0.0193   -0.0219    0.0277   -0.0007    0.0145    0.0121
          39   -0.0012   -0.0263   -0.0019    0.0247   -0.0039    0.0006   -0.0027   -0.0121
          40   -0.0846   -0.0038   -0.0552    0.0045   -0.0593   -0.0001   -0.1051   -0.0030
          41    0.0656    0.0012    0.0179   -0.0012    0.0278   -0.0000    0.0641    0.0009
          42    0.0004   -0.0283   -0.0010    0.0300   -0.0007   -0.0006    0.0000   -0.0155
          43    0.0133    0.0630   -0.0641   -0.0731   -0.0741   -0.0006    0.0149    0.0379
          44    0.0299   -0.0225    0.0189    0.0242    0.0281    0.0008    0.0185   -0.0128
          45    0.0014   -0.0259    0.0010    0.0245    0.0038    0.0006    0.0028   -0.0119
          46    0.0717    0.0004   -0.0027   -0.0001   -0.0112    0.0003   -0.0444   -0.0002
          47    0.0297   -0.0006    0.0633   -0.0011   -0.0609   -0.0012   -0.0134   -0.0003
          48   -0.0002    0.0262    0.0010    0.1038   -0.0019    0.2523   -0.0008    0.0376
          49   -0.0083    0.0006   -0.0506    0.0005    0.0173    0.0002    0.0637    0.0004
          50    0.0256    0.0006   -0.0485    0.0005    0.0316   -0.0009    0.0642   -0.0002
          51   -0.0002    0.0736    0.0012    0.0124   -0.0000    0.1905   -0.0002    0.1000
          52    0.0071   -0.0002   -0.0097    0.0007    0.0714   -0.0001   -0.0143    0.0004
          53    0.0044   -0.0008    0.0157   -0.0005   -0.0329    0.0001    0.0095   -0.0005
          54   -0.0014    0.1528    0.0025    0.0412   -0.0006   -0.0835   -0.0015    0.2517
          55    0.0698    0.0006   -0.0227    0.0001    0.0132    0.0002    0.0113    0.0001
          56   -0.0128    0.0003   -0.0439    0.0008   -0.0268   -0.0010    0.0266   -0.0001
          57   -0.0001   -0.0161   -0.0009   -0.1090    0.0012    0.1593    0.0006    0.0168
          58    0.0129   -0.0009    0.0251    0.0007    0.0829    0.0000    0.0246    0.0007
          59   -0.0659    0.0001    0.0099   -0.0001    0.0157    0.0001   -0.0684   -0.0008
          60    0.0014   -0.1807   -0.0035    0.0501   -0.0019   -0.0116   -0.0019    0.2296


   Root No.      17        18        19        20        21        22        23        24

                17 A      18 A      19 A      20 A      21 A      22 A      23 A      24 A   

                 880.9     889.0     929.8     946.2     978.9    1002.4    1013.0    1021.6
  
           1    0.0002   -0.0155   -0.0000   -0.0001    0.0084   -0.0002   -0.0002   -0.0137
           2    0.0001   -0.0153    0.0000    0.0001   -0.0017   -0.0001   -0.0000    0.0398
           3    0.0394    0.0012   -0.0020   -0.0266    0.0002    0.0194   -0.0171    0.0001
           4   -0.0001    0.0199    0.0001    0.0002    0.0045    0.0001    0.0000    0.0064
           5    0.0000    0.0007    0.0000    0.0002    0.0526   -0.0006   -0.0004   -0.0005
           6   -0.0140   -0.0003   -0.0065   -0.0146   -0.0004   -0.0255   -0.0281   -0.0004
           7   -0.0000   -0.0014    0.0000   -0.0000   -0.0035    0.0000    0.0000    0.0074
           8   -0.0005    0.0417    0.0000    0.0001   -0.0019    0.0002    0.0001    0.0012
           9   -0.0244   -0.0006    0.0144    0.0226   -0.0002   -0.0199    0.0176    0.0001
          10    0.0002    0.0018    0.0001    0.0002    0.0047    0.0003    0.0003   -0.0026
          11   -0.0001    0.0063   -0.0001   -0.0001   -0.0108    0.0000   -0.0000    0.0003
          12   -0.0068   -0.0004    0.0016    0.0051    0.0008    0.0302    0.0361    0.0004
          13   -0.0001    0.0146    0.0001    0.0002   -0.0025    0.0004    0.0005   -0.0086
          14    0.0005   -0.0349    0.0001   -0.0001    0.0021    0.0000    0.0001   -0.0058
          15    0.0182    0.0006   -0.0197    0.0119   -0.0004    0.0015   -0.0212   -0.0002
          16    0.0007   -0.0349   -0.0000    0.0001    0.0030    0.0001    0.0003   -0.0382
          17    0.0003   -0.0174    0.0001   -0.0001    0.0027    0.0002    0.0001   -0.0413
          18   -0.0086   -0.0003   -0.0165    0.0203   -0.0003   -0.0286    0.0245   -0.0001
          19    0.0001   -0.0112   -0.0000   -0.0001   -0.0094   -0.0000   -0.0001   -0.0025
          20   -0.0003    0.0073   -0.0002   -0.0003   -0.0386    0.0002    0.0000    0.0027
          21    0.0307    0.0010    0.0328    0.0118   -0.0007   -0.0227   -0.0157   -0.0002
          22    0.0001   -0.0141   -0.0001   -0.0002    0.0003   -0.0002   -0.0002   -0.0027
          23   -0.0009    0.0651    0.0002    0.0002   -0.0075    0.0002    0.0002    0.0100
          24   -0.0076    0.0001   -0.0373   -0.0270    0.0006    0.0187   -0.0020    0.0000
          25   -0.0009    0.0477    0.0000   -0.0001   -0.0073   -0.0001   -0.0002    0.0215
          26    0.0011   -0.0600   -0.0002    0.0002    0.0110    0.0000   -0.0001   -0.0085
          27   -0.0135   -0.0007    0.0304   -0.0423    0.0004   -0.0099    0.0264    0.0001
          28   -0.0000   -0.0035   -0.0000   -0.0000    0.0021   -0.0000   -0.0001    0.0033
          29   -0.0005    0.0267   -0.0000   -0.0001    0.0036   -0.0002    0.0001   -0.0274
          30   -0.0179   -0.0005    0.0071    0.0198    0.0001    0.0281   -0.0294   -0.0002
          31   -0.0695   -0.0410   -0.0316    0.0338    0.0160   -0.0660    0.0581    0.0718
          32    0.0693   -0.0448   -0.0541   -0.0574    0.0045   -0.0198    0.0175    0.1957
          33   -0.0357   -0.0027    0.0014    0.0203    0.0020   -0.0142    0.0124   -0.0114
          34    0.0701   -0.0370    0.0313   -0.0339    0.0170    0.0643   -0.0597    0.0711
          35   -0.0674   -0.0492    0.0537    0.0567    0.0042    0.0186   -0.0199    0.1950
          36   -0.0365    0.0002    0.0018    0.0209   -0.0024   -0.0141    0.0125    0.0131
          37    0.0700   -0.0090    0.0297    0.0630   -0.1956    0.1057    0.1137    0.0077
          38   -0.0251   -0.0132   -0.0107   -0.0236   -0.0006   -0.0384   -0.0417   -0.0041
          39    0.0223    0.0035    0.0090    0.0189   -0.0006    0.0289    0.0309    0.0021
          40    0.0048    0.0712    0.0026    0.0060    0.2044    0.0056    0.0068    0.0176
          41   -0.0012   -0.0452   -0.0007   -0.0022   -0.1304   -0.0008   -0.0013   -0.0101
          42    0.0261    0.0008    0.0117    0.0209   -0.0004    0.0335    0.0365    0.0006
          43   -0.0770   -0.0066   -0.0329   -0.0709   -0.1688   -0.1124   -0.1227    0.0050
          44    0.0273   -0.0144    0.0115    0.0253   -0.0093    0.0416    0.0452   -0.0034
          45    0.0219   -0.0023    0.0089    0.0184    0.0023    0.0282    0.0303   -0.0012
          46    0.0004   -0.0206    0.0002   -0.0000   -0.0003    0.0003    0.0002   -0.0300
          47    0.0012   -0.0533   -0.0006    0.0004    0.0109   -0.0006    0.0005   -0.0584
          48   -0.0453   -0.0016    0.1272   -0.0725    0.0013    0.1151   -0.0924   -0.0003
          49    0.0010   -0.0530   -0.0001   -0.0002    0.0210   -0.0006   -0.0005    0.1283
          50   -0.0014    0.0298    0.0004    0.0004    0.0026    0.0004   -0.0005   -0.0399
          51    0.1572    0.0051   -0.0741   -0.0817   -0.0004   -0.1063    0.1030   -0.0001
          52   -0.0007    0.0493    0.0003    0.0005    0.0552   -0.0004    0.0000   -0.0216
          53   -0.0015    0.1090   -0.0001    0.0002    0.0265    0.0003    0.0003   -0.0013
          54    0.0161   -0.0000    0.1435    0.1119   -0.0020   -0.0644    0.0117    0.0000
          55    0.0002   -0.0155   -0.0003    0.0001    0.0070   -0.0007   -0.0012    0.0950
          56    0.0020   -0.1445    0.0008   -0.0013    0.0300   -0.0009   -0.0004    0.0825
          57    0.0645    0.0006   -0.1424    0.1965   -0.0015    0.0154   -0.0953   -0.0002
          58   -0.0008    0.0227   -0.0002   -0.0001    0.0398   -0.0004   -0.0004    0.0091
          59    0.0004   -0.0147    0.0002   -0.0003   -0.0752    0.0004    0.0002   -0.0051
          60   -0.1386   -0.0043   -0.1390   -0.0272    0.0021    0.0822    0.0567    0.0007


   Root No.      25        26        27        28        29        30        31        32

                25 A      26 A      27 A      28 A      29 A      30 A      31 A      32 A   

                1046.2    1058.1    1062.0    1115.2    1156.3    1169.1    1204.1    1311.8
  
           1   -0.0000   -0.0223    0.0026   -0.0158    0.0022    0.0004    0.0079   -0.0112
           2    0.0001    0.0198    0.0036    0.0027    0.0065   -0.0168    0.0021   -0.0062
           3   -0.0047    0.0001    0.0000    0.0000    0.0000   -0.0001   -0.0000    0.0000
           4    0.0001   -0.0189   -0.0151   -0.0168    0.0027    0.0044    0.0092    0.0078
           5    0.0000   -0.0008   -0.0024   -0.0035    0.0010   -0.0053   -0.0052   -0.0078
           6    0.0021    0.0004    0.0002    0.0003   -0.0000   -0.0001   -0.0002    0.0005
           7    0.0000    0.0166   -0.0071    0.0075   -0.0075   -0.0285    0.0089   -0.0243
           8    0.0001   -0.0003    0.0005   -0.0055    0.0067   -0.0114   -0.0193    0.0082
           9   -0.0296   -0.0001   -0.0001   -0.0000    0.0000    0.0000   -0.0001    0.0000
          10   -0.0001    0.0082    0.0114    0.0145   -0.0041   -0.0042   -0.0179    0.0293
          11    0.0000   -0.0042    0.0023    0.0053   -0.0029    0.0161    0.0143    0.0075
          12   -0.0028   -0.0003   -0.0001   -0.0002    0.0000    0.0000    0.0001   -0.0001
          13   -0.0001    0.0494    0.0150    0.0444   -0.0048   -0.0084   -0.0097    0.0012
          14   -0.0000    0.0009    0.0004    0.0057   -0.0070    0.0129   -0.0173   -0.0071
          15    0.0038    0.0000    0.0000    0.0000   -0.0000    0.0001   -0.0001   -0.0000
          16   -0.0000    0.0141    0.0003   -0.0085   -0.0074    0.0101    0.0015    0.0031
          17   -0.0002   -0.0081   -0.0037    0.0007    0.0013   -0.0037    0.0184    0.0211
          18    0.0457   -0.0000    0.0001    0.0000    0.0000   -0.0000    0.0001    0.0001
          19    0.0001   -0.0083   -0.0270   -0.0088    0.0048    0.0001   -0.0149    0.0285
          20    0.0001   -0.0132   -0.0183   -0.0119    0.0021    0.0116    0.0222   -0.0035
          21   -0.0026    0.0001   -0.0000    0.0000   -0.0000    0.0000    0.0001   -0.0000
          22   -0.0000   -0.0102    0.0203   -0.0131    0.0042   -0.0146   -0.0065   -0.0280
          23    0.0000    0.0150   -0.0135    0.0072   -0.0018   -0.0152   -0.0069    0.0003
          24    0.0110    0.0000   -0.0000    0.0000   -0.0000   -0.0000   -0.0000    0.0000
          25    0.0001   -0.0323   -0.0026    0.0179    0.0075    0.0092   -0.0205   -0.0002
          26   -0.0001    0.0152    0.0032    0.0088   -0.0054    0.0060   -0.0121   -0.0169
          27    0.0082    0.0001    0.0000   -0.0000   -0.0000    0.0000   -0.0000   -0.0001
          28   -0.0000    0.0086    0.0011   -0.0139    0.0032    0.0086   -0.0064   -0.0160
          29    0.0000   -0.0056   -0.0044   -0.0260   -0.0029   -0.0026    0.0118   -0.0004
          30   -0.0208   -0.0001   -0.0000   -0.0001   -0.0000   -0.0000    0.0001    0.0000
          31   -0.1723   -0.0396    0.0192   -0.0556   -0.0455    0.0761   -0.0098    0.1162
          32   -0.2583    0.0237    0.0280   -0.0283   -0.0532    0.0763   -0.0444   -0.0382
          33   -0.0025   -0.0110    0.0000   -0.0091   -0.0023    0.0072    0.0072    0.0794
          34    0.1723   -0.0393    0.0200   -0.0558   -0.0456    0.0763   -0.0099    0.1161
          35    0.2586    0.0241    0.0291   -0.0285   -0.0533    0.0766   -0.0444   -0.0375
          36   -0.0006    0.0114    0.0001    0.0091    0.0020   -0.0068   -0.0076   -0.0804
          37   -0.0079   -0.0185   -0.0086   -0.0119    0.0015    0.0334    0.0591   -0.0833
          38    0.0030    0.0087    0.0064    0.0082   -0.0014   -0.0037   -0.0130    0.0261
          39   -0.0021   -0.0054   -0.0042   -0.0063    0.0013    0.0038    0.0127   -0.0361
          40   -0.0004   -0.0568   -0.0546   -0.0660    0.0135    0.0060    0.0401   -0.0900
          41    0.0001    0.0315    0.0308    0.0386   -0.0083   -0.0043   -0.0285    0.0715
          42   -0.0023   -0.0010   -0.0006   -0.0013    0.0003    0.0008    0.0013   -0.0042
          43    0.0088   -0.0181   -0.0103   -0.0140    0.0022    0.0306    0.0562   -0.0835
          44   -0.0033    0.0093    0.0076    0.0097   -0.0018   -0.0032   -0.0139    0.0299
          45   -0.0020    0.0047    0.0040    0.0059   -0.0013   -0.0039   -0.0129    0.0356
          46   -0.0003    0.0676   -0.0019   -0.0687   -0.1250   -0.0333    0.0410    0.0309
          47    0.0006   -0.1221    0.0022    0.1277    0.2596    0.0940   -0.0662   -0.0377
          48   -0.0977   -0.0007   -0.0001    0.0007    0.0014    0.0005   -0.0004   -0.0002
          49    0.0001    0.1208    0.0306   -0.0681    0.3041   -0.0539    0.1258    0.0810
          50   -0.0003   -0.0165   -0.0072   -0.0219   -0.0272    0.0024    0.0020   -0.0083
          51    0.0517   -0.0002   -0.0000   -0.0000   -0.0005    0.0001   -0.0001   -0.0001
          52   -0.0007   -0.0068    0.3066    0.0573   -0.0378    0.0967    0.1180   -0.0097
          53   -0.0002    0.0178    0.1689    0.0527   -0.0287    0.0555    0.0725    0.0138
          54   -0.0406    0.0001   -0.0001    0.0001   -0.0000    0.0000    0.0000    0.0001
          55    0.0005   -0.1446   -0.0242    0.1056   -0.0505   -0.0879    0.0611    0.0344
          56    0.0007   -0.1276   -0.0249    0.1192   -0.0822   -0.1175    0.0927    0.0254
          57   -0.0316   -0.0003   -0.0000    0.0006   -0.0004   -0.0006    0.0004    0.0001
          58    0.0005    0.0757   -0.2640    0.0885   -0.0273    0.1285    0.0960    0.0066
          59   -0.0002   -0.0723    0.1451   -0.0802    0.0246   -0.0766   -0.0536    0.0136
          60    0.0051   -0.0006    0.0005   -0.0004    0.0001   -0.0003   -0.0003    0.0000


   Root No.      33        34        35        36        37        38        39        40

                33 A      34 A      35 A      36 A      37 A      38 A      39 A      40 A   

                1338.0    1356.6    1385.8    1388.8    1390.8    1409.5    1476.3    1511.2
  
           1    0.0012    0.0445    0.0226   -0.0029   -0.0057   -0.0210    0.0348    0.0500
           2    0.0547    0.0227    0.0222   -0.0047    0.0082    0.0356    0.0411    0.0318
           3    0.0003    0.0000    0.0000   -0.0000    0.0000    0.0002    0.0001    0.0001
           4   -0.0074    0.0232   -0.0281    0.0035   -0.0166    0.0304   -0.0459    0.0564
           5    0.0023   -0.0158    0.0229   -0.0066   -0.0279   -0.0031    0.0079   -0.0131
           6   -0.0003    0.0008   -0.0064   -0.0391    0.0020   -0.0008    0.0002   -0.0002
           7   -0.0037   -0.0002    0.0012   -0.0012    0.0090    0.0405   -0.0459   -0.0944
           8    0.0056   -0.0047   -0.0114    0.0026   -0.0064   -0.0267    0.0389    0.0445
           9   -0.0000   -0.0000   -0.0000   -0.0000   -0.0000   -0.0001    0.0001    0.0002
          10   -0.0041    0.0180   -0.0052    0.0027   -0.0110   -0.0154    0.0611   -0.0953
          11    0.0075    0.0151   -0.0144    0.0034   -0.0072   -0.0136    0.0435   -0.0483
          12    0.0000   -0.0000   -0.0001   -0.0007    0.0001   -0.0001    0.0002   -0.0002
          13   -0.0025   -0.0368    0.0010   -0.0007    0.0041   -0.0191    0.0009    0.1025
          14    0.0185    0.0128    0.0118   -0.0019   -0.0002   -0.0094   -0.0315   -0.0200
          15    0.0001    0.0001    0.0001    0.0002    0.0000   -0.0000   -0.0001   -0.0002
          16   -0.0185   -0.0138   -0.0096    0.0016   -0.0003    0.0012    0.0017   -0.0056
          17   -0.0108   -0.0042    0.0027    0.0005   -0.0059   -0.0386   -0.0489   -0.0188
          18   -0.0000    0.0000    0.0000   -0.0000   -0.0000   -0.0002   -0.0002   -0.0001
          19   -0.0311   -0.0061    0.0729   -0.0130    0.0148    0.0136    0.0047    0.0105
          20   -0.0065    0.0004   -0.0084    0.0009   -0.0000    0.0165   -0.0244    0.0468
          21    0.0000    0.0000   -0.0001   -0.0002   -0.0000    0.0000   -0.0001    0.0001
          22    0.0260   -0.0093   -0.0726    0.0128   -0.0141   -0.0234   -0.0096   -0.0025
          23   -0.0169   -0.0183   -0.0073    0.0009    0.0030    0.0101   -0.0260   -0.0386
          24   -0.0001   -0.0000    0.0000   -0.0001    0.0000    0.0000   -0.0000   -0.0001
          25    0.0315    0.0204    0.0224   -0.0033   -0.0016   -0.0264   -0.0534   -0.0126
          26    0.0143   -0.0007    0.0126   -0.0028    0.0055    0.0054   -0.0380    0.0102
          27    0.0000   -0.0000    0.0000   -0.0001    0.0000    0.0001   -0.0001    0.0001
          28   -0.0109   -0.0078   -0.0149    0.0016    0.0049    0.0423    0.0462    0.0044
          29   -0.0225   -0.0070   -0.0150    0.0024   -0.0005    0.0155    0.0350    0.0003
          30   -0.0001   -0.0000   -0.0001   -0.0000   -0.0000    0.0000    0.0001   -0.0000
          31    0.0773   -0.1045   -0.0372    0.0047    0.0079    0.0195   -0.0165   -0.0137
          32   -0.1349   -0.0057   -0.0265    0.0063   -0.0153   -0.0539   -0.0158   -0.0054
          33    0.1087   -0.0698   -0.0148    0.0001    0.0157    0.0537   -0.0072   -0.0200
          34    0.0771   -0.1044   -0.0373    0.0047    0.0078    0.0192   -0.0163   -0.0135
          35   -0.1340   -0.0064   -0.0267    0.0063   -0.0152   -0.0536   -0.0158   -0.0056
          36   -0.1104    0.0702    0.0147   -0.0001   -0.0159   -0.0543    0.0071    0.0200
          37    0.0419   -0.0815    0.0423   -0.1884    0.0439   -0.0722    0.0734   -0.0753
          38   -0.0132    0.0408   -0.0740   -0.1277    0.2247   -0.0259    0.0048   -0.0057
          39    0.0181   -0.0544    0.0775    0.0477   -0.1744    0.0017    0.0202   -0.0253
          40    0.0273   -0.0779    0.0610   -0.0046    0.1244   -0.0467    0.0068   -0.0049
          41   -0.0251    0.0674   -0.0472    0.0351   -0.1211    0.0545   -0.0296    0.0307
          42    0.0027   -0.0061    0.0583    0.3835    0.0079    0.0029    0.0002    0.0005
          43    0.0414   -0.0833    0.0930    0.1654    0.0530   -0.0651    0.0668   -0.0672
          44   -0.0142    0.0455   -0.0422    0.1535    0.2469   -0.0220    0.0018   -0.0011
          45   -0.0174    0.0515   -0.0589    0.0451    0.1421    0.0053   -0.0230    0.0280
          46   -0.0010    0.0107    0.0144   -0.0010   -0.0083   -0.0533   -0.0375   -0.0015
          47   -0.0554   -0.0598   -0.0517    0.0065    0.0110    0.0789    0.0398   -0.0274
          48   -0.0003   -0.0003   -0.0003    0.0001    0.0001    0.0004    0.0002   -0.0001
          49   -0.0233    0.0035    0.0023    0.0022   -0.0172   -0.0821   -0.0503   -0.0344
          50   -0.0246   -0.0091   -0.0182    0.0027    0.0013    0.0273    0.0469    0.0032
          51   -0.0001   -0.0001   -0.0001   -0.0000    0.0000    0.0002    0.0003    0.0001
          52    0.0001    0.0342    0.0371   -0.0071    0.0093    0.0392   -0.0160    0.0130
          53   -0.0367    0.0075    0.0650   -0.0123    0.0187    0.0521   -0.0324   -0.0314
          54   -0.0001   -0.0000    0.0001    0.0002    0.0000    0.0001   -0.0001   -0.0001
          55   -0.0293   -0.0196   -0.0148    0.0038   -0.0060   -0.0251    0.0291    0.0223
          56   -0.0655   -0.0531   -0.0356    0.0061    0.0014    0.0122    0.0698    0.0549
          57   -0.0003   -0.0003   -0.0001    0.0013    0.0001    0.0001    0.0003    0.0003
          58    0.0211    0.0405   -0.0360    0.0073   -0.0166   -0.0028    0.0249    0.0144
          59   -0.0457   -0.0321    0.0694   -0.0136    0.0220    0.0307   -0.0404    0.0500
          60   -0.0001   -0.0001    0.0003    0.0006    0.0000    0.0001   -0.0001    0.0001


   Root No.      41        42        43        44        45        46        47        48

                41 A      42 A      43 A      44 A      45 A      46 A      47 A      48 A   

                1774.3    1818.5    1830.8    1901.0    2925.5    3005.3    3045.4    3059.6
  
           1   -0.0258    0.0131   -0.0364   -0.0111   -0.0001    0.0335   -0.0022   -0.0014
           2   -0.0089   -0.0091   -0.0406    0.0092    0.0003   -0.0226    0.0013    0.0009
           3    0.0000   -0.0001   -0.0001    0.0001   -0.0610   -0.0001    0.0000    0.0000
           4    0.0367    0.0267   -0.0061    0.0139    0.0000    0.0000   -0.0000    0.0001
           5   -0.0182   -0.0128    0.0038   -0.0028    0.0000   -0.0000   -0.0001    0.0007
           6   -0.0001   -0.0001    0.0000   -0.0000   -0.0000   -0.0000   -0.0001    0.0015
           7    0.0574   -0.0247    0.0943    0.0321    0.0000    0.0005    0.0002    0.0001
           8    0.0730   -0.0425    0.1453    0.0036    0.0000    0.0005    0.0004   -0.0001
           9    0.0001   -0.0001    0.0003   -0.0000   -0.0001    0.0000    0.0000   -0.0000
          10   -0.0817   -0.0658    0.0112   -0.0525    0.0000    0.0000   -0.0000    0.0001
          11    0.1142    0.0932   -0.0380    0.0072    0.0000    0.0001   -0.0000    0.0002
          12    0.0002    0.0001   -0.0001   -0.0000   -0.0000    0.0000   -0.0000    0.0000
          13   -0.0037    0.0184   -0.0064    0.0320   -0.0000   -0.0004   -0.0001   -0.0003
          14   -0.0572    0.0202    0.0166    0.2121   -0.0000   -0.0002    0.0002   -0.0026
          15   -0.0002    0.0001    0.0001    0.0010   -0.0002   -0.0000    0.0000   -0.0000
          16    0.0489   -0.0849   -0.0667    0.0426   -0.0000   -0.0043   -0.0357   -0.0200
          17   -0.0425    0.0807    0.0661   -0.0466   -0.0000   -0.0027   -0.0154   -0.0063
          18   -0.0003    0.0005    0.0004   -0.0003   -0.0001   -0.0000   -0.0000   -0.0000
          19    0.0308    0.0354   -0.0186    0.0091    0.0000    0.0001   -0.0001    0.0000
          20   -0.0866   -0.0845    0.0388   -0.0325   -0.0000   -0.0000    0.0000   -0.0000
          21   -0.0002   -0.0002    0.0001   -0.0001   -0.0000   -0.0000   -0.0000    0.0000
          22   -0.0174    0.0175   -0.0480   -0.0055   -0.0000   -0.0002    0.0000    0.0000
          23   -0.0475    0.0403   -0.1216   -0.0252   -0.0000   -0.0001   -0.0000   -0.0000
          24   -0.0001    0.0001   -0.0002   -0.0001   -0.0001    0.0000   -0.0000    0.0000
          25    0.0206   -0.0281   -0.0119   -0.0335    0.0000    0.0003    0.0048   -0.0252
          26    0.0459   -0.0203   -0.0174   -0.1648    0.0000    0.0002   -0.0042    0.0224
          27    0.0002   -0.0001   -0.0001   -0.0008    0.0001    0.0000   -0.0000    0.0002
          28   -0.0643    0.1100    0.0816   -0.0414   -0.0000   -0.0004    0.0033    0.0010
          29    0.0252   -0.0506   -0.0400    0.0392    0.0000    0.0001    0.0279   -0.0216
          30    0.0002   -0.0004   -0.0003    0.0002   -0.0003   -0.0000    0.0001   -0.0001
          31    0.0031   -0.0016    0.0052   -0.0033   -0.2366   -0.1990    0.0119    0.0066
          32    0.0196   -0.0190    0.0091    0.0059    0.1613    0.1349   -0.0108   -0.0057
          33    0.0014   -0.0003    0.0047    0.0050    0.3710    0.3737   -0.0239   -0.0131
          34    0.0031   -0.0016    0.0053   -0.0033    0.2374   -0.2012    0.0120    0.0067
          35    0.0197   -0.0191    0.0091    0.0059   -0.1643    0.1390   -0.0111   -0.0059
          36   -0.0012    0.0001   -0.0047   -0.0049    0.3670   -0.3728    0.0238    0.0131
          37    0.0086    0.0071   -0.0038   -0.0033    0.0000   -0.0000   -0.0002    0.0026
          38   -0.0112   -0.0080    0.0022   -0.0031   -0.0000    0.0000    0.0006   -0.0100
          39   -0.0060   -0.0035    0.0007   -0.0013   -0.0000    0.0000    0.0008   -0.0128
          40   -0.0207   -0.0131    0.0067    0.0078    0.0000   -0.0000    0.0001   -0.0025
          41    0.0305    0.0210   -0.0074    0.0015    0.0000    0.0000    0.0001   -0.0027
          42   -0.0003   -0.0002    0.0001   -0.0000    0.0000   -0.0000   -0.0001    0.0010
          43    0.0067    0.0055   -0.0029   -0.0029   -0.0000   -0.0000    0.0000   -0.0013
          44   -0.0083   -0.0061    0.0016   -0.0028    0.0000    0.0000   -0.0002    0.0050
          45    0.0076    0.0047   -0.0010    0.0017   -0.0000   -0.0000    0.0001   -0.0065
          46    0.0248   -0.0437   -0.0393    0.0151    0.0000    0.0521    0.4138    0.2131
          47    0.0317   -0.0519   -0.0338    0.0364    0.0000    0.0202    0.1913    0.0956
          48    0.0001   -0.0002   -0.0001    0.0001   -0.0015    0.0000    0.0004    0.0002
          49    0.0077   -0.0304   -0.0178    0.0531   -0.0000   -0.0003   -0.0297    0.0158
          50    0.0287   -0.0559   -0.0452    0.0382    0.0000    0.0031   -0.3351    0.2371
          51    0.0001   -0.0002   -0.0002    0.0001   -0.0007    0.0000   -0.0016    0.0011
          52    0.0150   -0.0462    0.0920    0.0173    0.0000    0.0015    0.0002   -0.0004
          53   -0.0425    0.0047   -0.0631   -0.0245   -0.0000   -0.0018   -0.0004    0.0006
          54   -0.0001    0.0001   -0.0002   -0.0000    0.0002    0.0000   -0.0000    0.0000
          55   -0.0149   -0.0156   -0.0104    0.1165    0.0000   -0.0002   -0.0549    0.3015
          56    0.0136   -0.0080   -0.0225   -0.0256   -0.0000    0.0002    0.0456   -0.2385
          57    0.0000   -0.0000   -0.0001   -0.0003    0.0000    0.0000    0.0003   -0.0018
          58   -0.0533   -0.0695    0.0498   -0.0276   -0.0000   -0.0001    0.0001    0.0005
          59   -0.0515   -0.0315   -0.0066   -0.0229    0.0000   -0.0001    0.0001    0.0007
          60   -0.0002   -0.0001   -0.0000   -0.0000   -0.0000    0.0000    0.0000   -0.0000


   Root No.      49        50        51        52        53        54

                49 A      50 A      51 A      52 A      53 A      54 A   

                3064.6    3070.0    3077.8    3138.5    3149.1    3165.3
  
           1   -0.0001   -0.0013    0.0000   -0.0001   -0.0001    0.0000
           2    0.0001    0.0009   -0.0000    0.0001   -0.0004   -0.0000
           3   -0.0000    0.0000   -0.0000    0.0000   -0.0000    0.0000
           4    0.0000   -0.0003   -0.0163    0.0000    0.0001   -0.0240
           5   -0.0000   -0.0012   -0.0471    0.0004    0.0002    0.0061
           6   -0.0545    0.0012   -0.0000   -0.0001   -0.0000    0.0003
           7    0.0000    0.0001    0.0000    0.0001    0.0027   -0.0000
           8    0.0000    0.0005   -0.0000   -0.0011    0.0041   -0.0000
           9   -0.0000    0.0000   -0.0000   -0.0000    0.0000   -0.0000
          10   -0.0001   -0.0001    0.0002   -0.0016   -0.0019   -0.0002
          11    0.0000   -0.0002   -0.0004    0.0034    0.0022    0.0001
          12   -0.0001    0.0000   -0.0000    0.0000    0.0000    0.0000
          13    0.0000    0.0008    0.0003    0.0004   -0.0001    0.0001
          14   -0.0000    0.0028   -0.0002    0.0007    0.0020    0.0001
          15   -0.0000    0.0000    0.0000    0.0000    0.0000    0.0000
          16   -0.0013   -0.0179    0.0003    0.0001   -0.0001   -0.0000
          17   -0.0004   -0.0047    0.0000    0.0000    0.0000    0.0000
          18    0.0000   -0.0000   -0.0000   -0.0000    0.0000   -0.0000
          19    0.0000   -0.0001   -0.0007   -0.0295   -0.0143    0.0005
          20    0.0000    0.0000   -0.0001   -0.0469   -0.0215    0.0004
          21   -0.0002    0.0000   -0.0000   -0.0000   -0.0000    0.0000
          22   -0.0000    0.0001    0.0001   -0.0117    0.0284   -0.0001
          23   -0.0000   -0.0000    0.0000    0.0212   -0.0485    0.0001
          24   -0.0000    0.0000    0.0000    0.0001   -0.0001   -0.0000
          25   -0.0003    0.0225   -0.0011    0.0000   -0.0000    0.0002
          26    0.0003   -0.0191    0.0010   -0.0002   -0.0006   -0.0002
          27   -0.0000   -0.0001    0.0000   -0.0000   -0.0000   -0.0000
          28    0.0000   -0.0004    0.0000   -0.0000    0.0001    0.0000
          29   -0.0019   -0.0306    0.0005   -0.0000    0.0000   -0.0000
          30   -0.0000   -0.0001    0.0000    0.0000   -0.0000   -0.0000
          31    0.0004    0.0058   -0.0001    0.0002   -0.0008   -0.0000
          32   -0.0004   -0.0049    0.0001   -0.0002    0.0005    0.0000
          33   -0.0008   -0.0114    0.0001   -0.0004    0.0013    0.0000
          34    0.0004    0.0059   -0.0001    0.0002   -0.0008   -0.0000
          35   -0.0004   -0.0051    0.0001   -0.0002    0.0005    0.0000
          36    0.0008    0.0114   -0.0001    0.0004   -0.0013   -0.0000
          37   -0.0579   -0.0002   -0.0454    0.0011    0.0006    0.0318
          38    0.2632   -0.0014    0.1480   -0.0041   -0.0025   -0.1884
          39    0.3075   -0.0000    0.2197   -0.0055   -0.0033   -0.2450
          40   -0.0209    0.0070    0.2825    0.0003    0.0008    0.2128
          41   -0.0249    0.0079    0.3241   -0.0005    0.0006    0.2693
          42   -0.0255   -0.0001   -0.0284   -0.0000   -0.0001   -0.0218
          43    0.0788   -0.0031   -0.0453    0.0014    0.0008    0.0415
          44   -0.2383    0.0079    0.0896   -0.0035   -0.0020   -0.1535
          45    0.3711   -0.0141   -0.1910    0.0062    0.0036    0.2633
          46    0.0134    0.1768   -0.0023   -0.0005    0.0000   -0.0000
          47    0.0060    0.0787   -0.0010   -0.0002   -0.0000   -0.0000
          48    0.0000    0.0001   -0.0000   -0.0000   -0.0000    0.0000
          49    0.0016    0.0283   -0.0006    0.0000   -0.0000    0.0000
          50    0.0204    0.3347   -0.0059   -0.0000   -0.0003    0.0001
          51    0.0001    0.0016   -0.0000   -0.0000   -0.0000    0.0000
          52   -0.0000    0.0003   -0.0000    0.1479   -0.3330    0.0007
          53    0.0000   -0.0005    0.0000   -0.2352    0.5199   -0.0010
          54    0.0000   -0.0000    0.0000   -0.0006    0.0014   -0.0000
          55    0.0041   -0.2592    0.0131   -0.0004   -0.0009   -0.0027
          56   -0.0032    0.2011   -0.0098    0.0003    0.0006    0.0017
          57   -0.0004    0.0015   -0.0001    0.0000    0.0000    0.0001
          58   -0.0003   -0.0002    0.0027    0.3518    0.1585   -0.0044
          59   -0.0006   -0.0002    0.0051    0.5093    0.2254   -0.0055
          60    0.0004   -0.0000    0.0000    0.0005    0.0002    0.0000


           MASS-WEIGHTED COORDINATE ANALYSIS (NORMAL COORDINATES)


   Root No.       1         2         3         4         5         6         7         8

                 1 A       2 A       3 A       4 A       5 A       6 A       7 A       8 A   

                  64.5     108.4     155.7     238.4     276.0     299.7     425.5     469.9
  
           1    0.0001    0.0009   -0.0003   -0.0006   -0.0009   -0.0006    0.0000   -0.0513
           2    0.0001   -0.0019   -0.0003    0.0681    0.0008   -0.0004    0.0001   -0.1488
           3   -0.0744    0.4725    0.0685   -0.0006   -0.2020    0.0379    0.0078   -0.0007
           4   -0.0019   -0.0009    0.0017    0.3186    0.0000    0.0021    0.0002    0.0654
           5   -0.0024   -0.0009    0.0021    0.5463   -0.0008   -0.0005   -0.0003    0.1284
           6   -0.0767    0.3412   -0.3220    0.0023   -0.0297   -0.2018   -0.0044    0.0005
           7   -0.0001    0.0003   -0.0001    0.0817    0.0001   -0.0010    0.0007   -0.1755
           8    0.0006   -0.0003   -0.0007   -0.1547   -0.0015    0.0008   -0.0016    0.3611
           9   -0.0417    0.0753    0.1488   -0.0005    0.4707   -0.2110    0.1993    0.0002
          10   -0.0002    0.0001    0.0000    0.0732    0.0001    0.0003    0.0006   -0.0815
          11    0.0015    0.0001   -0.0005   -0.1126   -0.0003   -0.0011    0.0007   -0.2491
          12    0.0013    0.0153    0.0994    0.0004    0.1332    0.4549    0.0051    0.0016
          13    0.0002    0.0003    0.0002    0.0860    0.0002   -0.0002    0.0011   -0.3314
          14    0.0008   -0.0003   -0.0014   -0.1879   -0.0012    0.0000   -0.0004    0.1379
          15   -0.0034    0.0776    0.3499   -0.0008    0.4489    0.1723    0.0510    0.0010
          16    0.0010    0.0002   -0.0010   -0.2081    0.0006   -0.0001   -0.0010    0.0639
          17   -0.0004    0.0003    0.0022    0.0917   -0.0007   -0.0012    0.0019   -0.2312
          18    0.0169   -0.0122   -0.4580    0.0016    0.1093    0.2046   -0.3507   -0.0018
          19   -0.0002   -0.0001   -0.0004    0.0087   -0.0004   -0.0001   -0.0005    0.2530
          20    0.0011    0.0007   -0.0003   -0.1275    0.0003   -0.0011    0.0003   -0.1594
          21    0.0238   -0.3268   -0.0842   -0.0003   -0.2866    0.3642    0.0920   -0.0019
          22   -0.0005   -0.0002   -0.0003    0.0408   -0.0002   -0.0010   -0.0006    0.2414
          23    0.0007    0.0005   -0.0004   -0.1498   -0.0005    0.0012   -0.0006    0.2627
          24   -0.0108   -0.2951   -0.0156   -0.0005    0.0136   -0.4512   -0.1318    0.0017
          25    0.0011    0.0000    0.0002   -0.1662    0.0002   -0.0002   -0.0003   -0.1629
          26    0.0003    0.0008   -0.0020   -0.1705    0.0022    0.0015    0.0016    0.1278
          27    0.0907   -0.1428    0.4766   -0.0020   -0.2240   -0.1182   -0.3222   -0.0010
          28    0.0014   -0.0002   -0.0005   -0.2676    0.0007   -0.0000    0.0002    0.0403
          29   -0.0004    0.0016    0.0007    0.0101    0.0010    0.0010   -0.0017   -0.2550
          30    0.0942   -0.2919   -0.1001   -0.0000   -0.1332   -0.1278    0.4801    0.0004
          31   -0.0137    0.1244    0.0289    0.0178   -0.2062    0.0540    0.0485   -0.0494
          32    0.0167   -0.0979   -0.1070    0.0485    0.1006    0.0317   -0.1505   -0.0995
          33   -0.0372    0.2559    0.0836   -0.0008   -0.2320    0.0318    0.0993    0.0013
          34    0.0136   -0.1232   -0.0287    0.0188    0.2045   -0.0542   -0.0478   -0.0515
          35   -0.0167    0.0956    0.1061    0.0477   -0.0986   -0.0322    0.1497   -0.0983
          36   -0.0373    0.2571    0.0847   -0.0003   -0.2335    0.0317    0.1007   -0.0002
          37    0.1354    0.0799   -0.0809    0.2086   -0.0269   -0.1407   -0.0049    0.1155
          38    0.4471    0.0578    0.0057    0.1945    0.0246    0.0347    0.0048    0.0678
          39   -0.3522    0.0691   -0.1147   -0.0024   -0.0347   -0.1174   -0.0065   -0.0022
          40    0.0113    0.0066   -0.0064   -0.0415   -0.0018   -0.0105    0.0001   -0.0908
          41    0.0337    0.0040    0.0012    0.2798    0.0014    0.0023    0.0000    0.1385
          42    0.5231    0.2235   -0.1605    0.0046   -0.0083   -0.1493    0.0003    0.0011
          43   -0.1510   -0.0885    0.0897    0.1877    0.0283    0.1546    0.0049    0.1005
          44   -0.4881   -0.0637   -0.0046    0.1950   -0.0276   -0.0378   -0.0056    0.0714
          45   -0.2854    0.0804   -0.1176   -0.0001   -0.0324   -0.1186   -0.0059    0.0008
          46    0.0003    0.0000   -0.0005   -0.0745    0.0004    0.0002   -0.0005    0.0197
          47   -0.0002    0.0002    0.0015    0.0585   -0.0008   -0.0009    0.0012   -0.0709
          48    0.0051   -0.0304   -0.3149    0.0012    0.1161    0.1545   -0.2325   -0.0005
          49    0.0006   -0.0002   -0.0002   -0.1130    0.0004    0.0001    0.0004    0.0661
          50   -0.0002    0.0009    0.0006    0.0054    0.0003    0.0004   -0.0018   -0.0776
          51    0.0471   -0.1864   -0.1073    0.0002   -0.0468   -0.0702    0.4208    0.0014
          52   -0.0002   -0.0001   -0.0001    0.0019   -0.0001   -0.0004   -0.0006    0.1872
          53    0.0002    0.0003   -0.0000   -0.0497    0.0001    0.0008   -0.0001    0.1511
          54   -0.0028   -0.1417   -0.0467   -0.0002   -0.0863   -0.3099   -0.1770    0.0014
          55    0.0006   -0.0000    0.0002   -0.0894   -0.0001   -0.0001   -0.0007    0.0146
          56    0.0005    0.0005   -0.0011   -0.1010    0.0018    0.0006    0.0017    0.1152
          57    0.0525   -0.0733    0.2317   -0.0010   -0.2384   -0.0619   -0.3685   -0.0006
          58    0.0000   -0.0001   -0.0002   -0.0008   -0.0003    0.0000   -0.0004    0.1661
          59    0.0003    0.0003    0.0001   -0.0338    0.0004   -0.0004    0.0002   -0.1095
          60    0.0187   -0.1542   -0.1017   -0.0002   -0.2398    0.1820    0.0789   -0.0024


[...]
 EFFECTIVE MASS      1.7855
 FORCE CONSTANT      0.4686

 VIBRATION         37   37A           ATOM PAIR      ENERGY CONTRIBUTION    RADIAL
 FREQUENCY          1390.84         C  2 -- H 15         +32.8% ( 52.9%)      1.1%
 TRANSITION DIPOLE   0.0745         C  2 -- H 13         +32.4% ( 52.6%)      1.2%
 TRAVEL (Ang.)       0.3763         C  2 -- H 14         +11.8% ( 31.8%)     30.4%
 REDUCED MASS        0.3424         C  2 -- C  4          +4.3% ( 19.2%)      0.6%
 EFFECTIVE MASS      2.0187
 FORCE CONSTANT      0.3903

 VIBRATION         38   38A           ATOM PAIR      ENERGY CONTRIBUTION    RADIAL
 FREQUENCY          1409.54         C  1 -- C  3          +8.8% ( 45.4%)     15.4%
 TRANSITION DIPOLE   0.0928         C  1 -- C  6          +8.6% ( 44.9%)     90.2%
 TRAVEL (Ang.)       0.2341         C  9 -- C 10          +8.3% ( 44.1%)     93.9%
 REDUCED MASS        0.8727         C  3 -- C  8          +6.9% ( 40.1%)      3.1%
 EFFECTIVE MASS      8.9701
 FORCE CONSTANT      1.0216

 VIBRATION         39   39A           ATOM PAIR      ENERGY CONTRIBUTION    RADIAL
 FREQUENCY          1476.26         C  9 -- C 10         +11.0% ( 52.8%)     94.5%
 TRANSITION DIPOLE   0.8872         C  2 -- C  4          +8.8% ( 47.2%)     61.9%
 TRAVEL (Ang.)       0.1847         C  4 -- C  5          +7.5% ( 43.6%)     93.1%
 REDUCED MASS        1.3388         C  4 -- C  7          +6.6% ( 41.1%)     28.1%
 EFFECTIVE MASS     11.1000
 FORCE CONSTANT      1.7190

 VIBRATION         40   40A           ATOM PAIR      ENERGY CONTRIBUTION    RADIAL
 FREQUENCY          1511.15         C  3 -- C  5         +14.0% ( 63.3%)     88.3%
 TRANSITION DIPOLE   0.3316         C  4 -- C  5         +13.6% ( 62.5%)     78.1%
 TRAVEL (Ang.)       0.1418         C  2 -- C  4          +9.3% ( 51.6%)     70.7%
 REDUCED MASS        2.2190         C  1 -- C  3          +8.8% ( 50.2%)     80.0%
 EFFECTIVE MASS     11.6458
 FORCE CONSTANT      2.9856

 VIBRATION         41   41A           ATOM PAIR      ENERGY CONTRIBUTION    RADIAL
 FREQUENCY          1774.29         C  4 -- C  7         +18.0% ( 70.1%)     96.4%
 TRANSITION DIPOLE   2.2079         C  2 -- C  4         +10.4% ( 53.3%)     77.2%
 TRAVEL (Ang.)       0.1322         C  4 -- C  5         +10.3% ( 53.1%)      4.0%
 REDUCED MASS        2.1749         C  3 -- C  8          +7.2% ( 44.3%)     95.6%
 EFFECTIVE MASS     11.9563
 FORCE CONSTANT      4.0340

 VIBRATION         42   42A           ATOM PAIR      ENERGY CONTRIBUTION    RADIAL
 FREQUENCY          1818.50         C  6 -- C 10         +20.2% ( 69.9%)     99.9%
 TRANSITION DIPOLE   1.2582         C  4 -- C  7         +14.5% ( 59.4%)     96.1%
 TRAVEL (Ang.)       0.1275         C  9 -- C 10          +7.4% ( 42.4%)     67.0%
 REDUCED MASS        2.2802         C  2 -- C  4          +7.0% ( 41.3%)     76.2%
 EFFECTIVE MASS     11.8696
 FORCE CONSTANT      4.4426

 VIBRATION         43   43A           ATOM PAIR      ENERGY CONTRIBUTION    RADIAL
 FREQUENCY          1830.80         C  3 -- C  8         +23.9% ( 79.6%)     97.9%
 TRANSITION DIPOLE   0.4059         C  1 -- C  3         +12.5% ( 57.6%)     69.8%
 TRAVEL (Ang.)       0.1101         C  3 -- C  7         +10.9% ( 53.7%)     96.8%
 REDUCED MASS        3.0397         C  3 -- C  5         +10.3% ( 52.3%)      0.0%
 EFFECTIVE MASS     11.9069
 FORCE CONSTANT      6.0029

 VIBRATION         44   44A           ATOM PAIR      ENERGY CONTRIBUTION    RADIAL
 FREQUENCY          1901.01         C  5 -- C  9         +28.2% ( 90.3%)     99.6%
 TRANSITION DIPOLE   1.7758         C  4 -- C  5         +13.1% ( 61.5%)     72.6%
 TRAVEL (Ang.)       0.0895         C  5 -- C  7         +12.4% ( 59.8%)     94.1%
 REDUCED MASS        4.4306         C  3 -- C  5         +12.2% ( 59.5%)     38.2%
 EFFECTIVE MASS     11.8878         C  5 -- C  8         +12.2% ( 59.4%)     79.7%
 FORCE CONSTANT      9.4338

 VIBRATION         45   45A           ATOM PAIR      ENERGY CONTRIBUTION    RADIAL
 FREQUENCY          2925.49         C  1 -- H 11         +49.1% ( 72.7%)     96.6%
 TRANSITION DIPOLE   0.1119         C  1 -- H 12         +48.8% ( 72.4%)     96.5%
 TRAVEL (Ang.)       0.2111         C  1 -- C  3          +1.1% ( 10.7%)      0.0%
 REDUCED MASS        0.5172         C  1 -- C  6          +1.1% ( 10.7%)      0.0%
 EFFECTIVE MASS      1.5326
 FORCE CONSTANT      2.6080

 VIBRATION         46   46A           ATOM PAIR      ENERGY CONTRIBUTION    RADIAL
 FREQUENCY          3005.31         C  1 -- H 12         +49.1% ( 69.1%)     97.8%
 TRANSITION DIPOLE   0.1943         C  1 -- H 11         +48.7% ( 68.8%)     97.7%
 TRAVEL (Ang.)       0.2170         C  6 -- H 16          +0.9% (  9.2%)    100.0%
 REDUCED MASS        0.4763         C  1 -- C  6          +0.7% (  8.1%)     19.4%
 EFFECTIVE MASS      1.2805
 FORCE CONSTANT      2.5346

 VIBRATION         47   47A           ATOM PAIR      ENERGY CONTRIBUTION    RADIAL
 FREQUENCY          3045.37         C  6 -- H 16         +61.8% ( 79.8%)    100.0%
 TRANSITION DIPOLE   0.2618         C 10 -- H 17         +33.7% ( 58.9%)    100.0%
 TRAVEL (Ang.)       0.2136         C  9 -- H 19          +1.5% ( 12.6%)     99.9%
 REDUCED MASS        0.4854         C  6 -- C 10          +1.1% ( 10.8%)      1.3%
 EFFECTIVE MASS      1.4687
 FORCE CONSTANT      2.6525

 VIBRATION         48   48A           ATOM PAIR      ENERGY CONTRIBUTION    RADIAL
 FREQUENCY          3059.62         C  9 -- H 19         +55.1% ( 75.4%)    100.0%
 TRANSITION DIPOLE   0.2832         C 10 -- H 17         +21.1% ( 46.7%)     99.8%
 TRAVEL (Ang.)       0.2391         C  6 -- H 16         +20.2% ( 45.7%)     99.9%
 REDUCED MASS        0.3857         C  9 -- C 10          +1.2% ( 11.2%)      2.0%
 EFFECTIVE MASS      1.5405
 FORCE CONSTANT      2.1271

 VIBRATION         49   49A           ATOM PAIR      ENERGY CONTRIBUTION    RADIAL
 FREQUENCY          3064.56         C  2 -- H 15         +53.2% ( 75.2%)     97.5%
 TRANSITION DIPOLE   0.0195         C  2 -- H 13         +44.5% ( 68.8%)     96.3%
 TRAVEL (Ang.)       0.2079         C  2 -- H 14          +1.2% ( 11.2%)      6.6%
 REDUCED MASS        0.5091         C  2 -- C  4          +1.0% ( 10.2%)      0.0%
 EFFECTIVE MASS      1.5025
 FORCE CONSTANT      2.8170

 VIBRATION         50   50A           ATOM PAIR      ENERGY CONTRIBUTION    RADIAL
 FREQUENCY          3070.04         C 10 -- H 17         +42.1% ( 65.8%)    100.0%
 TRANSITION DIPOLE   0.4483         C  9 -- H 19         +40.2% ( 64.3%)    100.0%
 TRAVEL (Ang.)       0.2479         C  6 -- H 16         +14.0% ( 37.9%)     99.8%
 REDUCED MASS        0.3573         C  9 -- C 10          +1.3% ( 11.7%)     99.5%
 EFFECTIVE MASS      1.5761
 FORCE CONSTANT      1.9841

 VIBRATION         51   51A           ATOM PAIR      ENERGY CONTRIBUTION    RADIAL
 FREQUENCY          3077.83         C  2 -- H 14         +60.1% ( 80.0%)     98.7%
 TRANSITION DIPOLE   0.0243         C  2 -- H 13         +23.4% ( 49.9%)     89.0%
 TRAVEL (Ang.)       0.2156         C  2 -- H 15         +15.3% ( 40.4%)     82.1%
 REDUCED MASS        0.4711         C  2 -- C  4          +1.0% ( 10.5%)      0.0%
 EFFECTIVE MASS      1.5133
 FORCE CONSTANT      2.6295

 VIBRATION         52   52A           ATOM PAIR      ENERGY CONTRIBUTION    RADIAL
 FREQUENCY          3138.47         C  7 -- H 20         +78.0% ( 91.3%)    100.0%
 TRANSITION DIPOLE   0.2658         C  8 -- H 18         +15.7% ( 41.0%)    100.0%
 TRAVEL (Ang.)       0.1789         C  7 -- C  8          +1.6% ( 13.0%)      5.4%
 REDUCED MASS        0.6713         C  4 -- C  7          +1.4% ( 12.4%)     46.0%
 EFFECTIVE MASS      1.5446
 FORCE CONSTANT      3.8957

 VIBRATION         53   53A           ATOM PAIR      ENERGY CONTRIBUTION    RADIAL
 FREQUENCY          3149.14         C  8 -- H 18         +78.6% ( 91.2%)    100.0%
 TRANSITION DIPOLE   0.5237         C  7 -- H 20         +15.7% ( 40.7%)    100.0%
 TRAVEL (Ang.)       0.1785         C  7 -- C  8          +1.8% ( 13.7%)     73.3%
 REDUCED MASS        0.6717         C  3 -- C  8          +1.5% ( 12.7%)     48.7%
 EFFECTIVE MASS      1.5854
 FORCE CONSTANT      3.9246

 VIBRATION         54   54A           ATOM PAIR      ENERGY CONTRIBUTION    RADIAL
 FREQUENCY          3165.31         C  2 -- H 14         +38.6% ( 59.8%)     97.8%
 TRANSITION DIPOLE   0.0557         C  2 -- H 13         +30.9% ( 53.5%)     96.7%
 TRAVEL (Ang.)       0.2539         C  2 -- H 15         +30.2% ( 53.0%)     96.6%
 REDUCED MASS        0.3304         C  2 -- C  4          +0.3% (  5.5%)     99.1%
 EFFECTIVE MASS      1.1402
 FORCE CONSTANT      1.9502

      SYMMETRY NUMBER FOR POINT-GROUP C1  =  1


          SYSTEM IS A GROUND STATE



 InChI=1S/C10H10/c1-8-6-7-9-4-2-3-5-10(8)9/h2-3,5-7H,4H2,1H3


          MOLECULE IS NOT LINEAR

          THERE ARE 54 GENUINE VIBRATIONS IN THIS SYSTEM
          THIS THERMODYNAMICS CALCULATION IS LIMITED TO
          MOLECULES WHICH HAVE NO INTERNAL ROTATIONS




                    CALCULATED THERMODYNAMIC PROPERTIES
                                          *
   TEMP. (K)   PARTITION FUNCTION   H.O.F.    ENTHALPY  HEAT CAPACITY ENTROPY
                                   KCAL/MOL   CAL/MOLE    CAL/K/MOL  CAL/K/MOL


 298.00  VIB.     0.9515D+02                  3591.2845    27.2726    21.1038
         ROT.     0.5302D+06                   888.2803     2.9808    29.1740
         INT.     0.5044D+08                  4479.5648    30.2534    50.2778
         TRA.     0.1436D+28                  1480.4672     4.9680    40.5022
         TOT.                       54.254    5960.0320    35.2214    90.7800

 200.00  VIB.     0.1418D+02                  1467.9370    16.2804    12.6093
         ROT.     0.2915D+06                   596.1613     2.9808    27.9853
         INT.     0.4133D+07                  2064.0983    19.2612    40.5946
         TRA.     0.7896D+27                   993.6021     4.9680    38.5210
         TOT.                       51.351    3057.7004    24.2292    79.1156

 210.00  VIB.     0.1707D+02                  1635.9460    17.3256    13.4288
         ROT.     0.3136D+06                   625.9693     2.9808    28.1308
         INT.     0.5354D+07                  2261.9153    20.3064    41.5595
         TRA.     0.8496D+27                  1043.2822     4.9680    38.7634
         TOT.                       51.599    3305.1975    25.2745    80.3230

 220.00  VIB.     0.2060D+02                  1814.5307    18.3952    14.2593
         ROT.     0.3363D+06                   655.7774     2.9808    28.2694
         INT.     0.6926D+07                  2470.3081    21.3760    42.5288
         TRA.     0.9110D+27                  1092.9623     4.9680    38.9945
         TOT.                       51.857    3563.2704    26.3440    81.5233

 230.00  VIB.     0.2490D+02                  2003.9227    19.4867    15.1010
         ROT.     0.3595D+06                   685.5855     2.9808    28.4019
         INT.     0.8950D+07                  2689.5082    22.4675    43.5030
         TRA.     0.9738D+27                  1142.6424     4.9680    39.2154
         TOT.                       52.126    3832.1506    27.4355    82.7184

 240.00  VIB.     0.3015D+02                  2204.3292    20.5976    15.9538
         ROT.     0.3832D+06                   715.3935     2.9808    28.5288
         INT.     0.1155D+08                  2919.7227    23.5784    44.4826
         TRA.     0.1038D+28                  1192.3226     4.9680    39.4268
         TOT.                       52.406    4112.0453    28.5464    83.9094

 250.00  VIB.     0.3659D+02                  2415.9299    21.7250    16.8174
         ROT.     0.4074D+06                   745.2016     2.9808    28.6505
         INT.     0.1491D+08                  3161.1315    24.7059    45.4679
         TRA.     0.1103D+28                  1242.0027     4.9680    39.6296
         TOT.                       52.697    4403.1341    29.6739    85.0975

 260.00  VIB.     0.4449D+02                  2638.8753    22.8660    17.6917
         ROT.     0.4321D+06                   775.0097     2.9808    28.7674
         INT.     0.1922D+08                  3413.8849    25.8468    46.4591
         TRA.     0.1170D+28                  1291.6828     4.9680    39.8245
         TOT.                       52.999    4705.5677    30.8149    86.2836

 270.00  VIB.     0.5420D+02                  2873.2858    24.0176    18.5762
         ROT.     0.4572D+06                   804.8177     2.9808    28.8799
         INT.     0.2478D+08                  3678.1035    26.9984    47.4561
         TRA.     0.1239D+28                  1341.3629     4.9680    40.0120
         TOT.                       53.313    5019.4664    31.9664    87.4681

 280.00  VIB.     0.6616D+02                  3119.2516    25.1766    19.4706
         ROT.     0.4829D+06                   834.6258     2.9808    28.9883
         INT.     0.3194D+08                  3953.8774    28.1574    48.4589
         TRA.     0.1308D+28                  1391.0430     4.9680    40.1926
         TOT.                       53.639    5344.9204    33.1254    88.6516

 290.00  VIB.     0.8090D+02                  3376.8333    26.3403    20.3744
         ROT.     0.5090D+06                   864.4339     2.9808    29.0929
         INT.     0.4117D+08                  4241.2671    29.3211    49.4673
         TRA.     0.1379D+28                  1440.7231     4.9680    40.3670
         TOT.                       53.976    5681.9902    34.2891    89.8343

 300.00  VIB.     0.9910D+02                  3646.0629    27.5057    21.2870
         ROT.     0.5355D+06                   894.2419     2.9808    29.1939
         INT.     0.5307D+08                  4540.3048    30.4866    50.4810
         TRA.     0.1451D+28                  1490.4032     4.9680    40.5354
         TOT.                       54.324    6030.7080    35.4546    91.0164

 310.00  VIB.     0.1216D+03                  3926.9455    28.6704    22.2079
         ROT.     0.5625D+06                   924.0500     2.9808    29.2917
         INT.     0.6841D+08                  4850.9955    31.6512    51.4996
         TRA.     0.1524D+28                  1540.0833     4.9680    40.6983
         TOT.                       54.685    6391.0788    36.6193    92.1979

 320.00  VIB.     0.1495D+03                  4219.4608    29.8319    23.1365
         ROT.     0.5899D+06                   953.8580     2.9808    29.3863
         INT.     0.8820D+08                  5173.3189    32.8127    52.5229
         TRA.     0.1598D+28                  1589.7634     4.9680    40.8560
         TOT.                       55.057    6763.0823    37.7807    93.3789

 330.00  VIB.     0.1841D+03                  4523.5653    30.9879    24.0722
         ROT.     0.6178D+06                   983.6661     2.9808    29.4781
         INT.     0.1138D+09                  5507.2314    33.9687    53.5503
         TRA.     0.1674D+28                  1639.4435     4.9680    41.0089
         TOT.                       55.440    7146.6749    38.9367    94.5592

 340.00  VIB.     0.2271D+03                  4839.1941    32.1364    25.0144
         ROT.     0.6461D+06                  1013.4742     2.9808    29.5670
         INT.     0.1467D+09                  5852.6683    35.1173    54.5814
         TRA.     0.1750D+28                  1689.1236     4.9680    41.1572
         TOT.                       55.836    7541.7919    40.0853    95.7386

 350.00  VIB.     0.2806D+03                  5166.2633    33.2757    25.9624
         ROT.     0.6748D+06                  1043.2822     2.9808    29.6534
         INT.     0.1893D+09                  6209.5455    36.2565    55.6158
         TRA.     0.1828D+28                  1738.8037     4.9680    41.3012
         TOT.                       56.242    7948.3492    41.2245    96.9171

 360.00  VIB.     0.3472D+03                  5504.6718    34.4041    26.9156
         ROT.     0.7039D+06                  1073.0903     2.9808    29.7374
         INT.     0.2444D+09                  6577.7621    37.3849    56.6531
         TRA.     0.1907D+28                  1788.4838     4.9680    41.4412
         TOT.                       56.660    8366.2460    42.3529    98.0942

 370.00  VIB.     0.4302D+03                  5854.3037    35.5202    27.8735
         ROT.     0.7335D+06                  1102.8984     2.9808    29.8191
         INT.     0.3156D+09                  6957.2021    38.5010    57.6926
         TRA.     0.1987D+28                  1838.1639     4.9680    41.5773
         TOT.                       57.089    8795.3660    43.4690    99.2699

 380.00  VIB.     0.5339D+03                  6215.0299    36.6227    28.8355
         ROT.     0.7634D+06                  1132.7064     2.9808    29.8986
         INT.     0.4076D+09                  7347.7363    39.6035    58.7340
         TRA.     0.2068D+28                  1887.8440     4.9680    41.7098
         TOT.                       57.529    9235.5803    44.5716   100.4438

 390.00  VIB.     0.6635D+03                  6586.7101    37.7108    29.8009
         ROT.     0.7937D+06                  1162.5145     2.9808    29.9760
         INT.     0.5266D+09                  7749.2245    40.6916    59.7769
         TRA.     0.2150D+28                  1937.5242     4.9680    41.8388
         TOT.                       57.980    9686.7487    45.6596   101.6157

 400.00  VIB.     0.8256D+03                  6969.1947    38.7835    30.7692
         ROT.     0.8245D+06                  1192.3226     2.9808    30.0515
         INT.     0.6806D+09                  8161.5172    41.7643    60.8206
         TRA.     0.2233D+28                  1987.2043     4.9680    41.9646
         TOT.                       58.442   10148.7215    46.7323   102.7852

   *: NOTE: HEATS OF FORMATION ARE RELATIVE TO THE
            ELEMENTS IN THEIR STANDARD STATE AT 298K
              (=  Standard Enthalpy of Formation).

            Hvib:  Zero-point energy is not included.
                   frequencies of less than zero cm-1 are not included.
            Hrot = (3/2)RT
            Htra = (3/2)RT + pV = (5/2)RT

            Heat capacity is Cp, not Cv

          For more information, see: HTTP://OpenMOPAC.net/Manual/thermochemistry.html


           FORCE CONSTANT IN CARTESIAN COORDINATES (Millidynes/A)

    ATOM   CHEMICAL       X               Y               Z
   NUMBER   SYMBOL  FORCE CONSTANT  FORCE CONSTANT  FORCE CONSTANT

      1       C        9.354189        9.115688        7.568409
      2       C        9.289520        8.484700        7.927737
      3       C       12.547604       13.365701        2.465103
      4       C       12.841298       12.646158        2.502406
      5       C        9.242547       16.818443        2.292170
      6       C       13.287443       10.970443        2.433581
      7       C       10.057688       14.609038        2.139753
      8       C        9.888204       14.819249        2.119566
      9       C       10.481441       14.580423        2.266524
     10       C       12.967370       12.010065        2.227633
     11       H        1.593390        1.076151        3.445014
     12       H        1.607399        1.098576        3.411147
     13       H        0.750604        2.391659        3.490284
     14       H        2.634353        3.419140        0.670372
     15       H        0.790417        1.835818        3.993563
     16       H        4.367424        1.521116        0.345885
     17       H        0.792067        5.109048        0.343536
     18       H        2.065141        4.057949        0.331738
     19       H        3.465947        2.410202        0.350299
     20       H        2.227296        3.880377        0.337089

 **********************
 *                    *
 * JOB ENDED NORMALLY *
 *                    *
 **********************



 TOTAL JOB TIME:             2.58 SECONDS

 == MOPAC DONE ==
