 *******************************************************************************
 **                                                                           **
 **                              MOPAC v23.1.2                                **
 **                                                                           **
 *******************************************************************************
 **          Digital Object Identifier (DOI): 10.5281/zenodo.6511958          **
 **    Visit the DOI location for information on how to cite this program.    **
 *******************************************************************************

                              PM3 CALCULATION RESULTS

 *******************************************************************************
 *  CALCULATION DONE: (MAX THREADS = 1)              Tue Jun  3 16:35:37 2025  *
 *  PM3        - The PM3 Hamiltonian to be used
 *  PRECISE    - TIGHTER CRITERIA TO BE USED
 *  NOSYM      - POINT-GROUP SYMMETRY SET TO C1
 *  THREADS=1  - MULTI-THREADING NOT USED
 *  T=         - A TIME OF 172800.0 SECONDS REQUESTED
 *  DUMP=N     - RESTART FILE WRITTEN EVERY 7200.0 SECONDS REQUESTED
 *******************************************************************************
pm3  precise nosym THREADS=1
 InChI=1S/C12H20/c1-5-11-9(3)7-8-10(4)12(11)6-2/h5,7-12H,1,6H2,2-4H3

   ATOM   CHEMICAL          X               Y               Z
  NUMBER   SYMBOL      (ANGSTROMS)     (ANGSTROMS)     (ANGSTROMS)

     1       C         -0.67160000  *  -0.21440000  *   0.41490000  *
     2       C          0.84470000  *   0.13860000  *   0.40950000  *
     3       C         -1.46050000  *   0.83730000  *  -0.41870000  *
     4       C          1.40800000  *   0.15140000  *  -1.03760000  *
     5       C         -0.94350000  *  -1.65820000  *  -0.10130000  *
     6       C          2.80180000  *   0.79560000  *  -1.08580000  *
     7       C         -1.66340000  *   2.15160000  *   0.34840000  *
     8       C         -2.28240000  *  -2.21520000  *   0.38690000  *
     9       C          0.49230000  *   0.87840000  *  -2.00190000  *
    10       C         -0.80400000  *   1.12440000  *  -1.75000000  *
    11       C          1.63530000  *  -0.79170000  *   1.30950000  *
    12       C          1.53060000  *  -0.73470000  *   2.64070000  *
    13       H         -1.02440000  *  -0.16220000  *   1.46960000  *
    14       H          1.50300000  *  -0.89540000  *  -1.40170000  *
    15       H         -2.47690000  *   0.44660000  *  -0.63280000  *
    16       H          0.96590000  *   1.16270000  *   0.82620000  *
    17       H         -0.15620000  *  -2.35470000  *   0.25550000  *
    18       H         -0.92250000  *  -1.68600000  *  -1.21220000  *
    19       H         -0.70160000  *   2.68030000  *   0.51240000  *
    20       H          3.20500000  *   0.76140000  *  -2.12070000  *
    21       H          2.75380000  *   1.85590000  *  -0.75630000  *
    22       H          3.51120000  *   0.24880000  *  -0.43020000  *
    23       H         -2.14130000  *   1.95550000  *   1.33170000  *
    24       H         -2.33340000  *   2.82530000  *  -0.22790000  *
    25       H         -2.39550000  *  -3.26260000  *   0.03590000  *
    26       H         -3.13330000  *  -1.62600000  *  -0.01010000  *
    27       H         -2.32030000  *  -2.21250000  *   1.49700000  *
    28       H          0.87390000  *   1.12330000  *  -2.98940000  *
    29       H         -1.39540000  *   1.61990000  *  -2.51470000  *
    30       H          2.31670000  *  -1.51690000  *   0.87330000  *
    31       H          0.87140000  *  -0.01730000  *   3.11980000  *
    32       H          2.11230000  *  -1.40920000  *   3.26040000  *



          CARTESIAN COORDINATES 

    NO.       ATOM           X           Y           Z

     1         C         -0.6716     -0.2144      0.4149
     2         C          0.8447      0.1386      0.4095
     3         C         -1.4605      0.8373     -0.4187
     4         C          1.4080      0.1514     -1.0376
     5         C         -0.9435     -1.6582     -0.1013
     6         C          2.8018      0.7956     -1.0858
     7         C         -1.6634      2.1516      0.3484
     8         C         -2.2824     -2.2152      0.3869
     9         C          0.4923      0.8784     -2.0019
    10         C         -0.8040      1.1244     -1.7500
    11         C          1.6353     -0.7917      1.3095
    12         C          1.5306     -0.7347      2.6407
    13         H         -1.0244     -0.1622      1.4696
    14         H          1.5030     -0.8954     -1.4017
    15         H         -2.4769      0.4466     -0.6328
    16         H          0.9659      1.1627      0.8262
    17         H         -0.1562     -2.3547      0.2555
    18         H         -0.9225     -1.6860     -1.2122
    19         H         -0.7016      2.6803      0.5124
    20         H          3.2050      0.7614     -2.1207
    21         H          2.7538      1.8559     -0.7563
    22         H          3.5112      0.2488     -0.4302
    23         H         -2.1413      1.9555      1.3317
    24         H         -2.3334      2.8253     -0.2279
    25         H         -2.3955     -3.2626      0.0359
    26         H         -3.1333     -1.6260     -0.0101
    27         H         -2.3203     -2.2125      1.4970
    28         H          0.8739      1.1233     -2.9894
    29         H         -1.3954      1.6199     -2.5147
    30         H          2.3167     -1.5169      0.8733
    31         H          0.8714     -0.0173      3.1198
    32         H          2.1123     -1.4092      3.2604

  H: (PM3): J. J. P. STEWART, J. COMP. CHEM. 10, 209 (1989).
  C: (PM3): J. J. P. STEWART, J. COMP. CHEM. 10, 209 (1989).

           Empirical Formula: C12 H20  =    32 atoms



      MOLECULAR POINT GROUP   :   C1  


      RHF CALCULATION, NO. OF DOUBLY OCCUPIED LEVELS = 34


          Geometry optimization using EF

          DIAGONAL MATRIX USED AS START HESSIAN

 CYCLE:     1 TIME:   0.016 TIME LEFT:  2.00D  GRAD.:    75.719 HEAT:  1.379629
 CYCLE:     2 TIME:   0.023 TIME LEFT:  2.00D  GRAD.:    58.204 HEAT:-0.2910578
 CYCLE:     3 TIME:   0.020 TIME LEFT:  2.00D  GRAD.:    50.730 HEAT:-0.9369309
 CYCLE:     4 TIME:   0.012 TIME LEFT:  2.00D  GRAD.:    37.069 HEAT: -1.514684
 CYCLE:     5 TIME:   0.012 TIME LEFT:  2.00D  GRAD.:    51.173 HEAT: -1.694230
 CYCLE:     6 TIME:   0.012 TIME LEFT:  2.00D  GRAD.:    51.980 HEAT: -1.742338
 CYCLE:     7 TIME:   0.016 TIME LEFT:  2.00D  GRAD.:    26.683 HEAT: -2.297416
 CYCLE:     8 TIME:   0.023 TIME LEFT:  2.00D  GRAD.:    14.616 HEAT: -2.447877
 CYCLE:     9 TIME:   0.012 TIME LEFT:  2.00D  GRAD.:    21.004 HEAT: -2.482700
 CYCLE:    10 TIME:   0.012 TIME LEFT:  2.00D  GRAD.:    18.914 HEAT: -2.590614
 CYCLE:    11 TIME:   0.016 TIME LEFT:  2.00D  GRAD.:    13.659 HEAT: -2.654748
 CYCLE:    12 TIME:   0.012 TIME LEFT:  2.00D  GRAD.:    15.552 HEAT: -2.684064
 CYCLE:    13 TIME:   0.012 TIME LEFT:  2.00D  GRAD.:    12.698 HEAT: -2.724623
 CYCLE:    14 TIME:   0.016 TIME LEFT:  2.00D  GRAD.:     7.585 HEAT: -2.763080
 CYCLE:    15 TIME:   0.012 TIME LEFT:  2.00D  GRAD.:    10.235 HEAT: -2.767353
 CYCLE:    16 TIME:   0.012 TIME LEFT:  2.00D  GRAD.:     7.278 HEAT: -2.800166
 CYCLE:    17 TIME:   0.016 TIME LEFT:  2.00D  GRAD.:     8.025 HEAT: -2.805397
 CYCLE:    18 TIME:   0.012 TIME LEFT:  2.00D  GRAD.:     5.429 HEAT: -2.824756
 CYCLE:    19 TIME:   0.012 TIME LEFT:  2.00D  GRAD.:     8.465 HEAT: -2.826516
 CYCLE:    20 TIME:   0.008 TIME LEFT:  2.00D  GRAD.:    10.048 HEAT: -2.836443
 CYCLE:    21 TIME:   0.012 TIME LEFT:  2.00D  GRAD.:     9.745 HEAT: -2.844278
 CYCLE:    22 TIME:   0.012 TIME LEFT:  2.00D  GRAD.:     7.461 HEAT: -2.858910
 CYCLE:    23 TIME:   0.016 TIME LEFT:  2.00D  GRAD.:     8.011 HEAT: -2.865437
 CYCLE:    24 TIME:   0.012 TIME LEFT:  2.00D  GRAD.:     3.109 HEAT: -2.882844
 CYCLE:    25 TIME:   0.023 TIME LEFT:  2.00D  GRAD.:     3.777 HEAT: -2.885391
 CYCLE:    26 TIME:   0.012 TIME LEFT:  2.00D  GRAD.:     3.962 HEAT: -2.894328
 CYCLE:    27 TIME:   0.012 TIME LEFT:  2.00D  GRAD.:     7.672 HEAT: -2.896696
 CYCLE:    28 TIME:   0.016 TIME LEFT:  2.00D  GRAD.:     3.171 HEAT: -2.914862
 CYCLE:    29 TIME:   0.016 TIME LEFT:  2.00D  GRAD.:     3.344 HEAT: -2.919210
 CYCLE:    30 TIME:   0.012 TIME LEFT:  2.00D  GRAD.:     2.156 HEAT: -2.925892
 CYCLE:    31 TIME:   0.012 TIME LEFT:  2.00D  GRAD.:     3.767 HEAT: -2.933525
 CYCLE:    32 TIME:   0.012 TIME LEFT:  2.00D  GRAD.:     3.551 HEAT: -2.941464
 CYCLE:    33 TIME:   0.012 TIME LEFT:  2.00D  GRAD.:     6.057 HEAT: -2.944581
 CYCLE:    34 TIME:   0.008 TIME LEFT:  2.00D  GRAD.:     3.788 HEAT: -2.957258
 CYCLE:    35 TIME:   0.012 TIME LEFT:  2.00D  GRAD.:     4.576 HEAT: -2.965244
 CYCLE:    36 TIME:   0.012 TIME LEFT:  2.00D  GRAD.:     3.786 HEAT: -2.975903
 CYCLE:    37 TIME:   0.012 TIME LEFT:  2.00D  GRAD.:     3.432 HEAT: -2.993159
 CYCLE:    38 TIME:   0.012 TIME LEFT:  2.00D  GRAD.:     3.728 HEAT: -3.013140
 CYCLE:    39 TIME:   0.012 TIME LEFT:  2.00D  GRAD.:     4.656 HEAT: -3.040994
 CYCLE:    40 TIME:   0.012 TIME LEFT:  2.00D  GRAD.:     5.604 HEAT: -3.062621
 CYCLE:    41 TIME:   0.012 TIME LEFT:  2.00D  GRAD.:     4.837 HEAT: -3.092758
 CYCLE:    42 TIME:   0.012 TIME LEFT:  2.00D  GRAD.:     8.475 HEAT: -3.121899
 CYCLE:    43 TIME:   0.012 TIME LEFT:  2.00D  GRAD.:     6.403 HEAT: -3.159012
 CYCLE:    44 TIME:   0.008 TIME LEFT:  2.00D  GRAD.:     5.455 HEAT: -3.184074
 CYCLE:    45 TIME:   0.012 TIME LEFT:  2.00D  GRAD.:     4.947 HEAT: -3.208744
 CYCLE:    46 TIME:   0.012 TIME LEFT:  2.00D  GRAD.:     5.847 HEAT: -3.216569
 CYCLE:    47 TIME:   0.012 TIME LEFT:  2.00D  GRAD.:     6.151 HEAT: -3.236033
 CYCLE:    48 TIME:   0.012 TIME LEFT:  2.00D  GRAD.:     5.163 HEAT: -3.252672
 CYCLE:    49 TIME:   0.012 TIME LEFT:  2.00D  GRAD.:     3.549 HEAT: -3.277661
 CYCLE:    50 TIME:   0.008 TIME LEFT:  2.00D  GRAD.:     5.064 HEAT: -3.317807
 CYCLE:    51 TIME:   0.012 TIME LEFT:  2.00D  GRAD.:     6.326 HEAT: -3.340939
 CYCLE:    52 TIME:   0.012 TIME LEFT:  2.00D  GRAD.:     4.058 HEAT: -3.371630
 CYCLE:    53 TIME:   0.012 TIME LEFT:  2.00D  GRAD.:     4.479 HEAT: -3.410006
 CYCLE:    54 TIME:   0.012 TIME LEFT:  2.00D  GRAD.:     5.647 HEAT: -3.430876
 CYCLE:    55 TIME:   0.008 TIME LEFT:  2.00D  GRAD.:     4.047 HEAT: -3.454513
 CYCLE:    56 TIME:   0.012 TIME LEFT:  2.00D  GRAD.:     2.936 HEAT: -3.473367
 CYCLE:    57 TIME:   0.012 TIME LEFT:  2.00D  GRAD.:     2.690 HEAT: -3.484833
 CYCLE:    58 TIME:   0.012 TIME LEFT:  2.00D  GRAD.:     2.122 HEAT: -3.494974
 CYCLE:    59 TIME:   0.012 TIME LEFT:  2.00D  GRAD.:     2.073 HEAT: -3.502547
 CYCLE:    60 TIME:   0.012 TIME LEFT:  2.00D  GRAD.:     1.801 HEAT: -3.508184
 CYCLE:    61 TIME:   0.012 TIME LEFT:  2.00D  GRAD.:     1.758 HEAT: -3.514138
 CYCLE:    62 TIME:   0.008 TIME LEFT:  2.00D  GRAD.:     1.710 HEAT: -3.520997
 CYCLE:    63 TIME:   0.012 TIME LEFT:  2.00D  GRAD.:     1.781 HEAT: -3.527751
 CYCLE:    64 TIME:   0.012 TIME LEFT:  2.00D  GRAD.:     1.736 HEAT: -3.536082
 CYCLE:    65 TIME:   0.012 TIME LEFT:  2.00D  GRAD.:     1.554 HEAT: -3.542803
 CYCLE:    66 TIME:   0.012 TIME LEFT:  2.00D  GRAD.:     1.504 HEAT: -3.548939
 CYCLE:    67 TIME:   0.008 TIME LEFT:  2.00D  GRAD.:     1.543 HEAT: -3.554731
 CYCLE:    68 TIME:   0.012 TIME LEFT:  2.00D  GRAD.:     1.477 HEAT: -3.561225
 CYCLE:    69 TIME:   0.012 TIME LEFT:  2.00D  GRAD.:     1.317 HEAT: -3.567085
 CYCLE:    70 TIME:   0.012 TIME LEFT:  2.00D  GRAD.:     1.173 HEAT: -3.571415
 CYCLE:    71 TIME:   0.012 TIME LEFT:  2.00D  GRAD.:     1.157 HEAT: -3.574980
 CYCLE:    72 TIME:   0.012 TIME LEFT:  2.00D  GRAD.:     1.161 HEAT: -3.578030
 CYCLE:    73 TIME:   0.012 TIME LEFT:  2.00D  GRAD.:     1.101 HEAT: -3.581230
 CYCLE:    74 TIME:   0.008 TIME LEFT:  2.00D  GRAD.:     1.065 HEAT: -3.584135
 CYCLE:    75 TIME:   0.012 TIME LEFT:  2.00D  GRAD.:     0.993 HEAT: -3.586829
 CYCLE:    76 TIME:   0.012 TIME LEFT:  2.00D  GRAD.:     0.967 HEAT: -3.589079
 CYCLE:    77 TIME:   0.012 TIME LEFT:  2.00D  GRAD.:     0.934 HEAT: -3.591374
 CYCLE:    78 TIME:   0.012 TIME LEFT:  2.00D  GRAD.:     0.877 HEAT: -3.593427
 CYCLE:    79 TIME:   0.012 TIME LEFT:  2.00D  GRAD.:     0.832 HEAT: -3.595346
 CYCLE:    80 TIME:   0.012 TIME LEFT:  2.00D  GRAD.:     0.734 HEAT: -3.596855
 CYCLE:    81 TIME:   0.008 TIME LEFT:  2.00D  GRAD.:     0.666 HEAT: -3.598163
 CYCLE:    82 TIME:   0.012 TIME LEFT:  2.00D  GRAD.:     0.662 HEAT: -3.599300
 CYCLE:    83 TIME:   0.012 TIME LEFT:  2.00D  GRAD.:     0.647 HEAT: -3.600309
 CYCLE:    84 TIME:   0.012 TIME LEFT:  2.00D  GRAD.:     0.703 HEAT: -3.601535
 CYCLE:    85 TIME:   0.012 TIME LEFT:  2.00D  GRAD.:     0.709 HEAT: -3.602778
 CYCLE:    86 TIME:   0.008 TIME LEFT:  2.00D  GRAD.:     0.786 HEAT: -3.604294
 CYCLE:    87 TIME:   0.012 TIME LEFT:  2.00D  GRAD.:     0.865 HEAT: -3.605806
 CYCLE:    88 TIME:   0.012 TIME LEFT:  2.00D  GRAD.:     0.924 HEAT: -3.607652
 CYCLE:    89 TIME:   0.012 TIME LEFT:  2.00D  GRAD.:     1.126 HEAT: -3.610114
 CYCLE:    90 TIME:   0.008 TIME LEFT:  2.00D  GRAD.:     1.219 HEAT: -3.613139
 CYCLE:    91 TIME:   0.012 TIME LEFT:  2.00D  GRAD.:     1.405 HEAT: -3.617591
 CYCLE:    92 TIME:   0.012 TIME LEFT:  2.00D  GRAD.:     1.176 HEAT: -3.620446
 CYCLE:    93 TIME:   0.012 TIME LEFT:  2.00D  GRAD.:     1.161 HEAT: -3.625959
 CYCLE:    94 TIME:   0.012 TIME LEFT:  2.00D  GRAD.:     1.151 HEAT: -3.628567
 CYCLE:    95 TIME:   0.012 TIME LEFT:  2.00D  GRAD.:     0.901 HEAT: -3.631592
 CYCLE:    96 TIME:   0.016 TIME LEFT:  2.00D  GRAD.:     0.853 HEAT: -3.634059
 CYCLE:    97 TIME:   0.008 TIME LEFT:  2.00D  GRAD.:     0.766 HEAT: -3.635321
 CYCLE:    98 TIME:   0.016 TIME LEFT:  2.00D  GRAD.:     1.187 HEAT: -3.637625
 CYCLE:    99 TIME:   0.012 TIME LEFT:  2.00D  GRAD.:     0.793 HEAT: -3.638625
 CYCLE:   100 TIME:   0.008 TIME LEFT:  2.00D  GRAD.:     0.536 HEAT: -3.639630
 CYCLE:   101 TIME:   0.012 TIME LEFT:  2.00D  GRAD.:     0.513 HEAT: -3.640574
 CYCLE:   102 TIME:   0.016 TIME LEFT:  2.00D  GRAD.:     0.691 HEAT: -3.641544
 CYCLE:   103 TIME:   0.012 TIME LEFT:  2.00D  GRAD.:     0.599 HEAT: -3.642285
 CYCLE:   104 TIME:   0.012 TIME LEFT:  2.00D  GRAD.:     0.687 HEAT: -3.643536
 CYCLE:   105 TIME:   0.008 TIME LEFT:  2.00D  GRAD.:     0.531 HEAT: -3.644113
 CYCLE:   106 TIME:   0.012 TIME LEFT:  2.00D  GRAD.:     0.395 HEAT: -3.644829
 CYCLE:   107 TIME:   0.012 TIME LEFT:  2.00D  GRAD.:     0.541 HEAT: -3.645543
 CYCLE:   108 TIME:   0.012 TIME LEFT:  2.00D  GRAD.:     0.586 HEAT: -3.646621
 CYCLE:   109 TIME:   0.012 TIME LEFT:  2.00D  GRAD.:     0.670 HEAT: -3.647384
 CYCLE:   110 TIME:   0.012 TIME LEFT:  2.00D  GRAD.:     0.482 HEAT: -3.648027
 CYCLE:   111 TIME:   0.008 TIME LEFT:  2.00D  GRAD.:     0.460 HEAT: -3.648706
 CYCLE:   112 TIME:   0.016 TIME LEFT:  2.00D  GRAD.:     0.331 HEAT: -3.648907
 CYCLE:   113 TIME:   0.012 TIME LEFT:  2.00D  GRAD.:     0.556 HEAT: -3.649312
 CYCLE:   114 TIME:   0.008 TIME LEFT:  2.00D  GRAD.:     0.368 HEAT: -3.649576
 CYCLE:   115 TIME:   0.012 TIME LEFT:  2.00D  GRAD.:     0.372 HEAT: -3.649998
 CYCLE:   116 TIME:   0.012 TIME LEFT:  2.00D  GRAD.:     0.477 HEAT: -3.650559
 CYCLE:   117 TIME:   0.012 TIME LEFT:  2.00D  GRAD.:     0.767 HEAT: -3.650675
 CYCLE:   118 TIME:   0.012 TIME LEFT:  2.00D  GRAD.:     0.523 HEAT: -3.651473
 CYCLE:   119 TIME:   0.008 TIME LEFT:  2.00D  GRAD.:     0.421 HEAT: -3.651928
 CYCLE:   120 TIME:   0.012 TIME LEFT:  2.00D  GRAD.:     0.434 HEAT: -3.652218
 CYCLE:   121 TIME:   0.012 TIME LEFT:  2.00D  GRAD.:     0.388 HEAT: -3.652729
 CYCLE:   122 TIME:   0.023 TIME LEFT:  2.00D  GRAD.:     3.188 HEAT: -3.644093
 CYCLE:   123 TIME:   0.012 TIME LEFT:  2.00D  GRAD.:     0.371 HEAT: -3.653122
 CYCLE:   124 TIME:   0.008 TIME LEFT:  2.00D  GRAD.:     0.257 HEAT: -3.653472
 CYCLE:   125 TIME:   0.012 TIME LEFT:  2.00D  GRAD.:     0.170 HEAT: -3.653577
 CYCLE:   126 TIME:   0.012 TIME LEFT:  2.00D  GRAD.:     0.146 HEAT: -3.653633
 CYCLE:   127 TIME:   0.012 TIME LEFT:  2.00D  GRAD.:     0.170 HEAT: -3.653743
 CYCLE:   128 TIME:   0.012 TIME LEFT:  2.00D  GRAD.:     0.160 HEAT: -3.653827
 CYCLE:   129 TIME:   0.012 TIME LEFT:  2.00D  GRAD.:     0.205 HEAT: -3.653633
 CYCLE:   130 TIME:   0.012 TIME LEFT:  2.00D  GRAD.:     0.133 HEAT: -3.653851
 CYCLE:   131 TIME:   0.012 TIME LEFT:  2.00D  GRAD.:     0.355 HEAT: -3.652613
 CYCLE:   132 TIME:   0.012 TIME LEFT:  2.00D  GRAD.:     0.095 HEAT: -3.653905
 CYCLE:   133 TIME:   0.008 TIME LEFT:  2.00D  GRAD.:     0.114 HEAT: -3.653935
 CYCLE:   134 TIME:   0.016 TIME LEFT:  2.00D  GRAD.:     0.508 HEAT: -3.653392
 CYCLE:   135 TIME:   0.012 TIME LEFT:  2.00D  GRAD.:     0.140 HEAT: -3.653955
 CYCLE:   136 TIME:   0.008 TIME LEFT:  2.00D  GRAD.:     0.094 HEAT: -3.653993
 CYCLE:   137 TIME:   0.012 TIME LEFT:  2.00D  GRAD.:     0.069 HEAT: -3.654002
 CYCLE:   138 TIME:   0.012 TIME LEFT:  2.00D  GRAD.:     0.065 HEAT: -3.654045
 CYCLE:   139 TIME:   0.012 TIME LEFT:  2.00D  GRAD.:     0.106 HEAT: -3.654135
 CYCLE:   140 TIME:   0.008 TIME LEFT:  2.00D  GRAD.:     0.087 HEAT: -3.654153
 CYCLE:   141 TIME:   0.008 TIME LEFT:  2.00D  GRAD.:     0.078 HEAT: -3.654182
 CYCLE:   142 TIME:   0.012 TIME LEFT:  2.00D  GRAD.:     0.100 HEAT: -3.654228
 CYCLE:   143 TIME:   0.012 TIME LEFT:  2.00D  GRAD.:     0.071 HEAT: -3.654243
 CYCLE:   144 TIME:   0.008 TIME LEFT:  2.00D  GRAD.:     0.070 HEAT: -3.654253
 CYCLE:   145 TIME:   0.012 TIME LEFT:  2.00D  GRAD.:     0.095 HEAT: -3.654274
 CYCLE:   146 TIME:   0.012 TIME LEFT:  2.00D  GRAD.:     0.063 HEAT: -3.654283
 CYCLE:   147 TIME:   0.008 TIME LEFT:  2.00D  GRAD.:     0.068 HEAT: -3.654293
 CYCLE:   148 TIME:   0.012 TIME LEFT:  2.00D  GRAD.:     0.045 HEAT: -3.654296

     GRADIENT =  0.04523 IS LESS THAN CUTOFF =  0.05000



 -------------------------------------------------------------------------------
 pm3  precise nosym THREADS=1
 InChI=1S/C12H20/c1-5-11-9(3)7-8-10(4)12(11)6-2/h5,7-12H,1,6H2,2-4H3



     GEOMETRY OPTIMISED USING EIGENVECTOR FOLLOWING (EF).     
     SCF FIELD WAS ACHIEVED                                   


                              PM3 CALCULATION
                                                       MOPAC v23.1.2 MacOS
                                                       Tue Jun  3 16:35:39 2025




          FINAL HEAT OF FORMATION =         -3.65430 KCAL/MOL =     -15.28958 KJ/MOL


          COSMO AREA              =        220.51 SQUARE ANGSTROMS
          COSMO VOLUME            =        245.99 CUBIC ANGSTROMS

          GRADIENT NORM           =          0.04523          =       0.00800 PER ATOM
          IONIZATION POTENTIAL    =          9.730627 EV
          HOMO LUMO ENERGIES (EV) =         -9.731  1.119
          NO. OF FILLED LEVELS    =         34
          MOLECULAR WEIGHT        =        164.2900         POINT GROUP:  C1  

          MOLECULAR DIMENSIONS (Angstroms)

            Atom       Atom       Distance
            H    32    H    29     7.37692
            H    21    H    25     7.23751
            H    20    H    23     5.50522


          SCF CALCULATIONS        =        162

          WALL-CLOCK TIME         =      1.762 SECONDS
          COMPUTATION TIME        =      1.328 SECONDS




   ATOM   CHEMICAL          X               Y               Z
  NUMBER   SYMBOL      (ANGSTROMS)     (ANGSTROMS)     (ANGSTROMS)

     1       C         -0.65975776  *  -0.23825719  *   0.42967066  *
     2       C          0.83591819  *   0.12473075  *   0.40752467  *
     3       C         -1.46581567  *   0.77094400  *  -0.40810087  *
     4       C          1.39606629  *   0.12159202  *  -1.02382133  *
     5       C         -0.92825057  *  -1.66953362  *  -0.04618487  *
     6       C          2.78783755  *   0.73594462  *  -1.05920410  *
     7       C         -1.77389892  *   2.03429008  *   0.38319517  *
     8       C         -2.36100810  *  -2.08438957  *   0.20683878  *
     9       C          0.48931545  *   0.85213342  *  -1.95963272  *
    10       C         -0.78332698  *   1.13615429  *  -1.68519033  *
    11       C          1.61557533  *  -0.79347094  *   1.29852250  *
    12       C          1.77822062  *  -0.56246488  *   2.59626004  *
    13       H         -1.00296120  *  -0.16799853  *   1.49323357  *
    14       H          1.46013206  *  -0.93506175  *  -1.39002121  *
    15       H         -2.44132488  *   0.27558117  *  -0.67435521  *
    16       H          0.92632331  *   1.16926237  *   0.80540465  *
    17       H         -0.23720202  *  -2.36680373  *   0.46831307  *
    18       H         -0.69634942  *  -1.75828726  *  -1.12672580  *
    19       H         -0.85778630  *   2.53882046  *   0.71971945  *
    20       H          3.21895639  *   0.69263477  *  -2.06785818  *
    21       H          2.77492664  *   1.78996116  *  -0.75174074  *
    22       H          3.46930399  *   0.20319863  *  -0.38247183  *
    23       H         -2.37314118  *   1.81046477  *   1.27561638  *
    24       H         -2.33986015  *   2.75320081  *  -0.22347689  *
    25       H         -2.57503339  *  -3.07099050  *  -0.22144807  *
    26       H         -3.05991073  *  -1.36091180  *  -0.24643318  *
    27       H         -2.58960370  *  -2.13187338  *   1.27947990  *
    28       H          0.93140417  *   1.14498234  *  -2.91962617  *
    29       H         -1.40073000  *   1.67897411  *  -2.41082757  *
    30       H          2.05273358  *  -1.68214605  *   0.82544435  *
    31       H          1.36431406  *   0.30596504  *   3.10191296  *
    32       H          2.33778289  *  -1.22977571  *   3.24440022  *

                             CARTESIAN COORDINATES

   1    C       -0.659757763    -0.238257186     0.429670661
   2    C        0.835918189     0.124730748     0.407524673
   3    C       -1.465815672     0.770943995    -0.408100868
   4    C        1.396066295     0.121592023    -1.023821332
   5    C       -0.928250574    -1.669533625    -0.046184874
   6    C        2.787837551     0.735944619    -1.059204097
   7    C       -1.773898921     2.034290078     0.383195166
   8    C       -2.361008104    -2.084389569     0.206838785
   9    C        0.489315453     0.852133424    -1.959632721
  10    C       -0.783326976     1.136154291    -1.685190329
  11    C        1.615575333    -0.793470940     1.298522495
  12    C        1.778220621    -0.562464879     2.596260040
  13    H       -1.002961196    -0.167998535     1.493233569
  14    H        1.460132064    -0.935061755    -1.390021209
  15    H       -2.441324882     0.275581175    -0.674355215
  16    H        0.926323311     1.169262374     0.805404651
  17    H       -0.237202020    -2.366803730     0.468313067
  18    H       -0.696349417    -1.758287262    -1.126725796
  19    H       -0.857786299     2.538820460     0.719719449
  20    H        3.218956390     0.692634766    -2.067858179
  21    H        2.774926636     1.789961161    -0.751740745
  22    H        3.469303993     0.203198627    -0.382471825
  23    H       -2.373141177     1.810464770     1.275616383
  24    H       -2.339860151     2.753200807    -0.223476892
  25    H       -2.575033394    -3.070990495    -0.221448070
  26    H       -3.059910733    -1.360911797    -0.246433177
  27    H       -2.589603703    -2.131873379     1.279479903
  28    H        0.931404172     1.144982339    -2.919626172
  29    H       -1.400729998     1.678974105    -2.410827567
  30    H        2.052733581    -1.682146049     0.825444350
  31    H        1.364314055     0.305965043     3.101912962
  32    H        2.337782893    -1.229775714     3.244400219


           Empirical Formula: C12 H20  =    32 atoms



      MOLECULAR POINT GROUP   :   C1  


                  EIGENVALUES  
 -42.83220 -35.59854 -34.21905 -32.17935 -28.62600 -27.50013 -23.84950 -22.54053
 -21.53743 -20.95436 -19.25492 -17.11702 -17.10117 -16.33063 -15.75768 -15.54692
 -15.34648 -15.00743 -14.36035 -13.73159 -13.71851 -13.57978 -13.28342 -13.15572
 -12.95445 -12.51672 -12.32962 -12.24831 -12.04963 -11.48771 -11.25331 -11.07142
 -10.14934  -9.73063   1.11903   1.17486   3.24909   3.39716   3.41399   3.57830
   3.66910   3.67995   3.77854   3.80602   3.91741   3.99937   4.06850   4.14496
   4.16432   4.22348   4.28430   4.33440   4.39346   4.48406   4.56533   4.61513
   4.74449   4.77939   4.85895   4.90082   4.97914   5.13296   5.17366   5.26284
   5.59778   5.81950   5.87383   6.03501


              NET ATOMIC CHARGES AND DIPOLE CONTRIBUTIONS

  ATOM NO.   TYPE          CHARGE      No. of ELECS.   s-Pop       p-Pop       
    1          C          -0.068288        4.0683     1.18382     2.88447
    2          C          -0.047750        4.0478     1.17130     2.87645
    3          C          -0.051793        4.0518     1.16838     2.88342
    4          C          -0.037623        4.0376     1.16400     2.87362
    5          C          -0.107325        4.1073     1.16230     2.94502
    6          C          -0.109852        4.1099     1.14176     2.96809
    7          C          -0.106437        4.1064     1.14120     2.96524
    8          C          -0.115466        4.1155     1.14047     2.97500
    9          C          -0.144506        4.1445     1.19673     2.94778
   10          C          -0.142187        4.1422     1.19515     2.94703
   11          C          -0.132430        4.1324     1.19735     2.93508
   12          C          -0.166750        4.1667     1.18282     2.98393
   13          H           0.068708        0.9313     0.93129
   14          H           0.071319        0.9287     0.92868
   15          H           0.077151        0.9228     0.92285
   16          H           0.075374        0.9246     0.92463
   17          H           0.055580        0.9444     0.94442
   18          H           0.056932        0.9431     0.94307
   19          H           0.043068        0.9569     0.95693
   20          H           0.038776        0.9612     0.96122
   21          H           0.042529        0.9575     0.95747
   22          H           0.043161        0.9568     0.95684
   23          H           0.038495        0.9615     0.96150
   24          H           0.039772        0.9602     0.96023
   25          H           0.038938        0.9611     0.96106
   26          H           0.043093        0.9569     0.95691
   27          H           0.038461        0.9615     0.96154
   28          H           0.099695        0.9003     0.90031
   29          H           0.097242        0.9028     0.90276
   30          H           0.100595        0.8994     0.89940
   31          H           0.081917        0.9181     0.91808
   32          H           0.079600        0.9204     0.92040
 DIPOLE           X         Y         Z       TOTAL
 POINT-CHG.    -0.106    -0.108     0.009     0.152
 HYBRID         0.010     0.054    -0.013     0.056
 SUM           -0.097    -0.054    -0.004     0.111


          ATOMIC ORBITAL ELECTRON POPULATIONS

     Atom    s        px        py        pz   
    1  C   1.18382   0.94192   0.94640   0.99615
    2  C   1.17130   0.94073   0.99101   0.94471
    3  C   1.16838   0.98834   0.95626   0.93882
    4  C   1.16400   0.94253   0.99150   0.93959
    5  C   1.16230   0.96805   0.96038   1.01660
    6  C   1.14176   0.95492   1.00405   1.00912
    7  C   1.14120   1.00797   0.96757   0.98970
    8  C   1.14047   0.96399   1.00292   1.00809
    9  C   1.19673   0.95669   1.00222   0.98887
   10  C   1.19515   0.96310   1.00719   0.97674
   11  C   1.19735   0.98640   0.98839   0.96028
   12  C   1.18282   1.01124   1.01360   0.95908
   13  H   0.93129
   14  H   0.92868
   15  H   0.92285
   16  H   0.92463
   17  H   0.94442
   18  H   0.94307
   19  H   0.95693
   20  H   0.96122
   21  H   0.95747
   22  H   0.95684
   23  H   0.96150
   24  H   0.96023
   25  H   0.96106
   26  H   0.95691
   27  H   0.96154
   28  H   0.90031
   29  H   0.90276
   30  H   0.89940
   31  H   0.91808
   32  H   0.92040
 *******************************************************************************
 **                                                                           **
 **                              MOPAC v23.1.2                                **
 **                                                                           **
 *******************************************************************************
 **          Digital Object Identifier (DOI): 10.5281/zenodo.6511958          **
 **    Visit the DOI location for information on how to cite this program.    **
 *******************************************************************************

                              PM3 CALCULATION RESULTS

 *******************************************************************************
 *  CALCULATION DONE: (MAX THREADS = 1)              Tue Jun  3 16:35:39 2025  *
 *  PM3        - The PM3 Hamiltonian to be used
 *  OLDGEO     - PREVIOUS GEOMETRY TO BE USED
 *  PRECISE    - TIGHTER CRITERIA TO BE USED
 *  NOSYM      - POINT-GROUP SYMMETRY SET TO C1
 *  THREADS=1  - MULTI-THREADING NOT USED
 *  T=         - A TIME OF 172800.0 SECONDS REQUESTED
 *  DUMP=N     - RESTART FILE WRITTEN EVERY 7200.0 SECONDS REQUESTED
 *  THERMO     - THERMODYNAMIC QUANTITIES TO BE CALCULATED
 *******************************************************************************
oldgeo thermo nosym precise THREADS=1  pm3
 InChI=1S/C12H20/c1-5-11-9(3)7-8-10(4)12(11)6-2/h5,7-12H,1,6H2,2-4H3

   ATOM   CHEMICAL          X               Y               Z
  NUMBER   SYMBOL      (ANGSTROMS)     (ANGSTROMS)     (ANGSTROMS)

     1       C         -0.65975776  *  -0.23825719  *   0.42967066  *
     2       C          0.83591819  *   0.12473075  *   0.40752467  *
     3       C         -1.46581567  *   0.77094400  *  -0.40810087  *
     4       C          1.39606629  *   0.12159202  *  -1.02382133  *
     5       C         -0.92825057  *  -1.66953362  *  -0.04618487  *
     6       C          2.78783755  *   0.73594462  *  -1.05920410  *
     7       C         -1.77389892  *   2.03429008  *   0.38319517  *
     8       C         -2.36100810  *  -2.08438957  *   0.20683878  *
     9       C          0.48931545  *   0.85213342  *  -1.95963272  *
    10       C         -0.78332698  *   1.13615429  *  -1.68519033  *
    11       C          1.61557533  *  -0.79347094  *   1.29852250  *
    12       C          1.77822062  *  -0.56246488  *   2.59626004  *
    13       H         -1.00296120  *  -0.16799853  *   1.49323357  *
    14       H          1.46013206  *  -0.93506175  *  -1.39002121  *
    15       H         -2.44132488  *   0.27558117  *  -0.67435521  *
    16       H          0.92632331  *   1.16926237  *   0.80540465  *
    17       H         -0.23720202  *  -2.36680373  *   0.46831307  *
    18       H         -0.69634942  *  -1.75828726  *  -1.12672580  *
    19       H         -0.85778630  *   2.53882046  *   0.71971945  *
    20       H          3.21895639  *   0.69263477  *  -2.06785818  *
    21       H          2.77492664  *   1.78996116  *  -0.75174074  *
    22       H          3.46930399  *   0.20319863  *  -0.38247183  *
    23       H         -2.37314118  *   1.81046477  *   1.27561638  *
    24       H         -2.33986015  *   2.75320081  *  -0.22347689  *
    25       H         -2.57503339  *  -3.07099050  *  -0.22144807  *
    26       H         -3.05991073  *  -1.36091180  *  -0.24643318  *
    27       H         -2.58960370  *  -2.13187338  *   1.27947990  *
    28       H          0.93140417  *   1.14498234  *  -2.91962617  *
    29       H         -1.40073000  *   1.67897411  *  -2.41082757  *
    30       H          2.05273358  *  -1.68214605  *   0.82544435  *
    31       H          1.36431406  *   0.30596504  *   3.10191296  *
    32       H          2.33778289  *  -1.22977571  *   3.24440022  *



          CARTESIAN COORDINATES 

    NO.       ATOM           X           Y           Z

     1         C         -0.6598     -0.2383      0.4297
     2         C          0.8359      0.1247      0.4075
     3         C         -1.4658      0.7709     -0.4081
     4         C          1.3961      0.1216     -1.0238
     5         C         -0.9283     -1.6695     -0.0462
     6         C          2.7878      0.7359     -1.0592
     7         C         -1.7739      2.0343      0.3832
     8         C         -2.3610     -2.0844      0.2068
     9         C          0.4893      0.8521     -1.9596
    10         C         -0.7833      1.1362     -1.6852
    11         C          1.6156     -0.7935      1.2985
    12         C          1.7782     -0.5625      2.5963
    13         H         -1.0030     -0.1680      1.4932
    14         H          1.4601     -0.9351     -1.3900
    15         H         -2.4413      0.2756     -0.6744
    16         H          0.9263      1.1693      0.8054
    17         H         -0.2372     -2.3668      0.4683
    18         H         -0.6963     -1.7583     -1.1267
    19         H         -0.8578      2.5388      0.7197
    20         H          3.2190      0.6926     -2.0679
    21         H          2.7749      1.7900     -0.7517
    22         H          3.4693      0.2032     -0.3825
    23         H         -2.3731      1.8105      1.2756
    24         H         -2.3399      2.7532     -0.2235
    25         H         -2.5750     -3.0710     -0.2214
    26         H         -3.0599     -1.3609     -0.2464
    27         H         -2.5896     -2.1319      1.2795
    28         H          0.9314      1.1450     -2.9196
    29         H         -1.4007      1.6790     -2.4108
    30         H          2.0527     -1.6821      0.8254
    31         H          1.3643      0.3060      3.1019
    32         H          2.3378     -1.2298      3.2444

  H: (PM3): J. J. P. STEWART, J. COMP. CHEM. 10, 209 (1989).
  C: (PM3): J. J. P. STEWART, J. COMP. CHEM. 10, 209 (1989).

           Empirical Formula: C12 H20  =    32 atoms



      MOLECULAR POINT GROUP   :   C1  


      RHF CALCULATION, NO. OF DOUBLY OCCUPIED LEVELS = 34



          HEAT OF FORMATION =      -3.654296 KCALS/MOLE


          CARTESIAN COORDINATE DERIVATIVES

   NUMBER  ATOM         X            Y            Z

     1       C     -0.001482     0.004191     0.004043
     2       C     -0.003289     0.002630     0.000993
     3       C      0.006195     0.001906     0.000209
     4       C     -0.006900     0.000755    -0.003877
     5       C      0.000580    -0.000361    -0.004509
     6       C     -0.001158    -0.001140     0.000328
     7       C     -0.003323     0.001520     0.000863
     8       C      0.005336     0.001874     0.001063
     9       C      0.002980     0.001923     0.006126
    10       C      0.004330    -0.002193     0.002033
    11       C      0.008688     0.009537    -0.007908
    12       C     -0.002684    -0.007922     0.006548
    13       H      0.003195    -0.006877    -0.002916
    14       H     -0.005435     0.000672     0.002064
    15       H      0.011676     0.002368    -0.000905
    16       H      0.008645     0.000909     0.001653
    17       H     -0.001140     0.005829     0.006069
    18       H     -0.003026    -0.006055     0.002211
    19       H     -0.004175     0.002980     0.000870
    20       H     -0.010686     0.003070    -0.004653
    21       H      0.003867    -0.004534     0.001242
    22       H      0.001750    -0.007797    -0.005199
    23       H     -0.011721     0.004649     0.006394
    24       H     -0.010025     0.000312    -0.002893
    25       H      0.004428    -0.002318    -0.002331
    26       H     -0.001063    -0.000749    -0.001991
    27       H      0.007918    -0.001352     0.004294
    28       H      0.000527    -0.000053    -0.000719
    29       H      0.005960    -0.004089    -0.003770
    30       H     -0.003557     0.007417    -0.000910
    31       H     -0.006914    -0.004593    -0.003299
    32       H      0.000505    -0.002510    -0.001124



          GRADIENT NORM =   0.04523

          MOLECULAR WEIGHT =  164.29



          ROTATIONAL CONSTANTS IN CM(-1)

          A =    0.03339955   B =    0.02803672   C =    0.02125307



           PRINCIPAL MOMENTS OF INERTIA IN UNITS OF 10**(-40)*GRAM-CM**2

          A =      838.1176   B =      998.4316   C =     1317.1154


          ORIENTATION OF MOLECULE IN FORCE CALCULATION

    NO.       ATOM         X         Y         Z

     1          C      -0.7711   -0.3518    0.3339
     2          C       0.7681   -0.3518    0.3339
     3          C      -1.3043    1.0924    0.3339
     4          C       1.3323    0.3720   -0.8992
     5          C      -1.3627   -1.1445   -0.8361
     6          C       2.8300    0.5980   -0.7531
     7          C      -1.3171    1.6834    1.7366
     8          C      -2.8563   -1.3329   -0.6866
     9          C       0.6370    1.6747   -1.1252
    10          C      -0.5366    1.9910   -0.5791
    11          C       1.2964   -1.7504    0.4324
    12          C       1.4902   -2.3610    1.5958
    13          H      -1.1033   -0.8507    1.2797
    14          H       1.1506   -0.2568   -1.8083
    15          H      -2.3652    1.0535   -0.0415
    16          H       1.0966    0.2181    1.2421
    17          H      -0.8630   -2.1314   -0.9053
    18          H      -1.1427   -0.6279   -1.7921
    19          H      -0.3128    1.7003    2.1817
    20          H       3.2533    1.0684   -1.6501
    21          H       3.0616    1.2488    0.1004
    22          H       3.3569   -0.3527   -0.5954
    23          H      -1.9650    1.1046    2.4080
    24          H      -1.6888    2.7164    1.7275
    25          H      -3.2908   -1.8148   -1.5707
    26          H      -3.3583   -0.3597   -0.5518
    27          H      -3.1051   -1.9526    0.1847
    28          H       1.1494    2.3786   -1.7920
    29          H      -0.9981    2.9654   -0.7787
    30          H       1.5184   -2.2590   -0.5146
    31          H       1.2856   -1.8920    2.5546
    32          H       1.8673   -3.3764    1.6688


    FIRST DERIVATIVES WILL BE USED IN THE CALCULATION OF SECOND DERIVATIVES

          ESTIMATED TIME TO COMPLETE CALCULATION =        4.50 SECONDS

    FOR POINT-GROUP C1   THERE ARE   1 UNIQUE SYMMETRY FUNCTIONS.

 STEP:   1 TIME =     0.04 SECS, INTEGRAL =      0.04 TIME LEFT: 172799.95
 STEP:   2 TIME =     0.04 SECS, INTEGRAL =      0.07 TIME LEFT: 172799.91
 STEP:   3 TIME =     0.04 SECS, INTEGRAL =      0.11 TIME LEFT: 172799.88
 STEP:   4 TIME =     0.04 SECS, INTEGRAL =      0.15 TIME LEFT: 172799.84
 STEP:   5 TIME =     0.04 SECS, INTEGRAL =      0.18 TIME LEFT: 172799.80
 STEP:   6 TIME =     0.04 SECS, INTEGRAL =      0.22 TIME LEFT: 172799.77
 STEP:   7 TIME =     0.04 SECS, INTEGRAL =      0.25 TIME LEFT: 172799.73
 STEP:   8 TIME =     0.04 SECS, INTEGRAL =      0.29 TIME LEFT: 172799.70
 STEP:   9 TIME =     0.04 SECS, INTEGRAL =      0.33 TIME LEFT: 172799.66
 STEP:  10 TIME =     0.04 SECS, INTEGRAL =      0.37 TIME LEFT: 172799.62
 STEP:  11 TIME =     0.04 SECS, INTEGRAL =      0.40 TIME LEFT: 172799.59
 STEP:  12 TIME =     0.04 SECS, INTEGRAL =      0.44 TIME LEFT: 172799.55
 STEP:  13 TIME =     0.04 SECS, INTEGRAL =      0.47 TIME LEFT: 172799.52
 STEP:  14 TIME =     0.04 SECS, INTEGRAL =      0.51 TIME LEFT: 172799.48
 STEP:  15 TIME =     0.04 SECS, INTEGRAL =      0.55 TIME LEFT: 172799.44
 STEP:  16 TIME =     0.04 SECS, INTEGRAL =      0.58 TIME LEFT: 172799.41
 STEP:  17 TIME =     0.04 SECS, INTEGRAL =      0.62 TIME LEFT: 172799.37
 STEP:  18 TIME =     0.04 SECS, INTEGRAL =      0.66 TIME LEFT: 172799.33
 STEP:  19 TIME =     0.04 SECS, INTEGRAL =      0.70 TIME LEFT: 172799.29
 STEP:  20 TIME =     0.04 SECS, INTEGRAL =      0.74 TIME LEFT: 172799.25
 STEP:  21 TIME =     0.04 SECS, INTEGRAL =      0.77 TIME LEFT: 172799.21
 STEP:  22 TIME =     0.04 SECS, INTEGRAL =      0.81 TIME LEFT: 172799.18
 STEP:  23 TIME =     0.04 SECS, INTEGRAL =      0.84 TIME LEFT: 172799.14
 STEP:  24 TIME =     0.04 SECS, INTEGRAL =      0.88 TIME LEFT: 172799.11
 STEP:  25 TIME =     0.04 SECS, INTEGRAL =      0.92 TIME LEFT: 172799.07
 STEP:  26 TIME =     0.04 SECS, INTEGRAL =      0.96 TIME LEFT: 172799.03
 STEP:  27 TIME =     0.04 SECS, INTEGRAL =      1.00 TIME LEFT: 172798.99
 STEP:  28 TIME =     0.04 SECS, INTEGRAL =      1.04 TIME LEFT: 172798.95
 STEP:  29 TIME =     0.04 SECS, INTEGRAL =      1.07 TIME LEFT: 172798.91
 STEP:  30 TIME =     0.04 SECS, INTEGRAL =      1.11 TIME LEFT: 172798.88
 STEP:  31 TIME =     0.04 SECS, INTEGRAL =      1.15 TIME LEFT: 172798.84
 STEP:  32 TIME =     0.04 SECS, INTEGRAL =      1.19 TIME LEFT: 172798.80
 STEP:  33 TIME =     0.04 SECS, INTEGRAL =      1.23 TIME LEFT: 172798.76
 STEP:  34 TIME =     0.04 SECS, INTEGRAL =      1.27 TIME LEFT: 172798.72
 STEP:  35 TIME =     0.04 SECS, INTEGRAL =      1.31 TIME LEFT: 172798.68
 STEP:  36 TIME =     0.04 SECS, INTEGRAL =      1.34 TIME LEFT: 172798.64
 STEP:  37 TIME =     0.04 SECS, INTEGRAL =      1.38 TIME LEFT: 172798.61
 STEP:  38 TIME =     0.04 SECS, INTEGRAL =      1.42 TIME LEFT: 172798.57
 STEP:  39 TIME =     0.04 SECS, INTEGRAL =      1.46 TIME LEFT: 172798.53
 STEP:  40 TIME =     0.04 SECS, INTEGRAL =      1.50 TIME LEFT: 172798.49
 STEP:  41 TIME =     0.04 SECS, INTEGRAL =      1.53 TIME LEFT: 172798.46
 STEP:  42 TIME =     0.04 SECS, INTEGRAL =      1.57 TIME LEFT: 172798.42
 STEP:  43 TIME =     0.04 SECS, INTEGRAL =      1.60 TIME LEFT: 172798.39
 STEP:  44 TIME =     0.04 SECS, INTEGRAL =      1.64 TIME LEFT: 172798.35
 STEP:  45 TIME =     0.04 SECS, INTEGRAL =      1.68 TIME LEFT: 172798.31
 STEP:  46 TIME =     0.04 SECS, INTEGRAL =      1.72 TIME LEFT: 172798.27
 STEP:  47 TIME =     0.04 SECS, INTEGRAL =      1.76 TIME LEFT: 172798.23
 STEP:  48 TIME =     0.04 SECS, INTEGRAL =      1.80 TIME LEFT: 172798.19
 STEP:  49 TIME =     0.04 SECS, INTEGRAL =      1.84 TIME LEFT: 172798.15
 STEP:  50 TIME =     0.04 SECS, INTEGRAL =      1.88 TIME LEFT: 172798.11
 STEP:  51 TIME =     0.04 SECS, INTEGRAL =      1.91 TIME LEFT: 172798.07
 STEP:  52 TIME =     0.04 SECS, INTEGRAL =      1.95 TIME LEFT: 172798.04
 STEP:  53 TIME =     0.04 SECS, INTEGRAL =      1.99 TIME LEFT: 172798.00
 STEP:  54 TIME =     0.04 SECS, INTEGRAL =      2.02 TIME LEFT: 172797.96
 STEP:  55 TIME =     0.03 SECS, INTEGRAL =      2.05 TIME LEFT: 172797.93
 STEP:  56 TIME =     0.04 SECS, INTEGRAL =      2.09 TIME LEFT: 172797.89
 STEP:  57 TIME =     0.04 SECS, INTEGRAL =      2.13 TIME LEFT: 172797.86
 STEP:  58 TIME =     0.04 SECS, INTEGRAL =      2.16 TIME LEFT: 172797.82
 STEP:  59 TIME =     0.04 SECS, INTEGRAL =      2.20 TIME LEFT: 172797.79
 STEP:  60 TIME =     0.04 SECS, INTEGRAL =      2.24 TIME LEFT: 172797.75
 STEP:  61 TIME =     0.04 SECS, INTEGRAL =      2.28 TIME LEFT: 172797.71
 STEP:  62 TIME =     0.04 SECS, INTEGRAL =      2.32 TIME LEFT: 172797.67
 STEP:  63 TIME =     0.04 SECS, INTEGRAL =      2.36 TIME LEFT: 172797.63
 STEP:  64 TIME =     0.04 SECS, INTEGRAL =      2.39 TIME LEFT: 172797.60
 STEP:  65 TIME =     0.04 SECS, INTEGRAL =      2.43 TIME LEFT: 172797.56
 STEP:  66 TIME =     0.04 SECS, INTEGRAL =      2.47 TIME LEFT: 172797.52
 STEP:  67 TIME =     0.04 SECS, INTEGRAL =      2.51 TIME LEFT: 172797.48
 STEP:  68 TIME =     0.04 SECS, INTEGRAL =      2.55 TIME LEFT: 172797.44
 STEP:  69 TIME =     0.04 SECS, INTEGRAL =      2.59 TIME LEFT: 172797.40
 STEP:  70 TIME =     0.04 SECS, INTEGRAL =      2.62 TIME LEFT: 172797.37
 STEP:  71 TIME =     0.04 SECS, INTEGRAL =      2.66 TIME LEFT: 172797.33
 STEP:  72 TIME =     0.04 SECS, INTEGRAL =      2.70 TIME LEFT: 172797.29
 STEP:  73 TIME =     0.04 SECS, INTEGRAL =      2.73 TIME LEFT: 172797.26
 STEP:  74 TIME =     0.04 SECS, INTEGRAL =      2.77 TIME LEFT: 172797.22
 STEP:  75 TIME =     0.04 SECS, INTEGRAL =      2.80 TIME LEFT: 172797.18
 STEP:  76 TIME =     0.04 SECS, INTEGRAL =      2.84 TIME LEFT: 172797.15
 STEP:  77 TIME =     0.04 SECS, INTEGRAL =      2.88 TIME LEFT: 172797.11
 STEP:  78 TIME =     0.04 SECS, INTEGRAL =      2.92 TIME LEFT: 172797.07
 STEP:  79 TIME =     0.04 SECS, INTEGRAL =      2.96 TIME LEFT: 172797.03
 STEP:  80 TIME =     0.04 SECS, INTEGRAL =      3.00 TIME LEFT: 172796.99
 STEP:  81 TIME =     0.04 SECS, INTEGRAL =      3.04 TIME LEFT: 172796.95
 STEP:  82 TIME =     0.04 SECS, INTEGRAL =      3.07 TIME LEFT: 172796.91
 STEP:  83 TIME =     0.04 SECS, INTEGRAL =      3.11 TIME LEFT: 172796.88
 STEP:  84 TIME =     0.04 SECS, INTEGRAL =      3.15 TIME LEFT: 172796.84
 STEP:  85 TIME =     0.04 SECS, INTEGRAL =      3.19 TIME LEFT: 172796.80
 STEP:  86 TIME =     0.04 SECS, INTEGRAL =      3.23 TIME LEFT: 172796.76
 STEP:  87 TIME =     0.04 SECS, INTEGRAL =      3.27 TIME LEFT: 172796.72
 STEP:  88 TIME =     0.04 SECS, INTEGRAL =      3.31 TIME LEFT: 172796.68
 STEP:  89 TIME =     0.04 SECS, INTEGRAL =      3.35 TIME LEFT: 172796.64
 STEP:  90 TIME =     0.04 SECS, INTEGRAL =      3.38 TIME LEFT: 172796.61
 STEP:  91 TIME =     0.04 SECS, INTEGRAL =      3.42 TIME LEFT: 172796.57
 STEP:  92 TIME =     0.04 SECS, INTEGRAL =      3.46 TIME LEFT: 172796.53
 STEP:  93 TIME =     0.04 SECS, INTEGRAL =      3.49 TIME LEFT: 172796.50
 STEP:  94 TIME =     0.04 SECS, INTEGRAL =      3.54 TIME LEFT: 172796.45
 STEP:  95 TIME =     0.04 SECS, INTEGRAL =      3.57 TIME LEFT: 172796.41
 STEP:  96 TIME =     0.04 SECS, INTEGRAL =      3.61 TIME LEFT: 172796.38

(To convert to Hartree/Bohr^2, multiply by (10^(-21) x N x a0^2)/(4.184 x 627.51) =  0.0642)


           FORCE MATRIX IN MILLIDYNES/ANGSTROM


                  C  1       C  2       C  3       C  4       C  5       C  6
 ------------------------------------------------------------------------------
     C    1  14.028736
     C    2   3.515284  14.505871
     C    3   3.553595   0.619373  14.545466
     C    4   0.596278   3.630388   0.099270  14.646357
     C    5   3.798923   0.570676   0.615657   0.050860  14.291671
     C    6   0.050965   0.627930   0.009924   4.132238   0.003524  14.355545
     C    7   0.611340   0.040314   4.096929   0.016996   0.047557   0.001726
     C    8   0.638521   0.051820   0.082993   0.003821   4.437539   0.001069
     C    9   0.057532   0.667254   0.795189   4.737610   0.017757   0.722537
     C   10   0.634442   0.065909   4.763516   0.802325   0.028162   0.046714
     C   11   0.652846   4.603300   0.050108   0.650088   0.065101   0.055390
     C   12   0.042926   0.810088   0.005466   0.048629   0.005472   0.003445
     H   13   4.151226   0.420946   0.428049   0.046693   0.424725   0.008677
     H   14   0.012315   0.438153   0.013636   4.115791   0.017317   0.425069
     H   15   0.425762   0.043158   3.950006   0.009596   0.083415   0.000838
     H   16   0.422311   4.099298   0.033305   0.428432   0.046185   0.039404
     H   17   0.442334   0.035836   0.048188   0.004791   4.443220   0.000607
     H   18   0.450548   0.013208   0.025766   0.020906   4.435822   0.001056
     H   19   0.018210   0.020551   0.466758   0.001346   0.001351   0.000690
     H   20   0.009108   0.049165   0.001270   0.455548   0.000743   4.737439
     H   21   0.001730   0.022862   0.001003   0.467448   0.000520   4.732856
     H   22   0.001904   0.028763   0.001923   0.454490   0.000553   4.723573
     H   23   0.026569   0.002207   0.456624   0.002912   0.001914   0.000599
     H   24   0.048115   0.002063   0.454772   0.001221   0.008424   0.000580
     H   25   0.051140   0.009172   0.005449   0.000904   0.450491   0.000315
     H   26   0.027646   0.002130   0.083807   0.000431   0.464210   0.000312
     H   27   0.020359   0.001667   0.003356   0.000417   0.463564   0.000289
     H   28   0.003062   0.039773   0.124629   0.433606   0.001056   0.040804
     H   29   0.042142   0.004816   0.429330   0.124248   0.001485   0.015577
     H   30   0.013210   0.437035   0.002747   0.041356   0.015317   0.009339
     H   31   0.017078   0.100669   0.003558   0.006498   0.001175   0.000782
     H   32   0.018850   0.136718   0.003228   0.012364   0.001172   0.000720


                  C  7       C  8       C  9       C 10       C 11       C 12
 ------------------------------------------------------------------------------
     C    7  14.303310
     C    8   0.004152  14.335038
     C    9   0.036579   0.002165  18.272430
     C   10   0.723195   0.003617  10.752593  18.237481
     C   11   0.003294   0.005630   0.054032   0.004785  18.062385
     C   12   0.000388   0.001498   0.010200   0.001208  11.055086  18.008519
     H   13   0.062030   0.037304   0.004000   0.045271   0.032510   0.005292
     H   14   0.002773   0.001256   0.390594   0.030158   0.037866   0.002309
     H   15   0.423957   0.113114   0.039692   0.405491   0.008109   0.001281
     H   16   0.019696   0.008389   0.015555   0.008537   0.427417   0.050597
     H   17   0.008490   0.435573   0.001122   0.002217   0.038064   0.004726
     H   18   0.001594   0.436006   0.005637   0.006432   0.002840   0.000769
     H   19   4.705484   0.000561   0.003204   0.015189   0.001509   0.000449
     H   20   0.000589   0.000275   0.032260   0.002475   0.003019   0.000531
     H   21   0.000568   0.000294   0.017559   0.002763   0.002319   0.000599
     H   22   0.000467   0.000206   0.052546   0.008584   0.013306   0.004079
     H   23   4.729308   0.000393   0.006606   0.050444   0.000751   0.000312
     H   24   4.738409   0.000539   0.002663   0.036041   0.000918   0.000170
     H   25   0.000624   4.774345   0.000433   0.000763   0.000922   0.000438
     H   26   0.002042   4.546489   0.000981   0.002106   0.001104   0.000432
     H   27   0.000727   4.736041   0.000675   0.000752   0.000461   0.000480
     H   28   0.019617   0.000553   4.789248   0.441690   0.008067   0.001915
     H   29   0.017122   0.000828   0.442606   4.796216   0.001352   0.000402
     H   30   0.001005   0.001059   0.002955   0.001285   4.764591   0.453414
     H   31   0.000501   0.000469   0.001738   0.000582   0.492226   5.068304
     H   32   0.000333   0.000280   0.002396   0.000388   0.463051   5.107536


                  H 13       H 14       H 15       H 16       H 17       H 18
 ------------------------------------------------------------------------------
     H   13   4.633808
     H   14   0.001513   4.589325
     H   15   0.017123   0.000929   4.503139
     H   16   0.037664   0.040923   0.002240   4.558680
     H   17   0.024982   0.002517   0.002430   0.002148   5.065146
     H   18   0.043877   0.020932   0.009739   0.001369   0.564632   5.047869
     H   19   0.004924   0.000534   0.045901   0.032894   0.000432   0.000489
     H   20   0.001719   0.030538   0.000269   0.002167   0.000136   0.000190
     H   21   0.000350   0.046104   0.000259   0.024781   0.000161   0.000339
     H   22   0.000456   0.027131   0.000277   0.002663   0.000227   0.000251
     H   23   0.030189   0.000599   0.030954   0.000458   0.000356   0.000459
     H   24   0.002444   0.000483   0.027908   0.001227   0.001701   0.000500
     H   25   0.002168   0.000211   0.002694   0.001717   0.026018   0.033198
     H   26   0.002760   0.000281   0.133614   0.000341   0.048244   0.022687
     H   27   0.021120   0.000462   0.001123   0.000316   0.027302   0.048029
     H   28   0.000652   0.017005   0.014470   0.001322   0.000426   0.000764
     H   29   0.006552   0.016918   0.035448   0.000571   0.000461   0.000857
     H   30   0.001923   0.030502   0.000658   0.032773   0.029739   0.000480
     H   31   0.005277   0.000589   0.000596   0.026605   0.000624   0.000294
     H   32   0.000899   0.000521   0.000573   0.005791   0.000671   0.000266


                  H 19       H 20       H 21       H 22       H 23       H 24
 ------------------------------------------------------------------------------
     H   19   5.434635
     H   20   0.000174   5.475797
     H   21   0.000285   0.572658   5.471058
     H   22   0.000171   0.564626   0.570432   5.455214
     H   23   0.570031   0.000171   0.000153   0.000159   5.466867
     H   24   0.574508   0.000153   0.000140   0.000136   0.568624   5.477948
     H   25   0.000219   0.000093   0.000060   0.000051   0.000197   0.000152
     H   26   0.000487   0.000065   0.000075   0.000108   0.000582   0.000325
     H   27   0.000156   0.000052   0.000092   0.000042   0.000298   0.000107
     H   28   0.000782   0.026671   0.003620   0.002232   0.003168   0.000764
     H   29   0.002268   0.000587   0.000632   0.002611   0.001527   0.014964
     H   30   0.000358   0.000758   0.000720   0.010978   0.000185   0.000248
     H   31   0.000293   0.000243   0.000314   0.000511   0.000219   0.000163
     H   32   0.000171   0.000144   0.000126   0.000603   0.000153   0.000116


                  H 25       H 26       H 27       H 28       H 29       H 30
 ------------------------------------------------------------------------------
     H   25   5.497051
     H   26   0.552983   5.323958
     H   27   0.571315   0.565345   5.469961
     H   28   0.000144   0.000311   0.000152   5.169554
     H   29   0.000253   0.000476   0.000292   0.072052   5.171872
     H   30   0.000198   0.000530   0.000232   0.000593   0.000521   5.144652
     H   31   0.000136   0.000136   0.000180   0.000291   0.000230   0.121726
     H   32   0.000086   0.000078   0.000140   0.000478   0.000161   0.081848


                  H 31       H 32
 ------------------------------
     H   31   5.463445
     H   32   0.422453   5.496223


          HEAT OF FORMATION =      -3.654296 KCALS/MOLE

          ZERO POINT ENERGY     180.506 KCAL/MOL


           NORMAL COORDINATE ANALYSIS (Total motion = 1 Angstrom)


   Root No.       1         2         3         4         5         6         7         8

                 1 A       2 A       3 A       4 A       5 A       6 A       7 A       8 A   

                  40.4      65.9      82.6     129.6     162.6     179.6     182.9     209.6
  
           1   -0.0132   -0.0047    0.0009    0.0052   -0.0005    0.0036   -0.0022   -0.0092
           2   -0.0027   -0.0047   -0.0056   -0.0038    0.0047    0.0024    0.0072   -0.0017
           3   -0.0054    0.0000   -0.0023    0.0168    0.0114    0.0037    0.0146   -0.0066
           4   -0.0131   -0.0049    0.0011    0.0066   -0.0003    0.0037   -0.0015   -0.0097
           5   -0.0068   -0.0057    0.0033    0.0001   -0.0001   -0.0023    0.0036    0.0071
           6    0.0028    0.0031    0.0003    0.0048    0.0125    0.0010    0.0163    0.0022
           7   -0.0048    0.0014    0.0013   -0.0001   -0.0040    0.0033   -0.0055   -0.0074
           8    0.0008   -0.0029   -0.0059   -0.0055    0.0038    0.0024    0.0065   -0.0012
           9   -0.0012    0.0077    0.0154    0.0048    0.0069    0.0050    0.0048   -0.0094
          10   -0.0057    0.0016   -0.0103   -0.0027   -0.0062   -0.0003   -0.0084   -0.0056
          11   -0.0101   -0.0019   -0.0049   -0.0006   -0.0029   -0.0077   -0.0009    0.0150
          12    0.0043    0.0080   -0.0096   -0.0008    0.0076   -0.0041    0.0095    0.0095
          13   -0.0129   -0.0050    0.0099    0.0090    0.0117    0.0034    0.0152   -0.0010
          14    0.0068    0.0056    0.0099   -0.0275    0.0110    0.0113    0.0063   -0.0213
          15   -0.0119   -0.0066   -0.0173    0.0309   -0.0004   -0.0027    0.0058    0.0031
          16   -0.0039   -0.0060   -0.0080   -0.0032   -0.0038   -0.0026   -0.0059   -0.0003
          17   -0.0236    0.0310   -0.0082    0.0088   -0.0129    0.0092   -0.0108   -0.0196
          18    0.0057    0.0381   -0.0326   -0.0095   -0.0087   -0.0050   -0.0096    0.0011
          19   -0.0073    0.0499    0.0230   -0.0103   -0.0033   -0.0176   -0.0008    0.0340
          20   -0.0061    0.0077   -0.0174    0.0034    0.0269   -0.0012    0.0227    0.0000
          21    0.0017    0.0036    0.0205    0.0010   -0.0029    0.0057   -0.0019   -0.0078
          22   -0.0157   -0.0058    0.0089   -0.0054    0.0135    0.0048    0.0166   -0.0020
          23    0.0193    0.0091    0.0075    0.0407   -0.0074    0.0034   -0.0117   -0.0183
          24   -0.0228   -0.0105   -0.0330   -0.0294   -0.0141   -0.0002   -0.0145   -0.0050
          25    0.0042   -0.0177   -0.0122   -0.0080   -0.0048   -0.0023   -0.0069    0.0093
          26   -0.0042   -0.0173   -0.0037   -0.0046   -0.0027   -0.0094   -0.0019    0.0255
          27    0.0080   -0.0209   -0.0020   -0.0043    0.0049   -0.0080    0.0018    0.0252
          28    0.0046   -0.0182   -0.0065   -0.0055   -0.0077    0.0075   -0.0100   -0.0094
          29    0.0006   -0.0164   -0.0033   -0.0058   -0.0017    0.0010   -0.0006    0.0071
          30    0.0062   -0.0223    0.0106    0.0010   -0.0017    0.0074   -0.0059   -0.0042
          31   -0.0134   -0.0048    0.0074    0.0119   -0.0037   -0.0022   -0.0029   -0.0034
          32   -0.0063   -0.0060    0.0079    0.0013   -0.0030   -0.0051    0.0011    0.0096
          33    0.0057   -0.0013    0.0224   -0.0023    0.0009    0.0001    0.0005   -0.0035
          34    0.0801    0.0063   -0.0184    0.0037    0.0066    0.0014    0.0083   -0.0023
          35    0.0307   -0.0061    0.0202   -0.0108   -0.0154   -0.0065   -0.0185    0.0060
          36    0.0095   -0.0032    0.0334   -0.0073   -0.0075   -0.0013   -0.0119   -0.0058
          37   -0.0207   -0.0081   -0.0011    0.0118   -0.0064    0.0025   -0.0098   -0.0108
          38   -0.0052   -0.0089   -0.0193    0.0069    0.0014   -0.0007    0.0108    0.0042
          39   -0.0096   -0.0035   -0.0104    0.0246    0.0070    0.0013    0.0131   -0.0036
          40   -0.0102    0.0330   -0.0236   -0.0028   -0.0167    0.0041   -0.0198   -0.0239
          41   -0.0072   -0.0132   -0.0083   -0.0048   -0.0044   -0.0174   -0.0047    0.0291
          42    0.0032    0.0096   -0.0046    0.0019    0.0102    0.0019    0.0137    0.0030
          43   -0.0033   -0.0098   -0.0033    0.0023   -0.0057    0.0066   -0.0065   -0.0124
          44    0.0097   -0.0007   -0.0019   -0.0063   -0.0066    0.0027   -0.0007   -0.0021
          45   -0.0061    0.0398    0.0284   -0.0011    0.0121   -0.0053    0.0082    0.0068
          46   -0.0180   -0.0087   -0.0021    0.0132    0.0063    0.0111    0.0044   -0.0172
          47   -0.0041   -0.0090    0.0174   -0.0000   -0.0050   -0.0018   -0.0008    0.0051
          48    0.0032    0.0070   -0.0070    0.0020    0.0121   -0.0025    0.0162    0.0064
          49   -0.0224   -0.0076    0.0127   -0.0311    0.0214    0.0071    0.0252   -0.0015
          50    0.0022    0.0048    0.0119   -0.0529    0.0167    0.0142    0.0114   -0.0235
          51   -0.0127   -0.0132   -0.0264    0.0975   -0.0107   -0.0158    0.0039    0.0272
          52   -0.0023   -0.0014    0.0161    0.0710    0.0116   -0.0021    0.0198    0.0070
          53    0.0083    0.0127    0.0233   -0.0815    0.0254    0.0231    0.0149   -0.0412
          54   -0.0087   -0.0019   -0.0088    0.0160    0.0071    0.0023    0.0112   -0.0056
          55   -0.0092    0.0643    0.0289   -0.0123    0.0180   -0.0248   -0.0168    0.0486
          56   -0.0158    0.0022   -0.0298    0.0163    0.1674   -0.0000   -0.0787   -0.0059
          57    0.0066   -0.0281    0.0080    0.0047   -0.0574    0.0215    0.0385   -0.0394
          58    0.0009    0.0045   -0.0209   -0.0102   -0.0115    0.0231   -0.0158    0.0161
          59   -0.0259    0.0276   -0.0099    0.0043   -0.0099   -0.1615   -0.0060   -0.0883
          60    0.0068    0.0413   -0.0396   -0.0152   -0.0108   -0.0821   -0.0118   -0.0270
          61    0.0013   -0.0384    0.0066   -0.0029    0.0108   -0.0241    0.0104    0.0155
          62   -0.0272    0.0474   -0.0080    0.0169   -0.0201    0.1692   -0.0197    0.0267
          63    0.0070    0.0344   -0.0367   -0.0157   -0.0072   -0.1213   -0.0073   -0.0387
          64   -0.0129    0.0097   -0.0076    0.0033   -0.0079   -0.0116   -0.0094   -0.0286
          65   -0.0287    0.0438   -0.0092    0.0132   -0.0174    0.0362   -0.0155   -0.0254
          66    0.0046    0.0629   -0.0400   -0.0046   -0.0213    0.1883   -0.0254    0.0622
          67   -0.0147    0.0662    0.0267   -0.0074    0.1076   -0.0268   -0.0883    0.0517
          68   -0.0049    0.0180   -0.0180    0.0018   -0.0423   -0.0044    0.0966    0.0044
          69   -0.0043    0.0281    0.0235    0.0026    0.0445   -0.0058   -0.0229    0.0128
          70    0.0003    0.0586    0.0314   -0.0203   -0.1375   -0.0199    0.1078    0.0402
          71   -0.0034    0.0107   -0.0143   -0.0002   -0.0211   -0.0020    0.0615    0.0023
          72    0.0052    0.0072    0.0339   -0.0071   -0.0048    0.0027   -0.0266    0.0032
          73   -0.0135   -0.0068    0.0158    0.0234    0.0232    0.0030    0.0294    0.0070
          74    0.0253    0.0228    0.0257   -0.0127    0.0147    0.0184    0.0157   -0.0511
          75   -0.0272   -0.0175   -0.0463   -0.0147   -0.0310   -0.0076   -0.0359    0.0084
          76   -0.0088   -0.0027    0.0084    0.0183    0.0038    0.0017    0.0076   -0.0016
          77    0.0229    0.0089    0.0051    0.0666   -0.0160   -0.0010   -0.0203   -0.0127
          78   -0.0237    0.0027   -0.0172   -0.1301    0.0115    0.0194    0.0144   -0.0440
          79   -0.0270   -0.0087    0.0015   -0.0723    0.0145    0.0106    0.0138   -0.0104
          80    0.0190   -0.0020   -0.0101    0.1174   -0.0358   -0.0139   -0.0448    0.0134
          81   -0.0263   -0.0192   -0.0477    0.0061   -0.0341   -0.0109   -0.0390    0.0152
          82    0.0112   -0.0302   -0.0184   -0.0139   -0.0035   -0.0048   -0.0063    0.0281
          83   -0.0043   -0.0287   -0.0032   -0.0061   -0.0047   -0.0156   -0.0063    0.0392
          84    0.0133   -0.0426   -0.0061   -0.0105    0.0037   -0.0164   -0.0024    0.0545
          85    0.0117   -0.0314   -0.0075   -0.0088   -0.0100    0.0150   -0.0138   -0.0169
          86    0.0047   -0.0274   -0.0024   -0.0074   -0.0046    0.0061   -0.0049    0.0029
          87    0.0100   -0.0449    0.0176    0.0004   -0.0095    0.0147   -0.0184   -0.0071
          88   -0.0931   -0.0141    0.0315    0.0237   -0.0123   -0.0103   -0.0093   -0.0002
          89   -0.0375   -0.0064    0.0011    0.0116    0.0033   -0.0073    0.0124    0.0147
          90    0.0038   -0.0032    0.0319   -0.0051   -0.0048   -0.0007   -0.0075   -0.0055
          91    0.1629    0.0160   -0.0445   -0.0085    0.0178    0.0099    0.0181   -0.0059
          92    0.0618   -0.0062    0.0291   -0.0227   -0.0255   -0.0059   -0.0358    0.0012
          93    0.0119   -0.0011    0.0235   -0.0041   -0.0003    0.0002   -0.0016   -0.0042
          94    0.0814    0.0066   -0.0159    0.0083    0.0055   -0.0036    0.0094    0.0022
          95    0.0313   -0.0062    0.0225   -0.0097   -0.0170   -0.0086   -0.0198    0.0074
          96    0.0106   -0.0070    0.0532   -0.0153   -0.0227   -0.0041   -0.0345   -0.0095


   Root No.       9        10        11        12        13        14        15        16

                 9 A      10 A      11 A      12 A      13 A      14 A      15 A      16 A   

                 236.6     262.0     296.8     324.0     330.5     384.1     459.3     470.1
  
           1   -0.0023   -0.0034   -0.0072   -0.0062    0.0101   -0.0136   -0.0055    0.0161
           2   -0.0053   -0.0073    0.0077   -0.0100   -0.0096    0.0052   -0.0180   -0.0065
           3    0.0027   -0.0045    0.0048   -0.0015    0.0107    0.0085   -0.0166   -0.0034
           4   -0.0009   -0.0025   -0.0122   -0.0031    0.0102   -0.0040   -0.0084    0.0182
           5    0.0009   -0.0004    0.0032   -0.0227   -0.0033    0.0215    0.0240    0.0092
           6   -0.0055    0.0103   -0.0122   -0.0124   -0.0199    0.0093    0.0079   -0.0128
           7    0.0029   -0.0059    0.0069    0.0035   -0.0057   -0.0030   -0.0046    0.0140
           8   -0.0025   -0.0063    0.0144   -0.0032   -0.0179    0.0049   -0.0201   -0.0084
           9   -0.0048   -0.0037    0.0094    0.0064    0.0198    0.0121    0.0095    0.0069
          10    0.0022   -0.0023   -0.0148   -0.0031    0.0130    0.0289    0.0034    0.0001
          11    0.0036   -0.0013   -0.0106   -0.0098    0.0071   -0.0009   -0.0053    0.0215
          12   -0.0028    0.0101   -0.0198   -0.0067   -0.0078    0.0101   -0.0033   -0.0228
          13   -0.0109   -0.0161    0.0058   -0.0158    0.0017   -0.0274    0.0102   -0.0145
          14   -0.0248    0.0194   -0.0038   -0.0029    0.0090    0.0058   -0.0227    0.0002
          15    0.0203   -0.0161    0.0073   -0.0051    0.0017    0.0114   -0.0275    0.0012
          16    0.0028    0.0005   -0.0177   -0.0074    0.0165    0.0349    0.0029    0.0014
          17    0.0001   -0.0186   -0.0255    0.0254   -0.0194    0.0053   -0.0006   -0.0096
          18    0.0029    0.0033    0.0315   -0.0087    0.0113   -0.0134   -0.0001    0.0090
          19    0.0006   -0.0059    0.0005    0.0055   -0.0107   -0.0022    0.0015   -0.0016
          20   -0.0005    0.0003    0.0046    0.0378    0.0204   -0.0030    0.0180    0.0059
          21   -0.0053   -0.0078    0.0149   -0.0094    0.0041    0.0175   -0.0051    0.0011
          22   -0.0190   -0.0157    0.0083   -0.0152    0.0019   -0.0286    0.0093   -0.0178
          23    0.0062    0.0197   -0.0183   -0.0182    0.0083   -0.0297    0.0127   -0.0100
          24   -0.0068    0.0098   -0.0090   -0.0133   -0.0009   -0.0208    0.0119   -0.0091
          25    0.0071   -0.0010   -0.0070    0.0079   -0.0043    0.0114   -0.0031   -0.0093
          26    0.0063   -0.0027   -0.0086    0.0003    0.0009   -0.0174   -0.0128    0.0236
          27    0.0023    0.0046   -0.0256    0.0180    0.0128   -0.0088   -0.0029   -0.0168
          28    0.0050   -0.0104    0.0174    0.0139   -0.0200    0.0138    0.0113   -0.0058
          29    0.0009   -0.0099    0.0141    0.0045   -0.0276   -0.0175   -0.0155    0.0070
          30    0.0002   -0.0112    0.0151    0.0245   -0.0015   -0.0001    0.0286    0.0029
          31    0.0143    0.0494    0.0137    0.0137    0.0022   -0.0060   -0.0121    0.0044
          32    0.0074    0.0188    0.0138   -0.0171   -0.0055    0.0254    0.0313    0.0040
          33   -0.0034    0.0100   -0.0138    0.0001   -0.0269   -0.0013    0.0082    0.0289
          34    0.0002    0.0161    0.0009    0.0049   -0.0123   -0.0031   -0.0042    0.0045
          35    0.0069   -0.0139    0.0147   -0.0016    0.0302    0.0072    0.0020   -0.0267
          36   -0.0013   -0.0017   -0.0119    0.0107   -0.0060   -0.0129   -0.0106    0.0151
          37    0.0036   -0.0076   -0.0057   -0.0060    0.0296   -0.0049   -0.0083    0.0309
          38    0.0048   -0.0153    0.0112   -0.0070   -0.0202    0.0014   -0.0346   -0.0105
          39    0.0100   -0.0106    0.0071   -0.0006    0.0113    0.0093   -0.0261   -0.0009
          40    0.0025   -0.0111   -0.0006    0.0015    0.0163    0.0347    0.0081    0.0005
          41    0.0080   -0.0014   -0.0143   -0.0010    0.0233   -0.0167   -0.0194    0.0300
          42   -0.0057    0.0113   -0.0194   -0.0127   -0.0197    0.0191    0.0056   -0.0277
          43    0.0034   -0.0078    0.0102    0.0052   -0.0101   -0.0029   -0.0030    0.0129
          44    0.0046   -0.0044    0.0165   -0.0068   -0.0291    0.0041   -0.0034   -0.0227
          45   -0.0049    0.0014   -0.0016    0.0009    0.0326    0.0085    0.0068    0.0086
          46   -0.0041   -0.0202   -0.0067   -0.0023    0.0203   -0.0143   -0.0308    0.0176
          47    0.0041    0.0069    0.0103   -0.0221   -0.0087    0.0257    0.0414    0.0247
          48   -0.0059    0.0123   -0.0179   -0.0126   -0.0195    0.0100    0.0047   -0.0225
          49   -0.0296   -0.0106    0.0173   -0.0069   -0.0007   -0.0122   -0.0047   -0.0154
          50   -0.0369    0.0248    0.0006    0.0021    0.0094    0.0139   -0.0307    0.0009
          51    0.0545   -0.0478    0.0210   -0.0149   -0.0188    0.0050   -0.0179   -0.0119
          52    0.0169   -0.0354    0.0108   -0.0215    0.0005   -0.0318    0.0128   -0.0232
          53   -0.0545    0.0444   -0.0099    0.0076    0.0271    0.0170   -0.0380    0.0084
          54    0.0107   -0.0071    0.0050   -0.0009    0.0108    0.0161   -0.0341    0.0034
          55    0.0010   -0.0066   -0.0007    0.0042   -0.0165   -0.0016    0.0032   -0.0089
          56    0.0072   -0.0007    0.0077    0.0412    0.0240   -0.0026    0.0299    0.0152
          57   -0.0066   -0.0059    0.0173   -0.0069    0.0159    0.0162   -0.0093    0.0164
          58    0.0082    0.0038    0.0221   -0.0227    0.0404    0.0128    0.0022    0.0427
          59   -0.0057   -0.0352   -0.0225    0.0392   -0.0362    0.0039    0.0023   -0.0190
          60    0.0024   -0.0038    0.0526   -0.0092    0.0142   -0.0252    0.0011    0.0246
          61    0.0004    0.0116   -0.0431   -0.0252    0.0194    0.0521   -0.0012   -0.0034
          62    0.0042   -0.0119   -0.0359    0.0325   -0.0189    0.0089   -0.0008   -0.0215
          63    0.0005   -0.0050    0.0468   -0.0090    0.0100   -0.0215    0.0012    0.0196
          64    0.0000   -0.0103   -0.0337    0.0208   -0.0078    0.0426    0.0061   -0.0328
          65   -0.0002   -0.0234   -0.0328    0.0414   -0.0309    0.0082    0.0012   -0.0273
          66    0.0105    0.0128    0.0446   -0.0109    0.0269   -0.0231   -0.0002    0.0221
          67    0.0052   -0.0090    0.0027   -0.0049   -0.0254    0.0017   -0.0006   -0.0110
          68   -0.0035    0.0055   -0.0042    0.0718    0.0489   -0.0116    0.0497    0.0148
          69   -0.0034   -0.0064    0.0095    0.0087    0.0140    0.0142    0.0187   -0.0006
          70   -0.0065   -0.0026   -0.0060    0.0203    0.0009   -0.0068    0.0095   -0.0039
          71   -0.0030    0.0015    0.0023    0.0436    0.0247   -0.0049    0.0215    0.0054
          72   -0.0065   -0.0139    0.0221   -0.0478   -0.0333    0.0263   -0.0452   -0.0196
          73   -0.0370   -0.0294    0.0247   -0.0019    0.0056    0.0103   -0.0380   -0.0028
          74    0.1745    0.0048   -0.0376   -0.0410    0.0068   -0.0563    0.0273   -0.0168
          75   -0.0902    0.0248   -0.0064   -0.0075   -0.0020   -0.0260    0.0279   -0.0133
          76    0.0090   -0.0171    0.0034   -0.0216   -0.0038   -0.0464    0.0337   -0.0242
          77   -0.0018    0.0201   -0.0177   -0.0184    0.0055   -0.0350    0.0229   -0.0123
          78    0.1553    0.0020   -0.0305   -0.0360   -0.0030   -0.0505    0.0321   -0.0184
          79   -0.0404   -0.0009    0.0027   -0.0169    0.0017   -0.0404    0.0249   -0.0246
          80   -0.1356    0.0337   -0.0057   -0.0032    0.0081   -0.0212    0.0181   -0.0092
          81   -0.1144    0.0241   -0.0017   -0.0032   -0.0012   -0.0185    0.0208   -0.0108
          82    0.0107    0.0025   -0.0145    0.0175   -0.0126   -0.0070   -0.0156   -0.0238
          83    0.0108   -0.0026   -0.0232    0.0125    0.0172   -0.0249   -0.0066    0.0273
          84    0.0098    0.0076   -0.0465    0.0379    0.0239   -0.0310   -0.0054   -0.0234
          85    0.0049   -0.0190    0.0366    0.0314   -0.0422    0.0144    0.0281   -0.0238
          86    0.0019   -0.0171    0.0284    0.0187   -0.0421   -0.0211    0.0003    0.0017
          87    0.0048   -0.0262    0.0407    0.0524   -0.0229   -0.0197    0.0657    0.0174
          88    0.0400    0.1351    0.0569    0.0444   -0.0056   -0.0095   -0.0363   -0.0369
          89    0.0150    0.0589    0.0273   -0.0171   -0.0213    0.0356    0.0363   -0.0142
          90   -0.0013    0.0081   -0.0110    0.0078   -0.0192   -0.0081   -0.0012    0.0281
          91   -0.0286   -0.0743   -0.0466   -0.0294   -0.0143    0.0014    0.0300    0.0690
          92    0.0010   -0.0662    0.0034    0.0039    0.0723   -0.0104   -0.0233   -0.0443
          93   -0.0045    0.0043   -0.0165    0.0010   -0.0263   -0.0037    0.0083    0.0366
          94    0.0150    0.0754    0.0350    0.0298   -0.0280   -0.0041   -0.0269   -0.0556
          95    0.0128    0.0064    0.0279    0.0092    0.0283    0.0053   -0.0098   -0.0531
          96    0.0040   -0.0203   -0.0051    0.0318    0.0386   -0.0354   -0.0545   -0.0287


   Root No.      17        18        19        20        21        22        23        24

                17 A      18 A      19 A      20 A      21 A      22 A      23 A      24 A   

                 493.7     519.7     570.7     604.9     693.2     772.7     786.7     822.9
  
           1    0.0058    0.0059   -0.0097   -0.0106    0.0399   -0.0067   -0.0032   -0.0057
           2   -0.0176   -0.0201   -0.0108   -0.0120    0.0132   -0.0203   -0.0113    0.0082
           3    0.0334   -0.0023    0.0044    0.0192   -0.0203    0.0134    0.0089   -0.0053
           4    0.0033    0.0022   -0.0196   -0.0185    0.0277   -0.0168    0.0002   -0.0163
           5    0.0124   -0.0065    0.0005   -0.0050    0.0170   -0.0079    0.0008   -0.0082
           6    0.0140    0.0260   -0.0082   -0.0099    0.0150   -0.0178    0.0130   -0.0089
           7    0.0078    0.0373    0.0306   -0.0015    0.0200    0.0294    0.0069    0.0226
           8   -0.0245   -0.0061    0.0009   -0.0154   -0.0062    0.0052    0.0053   -0.0110
           9   -0.0147    0.0060    0.0197   -0.0038    0.0010   -0.0031   -0.0003    0.0030
          10   -0.0157   -0.0104   -0.0099    0.0091   -0.0024    0.0050    0.0020   -0.0001
          11   -0.0079    0.0211   -0.0015    0.0243   -0.0151   -0.0166   -0.0006    0.0000
          12   -0.0060    0.0402   -0.0129   -0.0003   -0.0005   -0.0044   -0.0011    0.0061
          13   -0.0028   -0.0060    0.0037    0.0058   -0.0065    0.0028    0.0013   -0.0040
          14    0.0199   -0.0120   -0.0083    0.0050    0.0022   -0.0119   -0.0135    0.0293
          15    0.0181   -0.0124   -0.0074    0.0093   -0.0026    0.0065   -0.0039    0.0021
          16   -0.0229   -0.0076   -0.0184    0.0195   -0.0099    0.0168    0.0144    0.0030
          17    0.0039   -0.0029    0.0075    0.0015   -0.0040   -0.0016    0.0014    0.0004
          18    0.0034   -0.0019   -0.0034   -0.0032    0.0030   -0.0001    0.0002    0.0014
          19    0.0079   -0.0006   -0.0064    0.0031    0.0033    0.0063    0.0007    0.0076
          20   -0.0159    0.0048    0.0056   -0.0061   -0.0017   -0.0025    0.0067   -0.0076
          21   -0.0270    0.0000    0.0265   -0.0147   -0.0042   -0.0091    0.0135   -0.0085
          22   -0.0031   -0.0088    0.0063    0.0090   -0.0137    0.0054   -0.0016    0.0036
          23    0.0035   -0.0049   -0.0008    0.0060   -0.0052    0.0004   -0.0016    0.0038
          24   -0.0032   -0.0023    0.0007    0.0031   -0.0037    0.0007   -0.0010    0.0005
          25    0.0150   -0.0043    0.0368   -0.0066   -0.0108   -0.0182   -0.0165   -0.0084
          26    0.0044    0.0122    0.0219    0.0161   -0.0144   -0.0164   -0.0045   -0.0049
          27   -0.0012   -0.0218   -0.0001   -0.0219    0.0175    0.0301   -0.0266   -0.0013
          28    0.0147    0.0091    0.0110    0.0049   -0.0119   -0.0173   -0.0196   -0.0068
          29   -0.0121    0.0158   -0.0240   -0.0008    0.0090    0.0409    0.0062   -0.0046
          30    0.0019    0.0005   -0.0307    0.0136    0.0002   -0.0022   -0.0315   -0.0013
          31   -0.0001    0.0076   -0.0181   -0.0357   -0.0318   -0.0031    0.0006    0.0014
          32    0.0157   -0.0087    0.0065   -0.0128    0.0024    0.0164   -0.0035    0.0048
          33   -0.0054   -0.0175    0.0087    0.0071   -0.0003    0.0048   -0.0025    0.0014
          34   -0.0065   -0.0058    0.0015    0.0050   -0.0020   -0.0031    0.0003   -0.0006
          35    0.0099    0.0127   -0.0015   -0.0042    0.0075    0.0077   -0.0011    0.0031
          36   -0.0092   -0.0044    0.0010    0.0064   -0.0052   -0.0023   -0.0012    0.0004
          37    0.0127   -0.0146   -0.0151   -0.0059    0.0525   -0.0081   -0.0147   -0.0205
          38   -0.0164   -0.0229   -0.0178   -0.0105    0.0055   -0.0055   -0.0072    0.0032
          39    0.0357   -0.0111   -0.0011    0.0221   -0.0193    0.0206    0.0064   -0.0111
          40   -0.0260   -0.0270   -0.0240    0.0255   -0.0169    0.0275    0.0279    0.0202
          41   -0.0160    0.0078    0.0129    0.0297   -0.0266    0.0037   -0.0337    0.0012
          42    0.0023    0.0503   -0.0194   -0.0073    0.0105   -0.0226    0.0174    0.0007
          43    0.0129    0.0403    0.0254    0.0030    0.0162    0.0306   -0.0021    0.0161
          44   -0.0238   -0.0091    0.0065   -0.0059   -0.0378    0.0008    0.0013   -0.0254
          45   -0.0295   -0.0057    0.0307   -0.0176    0.0129   -0.0064    0.0273    0.0156
          46    0.0122   -0.0122   -0.0197   -0.0077    0.0487   -0.0257   -0.0004   -0.0324
          47    0.0213   -0.0323    0.0102   -0.0137    0.0130    0.0172   -0.0027   -0.0097
          48    0.0054    0.0471   -0.0144   -0.0085    0.0103   -0.0296    0.0145   -0.0018
          49    0.0037   -0.0107    0.0047    0.0099   -0.0210    0.0189    0.0097   -0.0347
          50    0.0283   -0.0130   -0.0079    0.0093   -0.0064    0.0024   -0.0050    0.0028
          51   -0.0396   -0.0266   -0.0079   -0.0171    0.0135   -0.0618   -0.0479    0.1128
          52   -0.0128   -0.0140    0.0066    0.0102   -0.0192   -0.0165   -0.0151    0.0605
          53    0.0755   -0.0044   -0.0063    0.0350   -0.0258    0.0530    0.0254   -0.0607
          54    0.0442   -0.0099   -0.0054    0.0258   -0.0201    0.0353    0.0126   -0.0290
          55    0.0113   -0.0177   -0.0298    0.0083   -0.0091   -0.0133   -0.0137   -0.0147
          56   -0.0142    0.0257    0.0272   -0.0041    0.0123    0.0133    0.0096    0.0217
          57   -0.0335    0.0362    0.0755   -0.0259    0.0219    0.0328    0.0443    0.0382
          58   -0.0206   -0.0319   -0.0174    0.0260   -0.0069    0.0057    0.0209   -0.0139
          59    0.0154   -0.0183    0.0184   -0.0135    0.0046    0.0051   -0.0035   -0.0053
          60    0.0106   -0.0219    0.0024   -0.0081    0.0096   -0.0023    0.0006   -0.0102
          61   -0.0434    0.0400   -0.0422    0.0492   -0.0312    0.0076    0.0273    0.0253
          62    0.0043   -0.0049    0.0121   -0.0055   -0.0015    0.0066   -0.0045    0.0017
          63    0.0094   -0.0142    0.0003   -0.0069    0.0077   -0.0041    0.0008   -0.0065
          64   -0.0103   -0.0235   -0.0025   -0.0069    0.0018    0.0392    0.0066    0.0031
          65    0.0117   -0.0150    0.0180   -0.0145    0.0036    0.0114   -0.0042   -0.0014
          66    0.0051   -0.0190    0.0009   -0.0075    0.0088    0.0011   -0.0031   -0.0084
          67    0.0107   -0.0180   -0.0265    0.0070   -0.0102   -0.0134   -0.0110   -0.0160
          68   -0.0103    0.0071   -0.0067    0.0058    0.0006   -0.0170   -0.0109   -0.0045
          69   -0.0199   -0.0148   -0.0021   -0.0013   -0.0153   -0.0399   -0.0114   -0.0280
          70    0.0093   -0.0146   -0.0289    0.0077   -0.0059   -0.0137   -0.0124   -0.0142
          71   -0.0156    0.0002   -0.0025   -0.0044   -0.0047   -0.0094    0.0022   -0.0150
          72   -0.0340   -0.0287    0.0093   -0.0260   -0.0263   -0.0202    0.0271   -0.0508
          73    0.0248   -0.0209   -0.0088    0.0145    0.0005    0.0014   -0.0199    0.0306
          74   -0.0029   -0.0063   -0.0008    0.0074   -0.0095    0.0127    0.0084   -0.0287
          75   -0.0139    0.0044    0.0086   -0.0003   -0.0092   -0.0038    0.0028    0.0053
          76   -0.0211    0.0030    0.0204    0.0056   -0.0259    0.0319    0.0235   -0.0558
          77   -0.0044    0.0014    0.0066    0.0046   -0.0117    0.0163    0.0126   -0.0313
          78   -0.0154   -0.0033    0.0026    0.0010   -0.0071   -0.0088   -0.0034    0.0159
          79   -0.0128   -0.0079    0.0099    0.0059   -0.0169   -0.0217   -0.0161    0.0619
          80   -0.0006    0.0025    0.0069    0.0048   -0.0107    0.0115    0.0103   -0.0216
[...]
 TRANSITION DIPOLE   0.0450         C  2 -- H 16          +2.7% ( 16.6%)    100.0%
 TRAVEL (Ang.)       0.1659         C  1 -- C  2          +1.0% ( 10.3%)     12.2%
 REDUCED MASS        0.8579         C  1 -- C  5          +1.0% ( 10.3%)      8.0%
 EFFECTIVE MASS      1.4435
 FORCE CONSTANT      4.1253

 VIBRATION         75   75A           ATOM PAIR      ENERGY CONTRIBUTION    RADIAL
 FREQUENCY          2950.70         C  5 -- H 18         +50.5% ( 73.8%)     96.8%
 TRANSITION DIPOLE   0.0490         C  5 -- H 17         +46.5% ( 70.8%)     96.3%
 TRAVEL (Ang.)       0.2112         C  5 -- C  8          +1.2% ( 11.3%)      0.0%
 REDUCED MASS        0.5126         C  1 -- C  5          +1.2% ( 11.2%)      0.0%
 EFFECTIVE MASS      1.5456
 FORCE CONSTANT      2.6293

 VIBRATION         76   76A           ATOM PAIR      ENERGY CONTRIBUTION    RADIAL
 FREQUENCY          3027.76         C  5 -- H 17         +48.9% ( 69.0%)     97.9%
 TRANSITION DIPOLE   0.0784         C  5 -- H 18         +45.9% ( 66.9%)     97.5%
 TRAVEL (Ang.)       0.2226         C 11 -- H 30          +2.2% ( 14.5%)    100.0%
 REDUCED MASS        0.4495         C  8 -- H 26          +1.2% ( 10.7%)     97.8%
 EFFECTIVE MASS      1.2821
 FORCE CONSTANT      2.4278

 VIBRATION         77   77A           ATOM PAIR      ENERGY CONTRIBUTION    RADIAL
 FREQUENCY          3036.09         C  9 -- H 28         +49.4% ( 71.3%)    100.0%
 TRANSITION DIPOLE   0.2994         C 10 -- H 29         +42.6% ( 66.2%)    100.0%
 TRAVEL (Ang.)       0.2307         C 11 -- H 30          +5.5% ( 23.8%)    100.0%
 REDUCED MASS        0.4172         C  9 -- C 10          +1.0% ( 10.2%)      0.1%
 EFFECTIVE MASS      1.4577
 FORCE CONSTANT      2.2660

 VIBRATION         78   78A           ATOM PAIR      ENERGY CONTRIBUTION    RADIAL
 FREQUENCY          3036.22         C 11 -- H 30         +88.8% ( 95.5%)    100.0%
 TRANSITION DIPOLE   0.1932         C  9 -- H 28          +3.0% ( 17.7%)    100.0%
 TRAVEL (Ang.)       0.1691         C 10 -- H 29          +2.7% ( 16.6%)    100.0%
 REDUCED MASS        0.7768         C 11 -- C 12          +1.3% ( 11.6%)     30.9%
 EFFECTIVE MASS      1.4955
 FORCE CONSTANT      4.2191

 VIBRATION         79   79A           ATOM PAIR      ENERGY CONTRIBUTION    RADIAL
 FREQUENCY          3044.48         C  8 -- H 26         +80.2% ( 91.9%)     99.4%
 TRANSITION DIPOLE   0.0213         C  8 -- H 27         +11.9% ( 35.4%)     81.6%
 TRAVEL (Ang.)       0.1807         C  8 -- H 25          +5.3% ( 23.5%)     62.1%
 REDUCED MASS        0.6780         C  5 -- H 17          +1.4% ( 12.3%)     99.6%
 EFFECTIVE MASS      1.4782
 FORCE CONSTANT      3.7029

 VIBRATION         80   80A           ATOM PAIR      ENERGY CONTRIBUTION    RADIAL
 FREQUENCY          3056.36         C 10 -- H 29         +51.8% ( 73.0%)     99.9%
 TRANSITION DIPOLE   0.2699         C  9 -- H 28         +44.6% ( 67.7%)     99.9%
 TRAVEL (Ang.)       0.2171         C  9 -- C 10          +2.0% ( 14.4%)     99.8%
 REDUCED MASS        0.4680         C  3 -- C 10          +0.8% (  9.3%)     10.5%
 EFFECTIVE MASS      1.5857
 FORCE CONSTANT      2.5758

 VIBRATION         81   81A           ATOM PAIR      ENERGY CONTRIBUTION    RADIAL
 FREQUENCY          3074.28         C  7 -- H 19         +68.1% ( 85.1%)     99.0%
 TRANSITION DIPOLE   0.0133         C  7 -- H 23         +19.1% ( 45.1%)     86.9%
 TRAVEL (Ang.)       0.2011         C  7 -- H 24         +11.7% ( 35.3%)     77.8%
 REDUCED MASS        0.5422         C  3 -- C  7          +1.0% ( 10.3%)      0.0%
 EFFECTIVE MASS      1.5036
 FORCE CONSTANT      3.0193

 VIBRATION         82   82A           ATOM PAIR      ENERGY CONTRIBUTION    RADIAL
 FREQUENCY          3079.08         C  6 -- H 22         +58.3% ( 78.8%)     98.2%
 TRANSITION DIPOLE   0.0316         C  6 -- H 21         +38.6% ( 64.1%)     95.2%
 TRAVEL (Ang.)       0.2056         C  6 -- H 20          +2.0% ( 14.7%)     23.7%
 REDUCED MASS        0.5182         C  4 -- C  6          +1.0% ( 10.4%)      0.0%
 EFFECTIVE MASS      1.5067
 FORCE CONSTANT      2.8946

 VIBRATION         83   83A           ATOM PAIR      ENERGY CONTRIBUTION    RADIAL
 FREQUENCY          3082.04         C  6 -- H 20         +61.3% ( 80.8%)     98.7%
 TRANSITION DIPOLE   0.0079         C  6 -- H 21         +25.8% ( 52.4%)     91.0%
 TRAVEL (Ang.)       0.2133         C  6 -- H 22          +9.8% ( 32.3%)     73.5%
 REDUCED MASS        0.4808         C  7 -- H 24          +1.1% ( 10.8%)     97.6%
 EFFECTIVE MASS      1.5071
 FORCE CONSTANT      2.6908

 VIBRATION         84   84A           ATOM PAIR      ENERGY CONTRIBUTION    RADIAL
 FREQUENCY          3082.04         C  7 -- H 24         +50.1% ( 73.1%)     97.5%
 TRANSITION DIPOLE   0.0104         C  7 -- H 23         +45.4% ( 69.5%)     96.6%
 TRAVEL (Ang.)       0.2121         C  7 -- H 19          +1.4% ( 12.2%)     10.5%
 REDUCED MASS        0.4864         C  6 -- H 20          +1.3% ( 11.8%)     98.8%
 EFFECTIVE MASS      1.5078
 FORCE CONSTANT      2.7220

 VIBRATION         85   85A           ATOM PAIR      ENERGY CONTRIBUTION    RADIAL
 FREQUENCY          3086.14         C  8 -- H 27         +49.0% ( 72.2%)     96.8%
 TRANSITION DIPOLE   0.0036         C  8 -- H 25         +47.9% ( 71.4%)     97.2%
 TRAVEL (Ang.)       0.2093         C  8 -- H 26          +1.8% ( 13.7%)     16.9%
 REDUCED MASS        0.4990         C  5 -- C  8          +1.0% ( 10.4%)      0.0%
 EFFECTIVE MASS      1.5060
 FORCE CONSTANT      2.8001

 VIBRATION         86   86A           ATOM PAIR      ENERGY CONTRIBUTION    RADIAL
 FREQUENCY          3134.69         C 12 -- H 31         +93.7% ( 98.4%)     99.9%
 TRANSITION DIPOLE   0.1919         C 12 -- H 32          +4.9% ( 22.6%)     64.0%
 TRAVEL (Ang.)       0.1563         C 11 -- C 12          +1.3% ( 11.7%)     25.7%
 REDUCED MASS        0.8805
 EFFECTIVE MASS      1.5292
 FORCE CONSTANT      5.0978

 VIBRATION         87   87A           ATOM PAIR      ENERGY CONTRIBUTION    RADIAL
 FREQUENCY          3147.26         C 12 -- H 32         +93.6% ( 97.5%)     99.8%
 TRANSITION DIPOLE   0.2588         C 12 -- H 31          +4.1% ( 20.4%)     26.3%
 TRAVEL (Ang.)       0.1587         C 11 -- C 12          +1.6% ( 12.6%)     68.6%
 REDUCED MASS        0.8502         C 11 -- H 30          +0.7% (  8.5%)     94.6%
 EFFECTIVE MASS      1.4729
 FORCE CONSTANT      4.9618

 VIBRATION         88   88A           ATOM PAIR      ENERGY CONTRIBUTION    RADIAL
 FREQUENCY          3168.76         C  8 -- H 25         +47.1% ( 66.3%)     98.4%
 TRANSITION DIPOLE   0.0231         C  8 -- H 27         +38.7% ( 60.2%)     97.4%
 TRAVEL (Ang.)       0.2376         C  8 -- H 26         +13.8% ( 36.0%)     89.2%
 REDUCED MASS        0.3770         C  5 -- C  8          +0.3% (  5.5%)     83.9%
 EFFECTIVE MASS      1.1549
 FORCE CONSTANT      2.2303

 VIBRATION         89   89A           ATOM PAIR      ENERGY CONTRIBUTION    RADIAL
 FREQUENCY          3175.79         C  7 -- H 24         +36.8% ( 58.4%)     97.6%
 TRANSITION DIPOLE   0.0219         C  7 -- H 23         +33.8% ( 56.0%)     97.2%
 TRAVEL (Ang.)       0.2539         C  7 -- H 19         +29.1% ( 51.9%)     96.3%
 REDUCED MASS        0.3294         C  3 -- C  7          +0.3% (  5.0%)     99.1%
 EFFECTIVE MASS      1.1353
 FORCE CONSTANT      1.9574

 VIBRATION         90   90A           ATOM PAIR      ENERGY CONTRIBUTION    RADIAL
 FREQUENCY          3176.67         C  6 -- H 20         +34.7% ( 56.7%)     97.3%
 TRANSITION DIPOLE   0.0308         C  6 -- H 21         +34.5% ( 56.5%)     97.3%
 TRAVEL (Ang.)       0.2544         C  6 -- H 22         +30.5% ( 53.2%)     96.6%
 REDUCED MASS        0.3280         C  4 -- C  6          +0.3% (  5.0%)     99.7%
 EFFECTIVE MASS      1.1345
 FORCE CONSTANT      1.9499

      SYMMETRY NUMBER FOR POINT-GROUP C1  =  1


          SYSTEM IS A GROUND STATE



 InChI=1S/C12H20/c1-5-11-9(3)7-8-10(4)12(11)6-2/h5,7-12H,1,6H2,2-4H3


          MOLECULE IS NOT LINEAR

          THERE ARE 90 GENUINE VIBRATIONS IN THIS SYSTEM
          THIS THERMODYNAMICS CALCULATION IS LIMITED TO
          MOLECULES WHICH HAVE NO INTERNAL ROTATIONS




                    CALCULATED THERMODYNAMIC PROPERTIES
                                          *
   TEMP. (K)   PARTITION FUNCTION   H.O.F.    ENTHALPY  HEAT CAPACITY ENTROPY
                                   KCAL/MOL   CAL/MOLE    CAL/K/MOL  CAL/K/MOL


 298.00  VIB.     0.1319D+05                  6591.4498    45.6053    40.9718
         ROT.     0.1184D+07                   888.2803     2.9808    30.7712
         INT.     0.1562D+11                  7479.7301    48.5861    71.7430
         TRA.     0.2036D+28                  1480.4672     4.9680    41.1956
         TOT.                       -3.654    8960.1973    53.5541   112.9387

 200.00  VIB.     0.3491D+03                  2928.2541    29.6219    26.2770
         ROT.     0.6512D+06                   596.1613     2.9808    29.5825
         INT.     0.2273D+09                  3524.4154    32.6027    55.8596
         TRA.     0.1119D+28                   993.6021     4.9680    39.2145
         TOT.                       -8.096    4518.0175    37.5707    95.0741

 210.00  VIB.     0.5047D+03                  3231.9024    31.1132    27.7582
         ROT.     0.7006D+06                   625.9693     2.9808    29.7280
         INT.     0.3536D+09                  3857.8717    34.0941    57.4862
         TRA.     0.1204D+28                  1043.2822     4.9680    39.4569
         TOT.                       -7.713    4901.1540    39.0621    96.9431

 220.00  VIB.     0.7299D+03                  3550.6326    32.6386    29.2407
         ROT.     0.7512D+06                   655.7774     2.9808    29.8666
         INT.     0.5483D+09                  4206.4100    35.6194    59.1073
         TRA.     0.1291D+28                  1092.9623     4.9680    39.6880
         TOT.                       -7.315    5299.3723    40.5874    98.7953

 230.00  VIB.     0.1056D+04                  3884.7917    34.1991    30.7258
         ROT.     0.8030D+06                   685.5855     2.9808    29.9991
         INT.     0.8480D+09                  4570.3772    37.1799    60.7250
         TRA.     0.1380D+28                  1142.6424     4.9680    39.9088
         TOT.                       -6.901    5713.0197    42.1479   100.6338

 240.00  VIB.     0.1528D+04                  4234.7308    35.7944    32.2149
         ROT.     0.8560D+06                   715.3935     2.9808    30.1260
         INT.     0.1308D+10                  4950.1243    38.7752    62.3409
         TRA.     0.1471D+28                  1192.3226     4.9680    40.1203
         TOT.                       -6.472    6142.4469    43.7432   102.4612

 250.00  VIB.     0.2213D+04                  4600.7912    37.4230    33.7090
         ROT.     0.9100D+06                   745.2016     2.9808    30.2477
         INT.     0.2014D+10                  5345.9928    40.4038    63.9567
         TRA.     0.1564D+28                  1242.0027     4.9680    40.3231
         TOT.                       -6.026    6587.9955    45.3719   104.2798

 260.00  VIB.     0.3206D+04                  4983.2941    39.0824    35.2090
         ROT.     0.9652D+06                   775.0097     2.9808    30.3646
         INT.     0.3095D+10                  5758.3038    42.0632    65.5736
         TRA.     0.1659D+28                  1291.6828     4.9680    40.5179
         TOT.                       -5.565    7049.9866    47.0312   106.0915

 270.00  VIB.     0.4648D+04                  5382.5314    40.7693    36.7156
         ROT.     0.1021D+07                   804.8177     2.9808    30.4771
         INT.     0.4747D+10                  6187.3491    43.7501    67.1926
         TRA.     0.1756D+28                  1341.3629     4.9680    40.7054
         TOT.                       -5.086    7528.7120    48.7181   107.8981

 280.00  VIB.     0.6741D+04                  5798.7593    42.4799    38.2291
         ROT.     0.1079D+07                   834.6258     2.9808    30.5855
         INT.     0.7272D+10                  6633.3851    45.4607    68.8146
         TRA.     0.1854D+28                  1391.0430     4.9680    40.8861
         TOT.                       -4.590    8024.4280    50.4287   109.7007

 290.00  VIB.     0.9785D+04                  6232.1943    44.2100    39.7499
         ROT.     0.1137D+07                   864.4339     2.9808    30.6901
         INT.     0.1112D+11                  7096.6281    47.1908    70.4400
         TRA.     0.1954D+28                  1440.7231     4.9680    41.0604
         TOT.                       -4.077    8537.3512    52.1588   111.5004

 300.00  VIB.     0.1421D+05                  6683.0104    45.9554    41.2781
         ROT.     0.1196D+07                   894.2419     2.9808    30.7911
         INT.     0.1700D+11                  7577.2523    48.9362    72.0692
         TRA.     0.2056D+28                  1490.4032     4.9680    41.2289
         TOT.                       -3.547    9067.6555    53.9042   113.2981

 310.00  VIB.     0.2066D+05                  7151.3381    47.7116    42.8135
         ROT.     0.1257D+07                   924.0500     2.9808    30.8889
         INT.     0.2596D+11                  8075.3881    50.6924    73.7024
         TRA.     0.2160D+28                  1540.0833     4.9680    41.3918
         TOT.                       -2.999    9615.4714    55.6604   115.0942

 320.00  VIB.     0.3006D+05                  7637.2646    49.4744    44.3561
         ROT.     0.1318D+07                   953.8580     2.9808    30.9835
         INT.     0.3961D+11                  8591.1227    52.4552    75.3397
         TRA.     0.2265D+28                  1589.7634     4.9680    41.5495
         TOT.                       -2.434   10180.8861    57.4232   116.8892

 330.00  VIB.     0.4376D+05                  8140.8349    51.2397    45.9056
         ROT.     0.1380D+07                   983.6661     2.9808    31.0752
         INT.     0.6040D+11                  9124.5010    54.2205    76.9808
         TRA.     0.2372D+28                  1639.4435     4.9680    41.7024
         TOT.                       -1.851   10763.9445    59.1885   118.6832

 340.00  VIB.     0.6378D+05                  8662.0537    53.0035    47.4614
         ROT.     0.1443D+07                  1013.4742     2.9808    31.1642
         INT.     0.9205D+11                  9675.5279    55.9843    78.6257
         TRA.     0.2481D+28                  1689.1236     4.9680    41.8507
         TOT.                       -1.250   11364.6515    60.9523   120.4764

 350.00  VIB.     0.9303D+05                  9200.8884    54.7623    49.0233
         ROT.     0.1507D+07                  1043.2822     2.9808    31.2506
         INT.     0.1402D+12                 10244.1706    57.7431    80.2739
         TRA.     0.2591D+28                  1738.8037     4.9680    41.9947
         TOT.                       -0.632   11982.9743    62.7111   122.2686

 360.00  VIB.     0.1358D+06                  9757.2711    56.5126    50.5905
         ROT.     0.1573D+07                  1073.0903     2.9808    31.3346
         INT.     0.2136D+12                 10830.3614    59.4934    81.9251
         TRA.     0.2703D+28                  1788.4838     4.9680    42.1347
         TOT.                        0.004   12618.8452    64.4614   124.0598

 370.00  VIB.     0.1985D+06                 10331.1026    58.2515    52.1627
         ROT.     0.1638D+07                  1102.8984     2.9808    31.4163
         INT.     0.3252D+12                 11434.0009    61.2324    83.5789
         TRA.     0.2817D+28                  1838.1639     4.9680    42.2708
         TOT.                        0.658   13272.1649    66.2004   125.8497

 380.00  VIB.     0.2903D+06                 10922.2550    59.9764    53.7391
         ROT.     0.1705D+07                  1132.7064     2.9808    31.4958
         INT.     0.4950D+12                 12054.9614    62.9572    85.2348
         TRA.     0.2932D+28                  1887.8440     4.9680    42.4033
         TOT.                        1.328   13942.8055    67.9252   127.6381

 390.00  VIB.     0.4249D+06                 11530.5754    61.6848    55.3191
         ROT.     0.1773D+07                  1162.5145     2.9808    31.5732
         INT.     0.7534D+12                 12693.0899    64.6656    86.8923
         TRA.     0.3048D+28                  1937.5242     4.9680    42.5323
         TOT.                        2.016   14630.6140    69.6336   129.4246

 400.00  VIB.     0.6226D+06                 12155.8885    63.3746    56.9022
         ROT.     0.1842D+07                  1192.3226     2.9808    31.6487
         INT.     0.1147D+13                 13348.2111    66.3554    88.5508
         TRA.     0.3166D+28                  1987.2043     4.9680    42.6581
         TOT.                        2.721   15335.4153    71.3234   131.2089

   *: NOTE: HEATS OF FORMATION ARE RELATIVE TO THE
            ELEMENTS IN THEIR STANDARD STATE AT 298K
              (=  Standard Enthalpy of Formation).

            Hvib:  Zero-point energy is not included.
                   frequencies of less than zero cm-1 are not included.
            Hrot = (3/2)RT
            Htra = (3/2)RT + pV = (5/2)RT

            Heat capacity is Cp, not Cv

          For more information, see: HTTP://OpenMOPAC.net/Manual/thermochemistry.html


           FORCE CONSTANT IN CARTESIAN COORDINATES (Millidynes/A)

    ATOM   CHEMICAL       X               Y               Z
   NUMBER   SYMBOL  FORCE CONSTANT  FORCE CONSTANT  FORCE CONSTANT

      1       C        7.992897        8.011665        8.280998
      2       C        7.774487        9.072288        8.204311
      3       C        8.436114        8.328442        8.393760
      4       C        8.625577        8.743709        7.955160
      5       C        8.438949        8.291182        8.005431
      6       C        8.146009        8.380961        8.332424
      7       C        8.243129        8.380455        8.145141
      8       C        8.201689        8.247096        8.370685
      9       C       12.666252        8.469089        6.141992
     10       C       12.394766        8.702582        6.206460
     11       C        3.592341        9.475756       13.967240
     12       C        2.988590        9.661795       13.798707
     13       H        1.066928        1.520494        3.431628
     14       H        0.794818        1.860849        3.217645
     15       H        3.931764        0.911761        1.118135
     16       H        1.047917        1.684619        3.171933
     17       H        1.584033        4.127762        0.712199
     18       H        0.868767        1.683394        3.818952
     19       H        4.641087        0.667091        1.406766
     20       H        1.368009        1.530090        3.893668
     21       H        0.896847        2.335755        3.544911
     22       H        1.727845        4.273145        0.759390
     23       H        2.337487        2.064235        2.378360
     24       H        1.218059        4.834052        0.737741
     25       H        1.388453        1.574798        3.827176
     26       H        1.678165        4.320078        0.752307
     27       H        0.925748        2.183788        3.664680
     28       H        1.612892        2.516423        2.103974
     29       H        1.429586        4.138455        0.656421
     30       H        0.595404        1.690000        3.943275
     31       H        0.547924        1.550500        4.352705
     32       H        0.952480        4.809620        0.712413

 **********************
 *                    *
 * JOB ENDED NORMALLY *
 *                    *
 **********************



 TOTAL JOB TIME:             7.34 SECONDS

 == MOPAC DONE ==
