 *******************************************************************************
 **                                                                           **
 **                              MOPAC v23.1.2                                **
 **                                                                           **
 *******************************************************************************
 **          Digital Object Identifier (DOI): 10.5281/zenodo.6511958          **
 **    Visit the DOI location for information on how to cite this program.    **
 *******************************************************************************

                              PM3 CALCULATION RESULTS

 *******************************************************************************
 *  CALCULATION DONE: (MAX THREADS = 1)              Tue Jun  3 16:34:00 2025  *
 *  PM3        - The PM3 Hamiltonian to be used
 *  PRECISE    - TIGHTER CRITERIA TO BE USED
 *  NOSYM      - POINT-GROUP SYMMETRY SET TO C1
 *  THREADS=1  - MULTI-THREADING NOT USED
 *  T=         - A TIME OF 172800.0 SECONDS REQUESTED
 *  DUMP=N     - RESTART FILE WRITTEN EVERY 7200.0 SECONDS REQUESTED
 *******************************************************************************
pm3  precise nosym THREADS=1
 InChI=1S/C10H10/c1-8-6-9-4-2-3-5-10(9)7-8/h2,4-6H,1,3,7H2

   ATOM   CHEMICAL          X               Y               Z
  NUMBER   SYMBOL      (ANGSTROMS)     (ANGSTROMS)     (ANGSTROMS)

     1       C          1.31310000  *  -1.08210000  *  -0.40150000  *
     2       C         -2.56950000  *  -0.66920000  *  -0.16320000  *
     3       C         -0.09070000  *  -0.61890000  *  -0.20850000  *
     4       C          2.05370000  *   0.15990000  *   0.00270000  *
     5       C         -0.11000000  *   0.74790000  *   0.25740000  *
     6       C         -1.21400000  *  -1.30570000  *  -0.41400000  *
     7       C         -2.51990000  *   0.77320000  *   0.32670000  *
     8       C          1.11620000  *   1.21930000  *   0.38710000  *
     9       C         -1.37190000  *   1.43610000  *   0.52350000  *
    10       C          3.37770000  *   0.28360000  *   0.01150000  *
    11       H          1.50600000  *  -1.33470000  *  -1.46590000  *
    12       H          1.54990000  *  -1.92850000  *   0.27790000  *
    13       H         -3.10920000  *  -1.27840000  *   0.59160000  *
    14       H         -3.15200000  *  -0.69990000  *  -1.10760000  *
    15       H         -1.16460000  *  -2.32910000  *  -0.76370000  *
    16       H         -3.45620000  *   1.28030000  *   0.52290000  *
    17       H          1.37280000  *   2.21710000  *   0.72030000  *
    18       H         -1.38050000  *   2.46110000  *   0.87270000  *
    19       H          4.00720000  *  -0.54500000  *  -0.28640000  *
    20       H          3.84200000  *   1.21290000  *   0.31630000  *



          CARTESIAN COORDINATES 

    NO.       ATOM           X           Y           Z

     1         C          1.3131     -1.0821     -0.4015
     2         C         -2.5695     -0.6692     -0.1632
     3         C         -0.0907     -0.6189     -0.2085
     4         C          2.0537      0.1599      0.0027
     5         C         -0.1100      0.7479      0.2574
     6         C         -1.2140     -1.3057     -0.4140
     7         C         -2.5199      0.7732      0.3267
     8         C          1.1162      1.2193      0.3871
     9         C         -1.3719      1.4361      0.5235
    10         C          3.3777      0.2836      0.0115
    11         H          1.5060     -1.3347     -1.4659
    12         H          1.5499     -1.9285      0.2779
    13         H         -3.1092     -1.2784      0.5916
    14         H         -3.1520     -0.6999     -1.1076
    15         H         -1.1646     -2.3291     -0.7637
    16         H         -3.4562      1.2803      0.5229
    17         H          1.3728      2.2171      0.7203
    18         H         -1.3805      2.4611      0.8727
    19         H          4.0072     -0.5450     -0.2864
    20         H          3.8420      1.2129      0.3163

  H: (PM3): J. J. P. STEWART, J. COMP. CHEM. 10, 209 (1989).
  C: (PM3): J. J. P. STEWART, J. COMP. CHEM. 10, 209 (1989).

           Empirical Formula: C10 H10  =    20 atoms



      MOLECULAR POINT GROUP   :   C1  


      RHF CALCULATION, NO. OF DOUBLY OCCUPIED LEVELS = 25


          Geometry optimization using EF

          DIAGONAL MATRIX USED AS START HESSIAN

 CYCLE:     1 TIME:   0.008 TIME LEFT:  2.00D  GRAD.:   113.548 HEAT:  59.62945
 CYCLE:     2 TIME:   0.016 TIME LEFT:  2.00D  GRAD.:    61.748 HEAT:  57.35512
 CYCLE:     3 TIME:   0.004 TIME LEFT:  2.00D  GRAD.:    72.572 HEAT:  56.81289
 CYCLE:     4 TIME:   0.008 TIME LEFT:  2.00D  GRAD.:    66.491 HEAT:  56.38064
 CYCLE:     5 TIME:   0.012 TIME LEFT:  2.00D  GRAD.:    35.678 HEAT:  55.46157
 CYCLE:     6 TIME:   0.012 TIME LEFT:  2.00D  GRAD.:    25.753 HEAT:  55.18157
 CYCLE:     7 TIME:   0.004 TIME LEFT:  2.00D  GRAD.:    32.092 HEAT:  55.06950
 CYCLE:     8 TIME:   0.008 TIME LEFT:  2.00D  GRAD.:    24.249 HEAT:  54.72014
 CYCLE:     9 TIME:   0.012 TIME LEFT:  2.00D  GRAD.:    23.694 HEAT:  54.60257
 CYCLE:    10 TIME:   0.008 TIME LEFT:  2.00D  GRAD.:    12.438 HEAT:  54.43066
 CYCLE:    11 TIME:   0.012 TIME LEFT:  2.00D  GRAD.:    11.692 HEAT:  54.38383
 CYCLE:    12 TIME:   0.008 TIME LEFT:  2.00D  GRAD.:     7.471 HEAT:  54.33756
 CYCLE:    13 TIME:   0.004 TIME LEFT:  2.00D  GRAD.:     9.026 HEAT:  54.30493
 CYCLE:    14 TIME:   0.012 TIME LEFT:  2.00D  GRAD.:     9.341 HEAT:  54.29169
 CYCLE:    15 TIME:   0.008 TIME LEFT:  2.00D  GRAD.:     9.260 HEAT:  54.29094
 CYCLE:    16 TIME:   0.004 TIME LEFT:  2.00D  GRAD.:     7.137 HEAT:  54.28064
 CYCLE:    17 TIME:   0.012 TIME LEFT:  2.00D  GRAD.:     4.135 HEAT:  54.26979
 CYCLE:    18 TIME:   0.008 TIME LEFT:  2.00D  GRAD.:     2.812 HEAT:  54.26608
 CYCLE:    19 TIME:   0.008 TIME LEFT:  2.00D  GRAD.:     2.435 HEAT:  54.26442
 CYCLE:    20 TIME:   0.008 TIME LEFT:  2.00D  GRAD.:     2.703 HEAT:  54.26333
 CYCLE:    21 TIME:   0.004 TIME LEFT:  2.00D  GRAD.:     1.648 HEAT:  54.26157
 CYCLE:    22 TIME:   0.008 TIME LEFT:  2.00D  GRAD.:     1.530 HEAT:  54.26043
 CYCLE:    23 TIME:   0.008 TIME LEFT:  2.00D  GRAD.:     1.152 HEAT:  54.25958
 CYCLE:    24 TIME:   0.004 TIME LEFT:  2.00D  GRAD.:     1.576 HEAT:  54.25961
 CYCLE:    25 TIME:   0.008 TIME LEFT:  2.00D  GRAD.:     0.377 HEAT:  54.25888
 CYCLE:    26 TIME:   0.008 TIME LEFT:  2.00D  GRAD.:     0.584 HEAT:  54.25885
 CYCLE:    27 TIME:   0.004 TIME LEFT:  2.00D  GRAD.:     0.264 HEAT:  54.25872
 CYCLE:    28 TIME:   0.008 TIME LEFT:  2.00D  GRAD.:     0.317 HEAT:  54.25865
 CYCLE:    29 TIME:   0.004 TIME LEFT:  2.00D  GRAD.:     0.385 HEAT:  54.25856
 CYCLE:    30 TIME:   0.008 TIME LEFT:  2.00D  GRAD.:     0.380 HEAT:  54.25845
 CYCLE:    31 TIME:   0.008 TIME LEFT:  2.00D  GRAD.:     0.239 HEAT:  54.25836
 CYCLE:    32 TIME:   0.004 TIME LEFT:  2.00D  GRAD.:     0.271 HEAT:  54.25830
 CYCLE:    33 TIME:   0.008 TIME LEFT:  2.00D  GRAD.:     0.189 HEAT:  54.25824
 CYCLE:    34 TIME:   0.004 TIME LEFT:  2.00D  GRAD.:     0.164 HEAT:  54.25821
 CYCLE:    35 TIME:   0.008 TIME LEFT:  2.00D  GRAD.:     0.181 HEAT:  54.25819
 CYCLE:    36 TIME:   0.008 TIME LEFT:  2.00D  GRAD.:     0.116 HEAT:  54.25816
 CYCLE:    37 TIME:   0.004 TIME LEFT:  2.00D  GRAD.:     0.061 HEAT:  54.25815
 CYCLE:    38 TIME:   0.008 TIME LEFT:  2.00D  GRAD.:     0.045 HEAT:  54.25815

     GRADIENT =  0.04511 IS LESS THAN CUTOFF =  0.05000



 -------------------------------------------------------------------------------
 pm3  precise nosym THREADS=1
 InChI=1S/C10H10/c1-8-6-9-4-2-3-5-10(9)7-8/h2,4-6H,1,3,7H2



     GEOMETRY OPTIMISED USING EIGENVECTOR FOLLOWING (EF).     
     SCF FIELD WAS ACHIEVED                                   


                              PM3 CALCULATION
                                                       MOPAC v23.1.2 MacOS
                                                       Tue Jun  3 16:34:01 2025




          FINAL HEAT OF FORMATION =         54.25815 KCAL/MOL =     227.01609 KJ/MOL


          COSMO AREA              =        174.59 SQUARE ANGSTROMS
          COSMO VOLUME            =        173.01 CUBIC ANGSTROMS

          GRADIENT NORM           =          0.04511          =       0.01009 PER ATOM
          IONIZATION POTENTIAL    =          8.219054 EV
          HOMO LUMO ENERGIES (EV) =         -8.219 -0.446
          NO. OF FILLED LEVELS    =         25
          MOLECULAR WEIGHT        =        130.1890         POINT GROUP:  C1  

          MOLECULAR DIMENSIONS (Angstroms)

            Atom       Atom       Distance
            H    19    H    16     7.81065
            H    17    H    15     5.31089
            H    14    H    12     1.77638


          SCF CALCULATIONS        =         49

          WALL-CLOCK TIME         =      0.305 SECONDS
          COMPUTATION TIME        =      0.197 SECONDS




   ATOM   CHEMICAL          X               Y               Z
  NUMBER   SYMBOL      (ANGSTROMS)     (ANGSTROMS)     (ANGSTROMS)

     1       C          1.30297927  *  -1.04848144  *  -0.38911418  *
     2       C         -2.58035819  *  -0.66877508  *  -0.16334683  *
     3       C         -0.12439752  *  -0.62131052  *  -0.20808183  *
     4       C          2.09468478  *   0.17648699  *   0.00749366  *
     5       C         -0.12103505  *   0.77068691  *   0.26588492  *
     6       C         -1.25571346  *  -1.30135204  *  -0.41161652  *
     7       C         -2.52957075  *   0.74031882  *   0.31556710  *
     8       C          1.14615790  *   1.22983621  *   0.39041391  *
     9       C         -1.38894460  *   1.41577530  *   0.51731891  *
    10       C          3.42107739  *   0.28048601  *   0.00836692  *
    11       H          1.51081787  *  -1.34572588  *  -1.43335615  *
    12       H          1.55292411  *  -1.91704763  *   0.24739026  *
    13       H         -3.13622589  *  -1.27888965  *   0.57871465  *
    14       H         -3.17755658  *  -0.70754474  *  -1.09808853  *
    15       H         -1.25294531  *  -2.33743694  *  -0.76451555  *
    16       H         -3.49945148  *   1.21536270  *   0.50161782  *
    17       H          1.46084076  *   2.21939656  *   0.71966452  *
    18       H         -1.37922258  *   2.45211628  *   0.87021381  *
    19       H          4.07116947  *  -0.53686899  *  -0.28686439  *
    20       H          3.93347067  *   1.19035629  *   0.30470836  *

                             CARTESIAN COORDINATES

   1    C        1.302979269    -1.048481435    -0.389114184
   2    C       -2.580358187    -0.668775079    -0.163346834
   3    C       -0.124397524    -0.621310523    -0.208081826
   4    C        2.094684781     0.176486986     0.007493659
   5    C       -0.121035048     0.770686906     0.265884920
   6    C       -1.255713458    -1.301352045    -0.411616519
   7    C       -2.529570751     0.740318823     0.315567103
   8    C        1.146157898     1.229836205     0.390413913
   9    C       -1.388944603     1.415775305     0.517318910
  10    C        3.421077387     0.280486011     0.008366922
  11    H        1.510817872    -1.345725875    -1.433356146
  12    H        1.552924108    -1.917047627     0.247390260
  13    H       -3.136225890    -1.278889653     0.578714650
  14    H       -3.177556583    -0.707544737    -1.098088527
  15    H       -1.252945311    -2.337436938    -0.764515552
  16    H       -3.499451478     1.215362704     0.501617824
  17    H        1.460840758     2.219396560     0.719664522
  18    H       -1.379222578     2.452116282     0.870213815
  19    H        4.071169471    -0.536868993    -0.286864391
  20    H        3.933470670     1.190356287     0.304708358


           Empirical Formula: C10 H10  =    20 atoms



      MOLECULAR POINT GROUP   :   C1  


                  EIGENVALUES  
 -41.14941 -35.89504 -30.95330 -29.79069 -26.35260 -24.64994 -20.57862 -20.44817
 -18.71840 -17.28743 -16.22507 -16.12300 -15.37912 -14.84672 -14.49971 -14.35568
 -14.10340 -13.66439 -13.06878 -12.27513 -11.91426 -11.75289 -10.62394 -10.17118
  -8.21905  -0.44594   0.98147   1.37984   2.67167   3.10878   3.13187   3.30524
   3.49024   3.52257   3.70826   3.88899   3.95113   4.13733   4.17746   4.32888
   4.46066   4.55117   4.78536   5.10603   5.17840   5.42181   5.61693   6.11604
   6.21266   6.38393


              NET ATOMIC CHARGES AND DIPOLE CONTRIBUTIONS

  ATOM NO.   TYPE          CHARGE      No. of ELECS.   s-Pop       p-Pop       
    1          C          -0.008245        4.0082     1.13612     2.87212
    2          C          -0.021795        4.0218     1.13265     2.88915
    3          C          -0.093785        4.0938     1.19020     2.90358
    4          C          -0.086064        4.0861     1.19320     2.89286
    5          C          -0.042591        4.0426     1.17269     2.86990
    6          C          -0.132476        4.1325     1.18789     2.94459
    7          C          -0.126269        4.1263     1.19658     2.92969
    8          C          -0.097189        4.0972     1.18578     2.91141
    9          C          -0.088674        4.0887     1.17043     2.91824
   10          C          -0.158619        4.1586     1.17647     2.98215
   11          H           0.066771        0.9332     0.93323
   12          H           0.066784        0.9332     0.93322
   13          H           0.064068        0.9359     0.93593
   14          H           0.064075        0.9359     0.93593
   15          H           0.104410        0.8956     0.89559
   16          H           0.097369        0.9026     0.90263
   17          H           0.117822        0.8822     0.88218
   18          H           0.105092        0.8949     0.89491
   19          H           0.083753        0.9162     0.91625
   20          H           0.085563        0.9144     0.91444
 DIPOLE           X         Y         Z       TOTAL
 POINT-CHG.    -0.624    -0.346    -0.102     0.720
 HYBRID        -0.013    -0.020    -0.006     0.025
 SUM           -0.637    -0.365    -0.109     0.742


          ATOMIC ORBITAL ELECTRON POPULATIONS

     Atom    s        px        py        pz   
    1  C   1.13612   0.91225   0.95467   1.00521
    2  C   1.13265   0.95371   0.93770   0.99773
    3  C   1.19020   0.95091   0.95064   1.00204
    4  C   1.19320   0.94962   0.95136   0.99188
    5  C   1.17269   0.94021   0.94065   0.98904
    6  C   1.18789   0.94191   0.98666   1.01602
    7  C   1.19658   0.97602   0.96307   0.99061
    8  C   1.18578   0.93067   0.97161   1.00913
    9  C   1.17043   0.92515   0.98129   1.01180
   10  C   1.17647   0.94481   1.01383   1.02351
   11  H   0.93323
   12  H   0.93322
   13  H   0.93593
   14  H   0.93593
   15  H   0.89559
   16  H   0.90263
   17  H   0.88218
   18  H   0.89491
   19  H   0.91625
   20  H   0.91444
 *******************************************************************************
 **                                                                           **
 **                              MOPAC v23.1.2                                **
 **                                                                           **
 *******************************************************************************
 **          Digital Object Identifier (DOI): 10.5281/zenodo.6511958          **
 **    Visit the DOI location for information on how to cite this program.    **
 *******************************************************************************

                              PM3 CALCULATION RESULTS

 *******************************************************************************
 *  CALCULATION DONE: (MAX THREADS = 1)              Tue Jun  3 16:34:01 2025  *
 *  PM3        - The PM3 Hamiltonian to be used
 *  OLDGEO     - PREVIOUS GEOMETRY TO BE USED
 *  PRECISE    - TIGHTER CRITERIA TO BE USED
 *  NOSYM      - POINT-GROUP SYMMETRY SET TO C1
 *  THREADS=1  - MULTI-THREADING NOT USED
 *  T=         - A TIME OF 172800.0 SECONDS REQUESTED
 *  DUMP=N     - RESTART FILE WRITTEN EVERY 7200.0 SECONDS REQUESTED
 *  THERMO     - THERMODYNAMIC QUANTITIES TO BE CALCULATED
 *******************************************************************************
oldgeo thermo nosym precise THREADS=1  pm3
 InChI=1S/C10H10/c1-8-6-9-4-2-3-5-10(9)7-8/h2,4-6H,1,3,7H2

   ATOM   CHEMICAL          X               Y               Z
  NUMBER   SYMBOL      (ANGSTROMS)     (ANGSTROMS)     (ANGSTROMS)

     1       C          1.30297927  *  -1.04848144  *  -0.38911418  *
     2       C         -2.58035819  *  -0.66877508  *  -0.16334683  *
     3       C         -0.12439752  *  -0.62131052  *  -0.20808183  *
     4       C          2.09468478  *   0.17648699  *   0.00749366  *
     5       C         -0.12103505  *   0.77068691  *   0.26588492  *
     6       C         -1.25571346  *  -1.30135204  *  -0.41161652  *
     7       C         -2.52957075  *   0.74031882  *   0.31556710  *
     8       C          1.14615790  *   1.22983621  *   0.39041391  *
     9       C         -1.38894460  *   1.41577530  *   0.51731891  *
    10       C          3.42107739  *   0.28048601  *   0.00836692  *
    11       H          1.51081787  *  -1.34572588  *  -1.43335615  *
    12       H          1.55292411  *  -1.91704763  *   0.24739026  *
    13       H         -3.13622589  *  -1.27888965  *   0.57871465  *
    14       H         -3.17755658  *  -0.70754474  *  -1.09808853  *
    15       H         -1.25294531  *  -2.33743694  *  -0.76451555  *
    16       H         -3.49945148  *   1.21536270  *   0.50161782  *
    17       H          1.46084076  *   2.21939656  *   0.71966452  *
    18       H         -1.37922258  *   2.45211628  *   0.87021381  *
    19       H          4.07116947  *  -0.53686899  *  -0.28686439  *
    20       H          3.93347067  *   1.19035629  *   0.30470836  *



          CARTESIAN COORDINATES 

    NO.       ATOM           X           Y           Z

     1         C          1.3030     -1.0485     -0.3891
     2         C         -2.5804     -0.6688     -0.1633
     3         C         -0.1244     -0.6213     -0.2081
     4         C          2.0947      0.1765      0.0075
     5         C         -0.1210      0.7707      0.2659
     6         C         -1.2557     -1.3014     -0.4116
     7         C         -2.5296      0.7403      0.3156
     8         C          1.1462      1.2298      0.3904
     9         C         -1.3889      1.4158      0.5173
    10         C          3.4211      0.2805      0.0084
    11         H          1.5108     -1.3457     -1.4334
    12         H          1.5529     -1.9170      0.2474
    13         H         -3.1362     -1.2789      0.5787
    14         H         -3.1776     -0.7075     -1.0981
    15         H         -1.2529     -2.3374     -0.7645
    16         H         -3.4995      1.2154      0.5016
    17         H          1.4608      2.2194      0.7197
    18         H         -1.3792      2.4521      0.8702
    19         H          4.0712     -0.5369     -0.2869
    20         H          3.9335      1.1904      0.3047

  H: (PM3): J. J. P. STEWART, J. COMP. CHEM. 10, 209 (1989).
  C: (PM3): J. J. P. STEWART, J. COMP. CHEM. 10, 209 (1989).

           Empirical Formula: C10 H10  =    20 atoms



      MOLECULAR POINT GROUP   :   C1  


      RHF CALCULATION, NO. OF DOUBLY OCCUPIED LEVELS = 25



          HEAT OF FORMATION =      54.258147 KCALS/MOLE


          CARTESIAN COORDINATE DERIVATIVES

   NUMBER  ATOM         X            Y            Z

     1       C      0.007843    -0.000061    -0.000762
     2       C     -0.005992    -0.004866     0.000818
     3       C      0.004650     0.006568    -0.005581
     4       C      0.006259    -0.007743    -0.002302
     5       C      0.001266     0.002842     0.001941
     6       C      0.004828     0.013452     0.007170
     7       C      0.010314    -0.000467    -0.001099
     8       C      0.010141    -0.000341    -0.003244
     9       C     -0.012139     0.003699     0.003543
    10       C      0.008341     0.001913     0.001393
    11       H     -0.002862    -0.006881    -0.003183
    12       H     -0.002330    -0.010099    -0.001052
    13       H     -0.000717    -0.004829     0.001407
    14       H     -0.005038    -0.009925    -0.000039
    15       H     -0.006091    -0.000696    -0.002000
    16       H     -0.003688    -0.000094    -0.001110
    17       H     -0.017631     0.003766    -0.004815
    18       H     -0.000781     0.008481     0.000488
    19       H      0.000545     0.009769     0.004309
    20       H      0.003084    -0.004488     0.004119



          GRADIENT NORM =   0.04499

          MOLECULAR WEIGHT =  130.19



          ROTATIONAL CONSTANTS IN CM(-1)

          A =    0.11664364   B =    0.03321279   C =    0.02610574



           PRINCIPAL MOMENTS OF INERTIA IN UNITS OF 10**(-40)*GRAM-CM**2

          A =      239.9852   B =      842.8306   C =     1072.2835


          ORIENTATION OF MOLECULE IN FORCE CALCULATION

    NO.       ATOM         X         Y         Z

     1          C      -1.4311   -1.0525   -0.0006
     2          C       2.4773   -1.0525   -0.0006
     3          C       0.0391   -0.7505   -0.0006
     4          C      -2.0758    0.3146    0.0007
     5          C       0.1984    0.7113   -0.0001
     6          C       1.0853   -1.5807   -0.0008
     7          C       2.5914    0.4322   -0.0004
     8          C      -1.0089    1.3234    0.0004
     9          C       1.5353    1.2585   -0.0002
    10          C      -3.3835    0.5594    0.0023
    11          H      -1.7268   -1.6417    0.8867
    12          H      -1.7271   -1.6401   -0.8890
    13          H       3.0132   -1.4523   -0.8866
    14          H       3.0129   -1.4525    0.8854
    15          H       0.9615   -2.6682   -0.0012
    16          H       3.6119    0.8315   -0.0005
    17          H      -1.2064    2.3946    0.0007
    18          H       1.6468    2.3477   -0.0000
    19          H      -4.1259   -0.2322    0.0027
    20          H      -3.7871    1.5671    0.0033


    FIRST DERIVATIVES WILL BE USED IN THE CALCULATION OF SECOND DERIVATIVES

          ESTIMATED TIME TO COMPLETE CALCULATION =        1.88 SECONDS

    FOR POINT-GROUP C1   THERE ARE   1 UNIQUE SYMMETRY FUNCTIONS.

 STEP:   1 TIME =     0.02 SECS, INTEGRAL =      0.02 TIME LEFT: 172799.97
 STEP:   2 TIME =     0.02 SECS, INTEGRAL =      0.04 TIME LEFT: 172799.95
 STEP:   3 TIME =     0.02 SECS, INTEGRAL =      0.06 TIME LEFT: 172799.93
 STEP:   4 TIME =     0.02 SECS, INTEGRAL =      0.08 TIME LEFT: 172799.91
 STEP:   5 TIME =     0.02 SECS, INTEGRAL =      0.10 TIME LEFT: 172799.89
 STEP:   6 TIME =     0.02 SECS, INTEGRAL =      0.12 TIME LEFT: 172799.87
 STEP:   7 TIME =     0.02 SECS, INTEGRAL =      0.14 TIME LEFT: 172799.85
 STEP:   8 TIME =     0.02 SECS, INTEGRAL =      0.16 TIME LEFT: 172799.83
 STEP:   9 TIME =     0.02 SECS, INTEGRAL =      0.18 TIME LEFT: 172799.81
 STEP:  10 TIME =     0.02 SECS, INTEGRAL =      0.20 TIME LEFT: 172799.79
 STEP:  11 TIME =     0.02 SECS, INTEGRAL =      0.22 TIME LEFT: 172799.77
 STEP:  12 TIME =     0.02 SECS, INTEGRAL =      0.24 TIME LEFT: 172799.75
 STEP:  13 TIME =     0.02 SECS, INTEGRAL =      0.26 TIME LEFT: 172799.73
 STEP:  14 TIME =     0.02 SECS, INTEGRAL =      0.28 TIME LEFT: 172799.71
 STEP:  15 TIME =     0.02 SECS, INTEGRAL =      0.30 TIME LEFT: 172799.69
 STEP:  16 TIME =     0.02 SECS, INTEGRAL =      0.32 TIME LEFT: 172799.67
 STEP:  17 TIME =     0.02 SECS, INTEGRAL =      0.34 TIME LEFT: 172799.65
 STEP:  18 TIME =     0.02 SECS, INTEGRAL =      0.36 TIME LEFT: 172799.63
 STEP:  19 TIME =     0.02 SECS, INTEGRAL =      0.38 TIME LEFT: 172799.61
 STEP:  20 TIME =     0.02 SECS, INTEGRAL =      0.40 TIME LEFT: 172799.59
 STEP:  21 TIME =     0.02 SECS, INTEGRAL =      0.42 TIME LEFT: 172799.57
 STEP:  22 TIME =     0.02 SECS, INTEGRAL =      0.44 TIME LEFT: 172799.55
 STEP:  23 TIME =     0.02 SECS, INTEGRAL =      0.46 TIME LEFT: 172799.53
 STEP:  24 TIME =     0.02 SECS, INTEGRAL =      0.48 TIME LEFT: 172799.51
 STEP:  25 TIME =     0.02 SECS, INTEGRAL =      0.50 TIME LEFT: 172799.49
 STEP:  26 TIME =     0.02 SECS, INTEGRAL =      0.52 TIME LEFT: 172799.48
 STEP:  27 TIME =     0.02 SECS, INTEGRAL =      0.54 TIME LEFT: 172799.46
 STEP:  28 TIME =     0.02 SECS, INTEGRAL =      0.55 TIME LEFT: 172799.44
 STEP:  29 TIME =     0.02 SECS, INTEGRAL =      0.57 TIME LEFT: 172799.42
 STEP:  30 TIME =     0.02 SECS, INTEGRAL =      0.59 TIME LEFT: 172799.40
 STEP:  31 TIME =     0.02 SECS, INTEGRAL =      0.61 TIME LEFT: 172799.38
 STEP:  32 TIME =     0.02 SECS, INTEGRAL =      0.63 TIME LEFT: 172799.36
 STEP:  33 TIME =     0.02 SECS, INTEGRAL =      0.65 TIME LEFT: 172799.34
 STEP:  34 TIME =     0.02 SECS, INTEGRAL =      0.67 TIME LEFT: 172799.32
 STEP:  35 TIME =     0.02 SECS, INTEGRAL =      0.69 TIME LEFT: 172799.30
 STEP:  36 TIME =     0.02 SECS, INTEGRAL =      0.71 TIME LEFT: 172799.29
 STEP:  37 TIME =     0.02 SECS, INTEGRAL =      0.73 TIME LEFT: 172799.27
 STEP:  38 TIME =     0.02 SECS, INTEGRAL =      0.75 TIME LEFT: 172799.25
 STEP:  39 TIME =     0.02 SECS, INTEGRAL =      0.77 TIME LEFT: 172799.23
 STEP:  40 TIME =     0.02 SECS, INTEGRAL =      0.78 TIME LEFT: 172799.21
 STEP:  41 TIME =     0.02 SECS, INTEGRAL =      0.80 TIME LEFT: 172799.19
 STEP:  42 TIME =     0.02 SECS, INTEGRAL =      0.82 TIME LEFT: 172799.17
 STEP:  43 TIME =     0.02 SECS, INTEGRAL =      0.84 TIME LEFT: 172799.15
 STEP:  44 TIME =     0.02 SECS, INTEGRAL =      0.86 TIME LEFT: 172799.13
 STEP:  45 TIME =     0.02 SECS, INTEGRAL =      0.89 TIME LEFT: 172799.11
 STEP:  46 TIME =     0.02 SECS, INTEGRAL =      0.91 TIME LEFT: 172799.09
 STEP:  47 TIME =     0.02 SECS, INTEGRAL =      0.93 TIME LEFT: 172799.07
 STEP:  48 TIME =     0.02 SECS, INTEGRAL =      0.95 TIME LEFT: 172799.05
 STEP:  49 TIME =     0.02 SECS, INTEGRAL =      0.96 TIME LEFT: 172799.03
 STEP:  50 TIME =     0.02 SECS, INTEGRAL =      0.98 TIME LEFT: 172799.01
 STEP:  51 TIME =     0.02 SECS, INTEGRAL =      1.01 TIME LEFT: 172798.98
 STEP:  52 TIME =     0.02 SECS, INTEGRAL =      1.03 TIME LEFT: 172798.96
 STEP:  53 TIME =     0.02 SECS, INTEGRAL =      1.05 TIME LEFT: 172798.95
 STEP:  54 TIME =     0.02 SECS, INTEGRAL =      1.07 TIME LEFT: 172798.92
 STEP:  55 TIME =     0.02 SECS, INTEGRAL =      1.09 TIME LEFT: 172798.90
 STEP:  56 TIME =     0.02 SECS, INTEGRAL =      1.11 TIME LEFT: 172798.89
 STEP:  57 TIME =     0.02 SECS, INTEGRAL =      1.13 TIME LEFT: 172798.86
 STEP:  58 TIME =     0.02 SECS, INTEGRAL =      1.15 TIME LEFT: 172798.84
 STEP:  59 TIME =     0.02 SECS, INTEGRAL =      1.17 TIME LEFT: 172798.82
 STEP:  60 TIME =     0.02 SECS, INTEGRAL =      1.19 TIME LEFT: 172798.80

(To convert to Hartree/Bohr^2, multiply by (10^(-21) x N x a0^2)/(4.184 x 627.51) =  0.0642)


           FORCE MATRIX IN MILLIDYNES/ANGSTROM


                  C  1       C  2       C  3       C  4       C  5       C  6
 ------------------------------------------------------------------------------
     C    1  14.820276
     C    2   0.132114  14.940564
     C    3   4.490243   0.895792  19.585799
     C    4   4.193161   0.010850   0.953049  19.213787
     C    5   0.907005   0.199335   4.981239   1.532095  19.720508
     C    6   0.610932   4.887918  10.365917   0.085300   1.011805  18.146750
     C    7   0.003049   4.873336   0.069629   0.049338   1.211526   0.691033
     C    8   0.871716   0.040945   1.381722   5.020924   9.385048   0.128231
     C    9   0.047470   0.815485   0.687280   0.149714   5.847733   0.044900
     C   10   0.677399   0.006958   0.074055  10.656191   0.135151   0.018282
     H   11   4.517471   0.014260   0.434360   0.435130   0.028885   0.016307
     H   12   4.517131   0.014275   0.434333   0.435102   0.028856   0.016317
     H   13   0.017456   4.368888   0.036984   0.002648   0.016653   0.414217
     H   14   0.017459   4.368798   0.036977   0.002654   0.016652   0.414181
     H   15   0.068590   0.424240   0.460203   0.006643   0.119007   4.862082
     H   16   0.001313   0.422552   0.006008   0.010249   0.128285   0.046580
     H   17   0.039814   0.003213   0.104372   0.429386   0.452027   0.009061
     H   18   0.006604   0.124223   0.041275   0.003592   0.443252   0.004161
     H   19   0.085498   0.001201   0.006220   0.477329   0.007876   0.001414
     H   20   0.122458   0.002088   0.008247   0.476327   0.007977   0.002447


                  C  7       C  8       C  9       C 10       H 11       H 12
 ------------------------------------------------------------------------------
     C    7  17.919153
     C    8   0.142738  18.202909
     C    9  10.209980   0.884595  18.490930
     C   10   0.015997   0.953681   0.038200  17.940968
     H   11   0.001119   0.028078   0.004694   0.018843   5.110587
     H   12   0.001120   0.028030   0.004690   0.018847   0.551113   5.110225
     H   13   0.416174   0.005573   0.038913   0.001195   0.001922   0.002054
     H   14   0.416185   0.005576   0.038903   0.001195   0.002051   0.001923
     H   15   0.046397   0.009789   0.006121   0.001684   0.008808   0.008814
     H   16   4.824398   0.007943   0.439134   0.001123   0.000343   0.000344
     H   17   0.006346   5.030747   0.051601   0.013741   0.003221   0.003214
     H   18   0.444284   0.011882   4.852832   0.001146   0.000782   0.000781
     H   19   0.001133   0.125937   0.010839   5.115822   0.010526   0.010533
     H   20   0.001625   0.089661   0.005727   5.111575   0.012466   0.012486


                  H 13       H 14       H 15       H 16       H 17       H 18
 ------------------------------------------------------------------------------
     H   13   4.955917
     H   14   0.566150   4.955825
     H   15   0.026051   0.026043   5.241217
     H   16   0.028962   0.028935   0.006704   5.196935
     H   17   0.001042   0.001042   0.007676   0.003494   5.427731
     H   18   0.016054   0.016057   0.001183   0.067360   0.006251   5.222264
     H   19   0.000285   0.000285   0.000566   0.001089   0.002137   0.000490
     H   20   0.000549   0.000549   0.000883   0.000612   0.009280   0.000417


                  H 19       H 20
 ------------------------------
     H   19   5.491649
     H   20   0.406290   5.487964


          HEAT OF FORMATION =      54.258147 KCALS/MOLE

          ZERO POINT ENERGY     104.894 KCAL/MOL


           NORMAL COORDINATE ANALYSIS (Total motion = 1 Angstrom)


   Root No.       1         2         3         4         5         6         7         8

                 1 A       2 A       3 A       4 A       5 A       6 A       7 A       8 A   

                  79.7     146.1     223.6     276.9     283.6     413.3     458.6     492.5
  
           1   -0.0000    0.0000   -0.0000   -0.0129    0.0000   -0.0000   -0.0323   -0.0165
           2    0.0000    0.0000    0.0000   -0.0272    0.0000    0.0000    0.0249    0.0195
           3   -0.0583   -0.0168   -0.0450   -0.0001   -0.0019   -0.0050    0.0000    0.0000
           4   -0.0000   -0.0000   -0.0000    0.0125   -0.0000    0.0000    0.0047    0.0755
           5   -0.0000   -0.0000   -0.0000    0.0275   -0.0000    0.0000    0.0230   -0.0140
           6    0.0522    0.0294   -0.0312    0.0000    0.0120   -0.0055    0.0000   -0.0000
           7   -0.0000    0.0000    0.0000   -0.0029    0.0000    0.0000   -0.0146    0.0047
           8    0.0000    0.0000    0.0000   -0.0368    0.0000   -0.0000   -0.0408    0.0063
           9   -0.0302   -0.0004    0.0331    0.0001    0.0382    0.0561   -0.0000   -0.0001
          10    0.0000    0.0000   -0.0000   -0.0041   -0.0000   -0.0000    0.0041   -0.0594
          11   -0.0000   -0.0000    0.0000   -0.0191    0.0000    0.0000    0.0481    0.0104
          12   -0.0014    0.0168   -0.0166   -0.0001   -0.0274    0.0172    0.0000    0.0004
          13   -0.0000    0.0000    0.0000   -0.0050    0.0000    0.0000    0.0084   -0.0182
          14    0.0000   -0.0000    0.0000   -0.0369    0.0000   -0.0000   -0.0436    0.0012
          15   -0.0272    0.0249    0.0203    0.0001    0.0541    0.0231   -0.0000   -0.0002
          16   -0.0000   -0.0000   -0.0000    0.0214   -0.0000    0.0000    0.0095    0.0441
          17    0.0000    0.0000   -0.0000   -0.0088    0.0000   -0.0000   -0.0154    0.0415
          18    0.0070    0.0044    0.0679   -0.0000   -0.0316   -0.0231    0.0000    0.0000
          19   -0.0000    0.0000    0.0000   -0.0054    0.0000    0.0000    0.0086    0.0493
          20   -0.0000    0.0000   -0.0000    0.0287   -0.0000   -0.0000    0.0222   -0.0184
          21    0.0131   -0.0472   -0.0261   -0.0001   -0.0411    0.0371   -0.0000   -0.0001
          22   -0.0000    0.0000   -0.0000    0.0023   -0.0000    0.0000    0.0347   -0.0327
          23    0.0000   -0.0000    0.0000   -0.0311    0.0001    0.0000    0.0076   -0.0082
          24   -0.0138    0.0693   -0.0012   -0.0000   -0.0385   -0.0032   -0.0000   -0.0001
          25   -0.0000    0.0000    0.0000   -0.0239    0.0000   -0.0000   -0.0102    0.0156
          26    0.0000    0.0000   -0.0000    0.0018   -0.0000   -0.0000   -0.0076   -0.0544
          27   -0.0254   -0.0323    0.0135    0.0001    0.0321   -0.0515    0.0000    0.0001
          28    0.0001   -0.0001    0.0000    0.0136    0.0000   -0.0000   -0.0091   -0.0672
          29   -0.0001   -0.0000   -0.0001    0.0765   -0.0001   -0.0000   -0.0206    0.0142
          30    0.0701   -0.0377    0.0063    0.0001    0.0137   -0.0057    0.0000    0.0000
          31   -0.0105   -0.0060   -0.0523   -0.0172   -0.0267   -0.0490   -0.0644   -0.0117
          32   -0.0453   -0.0251   -0.0518   -0.0244    0.0040   -0.0578    0.0416    0.0183
          33   -0.0922   -0.0357   -0.0979   -0.0001   -0.0083   -0.0614    0.0003    0.0001
          34    0.0104    0.0060    0.0523   -0.0170    0.0268    0.0490   -0.0644   -0.0118
          35    0.0454    0.0252    0.0520   -0.0242   -0.0039    0.0579    0.0415    0.0194
          36   -0.0921   -0.0356   -0.0978   -0.0003   -0.0083   -0.0613   -0.0001   -0.0007
          37    0.0403    0.0382   -0.0840    0.0205    0.0567   -0.0101    0.0102    0.0720
          38   -0.0271   -0.0530    0.0122    0.0382   -0.0497    0.0522    0.0309   -0.0254
          39    0.0889    0.0769   -0.0885    0.0001    0.0700   -0.0362   -0.0002    0.0025
          40   -0.0403   -0.0382    0.0840    0.0204   -0.0567    0.0101    0.0102    0.0718
          41    0.0270    0.0530   -0.0122    0.0383    0.0496   -0.0521    0.0310   -0.0251
          42    0.0889    0.0769   -0.0884    0.0001    0.0700   -0.0362    0.0003   -0.0022
          43   -0.0000   -0.0000   -0.0000    0.0569   -0.0001    0.0000    0.0529    0.0459
          44    0.0000    0.0000   -0.0000   -0.0128    0.0001    0.0000   -0.0203    0.0405
          45    0.0106   -0.0060    0.1225   -0.0001   -0.1140   -0.1113    0.0000    0.0001
          46   -0.0000    0.0000    0.0000   -0.0133    0.0000    0.0000    0.0029    0.0346
          47   -0.0000    0.0000   -0.0000    0.0480   -0.0001    0.0000    0.0357    0.0204
          48    0.0184   -0.1099   -0.0546   -0.0002   -0.1206    0.0873   -0.0000   -0.0001
          49   -0.0000    0.0000   -0.0000    0.0120   -0.0001    0.0000    0.0967   -0.0295
          50    0.0000   -0.0000    0.0000   -0.0290    0.0001    0.0000    0.0186   -0.0071
          51   -0.0061    0.1131   -0.0085   -0.0001   -0.1081   -0.0672   -0.0000   -0.0004
          52   -0.0000    0.0000    0.0000   -0.0591    0.0001   -0.0000   -0.0522    0.0282
          53    0.0000    0.0000   -0.0000    0.0054   -0.0000    0.0000   -0.0032   -0.0550
          54   -0.0537   -0.0771    0.0290    0.0001    0.0372   -0.1475    0.0001    0.0005
          55    0.0001   -0.0001    0.0000   -0.0599    0.0002   -0.0000    0.0623   -0.0754
          56   -0.0001   -0.0000   -0.0001    0.1469   -0.0002   -0.0000   -0.0897    0.0210
          57    0.0881   -0.1033    0.0009    0.0002    0.0568   -0.0192   -0.0001    0.0001
          58    0.0001   -0.0001   -0.0000    0.1071   -0.0001   -0.0001   -0.1003   -0.0686
          59   -0.0001   -0.0000   -0.0001    0.1152   -0.0002   -0.0000   -0.0588    0.0146
          60    0.1157   -0.0216    0.0331    0.0000    0.0104   -0.0163    0.0001   -0.0005


   Root No.       9        10        11        12        13        14        15        16

                 9 A      10 A      11 A      12 A      13 A      14 A      15 A      16 A   

                 504.9     568.3     615.8     647.8     658.1     767.8     819.5     829.4
  
           1    0.0001   -0.0469   -0.0000   -0.0000   -0.0280    0.0000    0.0001   -0.0541
           2   -0.0000   -0.0332   -0.0000   -0.0000   -0.0370    0.0000    0.0000   -0.0223
           3    0.0029   -0.0000   -0.0043    0.0097   -0.0000   -0.0070    0.0184    0.0000
           4   -0.0002   -0.0355   -0.0000    0.0000    0.0234   -0.0000   -0.0001    0.0478
           5    0.0000    0.0343    0.0000    0.0000    0.0028    0.0000    0.0001   -0.0382
           6   -0.0016    0.0000    0.0042   -0.0144    0.0000   -0.0317   -0.0251   -0.0001
           7    0.0000   -0.0486   -0.0000   -0.0000   -0.0441    0.0000    0.0000   -0.0147
           8   -0.0000    0.0094    0.0000   -0.0000    0.0051    0.0000   -0.0000   -0.0021
           9   -0.0025    0.0000   -0.0185    0.0536   -0.0000   -0.0136    0.0013    0.0000
          10    0.0002   -0.0109    0.0000   -0.0000    0.0514    0.0000   -0.0000    0.0025
          11   -0.0001   -0.0281    0.0000    0.0000   -0.0040    0.0000    0.0000   -0.0020
          12    0.0882    0.0000   -0.0151   -0.0282    0.0001   -0.0029   -0.0055   -0.0000
          13    0.0001    0.0394    0.0000   -0.0000   -0.0389   -0.0000   -0.0000    0.0254
          14    0.0000    0.0012   -0.0000    0.0000    0.0012   -0.0000   -0.0000    0.0137
          15   -0.0301    0.0000    0.0216   -0.0534    0.0000    0.0414   -0.0007    0.0000
          16   -0.0001   -0.0389   -0.0000   -0.0000   -0.0007   -0.0000   -0.0000    0.0181
          17   -0.0001    0.0375    0.0000    0.0000    0.0645   -0.0000   -0.0000    0.0276
          18   -0.0024    0.0000    0.0012   -0.0072    0.0000    0.0013   -0.0231   -0.0001
          19   -0.0002    0.0771    0.0000    0.0000    0.0082    0.0000    0.0001   -0.0564
          20    0.0000    0.0245    0.0000   -0.0000   -0.0095    0.0000    0.0000   -0.0229
          21   -0.0146    0.0000    0.0060   -0.0093    0.0000   -0.0094    0.0225    0.0001
          22    0.0001    0.0177    0.0000   -0.0000   -0.0071   -0.0000   -0.0000    0.0174
          23    0.0000   -0.0384    0.0000    0.0000    0.0496    0.0000    0.0000   -0.0198
          24   -0.0262   -0.0000    0.0121    0.0157   -0.0000    0.0105   -0.0110   -0.0000
          25   -0.0000    0.0643    0.0000    0.0000   -0.0281   -0.0000   -0.0000    0.0116
          26    0.0002    0.0092   -0.0000   -0.0000   -0.0591   -0.0000   -0.0001    0.0705
          27    0.0241   -0.0000   -0.0040   -0.0037    0.0000   -0.0263    0.0213    0.0001
          28    0.0001   -0.0086    0.0000    0.0000    0.0645    0.0000    0.0000    0.0040
          29   -0.0000   -0.0094   -0.0000   -0.0000   -0.0105   -0.0000   -0.0000    0.0022
          30   -0.0166   -0.0000   -0.0001    0.0015   -0.0001    0.0002   -0.0007   -0.0000
          31   -0.0045   -0.0460    0.0100   -0.0736   -0.0506    0.0159   -0.0432   -0.0965
          32   -0.1258   -0.0385   -0.0145   -0.0142   -0.0311    0.0144   -0.0425   -0.0115
          33   -0.0855   -0.0023   -0.0113   -0.0257   -0.0026    0.0085   -0.0262   -0.0057
          34    0.0045   -0.0460   -0.0101    0.0736   -0.0508   -0.0159    0.0434   -0.0963
          35    0.1260   -0.0384    0.0146    0.0142   -0.0309   -0.0145    0.0426   -0.0113
          36   -0.0853    0.0023   -0.0113   -0.0257    0.0025    0.0085   -0.0262    0.0056
          37    0.0254   -0.0618   -0.0179    0.0561    0.0123    0.0762    0.0826    0.0713
          38   -0.0319    0.0047    0.0195   -0.0435   -0.0149   -0.0694   -0.0040   -0.0296
          39    0.0296   -0.0021   -0.0164    0.0416    0.0010    0.0492    0.0289    0.0079
          40   -0.0258   -0.0618    0.0179   -0.0561    0.0124   -0.0762   -0.0829    0.0708
          41    0.0321    0.0047   -0.0195    0.0434   -0.0150    0.0694    0.0041   -0.0295
          42    0.0296    0.0021   -0.0164    0.0416   -0.0011    0.0492    0.0289   -0.0077
          43   -0.0001   -0.0234    0.0000   -0.0000   -0.0003   -0.0000   -0.0000    0.0008
          44   -0.0001    0.0357    0.0000    0.0001    0.0642   -0.0001   -0.0001    0.0296
          45    0.0131    0.0000    0.0136   -0.0282   -0.0000    0.1426    0.2064    0.0006
          46   -0.0001    0.0958    0.0000    0.0000   -0.0120    0.0000    0.0001   -0.0518
          47   -0.0001   -0.0234    0.0000   -0.0000    0.0404   -0.0000    0.0001   -0.0336
          48   -0.0079    0.0000   -0.0288    0.0936   -0.0001    0.2256   -0.0939   -0.0002
          49    0.0000   -0.0038    0.0000    0.0000   -0.0280   -0.0001   -0.0000    0.0082
          50    0.0000   -0.0426   -0.0000   -0.0000    0.0454    0.0000    0.0000   -0.0217
          51   -0.0983   -0.0002    0.0782    0.1541   -0.0002   -0.1119    0.0575    0.0001
          52   -0.0001    0.0545   -0.0000    0.0000   -0.0372   -0.0000   -0.0001    0.0731
          53    0.0002    0.0102   -0.0000   -0.0001   -0.0579   -0.0000   -0.0001    0.0651
          54    0.1094   -0.0000   -0.0686    0.1252   -0.0001    0.0680   -0.1572   -0.0004
          55    0.0001   -0.0250    0.0004    0.0001    0.0808    0.0000   -0.0000    0.0329
          56   -0.0000    0.0056   -0.0002   -0.0000   -0.0240   -0.0000    0.0000   -0.0261
          57   -0.0082   -0.0001    0.3210    0.0643   -0.0004    0.0195   -0.0175   -0.0000
          58   -0.0000    0.0099   -0.0003    0.0000    0.0657    0.0000    0.0001   -0.0309
          59    0.0001   -0.0020    0.0002    0.0000   -0.0116    0.0000   -0.0000   -0.0129
          60   -0.1485    0.0001   -0.2985   -0.0151   -0.0001   -0.0135    0.0303    0.0001


   Root No.      17        18        19        20        21        22        23        24

                17 A      18 A      19 A      20 A      21 A      22 A      23 A      24 A   

                 898.9     911.1     919.3     923.4     958.2     979.3     997.6    1000.2
  
           1    0.0267    0.0000    0.0000   -0.0079   -0.0000    0.0056    0.0034   -0.0000
           2    0.0013   -0.0000   -0.0000    0.0439   -0.0000   -0.0508    0.0197   -0.0000
           3    0.0000   -0.0036    0.0413    0.0001   -0.0294   -0.0000    0.0000    0.0080
           4   -0.0070   -0.0000   -0.0000    0.0058   -0.0000   -0.0071   -0.0316    0.0001
           5   -0.0040   -0.0000    0.0000   -0.0040   -0.0000    0.0093    0.0384   -0.0001
           6    0.0000   -0.0114    0.0342    0.0000    0.0134    0.0000    0.0001    0.0195
           7   -0.0049    0.0000    0.0000   -0.0050   -0.0000   -0.0056    0.0015   -0.0000
           8    0.0272    0.0000   -0.0000    0.0042   -0.0000   -0.0111   -0.0059    0.0000
           9    0.0000   -0.0058   -0.0214   -0.0000    0.0218   -0.0000   -0.0000   -0.0063
          10   -0.0075    0.0000   -0.0000    0.0030    0.0000   -0.0122    0.0026   -0.0000
          11    0.0038   -0.0000    0.0000   -0.0089   -0.0000    0.0133   -0.0029    0.0000
          12   -0.0000    0.0160   -0.0162   -0.0000    0.0142    0.0000   -0.0000   -0.0100
          13    0.0171    0.0000   -0.0000    0.0087    0.0000   -0.0034    0.0026   -0.0000
          14   -0.0324   -0.0000    0.0000   -0.0116    0.0000    0.0050   -0.0011    0.0000
          15   -0.0000    0.0290    0.0243    0.0000    0.0073    0.0000   -0.0000   -0.0104
          16   -0.0052   -0.0000    0.0000   -0.0019    0.0000    0.0085    0.0228   -0.0001
          17    0.0569    0.0000   -0.0000    0.0136    0.0000   -0.0008    0.0266   -0.0001
          18   -0.0000    0.0188   -0.0231   -0.0000   -0.0248    0.0000   -0.0001   -0.0144
          19   -0.0235   -0.0000    0.0000   -0.0091   -0.0000   -0.0099   -0.0300    0.0001
          20   -0.0088   -0.0000    0.0000   -0.0019   -0.0000   -0.0117   -0.0418    0.0001
          21    0.0000   -0.0122   -0.0143   -0.0000    0.0051   -0.0000   -0.0001   -0.0303
          22    0.0318   -0.0000   -0.0000    0.0160    0.0000    0.0209   -0.0037    0.0000
          23   -0.0361   -0.0000    0.0000   -0.0026    0.0000    0.0549   -0.0203    0.0000
          24   -0.0000   -0.0582   -0.0140   -0.0001   -0.0142    0.0000    0.0000    0.0107
          25   -0.0212   -0.0000    0.0000   -0.0065    0.0000    0.0085    0.0054   -0.0000
          26   -0.0126   -0.0000    0.0000   -0.0007    0.0000    0.0054   -0.0191    0.0000
          27   -0.0000    0.0060   -0.0227   -0.0000   -0.0203    0.0000    0.0001    0.0283
          28   -0.0096    0.0000    0.0000   -0.0021    0.0000   -0.0318    0.0072    0.0000
          29    0.0116    0.0000    0.0000   -0.0601   -0.0000   -0.0106    0.0017   -0.0000
          30    0.0000    0.0074   -0.0075   -0.0000    0.0207    0.0000    0.0001    0.0276
          31    0.0881    0.0540   -0.0431   -0.0402    0.0012    0.0508   -0.0144   -0.0891
          32   -0.0226   -0.0148   -0.0995    0.0702    0.0817   -0.0931    0.0382    0.0228
          33    0.0034    0.0050   -0.0426    0.0062    0.0277   -0.0112    0.0054   -0.0072
          34    0.0882   -0.0540    0.0430   -0.0402   -0.0011    0.0509   -0.0138    0.0892
          35   -0.0226    0.0147    0.0996    0.0704   -0.0819   -0.0930    0.0379   -0.0229
          36   -0.0035    0.0050   -0.0424   -0.0061    0.0275    0.0110   -0.0053   -0.0072
          37   -0.0297    0.0006   -0.0590    0.0050    0.0063    0.0036   -0.0197   -0.0619
          38   -0.0309   -0.0447    0.0558   -0.0078    0.0584    0.0287    0.0840   -0.0110
          39   -0.0013    0.0099   -0.0289    0.0011   -0.0099   -0.0027   -0.0135   -0.0140
          40   -0.0297   -0.0006    0.0590    0.0051   -0.0063    0.0037   -0.0192    0.0620
          41   -0.0310    0.0447   -0.0557   -0.0078   -0.0584    0.0288    0.0841    0.0105
          42    0.0013    0.0099   -0.0289   -0.0012   -0.0099    0.0027    0.0134   -0.0141
          43   -0.0726   -0.0000    0.0000   -0.0180    0.0000    0.0708    0.1754   -0.0005
          44    0.0665    0.0000   -0.0000    0.0161   -0.0000   -0.0085    0.0099   -0.0000
          45    0.0001   -0.0770    0.0768    0.0000    0.1196   -0.0000    0.0001    0.0227
          46   -0.0343    0.0000    0.0000   -0.0160   -0.0000    0.0049    0.0012    0.0000
          47    0.0132   -0.0000   -0.0000    0.0141    0.0000   -0.0480   -0.1208    0.0003
          48   -0.0000    0.1173    0.0307    0.0001   -0.0569    0.0001    0.0005    0.1237
          49    0.1460    0.0001   -0.0001    0.0637    0.0001    0.1591   -0.0437    0.0000
          50   -0.0174   -0.0001   -0.0000    0.0054    0.0000    0.0820   -0.0286    0.0000
          51   -0.0001    0.2654    0.0637    0.0002    0.0598   -0.0001   -0.0001   -0.0435
          52   -0.0804   -0.0000    0.0001   -0.0302    0.0000    0.0674    0.1447   -0.0004
          53   -0.0074    0.0000   -0.0000    0.0016   -0.0000   -0.0008   -0.0361    0.0001
          54    0.0001   -0.0750    0.1210    0.0001    0.1075   -0.0001   -0.0005   -0.1136
          55    0.0228    0.0001    0.0002   -0.1947   -0.0002   -0.1073    0.0230   -0.0002
          56   -0.0205   -0.0001   -0.0001    0.1262    0.0001    0.0590   -0.0127    0.0001
          57    0.0000   -0.0721    0.0139    0.0003   -0.0859    0.0002   -0.0004   -0.1048
          58   -0.0603   -0.0002   -0.0001    0.2550   -0.0001    0.0109    0.0021   -0.0001
          59   -0.0092   -0.0000   -0.0001    0.0463    0.0001    0.0098   -0.0011    0.0001
          60    0.0001   -0.0207    0.0693   -0.0002   -0.1073    0.0001   -0.0004   -0.1127


   Root No.      25        26        27        28        29        30        31        32

                25 A      26 A      27 A      28 A      29 A      30 A      31 A      32 A   

                1013.7    1055.5    1060.6    1069.2    1141.4    1159.1    1189.3    1195.8
  
           1   -0.0000    0.0000   -0.0000   -0.0070    0.0010    0.0054    0.0045   -0.0102
           2    0.0000    0.0000   -0.0000   -0.0000    0.0023   -0.0091    0.0163    0.0210
           3   -0.0246   -0.0035   -0.0008    0.0000    0.0000   -0.0000    0.0000    0.0000
           4    0.0000    0.0000    0.0000    0.0131   -0.0009   -0.0043    0.0147    0.0095
           5   -0.0000   -0.0000    0.0000    0.0147    0.0003    0.0079    0.0038   -0.0136
           6    0.0223   -0.0059    0.0026   -0.0000    0.0000    0.0000    0.0000   -0.0000
           7    0.0000   -0.0000   -0.0000   -0.0037   -0.0013    0.0262   -0.0241   -0.0221
           8   -0.0000    0.0000    0.0000    0.0182   -0.0029    0.0070   -0.0328    0.0067
           9    0.0256   -0.0169    0.0220   -0.0000    0.0000    0.0000   -0.0000    0.0000
          10    0.0000    0.0000   -0.0000   -0.0009   -0.0007   -0.0018    0.0016   -0.0043
          11   -0.0000   -0.0000   -0.0000   -0.0044   -0.0026   -0.0134    0.0127   -0.0132
          12    0.0256    0.0271   -0.0180    0.0000   -0.0000    0.0000    0.0000    0.0000
          13   -0.0000    0.0000    0.0000    0.0085    0.0033   -0.0203   -0.0183   -0.0125
          14    0.0000   -0.0000    0.0000    0.0054    0.0084    0.0039   -0.0286    0.0094
          15   -0.0098    0.0105   -0.0060    0.0000    0.0000    0.0000   -0.0000    0.0000
          16   -0.0000   -0.0000   -0.0001   -0.0285   -0.0049    0.0152    0.0012   -0.0250
          17   -0.0000    0.0000   -0.0000   -0.0202   -0.0046   -0.0028    0.0080   -0.0086
          18   -0.0268   -0.0052   -0.0289    0.0000   -0.0000   -0.0000    0.0000   -0.0000
          19    0.0000   -0.0000   -0.0000   -0.0086   -0.0045    0.0065    0.0019    0.0097
          20    0.0000   -0.0000   -0.0000   -0.0109    0.0086    0.0091    0.0175    0.0032
          21   -0.0283    0.0224    0.0211   -0.0000    0.0000    0.0000    0.0000   -0.0000
          22   -0.0000   -0.0000    0.0000    0.0085    0.0028   -0.0244   -0.0103   -0.0247
          23   -0.0000   -0.0000   -0.0000   -0.0090   -0.0081   -0.0084    0.0017   -0.0135
          24   -0.0044   -0.0118    0.0068   -0.0000   -0.0000    0.0000    0.0000    0.0000
          25   -0.0000   -0.0000    0.0000    0.0015   -0.0045   -0.0058   -0.0046    0.0039
          26   -0.0000    0.0000   -0.0000   -0.0236   -0.0088   -0.0003    0.0188    0.0098
          27    0.0212   -0.0112   -0.0046    0.0000   -0.0000   -0.0000    0.0000    0.0000
          28   -0.0000   -0.0000    0.0000    0.0007    0.0004    0.0064    0.0058    0.0144
          29    0.0000    0.0000   -0.0000    0.0005    0.0006    0.0054   -0.0034    0.0024
          30   -0.0350   -0.0159    0.0099   -0.0000    0.0000   -0.0000   -0.0000   -0.0000
          31    0.0466   -0.1583    0.1270    0.0112    0.0024   -0.1128    0.1053    0.0791
          32    0.0429    0.0894   -0.0621   -0.0117    0.0035    0.0457   -0.0086   -0.0030
          33    0.0214    0.0036    0.0003   -0.0013    0.0012   -0.0027    0.0149    0.0124
          34   -0.0466    0.1583   -0.1270    0.0117    0.0024   -0.1127    0.1052    0.0791
          35   -0.0430   -0.0894    0.0621   -0.0119    0.0035    0.0456   -0.0085   -0.0030
          36    0.0213    0.0034    0.0004    0.0013   -0.0012    0.0029   -0.0149   -0.0124
          37   -0.0396   -0.0765   -0.1296    0.1273   -0.0729   -0.0327    0.0040    0.0595
          38    0.0275   -0.1226   -0.1635    0.1718   -0.0876   -0.0143   -0.0336    0.0053
          39   -0.0151    0.0033   -0.0019   -0.0002   -0.0018   -0.0059    0.0090    0.0180
          40    0.0397    0.0765    0.1301    0.1267   -0.0728   -0.0327    0.0040    0.0595
          41   -0.0276    0.1226    0.1642    0.1711   -0.0875   -0.0143   -0.0336    0.0053
          42   -0.0151    0.0034   -0.0018    0.0003    0.0018    0.0059   -0.0090   -0.0180
          43   -0.0001   -0.0000   -0.0003   -0.1638    0.0769   -0.1133   -0.1319    0.1670
          44   -0.0000    0.0000   -0.0000   -0.0022   -0.0155    0.0125    0.0238   -0.0319
          45    0.0913   -0.0086    0.0608   -0.0001    0.0000    0.0000    0.0000   -0.0000
          46    0.0000   -0.0000   -0.0001   -0.0428   -0.1225    0.0400    0.0501    0.0194
          47    0.0000   -0.0000    0.0001    0.0796    0.3037   -0.0736   -0.1000   -0.0178
          48    0.0965   -0.0441   -0.0344    0.0001    0.0001   -0.0000   -0.0000   -0.0000
          49   -0.0000   -0.0001    0.0001    0.0307    0.0445    0.2157   -0.0454    0.1688
          50   -0.0000   -0.0000    0.0000   -0.0058   -0.0012    0.0349   -0.0046    0.0210
          51    0.0163    0.0300   -0.0112    0.0000   -0.0000   -0.0001    0.0000   -0.0001
          52   -0.0001   -0.0000    0.0001    0.0924    0.2502    0.0777    0.1853   -0.0241
          53    0.0000   -0.0000   -0.0001   -0.0344   -0.0346   -0.0091   -0.0005    0.0139
          54   -0.0733    0.0263    0.0060   -0.0000   -0.0000   -0.0000   -0.0000    0.0000
          55    0.0002    0.0001   -0.0000    0.0055    0.0041    0.0352    0.0151    0.0713
          56   -0.0001   -0.0000    0.0000   -0.0042   -0.0029   -0.0210   -0.0099   -0.0475
          57    0.1392    0.0592   -0.0360    0.0001   -0.0000   -0.0001   -0.0000   -0.0001
          58    0.0001    0.0001   -0.0000   -0.0034   -0.0013    0.0002    0.0392    0.0508
          59   -0.0001   -0.0000    0.0000   -0.0015   -0.0003    0.0013    0.0092    0.0135
          60    0.1248    0.0485   -0.0302    0.0000    0.0000    0.0000   -0.0000   -0.0000


   Root No.      33        34        35        36        37        38        39        40

                33 A      34 A      35 A      36 A      37 A      38 A      39 A      40 A   

                1284.7    1317.5    1332.9    1365.2    1377.7    1396.2    1420.6    1527.4
  
           1    0.0569    0.0235    0.0309   -0.0242    0.0065   -0.0259    0.0304    0.0187
           2   -0.0123   -0.0098   -0.0152   -0.0175   -0.0163   -0.0648   -0.0169    0.0108
           3   -0.0000   -0.0000   -0.0000   -0.0000   -0.0000   -0.0000   -0.0000    0.0000
           4   -0.0001   -0.0070   -0.0102   -0.0041    0.0412   -0.0249    0.0736   -0.0307
           5   -0.0122   -0.0145    0.0029    0.0297   -0.0213   -0.0228    0.0878   -0.0444
           6   -0.0000   -0.0000   -0.0000    0.0000    0.0000   -0.0000    0.0000   -0.0000
           7   -0.0333   -0.0143    0.0003    0.0064   -0.0039    0.0236   -0.0346   -0.0507
           8   -0.0166   -0.0298    0.0122    0.0008    0.0218    0.0220   -0.0148   -0.0950
           9    0.0000   -0.0000    0.0000   -0.0000    0.0000    0.0000   -0.0000   -0.0000
          10    0.0083   -0.0122   -0.0102   -0.0151   -0.0068    0.0217    0.0101    0.0026
          11   -0.0170    0.0067    0.0261   -0.0357   -0.0050    0.0884    0.0447    0.0055
          12   -0.0000    0.0000    0.0000   -0.0000   -0.0000    0.0000    0.0000   -0.0000
          13   -0.0052   -0.0064    0.0045    0.0116    0.0071   -0.0087    0.0101    0.0461
          14   -0.0110   -0.0058   -0.0070    0.0094   -0.0018    0.0039    0.0399    0.1541
          15   -0.0000   -0.0000   -0.0000    0.0000   -0.0000    0.0000    0.0000    0.0000
          16   -0.0273    0.0118   -0.0150    0.0074   -0.0254    0.0100   -0.0374    0.0452
          17    0.0136    0.0151    0.0020   -0.0088   -0.0084    0.0026   -0.0300    0.0119
          18    0.0000    0.0000    0.0000   -0.0000   -0.0000    0.0000   -0.0000    0.0000
          19    0.0042    0.0043    0.0000   -0.0102   -0.0017    0.0119   -0.0245   -0.0002
          20    0.0046   -0.0223    0.0111   -0.0053    0.0241    0.0087   -0.0418    0.0492
          21    0.0000   -0.0000    0.0000   -0.0000    0.0000    0.0000   -0.0000    0.0000
          22    0.0008   -0.0161    0.0085    0.0253    0.0244   -0.0298   -0.0240    0.0282
          23    0.0084    0.0084   -0.0066    0.0247    0.0037   -0.0445   -0.0333   -0.0387
          24    0.0000    0.0000   -0.0000   -0.0000   -0.0000    0.0000    0.0000   -0.0000
          25    0.0040    0.0315   -0.0114   -0.0012   -0.0269   -0.0058    0.0198   -0.0557
          26    0.0112    0.0178   -0.0047   -0.0106   -0.0067    0.0003   -0.0084   -0.0471
          27    0.0000   -0.0000    0.0000   -0.0000    0.0000   -0.0000   -0.0000   -0.0000
          28    0.0018   -0.0122   -0.0204   -0.0146   -0.0126    0.0105    0.0036   -0.0124
          29    0.0059    0.0033   -0.0004    0.0080    0.0026   -0.0177   -0.0068    0.0006
          30    0.0000    0.0000    0.0000    0.0000    0.0000   -0.0000   -0.0000    0.0000
          31   -0.0603   -0.0036   -0.0748    0.0615   -0.0093    0.0728   -0.0086    0.0200
          32    0.1182    0.0441   -0.0308    0.1265    0.0494    0.1060    0.0047   -0.0069
          33    0.0422    0.0237   -0.0404    0.1098    0.0337    0.1265    0.0010   -0.0081
          34   -0.0603   -0.0036   -0.0748    0.0615   -0.0093    0.0728   -0.0086    0.0199
          35    0.1183    0.0442   -0.0309    0.1267    0.0494    0.1062    0.0047   -0.0069
          36   -0.0420   -0.0236    0.0403   -0.1096   -0.0336   -0.1264   -0.0010    0.0081
          37    0.0733   -0.0408    0.0811    0.0342   -0.0997    0.0294   -0.0792    0.0212
          38    0.0014    0.0740   -0.0478   -0.0721    0.0636    0.0244   -0.0932    0.0279
          39    0.0328   -0.0518    0.0671    0.0595   -0.1063    0.0100   -0.0093   -0.0010
          40    0.0733   -0.0408    0.0811    0.0342   -0.0997    0.0294   -0.0792    0.0212
          41    0.0014    0.0740   -0.0478   -0.0721    0.0635    0.0244   -0.0932    0.0278
          42   -0.0327    0.0518   -0.0671   -0.0595    0.1063   -0.0100    0.0092    0.0011
          43    0.0511   -0.0474    0.0419   -0.0351    0.0676    0.0276   -0.0423   -0.0735
          44    0.0054    0.0226   -0.0040   -0.0041   -0.0202    0.0006   -0.0312    0.0230
          45    0.0000    0.0000    0.0000   -0.0000   -0.0000    0.0000   -0.0000    0.0000
          46    0.0043   -0.0437    0.0142   -0.0086    0.0395    0.0092   -0.0274    0.0406
          47    0.0067    0.0993   -0.0248   -0.0133   -0.0777    0.0181   -0.0395   -0.0567
          48    0.0000    0.0000   -0.0000    0.0000   -0.0000    0.0000    0.0000   -0.0000
          49   -0.0007    0.0087   -0.0473   -0.0126   -0.0345    0.0000    0.0400    0.0652
          50    0.0079    0.0148   -0.0170    0.0192   -0.0077   -0.0406   -0.0227   -0.0357
          51   -0.0000    0.0000    0.0000    0.0000    0.0000   -0.0000   -0.0000   -0.0000
          52    0.0250   -0.0648    0.0378   -0.0200    0.0549    0.0160   -0.0980   -0.0186
          53    0.0101    0.0298   -0.0106   -0.0100   -0.0160   -0.0016    0.0028   -0.0535
          54   -0.0000    0.0000   -0.0000   -0.0000   -0.0000   -0.0000    0.0000   -0.0000
          55   -0.0841    0.0874    0.0772    0.0646    0.0310   -0.0695   -0.0290   -0.0004
          56    0.0800   -0.0846   -0.0863   -0.0653   -0.0375    0.0590    0.0250   -0.0117
          57    0.0001   -0.0002   -0.0001   -0.0001   -0.0001    0.0001    0.0000   -0.0000
          58   -0.1411    0.1135    0.1363    0.0415    0.0383    0.0202    0.0111    0.0118
          59   -0.0466    0.0501    0.0592    0.0279    0.0219   -0.0113   -0.0024    0.0108
          60    0.0001   -0.0001   -0.0001   -0.0000   -0.0000   -0.0000   -0.0000   -0.0000


   Root No.      41        42        43        44        45        46        47        48

                41 A      42 A      43 A      44 A      45 A      46 A      47 A      48 A   

                1820.6    1867.9    1904.5    1933.1    2926.3    2978.2    3005.1    3048.4
  
           1   -0.0001   -0.0121   -0.0235   -0.0181    0.0000   -0.0000    0.0000    0.0191
           2   -0.0042    0.0026    0.0137   -0.0088   -0.0000    0.0000    0.0000    0.0377
           3   -0.0000    0.0000    0.0000   -0.0000    0.0000   -0.0613    0.0000   -0.0000
           4    0.0015    0.0006    0.0097    0.0171    0.0000   -0.0000    0.0314    0.0001
           5   -0.0276    0.0133   -0.0041    0.0015    0.0000    0.0000   -0.0234   -0.0000
           6   -0.0000    0.0000   -0.0000    0.0000   -0.0609   -0.0002   -0.0000   -0.0000
           7   -0.0166    0.0139    0.0690    0.1545    0.0000   -0.0000   -0.0006    0.0006
           8    0.0099   -0.0178   -0.0477   -0.1209   -0.0000    0.0000    0.0002    0.0002
           9    0.0000   -0.0000   -0.0000   -0.0000   -0.0003   -0.0001    0.0000   -0.0000
          10    0.0078    0.0784    0.1449   -0.1124   -0.0000    0.0000    0.0000   -0.0003
          11    0.0008   -0.0152   -0.0214    0.0182    0.0000   -0.0000    0.0000    0.0008
          12   -0.0000   -0.0001   -0.0002    0.0001    0.0000   -0.0001   -0.0000    0.0000
          13    0.1362    0.1329   -0.0672    0.0311   -0.0000    0.0000    0.0003   -0.0005
          14   -0.0489   -0.0242    0.0156    0.0181    0.0000    0.0000   -0.0001   -0.0004
          15   -0.0001   -0.0000    0.0000   -0.0000    0.0001   -0.0002   -0.0000   -0.0000
          16    0.0110   -0.0202   -0.0643   -0.1392   -0.0000    0.0000    0.0010   -0.0002
          17    0.0014    0.0139    0.0358    0.0825    0.0000    0.0000    0.0031   -0.0005
          18    0.0000    0.0000    0.0000    0.0000   -0.0001   -0.0001    0.0000   -0.0000
          19   -0.1137    0.0665   -0.0293   -0.0035   -0.0000    0.0000   -0.0040   -0.0004
          20    0.1209   -0.0706    0.0294    0.0013    0.0000    0.0000   -0.0022   -0.0002
          21    0.0000   -0.0000    0.0000    0.0000   -0.0000    0.0000    0.0000    0.0000
          22   -0.1230   -0.0934    0.0149   -0.0083    0.0000   -0.0000   -0.0001   -0.0002
          23    0.0420    0.0317   -0.0210    0.0208    0.0000   -0.0000   -0.0001    0.0002
          24    0.0001    0.0000   -0.0000    0.0000   -0.0000   -0.0002    0.0000   -0.0000
          25    0.1003   -0.1188    0.0539   -0.0086    0.0000   -0.0000   -0.0002    0.0001
          26   -0.0863    0.0390   -0.0166   -0.0063   -0.0000   -0.0000    0.0001    0.0004
          27   -0.0000    0.0000   -0.0000    0.0000   -0.0003   -0.0000   -0.0000    0.0000
          28    0.0020   -0.0574   -0.1099    0.0798    0.0000   -0.0000    0.0000    0.0001
          29    0.0019    0.0124    0.0195   -0.0146    0.0000    0.0000   -0.0000   -0.0000
          30   -0.0000    0.0001    0.0001   -0.0001    0.0000   -0.0001   -0.0000   -0.0000
          31   -0.0007    0.0076    0.0180    0.0018    0.0003   -0.1275    0.0001   -0.1131
          32   -0.0003   -0.0042   -0.0084   -0.0084    0.0005   -0.2545    0.0002   -0.2260
          33    0.0034    0.0038   -0.0010    0.0038   -0.0006    0.3700   -0.0004    0.3875
          34   -0.0007    0.0076    0.0180    0.0018   -0.0003    0.1277    0.0001   -0.1130
          35   -0.0003   -0.0042   -0.0084   -0.0084   -0.0005    0.2542    0.0002   -0.2249
          36   -0.0034   -0.0039    0.0010   -0.0038   -0.0006    0.3710    0.0004   -0.3874
          37   -0.0027    0.0033    0.0071    0.0159   -0.2294   -0.0003   -0.1884   -0.0002
          38   -0.0178    0.0130   -0.0016    0.0071    0.1713    0.0003    0.1406    0.0001
          39   -0.0038   -0.0011    0.0008    0.0018    0.3680    0.0006    0.3620    0.0004
          40   -0.0027    0.0033    0.0071    0.0159    0.2293    0.0003   -0.1882   -0.0002
          41   -0.0178    0.0130   -0.0015    0.0071   -0.1715   -0.0003    0.1407    0.0001
          42    0.0037    0.0011   -0.0008   -0.0018    0.3682    0.0006   -0.3619   -0.0004
          43    0.0053   -0.0018    0.0273    0.0451    0.0000   -0.0000   -0.0012    0.0013
          44    0.0017    0.0176    0.0382    0.0934   -0.0000   -0.0000   -0.0347    0.0073
          45    0.0000    0.0000    0.0000    0.0000   -0.0015    0.0004   -0.0000    0.0000
          46   -0.0636    0.0416   -0.0179    0.0008    0.0000   -0.0000    0.0463    0.0050
          47   -0.0789    0.0319   -0.0173   -0.0118    0.0000   -0.0000    0.0149    0.0020
          48   -0.0000    0.0000    0.0000   -0.0000   -0.0017   -0.0000   -0.0000   -0.0000
          49    0.0220    0.0225    0.0161   -0.0129    0.0000    0.0000   -0.0002    0.0012
          50    0.0921    0.0719   -0.0306    0.0326   -0.0000    0.0000    0.0010   -0.0087
          51    0.0000    0.0000   -0.0000    0.0000   -0.0000   -0.0002    0.0000   -0.0000
          52   -0.0220    0.0412   -0.0211   -0.0073   -0.0000    0.0000   -0.0002   -0.0005
          53   -0.1003    0.0345   -0.0142   -0.0083   -0.0000    0.0000    0.0028   -0.0046
          54   -0.0000   -0.0000    0.0000   -0.0000   -0.0008    0.0000    0.0000   -0.0000
          55    0.0035   -0.0122   -0.0342    0.0266    0.0000   -0.0000   -0.0002    0.0006
          56    0.0023   -0.0410   -0.0773    0.0548    0.0000   -0.0000   -0.0002    0.0015
          57   -0.0000   -0.0000   -0.0000    0.0000    0.0000    0.0005    0.0000   -0.0000
          58   -0.0016   -0.0006    0.0000    0.0032    0.0000   -0.0000   -0.0001    0.0001
          59    0.0010    0.0451    0.0831   -0.0604   -0.0000    0.0000    0.0003   -0.0005
          60    0.0000    0.0000    0.0001   -0.0000    0.0000   -0.0009    0.0000   -0.0000


   Root No.      49        50        51        52        53        54

                49 A      50 A      51 A      52 A      53 A      54 A   

                3049.5    3069.6    3071.4    3129.4    3142.4    3147.7
  
           1   -0.0002    0.0001   -0.0000    0.0006   -0.0001   -0.0004
           2   -0.0004   -0.0004    0.0003    0.0015    0.0001    0.0001
           3    0.0000   -0.0000    0.0000    0.0000    0.0000    0.0000
           4   -0.0021    0.0008   -0.0021   -0.0001   -0.0000    0.0000
           5    0.0013   -0.0006    0.0017    0.0001    0.0000   -0.0000
           6    0.0000   -0.0000    0.0000   -0.0000   -0.0000   -0.0000
           7   -0.0002   -0.0029    0.0020   -0.0010    0.0001    0.0000
           8   -0.0001    0.0022   -0.0009    0.0013   -0.0001    0.0000
           9    0.0000    0.0000   -0.0000    0.0000   -0.0000   -0.0000
          10    0.0000    0.0001   -0.0001    0.0011   -0.0063    0.0008
          11   -0.0000   -0.0000    0.0000    0.0004    0.0011   -0.0007
          12   -0.0000    0.0000    0.0000   -0.0000    0.0000   -0.0000
          13    0.0001    0.0003    0.0011   -0.0059    0.0005   -0.0001
          14   -0.0002    0.0003   -0.0003    0.0019   -0.0001    0.0001
          15    0.0000    0.0000   -0.0000    0.0000   -0.0000    0.0000
          16    0.0000   -0.0019    0.0011    0.0004    0.0000    0.0000
          17   -0.0018   -0.0422    0.0233   -0.0004    0.0001   -0.0000
          18   -0.0000   -0.0000    0.0000   -0.0000    0.0000   -0.0000
          19   -0.0414   -0.0126   -0.0212    0.0003   -0.0001    0.0000
          20   -0.0150   -0.0023   -0.0047   -0.0001   -0.0000    0.0000
          21    0.0000    0.0000    0.0000   -0.0000    0.0000    0.0000
          22    0.0000   -0.0001   -0.0003    0.0172   -0.0009    0.0006
          23    0.0002   -0.0001   -0.0001   -0.0729    0.0026   -0.0002
          24    0.0000    0.0000    0.0000   -0.0000    0.0000   -0.0000
          25    0.0042   -0.0006   -0.0006    0.0002   -0.0001    0.0000
          26    0.0256   -0.0238   -0.0330    0.0003   -0.0001    0.0000
          27    0.0000   -0.0000   -0.0000   -0.0000   -0.0000    0.0000
          28   -0.0000    0.0000   -0.0001    0.0023    0.0432   -0.0185
          29    0.0000   -0.0000    0.0000   -0.0009   -0.0168   -0.0626
          30    0.0000   -0.0000    0.0000   -0.0000   -0.0001   -0.0000
          31    0.0012    0.0010   -0.0007   -0.0019   -0.0002   -0.0002
          32    0.0024    0.0017   -0.0013   -0.0034   -0.0003    0.0005
          33   -0.0041   -0.0028    0.0023    0.0061    0.0004   -0.0005
          34    0.0012    0.0010   -0.0007   -0.0019   -0.0002   -0.0002
          35    0.0024    0.0017   -0.0013   -0.0034   -0.0003    0.0005
          36    0.0041    0.0028   -0.0023   -0.0061   -0.0004    0.0005
          37    0.0111   -0.0068    0.0115    0.0004    0.0001   -0.0000
          38   -0.0116    0.0016   -0.0084   -0.0003   -0.0001    0.0000
          39   -0.0236    0.0093   -0.0210   -0.0007   -0.0003    0.0000
          40    0.0111   -0.0068    0.0115    0.0004    0.0001   -0.0000
          41   -0.0116    0.0016   -0.0084   -0.0003   -0.0001    0.0000
          42    0.0236   -0.0093    0.0210    0.0007    0.0003   -0.0000
          43    0.0030    0.0572   -0.0312    0.0002   -0.0002    0.0000
          44    0.0247    0.4794   -0.2617    0.0013   -0.0015    0.0002
          45    0.0000    0.0002   -0.0001    0.0000   -0.0000   -0.0000
          46    0.4797    0.1287    0.2135   -0.0005    0.0007   -0.0001
          47    0.1929    0.0497    0.0828   -0.0001    0.0003   -0.0001
          48   -0.0000   -0.0000   -0.0000    0.0000    0.0000   -0.0000
          49    0.0004   -0.0002   -0.0007   -0.1490    0.0057    0.0003
          50   -0.0005   -0.0000    0.0021    0.8204   -0.0289    0.0019
          51   -0.0000   -0.0000    0.0000    0.0002   -0.0000   -0.0000
          52   -0.0356    0.0268    0.0366    0.0003    0.0001   -0.0000
          53   -0.3130    0.2622    0.3602   -0.0028    0.0010   -0.0001
          54   -0.0000    0.0000    0.0001   -0.0000    0.0000   -0.0000
          55    0.0001   -0.0003    0.0007   -0.0176   -0.2593    0.3658
          56    0.0001   -0.0003    0.0008   -0.0195   -0.2957    0.3832
          57   -0.0000    0.0000   -0.0000    0.0000    0.0001   -0.0002
          58    0.0000   -0.0001    0.0004   -0.0115   -0.1811   -0.1562
          59   -0.0000    0.0004   -0.0010    0.0276    0.4826    0.3668
          60   -0.0000    0.0000   -0.0000    0.0000    0.0005    0.0004


           MASS-WEIGHTED COORDINATE ANALYSIS (NORMAL COORDINATES)


   Root No.       1         2         3         4         5         6         7         8

                 1 A       2 A       3 A       4 A       5 A       6 A       7 A       8 A   

                  79.7     146.1     223.6     276.9     283.6     413.3     458.6     492.5
  
           1   -0.0001    0.0000   -0.0000   -0.0925    0.0002   -0.0001   -0.2562   -0.0971
           2    0.0003    0.0002    0.0004   -0.1950    0.0003    0.0003    0.1970    0.1149
           3   -0.4198   -0.1288   -0.3452   -0.0007   -0.0150   -0.0413    0.0002    0.0000
           4   -0.0001   -0.0000   -0.0000    0.0898   -0.0001    0.0003    0.0371    0.4443
           5   -0.0001   -0.0001   -0.0001    0.1974   -0.0003    0.0000    0.1820   -0.0821
           6    0.3754    0.2249   -0.2392    0.0001    0.0944   -0.0452    0.0000   -0.0000
           7   -0.0001    0.0000    0.0000   -0.0207    0.0001    0.0001   -0.1155    0.0279
           8    0.0001    0.0001    0.0001   -0.2640    0.0003   -0.0003   -0.3231    0.0371
           9   -0.2171   -0.0030    0.2539    0.0004    0.2999    0.4599   -0.0002   -0.0005
          10    0.0001    0.0000   -0.0001   -0.0291   -0.0001   -0.0001    0.0327   -0.3494
          11   -0.0000   -0.0000    0.0001   -0.1368    0.0003    0.0002    0.3811    0.0609
          12   -0.0101    0.1284   -0.1272   -0.0004   -0.2147    0.1413    0.0000    0.0022
          13   -0.0001    0.0001    0.0000   -0.0355    0.0001    0.0000    0.0668   -0.1070
          14    0.0001   -0.0000    0.0001   -0.2646    0.0003   -0.0002   -0.3454    0.0071
          15   -0.1955    0.1900    0.1556    0.0008    0.4240    0.1894   -0.0003   -0.0009
          16   -0.0001   -0.0000   -0.0001    0.1534   -0.0002    0.0002    0.0756    0.2595
          17    0.0000    0.0000   -0.0001   -0.0628    0.0002   -0.0000   -0.1218    0.2442
          18    0.0501    0.0333    0.5206   -0.0002   -0.2478   -0.1896    0.0000    0.0000
          19   -0.0001    0.0001    0.0000   -0.0389    0.0000    0.0001    0.0683    0.2900
          20   -0.0001    0.0000   -0.0001    0.2059   -0.0003   -0.0000    0.1755   -0.1080
          21    0.0942   -0.3608   -0.2000   -0.0006   -0.3223    0.3040   -0.0001   -0.0005
          22   -0.0000    0.0002   -0.0000    0.0167   -0.0002    0.0000    0.2750   -0.1923
          23    0.0001   -0.0001    0.0002   -0.2229    0.0005    0.0000    0.0598   -0.0483
          24   -0.0997    0.5294   -0.0092   -0.0002   -0.3017   -0.0261   -0.0002   -0.0008
          25   -0.0000    0.0001    0.0001   -0.1713    0.0003   -0.0001   -0.0810    0.0917
          26    0.0001    0.0000   -0.0000    0.0129   -0.0001   -0.0001   -0.0603   -0.3200
          27   -0.1826   -0.2469    0.1034    0.0006    0.2513   -0.4224    0.0003    0.0007
          28    0.0006   -0.0005    0.0000    0.0977    0.0001   -0.0004   -0.0721   -0.3949
          29   -0.0004   -0.0001   -0.0005    0.5484   -0.0009   -0.0000   -0.1628    0.0836
          30    0.5044   -0.2881    0.0482    0.0004    0.1076   -0.0469    0.0000    0.0000
          31   -0.0218   -0.0133   -0.1162   -0.0358   -0.0607   -0.1165   -0.1479   -0.0200
          32   -0.0944   -0.0556   -0.1150   -0.0507    0.0090   -0.1373    0.0954    0.0313
          33   -0.1921   -0.0790   -0.2173   -0.0002   -0.0189   -0.1459    0.0006    0.0001
          34    0.0217    0.0133    0.1162   -0.0353    0.0608    0.1164   -0.1478   -0.0201
          35    0.0947    0.0558    0.1154   -0.0503   -0.0089    0.1377    0.0952    0.0330
          36   -0.1920   -0.0789   -0.2171   -0.0006   -0.0189   -0.1457   -0.0003   -0.0013
          37    0.0840    0.0845   -0.1865    0.0426    0.1287   -0.0239    0.0234    0.1227
          38   -0.0565   -0.1173    0.0270    0.0793   -0.1130    0.1240    0.0708   -0.0433
          39    0.1854    0.1702   -0.1964    0.0001    0.1590   -0.0861   -0.0004    0.0042
          40   -0.0841   -0.0845    0.1866    0.0424   -0.1289    0.0241    0.0233    0.1223
          41    0.0564    0.1173   -0.0270    0.0797    0.1126   -0.1239    0.0710   -0.0427
          42    0.1853    0.1702   -0.1964    0.0003    0.1589   -0.0861    0.0006   -0.0037
          43   -0.0000   -0.0000   -0.0001    0.1183   -0.0002    0.0001    0.1213    0.0781
          44    0.0000    0.0000   -0.0001   -0.0265    0.0001    0.0001   -0.0465    0.0690
          45    0.0220   -0.0133    0.2720   -0.0003   -0.2588   -0.2646    0.0001    0.0002
          46   -0.0000    0.0000    0.0000   -0.0276    0.0000    0.0000    0.0066    0.0590
          47   -0.0000    0.0000   -0.0000    0.0997   -0.0001    0.0000    0.0819    0.0348
          48    0.0384   -0.2434   -0.1211   -0.0005   -0.2739    0.2076   -0.0000   -0.0002
          49   -0.0000    0.0001   -0.0000    0.0249   -0.0002    0.0000    0.2219   -0.0502
          50    0.0000   -0.0001    0.0000   -0.0603    0.0002    0.0000    0.0428   -0.0121
          51   -0.0128    0.2505   -0.0190   -0.0002   -0.2455   -0.1597   -0.0001   -0.0007
          52   -0.0000    0.0000    0.0001   -0.1227    0.0002   -0.0001   -0.1197    0.0480
          53    0.0000    0.0000   -0.0000    0.0113   -0.0000    0.0000   -0.0074   -0.0938
          54   -0.1119   -0.1707    0.0645    0.0002    0.0845   -0.3506    0.0003    0.0009
          55    0.0002   -0.0002    0.0001   -0.1244    0.0004   -0.0001    0.1430   -0.1284
          56   -0.0002   -0.0000   -0.0002    0.3053   -0.0005   -0.0001   -0.2058    0.0358
          57    0.1836   -0.2287    0.0021    0.0004    0.1291   -0.0455   -0.0003    0.0002
          58    0.0003   -0.0002   -0.0001    0.2226   -0.0003   -0.0002   -0.2301   -0.1169
          59   -0.0002   -0.0001   -0.0002    0.2393   -0.0004   -0.0000   -0.1350    0.0249
          60    0.2411   -0.0479    0.0734    0.0001    0.0235   -0.0388    0.0002   -0.0009


   Root No.       9        10        11        12        13        14        15        16

                 9 A      10 A      11 A      12 A      13 A      14 A      15 A      16 A   

                 504.9     568.3     615.8     647.8     658.1     767.8     819.5     829.4
  
           1    0.0006   -0.2755   -0.0002   -0.0002   -0.1704    0.0001    0.0006   -0.3576
           2   -0.0002   -0.1948   -0.0001   -0.0003   -0.2252    0.0001    0.0002   -0.1474
           3    0.0211   -0.0000   -0.0315    0.0822   -0.0000   -0.0597    0.1719    0.0003
           4   -0.0016   -0.2088   -0.0000    0.0001    0.1426   -0.0000   -0.0005    0.3157
           5    0.0002    0.2014    0.0001    0.0001    0.0168    0.0001    0.0005   -0.2521
           6   -0.0115    0.0000    0.0309   -0.1223    0.0001   -0.2719   -0.2347   -0.0005
           7    0.0001   -0.2855   -0.0002   -0.0003   -0.2686    0.0000    0.0002   -0.0973
           8   -0.0001    0.0554    0.0000   -0.0001    0.0312    0.0001   -0.0000   -0.0135
           9   -0.0185    0.0001   -0.1352    0.4550   -0.0002   -0.1163    0.0126    0.0001
          10    0.0015   -0.0642    0.0000   -0.0000    0.3128    0.0000   -0.0000    0.0165
          11   -0.0006   -0.1649    0.0000    0.0000   -0.0246    0.0000    0.0000   -0.0134
          12    0.6488    0.0002   -0.1109   -0.2390    0.0006   -0.0249   -0.0510   -0.0001
          13    0.0004    0.2314    0.0000   -0.0003   -0.2369   -0.0000   -0.0003    0.1681
          14    0.0001    0.0072   -0.0001    0.0002    0.0070   -0.0001   -0.0001    0.0907
          15   -0.2213    0.0001    0.1581   -0.4531    0.0003    0.3549   -0.0066    0.0001
          16   -0.0008   -0.2288   -0.0001   -0.0000   -0.0042   -0.0000   -0.0002    0.1195
          17   -0.0011    0.2201    0.0002    0.0004    0.3926   -0.0000   -0.0003    0.1826
          18   -0.0177    0.0001    0.0089   -0.0612    0.0001    0.0111   -0.2167   -0.0004
          19   -0.0011    0.4530    0.0002    0.0002    0.0501    0.0001    0.0007   -0.3725
          20    0.0004    0.1438    0.0001   -0.0000   -0.0580    0.0000    0.0003   -0.1514
          21   -0.1076    0.0000    0.0441   -0.0791    0.0000   -0.0804    0.2102    0.0003
          22    0.0006    0.1043    0.0001   -0.0000   -0.0431   -0.0000   -0.0003    0.1150
          23    0.0001   -0.2259    0.0000    0.0001    0.3018    0.0001    0.0003   -0.1305
          24   -0.1926   -0.0003    0.0887    0.1334   -0.0000    0.0902   -0.1029   -0.0002
          25   -0.0003    0.3775    0.0001    0.0000   -0.1708   -0.0001   -0.0001    0.0764
          26    0.0012    0.0541   -0.0001   -0.0003   -0.3597   -0.0002   -0.0008    0.4655
          27    0.1772   -0.0000   -0.0290   -0.0316    0.0000   -0.2257    0.1992    0.0004
          28    0.0009   -0.0503    0.0001    0.0003    0.3926    0.0000    0.0000    0.0265
          29   -0.0001   -0.0551   -0.0000   -0.0001   -0.0636   -0.0000   -0.0000    0.0147
          30   -0.1223   -0.0000   -0.0006    0.0124   -0.0005    0.0018   -0.0064   -0.0000
          31   -0.0095   -0.0783    0.0213   -0.1809   -0.0893    0.0395   -0.1171   -0.1846
          32   -0.2683   -0.0655   -0.0309   -0.0350   -0.0548    0.0359   -0.1152   -0.0220
          33   -0.1823   -0.0039   -0.0240   -0.0631   -0.0046    0.0211   -0.0711   -0.0110
          34    0.0097   -0.0784   -0.0215    0.1808   -0.0896   -0.0395    0.1177   -0.1842
          35    0.2686   -0.0654    0.0309    0.0349   -0.0545   -0.0359    0.1154   -0.0217
          36   -0.1818    0.0038   -0.0239   -0.0631    0.0045    0.0210   -0.0710    0.0108
[...]
 REDUCED MASS        0.4522         C  1 -- C  4          +6.8% ( 32.6%)     99.9%
 EFFECTIVE MASS      5.2661
 FORCE CONSTANT      0.4966

 VIBRATION         37   37A           ATOM PAIR      ENERGY CONTRIBUTION    RADIAL
 FREQUENCY          1377.69         C  2 -- H 14         +13.5% ( 48.0%)      7.5%
 TRANSITION DIPOLE   0.1420         C  2 -- H 13         +13.5% ( 48.0%)      7.5%
 TRAVEL (Ang.)       0.2902         C  2 -- C  6         +12.0% ( 45.2%)     72.3%
 REDUCED MASS        0.5810         C  2 -- C  7         +10.5% ( 42.2%)     45.1%
 EFFECTIVE MASS      5.8855
 FORCE CONSTANT      0.6497

 VIBRATION         38   38A           ATOM PAIR      ENERGY CONTRIBUTION    RADIAL
 FREQUENCY          1396.24         C  1 -- C  4         +18.6% ( 65.4%)     54.4%
 TRANSITION DIPOLE   0.2239         C  4 -- C  8         +17.5% ( 63.3%)     81.6%
 TRAVEL (Ang.)       0.1600         C  4 -- C 10          +9.7% ( 47.3%)      0.6%
 REDUCED MASS        1.8857         C  4 -- C  5          +9.1% ( 45.7%)     24.6%
 EFFECTIVE MASS      9.2314
 FORCE CONSTANT      2.1659

 VIBRATION         39   39A           ATOM PAIR      ENERGY CONTRIBUTION    RADIAL
 FREQUENCY          1420.56         C  2 -- C  6         +17.3% ( 65.9%)     80.9%
 TRANSITION DIPOLE   0.0703         C  2 -- C  7         +17.0% ( 65.3%)     70.8%
 TRAVEL (Ang.)       0.1365         C  2 -- H 13         +13.6% ( 58.4%)      0.0%
 REDUCED MASS        2.5481         C  2 -- H 14         +13.6% ( 58.4%)      0.0%
 EFFECTIVE MASS     10.4404
 FORCE CONSTANT      3.0296

 VIBRATION         40   40A           ATOM PAIR      ENERGY CONTRIBUTION    RADIAL
 FREQUENCY          1527.36         C  3 -- C  5         +23.3% ( 77.3%)     93.3%
 TRANSITION DIPOLE   0.1661         C  5 -- C  9         +18.3% ( 68.4%)     57.1%
 TRAVEL (Ang.)       0.1144         C  5 -- C  8         +14.7% ( 61.5%)     13.5%
 REDUCED MASS        3.3763         C  4 -- C  5         +11.9% ( 55.3%)     19.5%
 EFFECTIVE MASS     11.6992
 FORCE CONSTANT      4.6406

 VIBRATION         41   41A           ATOM PAIR      ENERGY CONTRIBUTION    RADIAL
 FREQUENCY          1820.63         C  7 -- C  9         +22.9% ( 73.7%)     98.9%
 TRANSITION DIPOLE   0.2782         C  5 -- C  8         +18.9% ( 67.1%)     98.3%
 TRAVEL (Ang.)       0.1139         C  5 -- C  9         +10.7% ( 50.3%)     83.6%
 REDUCED MASS        2.8540         C  2 -- C  7          +9.2% ( 46.6%)     54.9%
 EFFECTIVE MASS     11.9192
 FORCE CONSTANT      5.5738

 VIBRATION         42   42A           ATOM PAIR      ENERGY CONTRIBUTION    RADIAL
 FREQUENCY          1867.89         C  5 -- C  8         +16.5% ( 64.3%)     94.9%
 TRANSITION DIPOLE   0.8738         C  5 -- C  9         +16.0% ( 63.3%)     64.8%
 TRAVEL (Ang.)       0.1261         C  7 -- C  9         +14.5% ( 60.2%)     98.3%
 REDUCED MASS        2.2691         C  4 -- C  5          +9.4% ( 48.4%)     89.1%
 EFFECTIVE MASS     11.9155
 FORCE CONSTANT      4.6645

 VIBRATION         43   43A           ATOM PAIR      ENERGY CONTRIBUTION    RADIAL
 FREQUENCY          1904.53         C  4 -- C 10         +23.4% ( 76.9%)     99.9%
 TRANSITION DIPOLE   0.1407         C  4 -- C  5         +12.2% ( 55.6%)     88.5%
 TRAVEL (Ang.)       0.1188         C  1 -- C  4         +10.1% ( 50.5%)     36.3%
 REDUCED MASS        2.5068         C  4 -- C  8          +9.7% ( 49.6%)     52.5%
 EFFECTIVE MASS     11.9053
 FORCE CONSTANT      5.3574

 VIBRATION         44   44A           ATOM PAIR      ENERGY CONTRIBUTION    RADIAL
 FREQUENCY          1933.13         C  3 -- C  6         +31.7% ( 85.0%)     99.6%
 TRANSITION DIPOLE   0.6091         C  3 -- C  5         +12.9% ( 54.2%)     45.1%
 TRAVEL (Ang.)       0.0978         C  1 -- C  3         +12.7% ( 53.9%)     50.6%
 REDUCED MASS        3.6461         C  4 -- C 10          +9.6% ( 46.9%)    100.0%
 EFFECTIVE MASS     11.9329
 FORCE CONSTANT      8.0279

 VIBRATION         45   45A           ATOM PAIR      ENERGY CONTRIBUTION    RADIAL
 FREQUENCY          2926.28         C  2 -- H 14         +48.9% ( 72.6%)     96.6%
 TRANSITION DIPOLE   0.0586         C  2 -- H 13         +48.9% ( 72.5%)     96.6%
 TRAVEL (Ang.)       0.2110         C  2 -- C  7          +1.1% ( 10.8%)      0.0%
 REDUCED MASS        0.5174         C  2 -- C  6          +1.1% ( 10.8%)      0.0%
 EFFECTIVE MASS      1.5339
 FORCE CONSTANT      2.6104

 VIBRATION         46   46A           ATOM PAIR      ENERGY CONTRIBUTION    RADIAL
 FREQUENCY          2978.20         C  1 -- H 12         +49.0% ( 72.5%)     96.7%
 TRANSITION DIPOLE   0.0777         C  1 -- H 11         +48.8% ( 72.4%)     96.7%
 TRAVEL (Ang.)       0.2090         C  1 -- C  4          +1.1% ( 10.8%)      0.0%
 REDUCED MASS        0.5184         C  1 -- C  3          +1.1% ( 10.8%)      0.0%
 EFFECTIVE MASS      1.5385
 FORCE CONSTANT      2.7089

 VIBRATION         47   47A           ATOM PAIR      ENERGY CONTRIBUTION    RADIAL
 FREQUENCY          3005.07         C  2 -- H 13         +48.8% ( 68.9%)     97.8%
 TRANSITION DIPOLE   0.1568         C  2 -- H 14         +48.8% ( 68.9%)     97.8%
 TRAVEL (Ang.)       0.2174         C  7 -- H 16          +0.7% (  8.2%)    100.0%
 REDUCED MASS        0.4746         C  2 -- C  7          +0.7% (  8.0%)     20.1%
 EFFECTIVE MASS      1.2804
 FORCE CONSTANT      2.5250

 VIBRATION         48   48A           ATOM PAIR      ENERGY CONTRIBUTION    RADIAL
 FREQUENCY          3048.36         C  1 -- H 11         +49.3% ( 69.4%)     97.4%
 TRANSITION DIPOLE   0.1330         C  1 -- H 12         +49.2% ( 69.3%)     97.4%
 TRAVEL (Ang.)       0.2138         C  1 -- C  3          +0.7% (  8.3%)     37.5%
 REDUCED MASS        0.4838         C  1 -- C  4          +0.7% (  8.3%)     36.3%
 EFFECTIVE MASS      1.2840
 FORCE CONSTANT      2.6490

 VIBRATION         49   49A           ATOM PAIR      ENERGY CONTRIBUTION    RADIAL
 FREQUENCY          3049.50         C  7 -- H 16         +70.7% ( 85.3%)    100.0%
 TRANSITION DIPOLE   0.3065         C  9 -- H 18         +26.3% ( 52.0%)    100.0%
 TRAVEL (Ang.)       0.1993         C  7 -- C  9          +1.1% ( 10.9%)      3.2%
 REDUCED MASS        0.5569         C  2 -- C  7          +1.0% ( 10.0%)     20.6%
 EFFECTIVE MASS      1.4662
 FORCE CONSTANT      3.0515

 VIBRATION         50   50A           ATOM PAIR      ENERGY CONTRIBUTION    RADIAL
 FREQUENCY          3069.56         C  6 -- H 15         +70.1% ( 85.0%)    100.0%
 TRANSITION DIPOLE   0.4234         C  9 -- H 18         +20.9% ( 46.4%)    100.0%
 TRAVEL (Ang.)       0.2031         C  7 -- H 16          +5.7% ( 24.3%)     99.8%
 REDUCED MASS        0.5327         C  3 -- C  6          +1.1% ( 10.9%)     40.9%
 EFFECTIVE MASS      1.5350
 FORCE CONSTANT      2.9571

 VIBRATION         51   51A           ATOM PAIR      ENERGY CONTRIBUTION    RADIAL
 FREQUENCY          3071.37         C  9 -- H 18         +49.8% ( 71.6%)    100.0%
 TRANSITION DIPOLE   0.2390         C  6 -- H 15         +26.3% ( 52.1%)    100.0%
 TRAVEL (Ang.)       0.2481         C  7 -- H 16         +19.9% ( 45.3%)     99.8%
 REDUCED MASS        0.3566         C  7 -- C  9          +1.5% ( 12.3%)     92.6%
 EFFECTIVE MASS      1.5781
 FORCE CONSTANT      1.9818

 VIBRATION         52   52A           ATOM PAIR      ENERGY CONTRIBUTION    RADIAL
 FREQUENCY          3129.41         C  8 -- H 17         +96.2% ( 99.8%)    100.0%
 TRANSITION DIPOLE   0.4676         C  5 -- C  8          +1.8% ( 13.7%)     48.4%
 TRAVEL (Ang.)       0.1526         C  4 -- C  8          +1.7% ( 13.2%)     26.6%
 REDUCED MASS        0.9256         C 10 -- H 20          +0.1% (  3.5%)     96.7%
 EFFECTIVE MASS      1.5591
 FORCE CONSTANT      5.3408

 VIBRATION         53   53A           ATOM PAIR      ENERGY CONTRIBUTION    RADIAL
 FREQUENCY          3142.43         C 10 -- H 20         +62.4% ( 79.0%)     97.2%
 TRANSITION DIPOLE   0.4267         C 10 -- H 19         +35.8% ( 59.9%)     91.8%
 TRAVEL (Ang.)       0.2041         C  4 -- C 10          +1.5% ( 12.2%)     97.4%
 REDUCED MASS        0.5153         C  8 -- H 17          +0.2% (  4.6%)     99.8%
 EFFECTIVE MASS      1.3886
 FORCE CONSTANT      2.9978

 VIBRATION         54   54A           ATOM PAIR      ENERGY CONTRIBUTION    RADIAL
 FREQUENCY          3147.69         C 10 -- H 19         +62.1% ( 80.7%)     98.3%
 TRANSITION DIPOLE   0.2042         C 10 -- H 20         +36.6% ( 62.0%)     95.1%
 TRAVEL (Ang.)       0.1948         C  4 -- C 10          +1.3% ( 11.7%)      1.4%
 REDUCED MASS        0.5647
 EFFECTIVE MASS      1.6023
 FORCE CONSTANT      3.2964

      SYMMETRY NUMBER FOR POINT-GROUP C1  =  1


          SYSTEM IS A GROUND STATE



 InChI=1S/C10H10/c1-8-6-9-4-2-3-5-10(9)7-8/h2,4-6H,1,3,7H2


          MOLECULE IS NOT LINEAR

          THERE ARE 54 GENUINE VIBRATIONS IN THIS SYSTEM
          THIS THERMODYNAMICS CALCULATION IS LIMITED TO
          MOLECULES WHICH HAVE NO INTERNAL ROTATIONS




                    CALCULATED THERMODYNAMIC PROPERTIES
                                          *
   TEMP. (K)   PARTITION FUNCTION   H.O.F.    ENTHALPY  HEAT CAPACITY ENTROPY
                                   KCAL/MOL   CAL/MOLE    CAL/K/MOL  CAL/K/MOL


 298.00  VIB.     0.4002D+02                  3323.2766    26.9656    18.4837
         ROT.     0.5254D+06                   888.2803     2.9808    29.1559
         INT.     0.2103D+08                  4211.5569    29.9464    47.6396
         TRA.     0.1436D+28                  1480.4672     4.9680    40.5022
         TOT.                       54.258    5692.0241    34.9144    88.1418

 200.00  VIB.     0.7270D+01                  1260.1452    15.3296    10.2428
         ROT.     0.2889D+06                   596.1613     2.9808    27.9673
         INT.     0.2100D+07                  1856.3065    18.3104    38.2101
         TRA.     0.7896D+27                   993.6021     4.9680    38.5210
         TOT.                       51.416    2849.9086    23.2784    76.7311

 210.00  VIB.     0.8533D+01                  1418.9998    16.4457    11.0176
         ROT.     0.3108D+06                   625.9693     2.9808    28.1127
         INT.     0.2652D+07                  2044.9692    19.4265    39.1303
         TRA.     0.8496D+27                  1043.2822     4.9680    38.7634
         TOT.                       51.654    3088.2514    24.3945    77.8937

 220.00  VIB.     0.1005D+02                  1589.1409    17.5864    11.8089
         ROT.     0.3332D+06                   655.7774     2.9808    28.2514
         INT.     0.3349D+07                  2244.9183    20.5672    40.0603
         TRA.     0.9110D+27                  1092.9623     4.9680    38.9945
         TOT.                       51.904    3337.8807    25.5352    79.0548

 230.00  VIB.     0.1187D+02                  1770.7997    18.7487    12.6162
         ROT.     0.3562D+06                   685.5855     2.9808    28.3839
         INT.     0.4230D+07                  2456.3852    21.7295    41.0001
         TRA.     0.9738D+27                  1142.6424     4.9680    39.2154
         TOT.                       52.165    3599.0276    26.6975    80.2155

 240.00  VIB.     0.1408D+02                  1964.1761    19.9294    13.4390
         ROT.     0.3797D+06                   715.3935     2.9808    28.5107
         INT.     0.5344D+07                  2679.5696    22.9102    41.9498
         TRA.     0.1038D+28                  1192.3226     4.9680    39.4268
         TOT.                       52.438    3871.8922    27.8782    81.3766

 250.00  VIB.     0.1674D+02                  2169.4366    21.1250    14.2768
         ROT.     0.4037D+06                   745.2016     2.9808    28.6324
         INT.     0.6756D+07                  2914.6382    24.1058    42.9092
         TRA.     0.1103D+28                  1242.0027     4.9680    39.6296
         TOT.                       52.723    4156.6408    29.0738    82.5388

 260.00  VIB.     0.1996D+02                  2386.7136    22.3321    15.1288
         ROT.     0.4281D+06                   775.0097     2.9808    28.7493
         INT.     0.8546D+07                  3161.7232    25.3129    43.8781
         TRA.     0.1170D+28                  1291.6828     4.9680    39.8245
         TOT.                       53.020    4453.4060    30.2809    83.7026

 270.00  VIB.     0.2388D+02                  2616.1050    23.5473    15.9944
         ROT.     0.4531D+06                   804.8177     2.9808    28.8618
         INT.     0.1082D+08                  3420.9227    26.5281    44.8562
         TRA.     0.1239D+28                  1341.3629     4.9680    40.0120
         TOT.                       53.328    4762.2856    31.4961    84.8682

 280.00  VIB.     0.2864D+02                  2857.6754    24.7673    16.8728
         ROT.     0.4785D+06                   834.6258     2.9808    28.9702
         INT.     0.1370D+08                  3692.3012    27.7481    45.8430
         TRA.     0.1308D+28                  1391.0430     4.9680    40.1926
         TOT.                       53.649    5083.3442    32.7161    86.0357

 290.00  VIB.     0.3446D+02                  3111.4570    25.9890    17.7632
         ROT.     0.5043D+06                   864.4339     2.9808    29.0748
         INT.     0.1738D+08                  3975.8909    28.9698    46.8381
         TRA.     0.1379D+28                  1440.7231     4.9680    40.3670
         TOT.                       53.983    5416.6140    33.9378    87.2050

 300.00  VIB.     0.4156D+02                  3377.4517    27.2095    18.6649
         ROT.     0.5307D+06                   894.2419     2.9808    29.1759
         INT.     0.2206D+08                  4271.6936    30.1903    47.8408
         TRA.     0.1451D+28                  1490.4032     4.9680    40.5354
         TOT.                       54.328    5762.0968    35.1583    88.3761

 310.00  VIB.     0.5027D+02                  3655.6328    28.4259    19.5769
         ROT.     0.5574D+06                   924.0500     2.9808    29.2736
         INT.     0.2802D+08                  4579.6828    31.4067    48.8505
         TRA.     0.1524D+28                  1540.0833     4.9680    40.6983
         TOT.                       54.686    6119.7661    36.3747    89.5488

 320.00  VIB.     0.6095D+02                  3945.9479    29.6359    20.4985
         ROT.     0.5846D+06                   953.8580     2.9808    29.3683
         INT.     0.3563D+08                  4899.8059    32.6167    49.8668
         TRA.     0.1598D+28                  1589.7634     4.9680    40.8560
         TOT.                       55.056    6489.5694    37.5847    90.7228

 330.00  VIB.     0.7408D+02                  4248.3208    30.8371    21.4289
         ROT.     0.6122D+06                   983.6661     2.9808    29.4600
         INT.     0.4535D+08                  5231.9869    33.8179    50.8889
         TRA.     0.1674D+28                  1639.4435     4.9680    41.0089
         TOT.                       55.438    6871.4304    38.7859    91.8978

 340.00  VIB.     0.9025D+02                  4562.6544    32.0277    22.3672
         ROT.     0.6403D+06                  1013.4742     2.9808    29.5490
         INT.     0.5778D+08                  5576.1286    35.0085    51.9161
         TRA.     0.1750D+28                  1689.1236     4.9680    41.1572
         TOT.                       55.831    7265.2522    39.9765    93.0734

 350.00  VIB.     0.1102D+03                  4888.8328    33.2058    23.3126
         ROT.     0.6687D+06                  1043.2822     2.9808    29.6354
         INT.     0.7369D+08                  5932.1150    36.1866    52.9480
         TRA.     0.1828D+28                  1738.8037     4.9680    41.3012
         TOT.                       56.237    7670.9187    41.1546    94.2492

 360.00  VIB.     0.1349D+03                  5226.7239    34.3700    24.2644
         ROT.     0.6976D+06                  1073.0903     2.9808    29.7193
         INT.     0.9407D+08                  6299.8142    37.3508    53.9837
         TRA.     0.1907D+28                  1788.4838     4.9680    41.4412
         TOT.                       56.654    8088.2981    42.3188    95.4249

 370.00  VIB.     0.1654D+03                  5576.1818    35.5189    25.2218
         ROT.     0.7268D+06                  1102.8984     2.9808    29.8010
         INT.     0.1202D+09                  6679.0801    38.4998    55.0228
         TRA.     0.1987D+28                  1838.1639     4.9680    41.5773
         TOT.                       57.083    8517.2441    43.4678    96.6001

 380.00  VIB.     0.2032D+03                  5937.0485    36.6516    26.1841
         ROT.     0.7565D+06                  1132.7064     2.9808    29.8805
         INT.     0.1537D+09                  7069.7549    39.6324    56.0646
         TRA.     0.2068D+28                  1887.8440     4.9680    41.7098
         TOT.                       57.524    8957.5990    44.6004    97.7744

 390.00  VIB.     0.2501D+03                  6309.1563    37.7670    27.1506
         ROT.     0.7866D+06                  1162.5145     2.9808    29.9579
         INT.     0.1967D+09                  7471.6708    40.7479    57.1085
         TRA.     0.2150D+28                  1937.5242     4.9680    41.8388
         TOT.                       57.975    9409.1950    45.7159    98.9474

 400.00  VIB.     0.3085D+03                  6692.3297    38.8646    28.1207
         ROT.     0.8170D+06                  1192.3226     2.9808    30.0334
         INT.     0.2520D+09                  7884.6522    41.8454    58.1541
         TRA.     0.2233D+28                  1987.2043     4.9680    41.9646
         TOT.                       58.438    9871.8565    46.8134   100.1187

   *: NOTE: HEATS OF FORMATION ARE RELATIVE TO THE
            ELEMENTS IN THEIR STANDARD STATE AT 298K
              (=  Standard Enthalpy of Formation).

            Hvib:  Zero-point energy is not included.
                   frequencies of less than zero cm-1 are not included.
            Hrot = (3/2)RT
            Htra = (3/2)RT + pV = (5/2)RT

            Heat capacity is Cp, not Cv

          For more information, see: HTTP://OpenMOPAC.net/Manual/thermochemistry.html


           FORCE CONSTANT IN CARTESIAN COORDINATES (Millidynes/A)

    ATOM   CHEMICAL       X               Y               Z
   NUMBER   SYMBOL  FORCE CONSTANT  FORCE CONSTANT  FORCE CONSTANT

      1       C        8.406263        9.192182        7.945808
      2       C        9.078160        9.097515        7.612924
      3       C       14.172136       12.162011        2.524252
      4       C       16.840932        8.736938        2.552778
      5       C       16.341258       10.728792        2.352110
      6       C       12.695980       12.115702        2.330003
      7       C       13.239466       11.254096        2.386037
      8       C       12.509188       12.588796        2.126730
      9       C       13.279767       12.311094        2.213485
     10       C       15.118896        9.342265        1.907713
     11       H        0.942365        1.822769        3.552026
     12       H        0.942819        1.815874        3.558002
     13       H        1.555179        1.160087        3.434551
     14       H        1.554091        1.160705        3.434883
     15       H        0.799083        5.115236        0.343048
     16       H        4.532070        1.365240        0.345775
     17       H        0.843587        5.223450        0.337144
     18       H        0.783558        5.110555        0.345393
     19       H        2.881846        3.228033        0.324080
     20       H        1.320845        4.790175        0.327385

 **********************
 *                    *
 * JOB ENDED NORMALLY *
 *                    *
 **********************



 TOTAL JOB TIME:             1.90 SECONDS

 == MOPAC DONE ==
