 *******************************************************************************
 **                                                                           **
 **                              MOPAC v23.1.2                                **
 **                                                                           **
 *******************************************************************************
 **          Digital Object Identifier (DOI): 10.5281/zenodo.6511958          **
 **    Visit the DOI location for information on how to cite this program.    **
 *******************************************************************************

                              PM3 CALCULATION RESULTS

 *******************************************************************************
 *  CALCULATION DONE: (MAX THREADS = 1)              Tue Jun  3 16:34:23 2025  *
 *  PM3        - The PM3 Hamiltonian to be used
 *  PRECISE    - TIGHTER CRITERIA TO BE USED
 *  NOSYM      - POINT-GROUP SYMMETRY SET TO C1
 *  THREADS=1  - MULTI-THREADING NOT USED
 *  T=         - A TIME OF 172800.0 SECONDS REQUESTED
 *  DUMP=N     - RESTART FILE WRITTEN EVERY 7200.0 SECONDS REQUESTED
 *******************************************************************************
pm3  precise nosym THREADS=1
 InChI=1S/C7H6/c1-2-7-5-3-4-6-7/h1,3-5H,6H2

   ATOM   CHEMICAL          X               Y               Z
  NUMBER   SYMBOL      (ANGSTROMS)     (ANGSTROMS)     (ANGSTROMS)

     1       C         -0.37860000  *  -1.09760000  *   0.00070000  *
     2       C          0.46340000  *   0.11060000  *  -0.24050000  *
     3       C         -1.74810000  *  -0.51810000  *  -0.14090000  *
     4       C         -0.28610000  *   1.17500000  *  -0.47480000  *
     5       C         -1.68040000  *   0.77620000  *  -0.41150000  *
     6       C          1.90110000  *   0.12280000  *  -0.22210000  *
     7       C          3.10640000  *   0.13220000  *  -0.20640000  *
     8       H         -0.22210000  *  -1.49540000  *   1.02570000  *
     9       H         -0.19580000  *  -1.87290000  *  -0.77330000  *
    10       H         -2.67240000  *  -1.07120000  *  -0.03840000  *
    11       H          0.08100000  *   2.17280000  *  -0.67880000  *
    12       H         -2.53300000  *   1.42530000  *  -0.56020000  *
    13       H          4.16460000  *   0.14050000  *  -0.19270000  *



          CARTESIAN COORDINATES 

    NO.       ATOM           X           Y           Z

     1         C         -0.3786     -1.0976      0.0007
     2         C          0.4634      0.1106     -0.2405
     3         C         -1.7481     -0.5181     -0.1409
     4         C         -0.2861      1.1750     -0.4748
     5         C         -1.6804      0.7762     -0.4115
     6         C          1.9011      0.1228     -0.2221
     7         C          3.1064      0.1322     -0.2064
     8         H         -0.2221     -1.4954      1.0257
     9         H         -0.1958     -1.8729     -0.7733
    10         H         -2.6724     -1.0712     -0.0384
    11         H          0.0810      2.1728     -0.6788
    12         H         -2.5330      1.4253     -0.5602
    13         H          4.1646      0.1405     -0.1927

  H: (PM3): J. J. P. STEWART, J. COMP. CHEM. 10, 209 (1989).
  C: (PM3): J. J. P. STEWART, J. COMP. CHEM. 10, 209 (1989).

           Empirical Formula: C7 H6  =    13 atoms



      MOLECULAR POINT GROUP   :   C1  


      RHF CALCULATION, NO. OF DOUBLY OCCUPIED LEVELS = 17


          Geometry optimization using EF

          DIAGONAL MATRIX USED AS START HESSIAN

 CYCLE:     1 TIME:   0.004 TIME LEFT:  2.00D  GRAD.:   138.513 HEAT:  86.20506
 CYCLE:     2 TIME:   0.008 TIME LEFT:  2.00D  GRAD.:    54.682 HEAT:  83.59857
 CYCLE:     3 TIME:   0.004 TIME LEFT:  2.00D  GRAD.:    56.138 HEAT:  83.08535
 CYCLE:     4 TIME:   0.008 TIME LEFT:  2.00D  GRAD.:    53.879 HEAT:  82.69064
 CYCLE:     5 TIME:   0.008 TIME LEFT:  2.00D  GRAD.:    53.208 HEAT:  82.57199
 CYCLE:     6 TIME:   0.004 TIME LEFT:  2.00D  GRAD.:    28.445 HEAT:  82.32226
 CYCLE:     7 TIME:   0.004 TIME LEFT:  2.00D  GRAD.:    27.121 HEAT:  82.28904
 CYCLE:     8 TIME:   0.004 TIME LEFT:  2.00D  GRAD.:    20.472 HEAT:  82.14922
 CYCLE:     9 TIME:   0.008 TIME LEFT:  2.00D  GRAD.:    12.837 HEAT:  82.06952
 CYCLE:    10 TIME:   0.004 TIME LEFT:  2.00D  GRAD.:    11.167 HEAT:  82.04490
 CYCLE:    11 TIME:   0.004 TIME LEFT:  2.00D  GRAD.:     7.825 HEAT:  82.02060
 CYCLE:    12 TIME:   0.004 TIME LEFT:  2.00D  GRAD.:     6.973 HEAT:  81.99193
 CYCLE:    13 TIME:   0.004 TIME LEFT:  2.00D  GRAD.:     3.471 HEAT:  81.96368
 CYCLE:    14 TIME:   0.004 TIME LEFT:  2.00D  GRAD.:     3.176 HEAT:  81.95038
 CYCLE:    15 TIME:   0.004 TIME LEFT:  2.00D  GRAD.:     2.680 HEAT:  81.94499
 CYCLE:    16 TIME:   0.008 TIME LEFT:  2.00D  GRAD.:     2.466 HEAT:  81.93858
 CYCLE:    17 TIME:   0.004 TIME LEFT:  2.00D  GRAD.:     2.212 HEAT:  81.92621
 CYCLE:    18 TIME:   0.004 TIME LEFT:  2.00D  GRAD.:     2.818 HEAT:  81.91395
 CYCLE:    19 TIME:   0.004 TIME LEFT:  2.00D  GRAD.:     3.741 HEAT:  81.90093
 CYCLE:    20 TIME:   0.004 TIME LEFT:  2.00D  GRAD.:     2.894 HEAT:  81.88569
 CYCLE:    21 TIME:   0.004 TIME LEFT:  2.00D  GRAD.:     2.976 HEAT:  81.87580
 CYCLE:    22 TIME:   0.004 TIME LEFT:  2.00D  GRAD.:     2.056 HEAT:  81.87128
 CYCLE:    23 TIME:   0.008 TIME LEFT:  2.00D  GRAD.:     1.103 HEAT:  81.86841
 CYCLE:    24 TIME:   0.004 TIME LEFT:  2.00D  GRAD.:     0.974 HEAT:  81.86643
 CYCLE:    25 TIME:   0.004 TIME LEFT:  2.00D  GRAD.:     0.859 HEAT:  81.86452
 CYCLE:    26 TIME:   0.004 TIME LEFT:  2.00D  GRAD.:     0.543 HEAT:  81.86359
 CYCLE:    27 TIME:   0.004 TIME LEFT:  2.00D  GRAD.:     0.391 HEAT:  81.86335
 CYCLE:    28 TIME:   0.004 TIME LEFT:  2.00D  GRAD.:     0.259 HEAT:  81.86318
 CYCLE:    29 TIME:   0.004 TIME LEFT:  2.00D  GRAD.:     0.161 HEAT:  81.86301
 CYCLE:    30 TIME:   0.008 TIME LEFT:  2.00D  GRAD.:     0.134 HEAT:  81.86296
 CYCLE:    31 TIME:   0.004 TIME LEFT:  2.00D  GRAD.:     0.138 HEAT:  81.86291
 CYCLE:    32 TIME:   0.004 TIME LEFT:  2.00D  GRAD.:     0.148 HEAT:  81.86286
 CYCLE:    33 TIME:   0.004 TIME LEFT:  2.00D  GRAD.:     0.150 HEAT:  81.86279
 CYCLE:    34 TIME:   0.012 TIME LEFT:  2.00D  GRAD.:     0.106 HEAT:  81.86276
 CYCLE:    35 TIME:   0.004 TIME LEFT:  2.00D  GRAD.:     0.091 HEAT:  81.86272
 CYCLE:    36 TIME:   0.004 TIME LEFT:  2.00D  GRAD.:     0.094 HEAT:  81.86271
 CYCLE:    37 TIME:   0.004 TIME LEFT:  2.00D  GRAD.:     0.135 HEAT:  81.86269
 CYCLE:    38 TIME:   0.004 TIME LEFT:  2.00D  GRAD.:     0.060 HEAT:  81.86266
 CYCLE:    39 TIME:   0.008 TIME LEFT:  2.00D  GRAD.:     0.033 HEAT:  81.86266

     GRADIENT =  0.03282 IS LESS THAN CUTOFF =  0.05000



 -------------------------------------------------------------------------------
 pm3  precise nosym THREADS=1
 InChI=1S/C7H6/c1-2-7-5-3-4-6-7/h1,3-5H,6H2



     GEOMETRY OPTIMISED USING EIGENVECTOR FOLLOWING (EF).     
     SCF FIELD WAS ACHIEVED                                   


                              PM3 CALCULATION
                                                       MOPAC v23.1.2 MacOS
                                                       Tue Jun  3 16:34:23 2025




          FINAL HEAT OF FORMATION =         81.86266 KCAL/MOL =     342.51335 KJ/MOL


          COSMO AREA              =        139.68 SQUARE ANGSTROMS
          COSMO VOLUME            =        127.60 CUBIC ANGSTROMS

          GRADIENT NORM           =          0.03282          =       0.00910 PER ATOM
          IONIZATION POTENTIAL    =          8.977309 EV
          HOMO LUMO ENERGIES (EV) =         -8.977 -0.155
          NO. OF FILLED LEVELS    =         17
          MOLECULAR WEIGHT        =         90.1244         POINT GROUP:  C1  

          MOLECULAR DIMENSIONS (Angstroms)

            Atom       Atom       Distance
            H    13    H    10     6.89556
            H    11    H     8     4.02432
            H     9    H    11     1.73447


          SCF CALCULATIONS        =         45

          WALL-CLOCK TIME         =      0.207 SECONDS
          COMPUTATION TIME        =      0.097 SECONDS




   ATOM   CHEMICAL          X               Y               Z
  NUMBER   SYMBOL      (ANGSTROMS)     (ANGSTROMS)     (ANGSTROMS)

     1       C         -0.35359565  *  -1.07863583  *  -0.00274341  *
     2       C          0.49371635  *   0.14454914  *  -0.24723171  *
     3       C         -1.74827707  *  -0.53884228  *  -0.13621469  *
     4       C         -0.30821106  *   1.21728081  *  -0.48435991  *
     5       C         -1.70239420  *   0.78491347  *  -0.41386141  *
     6       C          1.89746098  *   0.11200155  *  -0.21985684  *
     7       C          3.08989859  *   0.08542247  *  -0.19674591  *
     8       H         -0.17432563  *  -1.50992098  *   0.99891584  *
     9       H         -0.14923831  *  -1.87465637  *  -0.74170830  *
    10       H         -2.63018889  *  -1.16426739  *  -0.01733108  *
    11       H         -0.00209267  *   2.24016041  *  -0.69475361  *
    12       H         -2.54404233  *   1.45750286  *  -0.56765331  *
    13       H          4.15360890  *   0.06194502  *  -0.17613523  *

                             CARTESIAN COORDINATES

   1    C       -0.353595652    -1.078635833    -0.002743406
   2    C        0.493716350     0.144549139    -0.247231707
   3    C       -1.748277074    -0.538842283    -0.136214689
   4    C       -0.308211063     1.217280814    -0.484359908
   5    C       -1.702394198     0.784913474    -0.413861407
   6    C        1.897460976     0.112001554    -0.219856842
   7    C        3.089898595     0.085422473    -0.196745907
   8    H       -0.174325630    -1.509920978     0.998915838
   9    H       -0.149238309    -1.874656373    -0.741708298
  10    H       -2.630188894    -1.164267388    -0.017331080
  11    H       -0.002092673     2.240160411    -0.694753612
  12    H       -2.544042331     1.457502861    -0.567653308
  13    H        4.153608899     0.061945020    -0.176135233


           Empirical Formula: C7 H6  =    13 atoms



      MOLECULAR POINT GROUP   :   C1  


                  EIGENVALUES  
 -39.78752 -31.81095 -27.52196 -26.73185 -20.65112 -19.09165 -18.44418 -17.45383
 -15.19541 -14.59512 -13.94781 -13.66832 -12.98425 -12.23002 -11.16902 -10.87213
  -8.97731  -0.15510   1.53481   1.77461   2.59679   2.74679   3.27973   3.41939
   3.76690   3.81962   4.15206   4.22449   4.33549   4.66753   5.44655   5.67878
   5.96969   6.78285


              NET ATOMIC CHARGES AND DIPOLE CONTRIBUTIONS

  ATOM NO.   TYPE          CHARGE      No. of ELECS.   s-Pop       p-Pop       
    1          C          -0.038179        4.0382     1.14386     2.89432
    2          C          -0.014844        4.0148     1.15243     2.86241
    3          C          -0.156444        4.1564     1.20765     2.94879
    4          C          -0.096862        4.0969     1.19044     2.90642
    5          C          -0.122410        4.1224     1.19172     2.93069
    6          C          -0.117871        4.1179     1.17568     2.94219
    7          C          -0.173179        4.1732     1.21076     2.96242
    8          H           0.086106        0.9139     0.91389
    9          H           0.086099        0.9139     0.91390
   10          H           0.116543        0.8835     0.88346
   11          H           0.119450        0.8806     0.88055
   12          H           0.115645        0.8844     0.88435
   13          H           0.195945        0.8041     0.80406
 DIPOLE           X         Y         Z       TOTAL
 POINT-CHG.    -0.268    -0.468     0.094     0.548
 HYBRID         0.165    -0.021     0.007     0.167
 SUM           -0.103    -0.489     0.101     0.510


          ATOMIC ORBITAL ELECTRON POPULATIONS

     Atom    s        px        py        pz   
    1  C   1.14386   0.92353   0.95948   1.01131
    2  C   1.15243   0.87688   0.96223   1.02330
    3  C   1.20765   0.97065   0.96717   1.01098
    4  C   1.19044   0.93440   0.97234   0.99968
    5  C   1.19172   0.95966   0.95850   1.01254
    6  C   1.17568   0.93469   1.00247   1.00503
    7  C   1.21076   0.95580   1.00386   1.00277
    8  H   0.91389
    9  H   0.91390
   10  H   0.88346
   11  H   0.88055
   12  H   0.88435
   13  H   0.80406
 *******************************************************************************
 **                                                                           **
 **                              MOPAC v23.1.2                                **
 **                                                                           **
 *******************************************************************************
 **          Digital Object Identifier (DOI): 10.5281/zenodo.6511958          **
 **    Visit the DOI location for information on how to cite this program.    **
 *******************************************************************************

                              PM3 CALCULATION RESULTS

 *******************************************************************************
 *  CALCULATION DONE: (MAX THREADS = 1)              Tue Jun  3 16:34:23 2025  *
 *  PM3        - The PM3 Hamiltonian to be used
 *  OLDGEO     - PREVIOUS GEOMETRY TO BE USED
 *  PRECISE    - TIGHTER CRITERIA TO BE USED
 *  NOSYM      - POINT-GROUP SYMMETRY SET TO C1
 *  THREADS=1  - MULTI-THREADING NOT USED
 *  T=         - A TIME OF 172800.0 SECONDS REQUESTED
 *  DUMP=N     - RESTART FILE WRITTEN EVERY 7200.0 SECONDS REQUESTED
 *  THERMO     - THERMODYNAMIC QUANTITIES TO BE CALCULATED
 *******************************************************************************
oldgeo thermo nosym precise THREADS=1  pm3
 InChI=1S/C7H6/c1-2-7-5-3-4-6-7/h1,3-5H,6H2

   ATOM   CHEMICAL          X               Y               Z
  NUMBER   SYMBOL      (ANGSTROMS)     (ANGSTROMS)     (ANGSTROMS)

     1       C         -0.35359565  *  -1.07863583  *  -0.00274341  *
     2       C          0.49371635  *   0.14454914  *  -0.24723171  *
     3       C         -1.74827707  *  -0.53884228  *  -0.13621469  *
     4       C         -0.30821106  *   1.21728081  *  -0.48435991  *
     5       C         -1.70239420  *   0.78491347  *  -0.41386141  *
     6       C          1.89746098  *   0.11200155  *  -0.21985684  *
     7       C          3.08989859  *   0.08542247  *  -0.19674591  *
     8       H         -0.17432563  *  -1.50992098  *   0.99891584  *
     9       H         -0.14923831  *  -1.87465637  *  -0.74170830  *
    10       H         -2.63018889  *  -1.16426739  *  -0.01733108  *
    11       H         -0.00209267  *   2.24016041  *  -0.69475361  *
    12       H         -2.54404233  *   1.45750286  *  -0.56765331  *
    13       H          4.15360890  *   0.06194502  *  -0.17613523  *



          CARTESIAN COORDINATES 

    NO.       ATOM           X           Y           Z

     1         C         -0.3536     -1.0786     -0.0027
     2         C          0.4937      0.1445     -0.2472
     3         C         -1.7483     -0.5388     -0.1362
     4         C         -0.3082      1.2173     -0.4844
     5         C         -1.7024      0.7849     -0.4139
     6         C          1.8975      0.1120     -0.2199
     7         C          3.0899      0.0854     -0.1967
     8         H         -0.1743     -1.5099      0.9989
     9         H         -0.1492     -1.8747     -0.7417
    10         H         -2.6302     -1.1643     -0.0173
    11         H         -0.0021      2.2402     -0.6948
    12         H         -2.5440      1.4575     -0.5677
    13         H          4.1536      0.0619     -0.1761

  H: (PM3): J. J. P. STEWART, J. COMP. CHEM. 10, 209 (1989).
  C: (PM3): J. J. P. STEWART, J. COMP. CHEM. 10, 209 (1989).

           Empirical Formula: C7 H6  =    13 atoms



      MOLECULAR POINT GROUP   :   C1  


      RHF CALCULATION, NO. OF DOUBLY OCCUPIED LEVELS = 17



          HEAT OF FORMATION =      81.862657 KCALS/MOLE


          CARTESIAN COORDINATE DERIVATIVES

   NUMBER  ATOM         X            Y            Z

     1       C     -0.000849    -0.001010     0.007515
     2       C      0.000920    -0.001577     0.000112
     3       C      0.000386     0.000092     0.001364
     4       C      0.002866     0.002683    -0.001448
     5       C      0.005197    -0.004875    -0.002855
     6       C     -0.001431    -0.006899    -0.004896
     7       C      0.001995    -0.002229    -0.001110
     8       H     -0.016509    -0.006431    -0.004985
     9       H      0.007265     0.006839     0.000802
    10       H     -0.000746     0.008249     0.009331
    11       H      0.001522     0.010375     0.003290
    12       H     -0.004386    -0.005601    -0.009515
    13       H      0.003769     0.000383     0.002395



          GRADIENT NORM =   0.03317

          MOLECULAR WEIGHT =   90.12



          ROTATIONAL CONSTANTS IN CM(-1)

          A =    0.27685009   B =    0.06359647   C =    0.05222732



           PRINCIPAL MOMENTS OF INERTIA IN UNITS OF 10**(-40)*GRAM-CM**2

          A =      101.1116   B =      440.1620   C =      535.9791


          ORIENTATION OF MOLECULE IN FORCE CALCULATION

    NO.       ATOM         X         Y         Z

     1          C      -1.2775   -0.2381    0.0000
     2          C       0.2304   -0.2381    0.0000
     3          C      -1.6017    1.2279    0.0000
     4          C       0.6884    1.0427   -0.0003
     5          C      -0.4571    1.9501   -0.0004
     6          C       0.9883   -1.4204    0.0003
     7          C       1.6330   -2.4241    0.0005
     8          H      -1.6891   -0.7496    0.8891
     9          H      -1.6886   -0.7492   -0.8895
    10          H      -2.6239    1.5998    0.0004
    11          H       1.7242    1.3763   -0.0005
    12          H      -0.3595    3.0340   -0.0009
    13          H       2.2084   -3.3194    0.0008


    FIRST DERIVATIVES WILL BE USED IN THE CALCULATION OF SECOND DERIVATIVES

          ESTIMATED TIME TO COMPLETE CALCULATION =        0.61 SECONDS

    FOR POINT-GROUP C1   THERE ARE   1 UNIQUE SYMMETRY FUNCTIONS.

 STEP:   1 TIME =     0.01 SECS, INTEGRAL =      0.01 TIME LEFT: 172799.98
 STEP:   2 TIME =     0.01 SECS, INTEGRAL =      0.02 TIME LEFT: 172799.98
 STEP:   3 TIME =     0.01 SECS, INTEGRAL =      0.03 TIME LEFT: 172799.96
 STEP:   4 TIME =     0.01 SECS, INTEGRAL =      0.04 TIME LEFT: 172799.95
 STEP:   5 TIME =     0.01 SECS, INTEGRAL =      0.05 TIME LEFT: 172799.94
 STEP:   6 TIME =     0.01 SECS, INTEGRAL =      0.07 TIME LEFT: 172799.93
 STEP:   7 TIME =     0.01 SECS, INTEGRAL =      0.08 TIME LEFT: 172799.92
 STEP:   8 TIME =     0.01 SECS, INTEGRAL =      0.09 TIME LEFT: 172799.91
 STEP:   9 TIME =     0.01 SECS, INTEGRAL =      0.10 TIME LEFT: 172799.89
 STEP:  10 TIME =     0.01 SECS, INTEGRAL =      0.11 TIME LEFT: 172799.88
 STEP:  11 TIME =     0.01 SECS, INTEGRAL =      0.12 TIME LEFT: 172799.87
 STEP:  12 TIME =     0.01 SECS, INTEGRAL =      0.14 TIME LEFT: 172799.86
 STEP:  13 TIME =     0.01 SECS, INTEGRAL =      0.15 TIME LEFT: 172799.85
 STEP:  14 TIME =     0.01 SECS, INTEGRAL =      0.16 TIME LEFT: 172799.84
 STEP:  15 TIME =     0.01 SECS, INTEGRAL =      0.17 TIME LEFT: 172799.82
 STEP:  16 TIME =     0.01 SECS, INTEGRAL =      0.18 TIME LEFT: 172799.81
 STEP:  17 TIME =     0.01 SECS, INTEGRAL =      0.20 TIME LEFT: 172799.80
 STEP:  18 TIME =     0.01 SECS, INTEGRAL =      0.21 TIME LEFT: 172799.79
 STEP:  19 TIME =     0.01 SECS, INTEGRAL =      0.22 TIME LEFT: 172799.78
 STEP:  20 TIME =     0.01 SECS, INTEGRAL =      0.23 TIME LEFT: 172799.77
 STEP:  21 TIME =     0.01 SECS, INTEGRAL =      0.24 TIME LEFT: 172799.75
 STEP:  22 TIME =     0.01 SECS, INTEGRAL =      0.25 TIME LEFT: 172799.74
 STEP:  23 TIME =     0.01 SECS, INTEGRAL =      0.27 TIME LEFT: 172799.73
 STEP:  24 TIME =     0.01 SECS, INTEGRAL =      0.28 TIME LEFT: 172799.72
 STEP:  25 TIME =     0.01 SECS, INTEGRAL =      0.29 TIME LEFT: 172799.71
 STEP:  26 TIME =     0.01 SECS, INTEGRAL =      0.30 TIME LEFT: 172799.70
 STEP:  27 TIME =     0.01 SECS, INTEGRAL =      0.30 TIME LEFT: 172799.69
 STEP:  28 TIME =     0.01 SECS, INTEGRAL =      0.32 TIME LEFT: 172799.68
 STEP:  29 TIME =     0.01 SECS, INTEGRAL =      0.33 TIME LEFT: 172799.67
 STEP:  30 TIME =     0.01 SECS, INTEGRAL =      0.34 TIME LEFT: 172799.66
 STEP:  31 TIME =     0.01 SECS, INTEGRAL =      0.35 TIME LEFT: 172799.65
 STEP:  32 TIME =     0.01 SECS, INTEGRAL =      0.36 TIME LEFT: 172799.64
 STEP:  33 TIME =     0.01 SECS, INTEGRAL =      0.36 TIME LEFT: 172799.63
 STEP:  34 TIME =     0.01 SECS, INTEGRAL =      0.37 TIME LEFT: 172799.62
 STEP:  35 TIME =     0.01 SECS, INTEGRAL =      0.38 TIME LEFT: 172799.62
 STEP:  36 TIME =     0.01 SECS, INTEGRAL =      0.39 TIME LEFT: 172799.61
 STEP:  37 TIME =     0.01 SECS, INTEGRAL =      0.40 TIME LEFT: 172799.59
 STEP:  38 TIME =     0.01 SECS, INTEGRAL =      0.41 TIME LEFT: 172799.59
 STEP:  39 TIME =     0.01 SECS, INTEGRAL =      0.42 TIME LEFT: 172799.57

(To convert to Hartree/Bohr^2, multiply by (10^(-21) x N x a0^2)/(4.184 x 627.51) =  0.0642)


           FORCE MATRIX IN MILLIDYNES/ANGSTROM


                  C  1       C  2       C  3       C  4       C  5       C  6
 ------------------------------------------------------------------------------
     C    1  14.774211
     C    2   4.133720  19.373104
     C    3   4.413434   1.117046  17.836067
     C    4   1.184377   9.057638   1.634240  18.062812
     C    5   1.251125   1.629137   9.590106   5.188253  18.212523
     C    6   0.590020   7.157765   0.068328   0.982385   0.145599  25.581715
     C    7   0.039972   0.813739   0.013343   0.118623   0.034398  17.163546
     H    8   4.518792   0.428849   0.416619   0.044991   0.045705   0.009451
     H    9   4.518482   0.428716   0.416519   0.045002   0.045704   0.009468
     H   10   0.403070   0.041203   5.081649   0.101668   0.444294   0.014679
     H   11   0.106368   0.456700   0.050294   5.078522   0.417582   0.055922
     H   12   0.116214   0.048042   0.447037   0.422869   5.067998   0.009148
     H   13   0.006591   0.071946   0.003545   0.006679   0.003403   0.340584


                  C  7       H  8       H  9       H 10       H 11       H 12
 ------------------------------------------------------------------------------
     C    7  23.716537
     H    8   0.002951   5.124815
     H    9   0.002952   0.545291   5.124349
     H   10   0.002342   0.011418   0.011411   5.478642
     H   11   0.006997   0.014732   0.014739   0.005507   5.466249
     H   12   0.001754   0.015874   0.015881   0.042420   0.009681   5.457371
     H   13   5.881697   0.000971   0.000972   0.001003   0.002453   0.000870


                  H 13
 ------------------
     H   13   6.057706


          HEAT OF FORMATION =      81.862657 KCALS/MOLE

          ZERO POINT ENERGY      65.018 KCAL/MOL


           NORMAL COORDINATE ANALYSIS (Total motion = 1 Angstrom)


   Root No.       1         2         3         4         5         6         7         8

                 1 A       2 A       3 A       4 A       5 A       6 A       7 A       8 A   

                 150.9     178.2     343.4     456.5     548.3     565.6     590.6     747.1
  
           1   -0.0000   -0.0511    0.0000   -0.0000   -0.0467    0.0000   -0.0295   -0.0000
           2   -0.0000    0.0204    0.0000   -0.0000    0.0189    0.0000   -0.0573   -0.0000
           3   -0.0435   -0.0000   -0.0380   -0.0008    0.0000    0.0164    0.0000   -0.0248
           4   -0.0000   -0.0520    0.0000   -0.0000   -0.0216    0.0000   -0.0446   -0.0000
           5   -0.0000   -0.0366    0.0000    0.0000   -0.0360    0.0000    0.0195    0.0000
           6   -0.0702    0.0000    0.0410    0.0024    0.0000    0.0917    0.0001    0.0314
           7    0.0000    0.0063    0.0000   -0.0000   -0.0192   -0.0000    0.0394    0.0000
           8    0.0000    0.0356    0.0000   -0.0000    0.0397    0.0000   -0.0492   -0.0000
           9    0.0567   -0.0000    0.0420   -0.0460   -0.0000   -0.0151    0.0000   -0.0237
          10   -0.0000   -0.0044   -0.0000   -0.0000   -0.0375   -0.0000    0.0444   -0.0000
          11   -0.0000   -0.0526   -0.0000   -0.0000   -0.0338    0.0000   -0.0227    0.0000
          12   -0.0460    0.0000   -0.0305   -0.0597    0.0000   -0.0130   -0.0000   -0.0013
          13    0.0000    0.0338   -0.0000    0.0000   -0.0008   -0.0000    0.0483   -0.0000
          14    0.0000   -0.0080   -0.0000    0.0000    0.0047    0.0000   -0.0483    0.0000
          15    0.0424   -0.0000   -0.0246    0.0689    0.0000    0.0115    0.0000   -0.0294
          16   -0.0000   -0.0270    0.0000    0.0000    0.1461   -0.0000   -0.0002    0.0000
          17   -0.0000   -0.0210    0.0000    0.0000    0.0529   -0.0001    0.0999   -0.0000
          18   -0.0268    0.0000    0.0687    0.0521   -0.0000   -0.0829   -0.0001   -0.0112
          19    0.0000    0.0825    0.0000   -0.0000    0.0071    0.0000   -0.0556    0.0000
          20    0.0000    0.0492   -0.0000   -0.0000   -0.0414   -0.0000    0.0790   -0.0000
          21    0.0731   -0.0000   -0.0263   -0.0116    0.0000    0.0125   -0.0000   -0.0019
          22    0.0121   -0.0726   -0.0809   -0.0031   -0.0776   -0.1371   -0.0253    0.0050
          23   -0.0624    0.0380   -0.1019    0.0704    0.0455   -0.0435   -0.0669    0.1125
          24   -0.0742    0.0000   -0.1373    0.0399   -0.0001   -0.0763   -0.0024    0.0463
          25   -0.0122   -0.0726    0.0809    0.0031   -0.0775    0.1373   -0.0251   -0.0050
          26    0.0625    0.0379    0.1019   -0.0705    0.0455    0.0436   -0.0669   -0.1126
          27   -0.0742   -0.0000   -0.1372    0.0398    0.0000   -0.0762    0.0023    0.0463
          28    0.0000    0.0211    0.0000   -0.0000   -0.0082   -0.0001    0.0552    0.0001
          29    0.0000    0.0760    0.0000   -0.0000    0.0709   -0.0000   -0.0081    0.0000
          30    0.1238   -0.0000    0.1204   -0.1080   -0.0000   -0.0578    0.0000    0.3263
          31   -0.0000    0.0096   -0.0000   -0.0000   -0.0295   -0.0000    0.0668   -0.0000
          32   -0.0000   -0.0957   -0.0000   -0.0000   -0.0576   -0.0000   -0.0936    0.0000
          33   -0.0638    0.0000   -0.0664   -0.1781   -0.0000   -0.2083   -0.0001    0.0633
          34    0.0000    0.0773   -0.0000    0.0000    0.0483   -0.0000    0.0345    0.0000
          35    0.0000   -0.0119   -0.0000    0.0001    0.0005    0.0000   -0.0479    0.0001
          36    0.0970   -0.0000   -0.0448    0.2274    0.0000    0.0180    0.0000    0.2028
          37    0.0000    0.1787    0.0000   -0.0000   -0.1836    0.0001   -0.1321    0.0000
          38    0.0001    0.1111   -0.0000   -0.0000   -0.1651    0.0001    0.0335    0.0000
          39    0.1613   -0.0001   -0.1190   -0.0833    0.0001    0.1471    0.0001    0.0402


   Root No.       9        10        11        12        13        14        15        16

                 9 A      10 A      11 A      12 A      13 A      14 A      15 A      16 A   

                 821.3     846.2     859.3     869.7     943.2     952.0     969.4    1031.9
  
           1    0.0064    0.0000   -0.0130    0.0000   -0.0001    0.0714    0.0001   -0.0144
           2   -0.0727   -0.0000   -0.0006    0.0000   -0.0000    0.0205    0.0000   -0.0383
           3    0.0000   -0.0024   -0.0000    0.0520   -0.0414    0.0000   -0.0348   -0.0003
           4   -0.0376   -0.0000    0.0021   -0.0000    0.0000   -0.0114   -0.0000    0.0047
           5   -0.0231    0.0000    0.0017   -0.0000    0.0000   -0.0256   -0.0000    0.0077
           6   -0.0000   -0.0028    0.0000   -0.0080    0.0460   -0.0000    0.0326   -0.0021
           7    0.1073    0.0000   -0.0067    0.0000    0.0000   -0.0234   -0.0000   -0.0157
           8   -0.0196   -0.0000    0.0032   -0.0000    0.0000    0.0227    0.0000    0.0293
           9    0.0000    0.0082    0.0000   -0.0074    0.0328   -0.0000    0.0428    0.0032
          10   -0.0894   -0.0000    0.0042   -0.0000    0.0000   -0.0359   -0.0001   -0.0140
          11    0.0122   -0.0000   -0.0017   -0.0000    0.0000   -0.0450   -0.0001    0.0107
          12    0.0000   -0.0144   -0.0000   -0.0360   -0.0622   -0.0000    0.0110    0.0017
          13    0.0152    0.0000    0.0027   -0.0000    0.0000   -0.0067   -0.0000    0.0082
          14    0.1302    0.0000   -0.0119    0.0000    0.0000    0.0022   -0.0000   -0.0039
          15    0.0000    0.0034    0.0000   -0.0236    0.0283    0.0001   -0.0468   -0.0023
          16    0.0020   -0.0000    0.0605   -0.0000    0.0000   -0.0048   -0.0000   -0.0024
          17   -0.0048    0.0000    0.0385    0.0000   -0.0000    0.0214    0.0000   -0.0048
          18    0.0000    0.0585    0.0000   -0.0051   -0.0168    0.0000   -0.0086    0.0004
          19   -0.0031    0.0000   -0.0957   -0.0000    0.0000   -0.0204   -0.0000    0.0036
          20   -0.0102   -0.0000   -0.0619    0.0000   -0.0000    0.0248    0.0000   -0.0032
          21    0.0000   -0.1046   -0.0000    0.0044    0.0078   -0.0000    0.0036   -0.0002
          22   -0.0269    0.0219   -0.0217   -0.0775   -0.0009    0.1549    0.1738    0.0799
          23   -0.0626   -0.0094    0.0049   -0.1103    0.1261   -0.0193   -0.0363   -0.1363
          24   -0.0071    0.0026   -0.0010   -0.0525    0.0350    0.0136    0.0281   -0.0122
          25   -0.0269   -0.0219   -0.0217    0.0776    0.0007    0.1556   -0.1735    0.1056
          26   -0.0625    0.0094    0.0049    0.1103   -0.1262   -0.0198    0.0364   -0.1583
          27    0.0070    0.0026    0.0010   -0.0524    0.0350   -0.0135    0.0280    0.0124
          28    0.0819   -0.0000    0.0023   -0.0000   -0.0000   -0.0639   -0.0002    0.0582
          29   -0.0949   -0.0000    0.0285   -0.0000    0.0001   -0.0903   -0.0002    0.2290
          30   -0.0003   -0.0588   -0.0000   -0.0700   -0.1039    0.0003   -0.1857   -0.0077
          31   -0.0631    0.0000    0.0045   -0.0000    0.0000   -0.0065   -0.0000   -0.0476
          32   -0.0740    0.0000   -0.0022    0.0000    0.0002   -0.1448   -0.0003    0.1166
          33   -0.0001    0.0694    0.0000    0.2596    0.2487    0.0003   -0.0644   -0.0040
          34   -0.0140   -0.0000    0.0117    0.0001   -0.0001    0.1402    0.0003    0.1607
          35    0.1350    0.0000   -0.0129    0.0001   -0.0000   -0.0116    0.0001   -0.0158
          36   -0.0003    0.0013    0.0000    0.2205   -0.1276   -0.0005    0.2027    0.0062
          37    0.0382   -0.0001    0.5711   -0.0000    0.0000   -0.0100   -0.0000    0.0000
          38    0.0159    0.0001    0.3665    0.0000   -0.0000    0.0347    0.0001   -0.0061
          39   -0.0000    0.6281    0.0000   -0.0240   -0.0226    0.0000   -0.0078    0.0002


   Root No.      17        18        19        20        21        22        23        24

                17 A      18 A      19 A      20 A      21 A      22 A      23 A      24 A   

                1032.4    1078.5    1123.5    1199.1    1280.8    1360.7    1405.8    1426.4
  
           1   -0.0011    0.0059    0.0354   -0.0263    0.0414    0.0165    0.0404   -0.0949
           2   -0.0030    0.0009    0.0178    0.0234   -0.0546    0.0826   -0.0533   -0.0022
           3    0.0052    0.0000   -0.0000    0.0000    0.0000    0.0000   -0.0000    0.0000
           4    0.0004    0.0093    0.0004   -0.0303    0.0344    0.0135   -0.0416    0.1519
           5    0.0006   -0.0090   -0.0287   -0.0115   -0.0274    0.0014    0.0338   -0.0208
           6    0.0341   -0.0000    0.0000    0.0000   -0.0000   -0.0000   -0.0000   -0.0000
           7   -0.0012    0.0122    0.0248    0.0107   -0.0271    0.0171   -0.0154    0.0173
           8    0.0023   -0.0121   -0.0158    0.0194    0.0681   -0.0274    0.0690    0.0251
           9   -0.0513    0.0000   -0.0000   -0.0000   -0.0000   -0.0000   -0.0000   -0.0000
          10   -0.0011   -0.0209   -0.0360    0.0186    0.0285   -0.0414   -0.0698   -0.0637
          11    0.0008   -0.0013   -0.0212   -0.0203   -0.0415    0.0159    0.0795   -0.0108
          12   -0.0268    0.0000    0.0000    0.0000    0.0000    0.0000   -0.0000    0.0000
          13    0.0007    0.0091    0.0040    0.0220   -0.0081    0.0160    0.0964    0.0276
          14   -0.0003   -0.0146   -0.0245    0.0030    0.0219   -0.0278   -0.0827   -0.0181
          15    0.0361   -0.0000    0.0000   -0.0000   -0.0000    0.0000    0.0000    0.0000
          16   -0.0002   -0.0046   -0.0040    0.0072   -0.0074   -0.0006   -0.0007   -0.0142
          17   -0.0004    0.0050    0.0106    0.0023    0.0076    0.0001   -0.0074    0.0023
          18   -0.0067    0.0000   -0.0000   -0.0000    0.0000    0.0000    0.0000    0.0000
          19    0.0003   -0.0061   -0.0123    0.0008   -0.0151   -0.0004    0.0152   -0.0221
          20   -0.0002    0.0101    0.0177   -0.0046    0.0246    0.0010   -0.0232    0.0398
          21    0.0024   -0.0000   -0.0000    0.0000   -0.0000   -0.0000    0.0000   -0.0000
          22    0.2142   -0.0844    0.0194    0.1140   -0.1736   -0.1262   -0.0316    0.0716
          23   -0.1894    0.0790    0.0816   -0.0943   -0.0540   -0.2216    0.0510    0.0032
          24   -0.0026    0.0029    0.0250   -0.0017   -0.0887   -0.2138    0.0234    0.0683
          25   -0.1999   -0.0841    0.0194    0.1139   -0.1735   -0.1264   -0.0316    0.0716
          26    0.1667    0.0788    0.0815   -0.0941   -0.0541   -0.2217    0.0509    0.0033
          27   -0.0007   -0.0029   -0.0249    0.0017    0.0886    0.2137   -0.0234   -0.0682
          28    0.0046   -0.0309    0.1137   -0.0589   -0.0604    0.0268   -0.0822   -0.0312
          29    0.0178   -0.1328    0.2192   -0.1710   -0.0134   -0.0099   -0.1174   -0.1059
          30    0.1223    0.0000   -0.0001    0.0000    0.0000   -0.0000    0.0000    0.0000
          31   -0.0038   -0.1025   -0.0889   -0.0534   -0.0065   -0.0204   -0.0237   -0.0335
          32    0.0091    0.2514    0.1325    0.2057    0.0729   -0.0626   -0.0752   -0.1206
          33    0.0637   -0.0001   -0.0000   -0.0000   -0.0000    0.0000    0.0000    0.0000
          34    0.0127    0.2526   -0.1971   -0.1530   -0.1231    0.0010   -0.1414   -0.0744
          35   -0.0013   -0.0368   -0.0090    0.0189    0.0349   -0.0304   -0.0670   -0.0104
          36   -0.0985   -0.0000    0.0000    0.0000    0.0000    0.0000    0.0001    0.0000
          37   -0.0000   -0.0077   -0.0129    0.0032   -0.0180   -0.0007    0.0172   -0.0272
          38   -0.0005    0.0107    0.0204   -0.0038    0.0284    0.0010   -0.0287    0.0480
          39   -0.0025   -0.0000   -0.0000    0.0000   -0.0000   -0.0000    0.0000   -0.0000


   Root No.      25        26        27        28        29        30        31        32

                25 A      26 A      27 A      28 A      29 A      30 A      31 A      32 A   

                1735.6    1804.7    2337.8    2985.6    3053.5    3132.3    3140.2    3152.3
  
           1    0.0002    0.0070   -0.0019   -0.0000    0.0263   -0.0000    0.0006   -0.0013
           2    0.0119   -0.0045   -0.0001   -0.0000    0.0328    0.0003    0.0005   -0.0017
           3   -0.0000    0.0000   -0.0000   -0.0610   -0.0000    0.0000    0.0000    0.0000
           4    0.0090    0.0238    0.0409   -0.0000    0.0008   -0.0001    0.0012    0.0004
           5   -0.1033    0.1886   -0.0777   -0.0000    0.0004   -0.0004    0.0039   -0.0024
           6    0.0000   -0.0000    0.0000   -0.0003   -0.0000    0.0000   -0.0000    0.0000
           7   -0.1526   -0.0546   -0.0011   -0.0000   -0.0009   -0.0236   -0.0241   -0.0355
           8   -0.1076   -0.0518    0.0020   -0.0000    0.0011    0.0096    0.0074    0.0091
           9    0.0001    0.0000   -0.0000   -0.0003   -0.0000    0.0000    0.0000    0.0000
          10    0.0106   -0.0453    0.0047   -0.0000    0.0005    0.0112   -0.0503    0.0177
          11    0.0573   -0.1528    0.0084    0.0000   -0.0003    0.0043   -0.0188    0.0058
          12   -0.0000    0.0000   -0.0000   -0.0002    0.0000   -0.0000    0.0000   -0.0000
          13    0.1563    0.0736   -0.0032    0.0000   -0.0004   -0.0042    0.0022    0.0055
          14    0.0901    0.0416    0.0026   -0.0000    0.0004   -0.0411    0.0017    0.0293
          15   -0.0001   -0.0000    0.0000   -0.0002   -0.0000    0.0000   -0.0000   -0.0000
          16    0.0046   -0.0110   -0.1601    0.0000    0.0001    0.0000    0.0000   -0.0001
          17   -0.0034    0.0095    0.2505   -0.0000    0.0001    0.0000   -0.0003    0.0003
          18    0.0000   -0.0000   -0.0001   -0.0000   -0.0000    0.0000    0.0000   -0.0000
          19   -0.0173    0.0276    0.1023   -0.0000    0.0000   -0.0000    0.0001   -0.0001
          20    0.0257   -0.0403   -0.1596    0.0000   -0.0001    0.0000   -0.0001    0.0001
          21   -0.0000    0.0000    0.0000   -0.0000   -0.0000    0.0000    0.0000   -0.0000
          22   -0.0028   -0.0329    0.0027   -0.1789   -0.1575   -0.0005   -0.0014    0.0035
          23    0.0170    0.0237   -0.0026   -0.2224   -0.1955    0.0007   -0.0008    0.0057
          24    0.0076   -0.0039    0.0007    0.3701    0.3838   -0.0001    0.0025   -0.0097
          25   -0.0028   -0.0329    0.0027    0.1790   -0.1569   -0.0005   -0.0014    0.0035
          26    0.0169    0.0236   -0.0026    0.2226   -0.1949    0.0007   -0.0008    0.0057
          27   -0.0076    0.0038   -0.0006    0.3711   -0.3833    0.0001   -0.0025    0.0097
          28   -0.1125   -0.0353   -0.0039    0.0000    0.0129    0.2878    0.2740    0.3631
          29    0.0968    0.0336    0.0023   -0.0000   -0.0032   -0.1070   -0.1003   -0.1325
          30    0.0000    0.0000    0.0000   -0.0009   -0.0000   -0.0001   -0.0001   -0.0001
          31    0.0312   -0.1329    0.0164    0.0000   -0.0114   -0.1290    0.5711   -0.1858
          32    0.0445    0.0279    0.0013    0.0000   -0.0039   -0.0431    0.1834   -0.0586
          33   -0.0000    0.0000   -0.0000   -0.0007    0.0000    0.0000   -0.0001    0.0000
          34   -0.0171   -0.0568    0.0015    0.0000   -0.0014    0.0415   -0.0040   -0.0270
          35    0.1388    0.0626    0.0058    0.0000   -0.0122    0.4737   -0.0144   -0.3022
          36   -0.0000   -0.0000   -0.0000   -0.0007    0.0000   -0.0002    0.0000    0.0001
          37   -0.0239    0.0393    0.2016    0.0000   -0.0002    0.0000   -0.0002    0.0008
          38    0.0349   -0.0563   -0.3135   -0.0000    0.0003   -0.0001    0.0005   -0.0013
          39   -0.0000    0.0000    0.0001    0.0000   -0.0000    0.0000   -0.0000    0.0000


   Root No.      33

                33 A   

                3358.0
  
           1    0.0001
           2   -0.0001
           3    0.0000
           4    0.0011
           5   -0.0015
           6    0.0000
           7   -0.0001
           8    0.0001
           9    0.0000
          10    0.0001
          11   -0.0003
          12    0.0000
          13   -0.0001
          14    0.0001
          15   -0.0000
          16   -0.0150
          17    0.0234
          18   -0.0000
          19    0.0531
          20   -0.0828
          21    0.0000
          22    0.0003
          23    0.0002
          24   -0.0004
          25    0.0003
          26    0.0002
          27    0.0004
          28    0.0014
          29   -0.0005
          30   -0.0000
          31   -0.0015
          32   -0.0005
          33    0.0000
          34   -0.0002
          35   -0.0011
          36    0.0000
          37   -0.4680
          38    0.7286
          39   -0.0002


           MASS-WEIGHTED COORDINATE ANALYSIS (NORMAL COORDINATES)


   Root No.       1         2         3         4         5         6         7         8

                 1 A       2 A       3 A       4 A       5 A       6 A       7 A       8 A   

                 150.9     178.2     343.4     456.5     548.3     565.6     590.6     747.1
  
           1   -0.0001   -0.2981    0.0000   -0.0000   -0.2273    0.0002   -0.1457   -0.0001
           2   -0.0000    0.1190    0.0000   -0.0001    0.0921    0.0002   -0.2828   -0.0002
           3   -0.2685   -0.0000   -0.2636   -0.0053    0.0000    0.1009    0.0001   -0.1820
           4   -0.0001   -0.3030    0.0000   -0.0000   -0.1051    0.0002   -0.2203   -0.0000
           5   -0.0001   -0.2136    0.0000    0.0000   -0.1751    0.0001    0.0964    0.0000
           6   -0.4333    0.0001    0.2844    0.0155    0.0001    0.5639    0.0004    0.2312
           7    0.0001    0.0370    0.0000   -0.0001   -0.0933   -0.0002    0.1946    0.0002
           8    0.0000    0.2073    0.0000   -0.0001    0.1933    0.0001   -0.2428   -0.0000
           9    0.3503   -0.0001    0.2915   -0.3036   -0.0000   -0.0926    0.0000   -0.1743
          10   -0.0000   -0.0255   -0.0001   -0.0000   -0.1824   -0.0001    0.2194   -0.0002
          11   -0.0001   -0.3067   -0.0001   -0.0001   -0.1645    0.0001   -0.1119    0.0001
          12   -0.2843    0.0002   -0.2118   -0.3940    0.0000   -0.0796   -0.0000   -0.0097
          13    0.0000    0.1972   -0.0001    0.0001   -0.0041   -0.0001    0.2382   -0.0000
          14    0.0000   -0.0464   -0.0000    0.0001    0.0227    0.0001   -0.2384    0.0003
          15    0.2620   -0.0000   -0.1707    0.4548    0.0000    0.0709    0.0000   -0.2162
          16   -0.0000   -0.1576    0.0000    0.0000    0.7116   -0.0001   -0.0008    0.0000
          17   -0.0001   -0.1225    0.0001    0.0001    0.2576   -0.0005    0.4929   -0.0001
          18   -0.1656    0.0001    0.4763    0.3438   -0.0002   -0.5096   -0.0004   -0.0824
          19    0.0001    0.4808    0.0000   -0.0000    0.0348    0.0002   -0.2746    0.0000
          20    0.0002    0.2869   -0.0001   -0.0000   -0.2015   -0.0002    0.3900   -0.0001
          21    0.4515   -0.0002   -0.1825   -0.0768    0.0001    0.0770   -0.0001   -0.0140
          22    0.0217   -0.1226   -0.1625   -0.0059   -0.1094   -0.2442   -0.0362    0.0106
          23   -0.1117    0.0641   -0.2047    0.1347    0.0642   -0.0775   -0.0957    0.2396
          24   -0.1328    0.0000   -0.2759    0.0763   -0.0001   -0.1358   -0.0035    0.0986
          25   -0.0218   -0.1226    0.1626    0.0059   -0.1093    0.2445   -0.0359   -0.0107
          26    0.1118    0.0641    0.2048   -0.1348    0.0642    0.0777   -0.0956   -0.2398
          27   -0.1327   -0.0000   -0.2757    0.0762    0.0001   -0.1357    0.0033    0.0985
          28    0.0001    0.0356    0.0001   -0.0001   -0.0116   -0.0001    0.0789    0.0003
          29    0.0000    0.1283    0.0000   -0.0000    0.1000   -0.0000   -0.0116    0.0000
          30    0.2215   -0.0001    0.2420   -0.2066   -0.0001   -0.1029    0.0000    0.6947
          31   -0.0000    0.0163   -0.0000   -0.0000   -0.0416   -0.0001    0.0956   -0.0000
          32   -0.0001   -0.1616   -0.0000   -0.0001   -0.0812   -0.0000   -0.1339    0.0000
          33   -0.1142    0.0001   -0.1334   -0.3407   -0.0000   -0.3711   -0.0002    0.1348
          34    0.0000    0.1305   -0.0000    0.0001    0.0681   -0.0000    0.0494    0.0001
          35    0.0000   -0.0201   -0.0000    0.0001    0.0007    0.0000   -0.0685    0.0003
          36    0.1736   -0.0000   -0.0900    0.4350    0.0000    0.0320    0.0000    0.4319
          37    0.0001    0.3018    0.0000   -0.0000   -0.2590    0.0001   -0.1889    0.0000
          38    0.0001    0.1876   -0.0001   -0.0000   -0.2330    0.0001    0.0479    0.0000
          39    0.2885   -0.0001   -0.2390   -0.1593    0.0001    0.2620    0.0001    0.0857


   Root No.       9        10        11        12        13        14        15        16

                 9 A      10 A      11 A      12 A      13 A      14 A      15 A      16 A   

                 821.3     846.2     859.3     869.7     943.2     952.0     969.4    1031.9
  
           1    0.0290    0.0000   -0.0544    0.0002   -0.0004    0.4937    0.0010   -0.1112
           2   -0.3276   -0.0000   -0.0027    0.0000   -0.0001    0.1418    0.0002   -0.2967
           3    0.0000   -0.0108   -0.0000    0.3834   -0.2906    0.0001   -0.2549   -0.0025
           4   -0.1694   -0.0000    0.0089   -0.0001    0.0001   -0.0788   -0.0001    0.0363
           5   -0.1041    0.0000    0.0072   -0.0001    0.0002   -0.1768   -0.0003    0.0598
           6   -0.0000   -0.0129    0.0000   -0.0592    0.3229   -0.0003    0.2392   -0.0165
           7    0.4836    0.0000   -0.0278    0.0001    0.0001   -0.1614   -0.0002   -0.1212
           8   -0.0884   -0.0000    0.0135   -0.0001    0.0000    0.1568    0.0003    0.2265
           9    0.0001    0.0374    0.0000   -0.0544    0.2305   -0.0003    0.3137    0.0248
          10   -0.4028   -0.0000    0.0177   -0.0002    0.0002   -0.2479   -0.0004   -0.1085
          11    0.0550   -0.0000   -0.0073   -0.0001    0.0001   -0.3108   -0.0006    0.0830
          12    0.0001   -0.0655   -0.0000   -0.2648   -0.4362   -0.0002    0.0810    0.0130
          13    0.0685    0.0000    0.0113   -0.0000    0.0000   -0.0463   -0.0002    0.0636
          14    0.5870    0.0000   -0.0497    0.0000    0.0000    0.0154   -0.0001   -0.0299
          15    0.0000    0.0153    0.0000   -0.1737    0.1987    0.0007   -0.3431   -0.0175
          16    0.0090   -0.0000    0.2528   -0.0000    0.0000   -0.0330   -0.0001   -0.0186
          17   -0.0218    0.0000    0.1607    0.0000   -0.0002    0.1477    0.0002   -0.0370
          18    0.0000    0.2655    0.0000   -0.0375   -0.1180    0.0001   -0.0632    0.0032
          19   -0.0139    0.0001   -0.3997   -0.0001    0.0001   -0.1410   -0.0003    0.0280
          20   -0.0459   -0.0001   -0.2582    0.0001   -0.0001    0.1715    0.0004   -0.0247
          21    0.0000   -0.4748   -0.0000    0.0325    0.0546   -0.0001    0.0267   -0.0012
          22   -0.0352    0.0288   -0.0263   -0.1653   -0.0018    0.3101    0.3690    0.1791
          23   -0.0817   -0.0124    0.0059   -0.2353    0.2564   -0.0386   -0.0771   -0.3055
          24   -0.0092    0.0034   -0.0012   -0.1121    0.0711    0.0272    0.0596   -0.0273
          25   -0.0352   -0.0288   -0.0263    0.1656    0.0015    0.3114   -0.3683    0.2366
          26   -0.0817    0.0124    0.0059    0.2354   -0.2567   -0.0396    0.0772   -0.3548
          27    0.0092    0.0034    0.0012   -0.1119    0.0711   -0.0271    0.0594    0.0277
          28    0.1070   -0.0000    0.0028   -0.0000   -0.0000   -0.1279   -0.0004    0.1304
          29   -0.1239   -0.0000    0.0345   -0.0001    0.0002   -0.1808   -0.0005    0.5133
          30   -0.0003   -0.0772   -0.0000   -0.1494   -0.2113    0.0006   -0.3943   -0.0173
          31   -0.0823    0.0000    0.0055   -0.0000    0.0000   -0.0130   -0.0000   -0.1068
          32   -0.0966    0.0000   -0.0027    0.0000    0.0004   -0.2898   -0.0005    0.2613
          33   -0.0001    0.0912    0.0000    0.5539    0.5056    0.0005   -0.1368   -0.0090
          34   -0.0182   -0.0000    0.0142    0.0001   -0.0002    0.2807    0.0006    0.3602
          35    0.1762    0.0000   -0.0156    0.0002   -0.0001   -0.0231    0.0001   -0.0353
          36   -0.0004    0.0017    0.0000    0.4706   -0.2593   -0.0010    0.4305    0.0138
          37    0.0499   -0.0002    0.6908   -0.0000    0.0000   -0.0200   -0.0001    0.0001
          38    0.0208    0.0002    0.4433    0.0000   -0.0001    0.0694    0.0001   -0.0136
          39   -0.0001    0.8256    0.0000   -0.0513   -0.0460    0.0000   -0.0165    0.0004


   Root No.      17        18        19        20        21        22        23        24

                17 A      18 A      19 A      20 A      21 A      22 A      23 A      24 A   

                1032.4    1078.5    1123.5    1199.1    1280.8    1360.7    1405.8    1426.4
  
           1   -0.0074    0.0454    0.2631   -0.2059    0.2612    0.0945    0.1890   -0.4439
           2   -0.0207    0.0072    0.1324    0.1831   -0.3443    0.4737   -0.2498   -0.0105
           3    0.0363    0.0000   -0.0001    0.0000    0.0001    0.0001   -0.0000    0.0000
           4    0.0026    0.0712    0.0030   -0.2370    0.2168    0.0775   -0.1947    0.7107
           5    0.0041   -0.0694   -0.2134   -0.0902   -0.1729    0.0079    0.1581   -0.0975
           6    0.2356   -0.0001    0.0001    0.0001   -0.0000   -0.0000   -0.0000   -0.0000
           7   -0.0086    0.0939    0.1848    0.0841   -0.1708    0.0979   -0.0719    0.0809
           8    0.0157   -0.0929   -0.1173    0.1518    0.4298   -0.1573    0.3232    0.1172
           9   -0.3544    0.0001   -0.0000   -0.0001   -0.0000   -0.0000   -0.0000   -0.0001
          10   -0.0078   -0.1611   -0.2677    0.1460    0.1797   -0.2376   -0.3269   -0.2978
          11    0.0056   -0.0103   -0.1577   -0.1588   -0.2616    0.0911    0.3726   -0.0503
          12   -0.1854    0.0001    0.0001    0.0000    0.0000    0.0000   -0.0001    0.0000
          13    0.0045    0.0698    0.0294    0.1726   -0.0509    0.0918    0.4514    0.1290
          14   -0.0020   -0.1125   -0.1826    0.0233    0.1379   -0.1596   -0.3876   -0.0845
          15    0.2499   -0.0000    0.0001   -0.0000   -0.0000    0.0000    0.0000    0.0000
          16   -0.0013   -0.0353   -0.0299    0.0565   -0.0466   -0.0037   -0.0031   -0.0666
          17   -0.0025    0.0383    0.0786    0.0181    0.0479    0.0005   -0.0348    0.0109
          18   -0.0461    0.0000   -0.0000   -0.0000    0.0000    0.0000    0.0000    0.0000
          19    0.0019   -0.0469   -0.0914    0.0062   -0.0954   -0.0020    0.0714   -0.1032
          20   -0.0016    0.0779    0.1314   -0.0362    0.1553    0.0058   -0.1085    0.1863
          21    0.0168   -0.0000   -0.0000    0.0000   -0.0000   -0.0000    0.0000   -0.0001
          22    0.4290   -0.1882    0.0418    0.2586   -0.3173   -0.2096   -0.0429    0.0970
          23   -0.3794    0.1762    0.1759   -0.2138   -0.0987   -0.3680    0.0692    0.0043
          24   -0.0052    0.0065    0.0538   -0.0038   -0.1621   -0.3551    0.0318    0.0925
          25   -0.4004   -0.1875    0.0418    0.2582   -0.3171   -0.2098   -0.0428    0.0971
          26    0.3338    0.1756    0.1758   -0.2135   -0.0988   -0.3681    0.0691    0.0045
          27   -0.0014   -0.0065   -0.0537    0.0039    0.1619    0.3548   -0.0318   -0.0924
          28    0.0091   -0.0689    0.2451   -0.1337   -0.1105    0.0445   -0.1116   -0.0423
          29    0.0356   -0.2961    0.4725   -0.3879   -0.0246   -0.0164   -0.1592   -0.1435
          30    0.2450    0.0000   -0.0001    0.0001    0.0001   -0.0000    0.0001    0.0000
          31   -0.0075   -0.2286   -0.1916   -0.1212   -0.0119   -0.0338   -0.0321   -0.0453
          32    0.0183    0.5604    0.2857    0.4666    0.1333   -0.1039   -0.1020   -0.1634
          33    0.1275   -0.0001   -0.0001   -0.0001   -0.0000    0.0000    0.0000    0.0000
          34    0.0255    0.5631   -0.4248   -0.3470   -0.2250    0.0016   -0.1919   -0.1009
          35   -0.0026   -0.0821   -0.0193    0.0428    0.0638   -0.0504   -0.0910   -0.0141
          36   -0.1973   -0.0001    0.0001    0.0001    0.0000    0.0000    0.0001    0.0000
          37   -0.0000   -0.0172   -0.0279    0.0072   -0.0329   -0.0011    0.0234   -0.0368
          38   -0.0009    0.0238    0.0439   -0.0087    0.0519    0.0017   -0.0390    0.0651
          39   -0.0051   -0.0000   -0.0000    0.0000   -0.0000   -0.0000    0.0000   -0.0000


   Root No.      25        26        27        28        29        30        31        32

                25 A      26 A      27 A      28 A      29 A      30 A      31 A      32 A   

                1735.6    1804.7    2337.8    2985.6    3053.5    3132.3    3140.2    3152.3
  
           1    0.0006    0.0249   -0.0050   -0.0000    0.1365   -0.0001    0.0032   -0.0079
           2    0.0405   -0.0159   -0.0001   -0.0001    0.1702    0.0015    0.0025   -0.0104
           3   -0.0000    0.0000   -0.0000   -0.3034   -0.0002    0.0000    0.0000    0.0000
           4    0.0305    0.0842    0.1078   -0.0000    0.0043   -0.0008    0.0058    0.0028
           5   -0.3509    0.6669   -0.2049   -0.0000    0.0021   -0.0024    0.0193   -0.0149
           6    0.0001   -0.0002    0.0000   -0.0015   -0.0000    0.0000   -0.0000    0.0000
           7   -0.5185   -0.1930   -0.0030   -0.0000   -0.0045   -0.1342   -0.1192   -0.2198
           8   -0.3656   -0.1830    0.0052   -0.0000    0.0059    0.0545    0.0368    0.0566
           9    0.0002    0.0001   -0.0000   -0.0013   -0.0000    0.0000    0.0000    0.0001
          10    0.0359   -0.1602    0.0124   -0.0000    0.0024    0.0639   -0.2489    0.1096
          11    0.1947   -0.5400    0.0220    0.0000   -0.0018    0.0246   -0.0932    0.0360
          12   -0.0001    0.0001   -0.0000   -0.0009    0.0000   -0.0000    0.0000   -0.0000
          13    0.5310    0.2600   -0.0085    0.0000   -0.0021   -0.0240    0.0109    0.0343
          14    0.3060    0.1469    0.0067   -0.0000    0.0020   -0.2336    0.0084    0.1816
          15   -0.0002   -0.0001    0.0000   -0.0010   -0.0000    0.0001   -0.0000   -0.0001
          16    0.0155   -0.0388   -0.4222    0.0000    0.0004    0.0003    0.0002   -0.0007
          17   -0.0115    0.0334    0.6605   -0.0000    0.0004    0.0002   -0.0015    0.0016
          18    0.0000   -0.0000   -0.0002   -0.0002   -0.0000    0.0000    0.0000   -0.0000
          19   -0.0587    0.0975    0.2697   -0.0000    0.0002   -0.0001    0.0002   -0.0004
          20    0.0873   -0.1424   -0.4209    0.0000   -0.0003    0.0002   -0.0003    0.0007
          21   -0.0000    0.0000    0.0001   -0.0001   -0.0000    0.0000    0.0000   -0.0000
          22   -0.0028   -0.0337    0.0020   -0.2576   -0.2370   -0.0009   -0.0020    0.0063
          23    0.0167    0.0242   -0.0020   -0.3203   -0.2942    0.0011   -0.0012    0.0103
          24    0.0075   -0.0039    0.0005    0.5331    0.5777   -0.0002    0.0035   -0.0175
          25   -0.0028   -0.0337    0.0020    0.2578   -0.2363   -0.0009   -0.0020    0.0063
          26    0.0167    0.0242   -0.0020    0.3206   -0.2934    0.0011   -0.0012    0.0103
          27   -0.0074    0.0039   -0.0005    0.5344   -0.5769    0.0002   -0.0035    0.0175
          28   -0.1107   -0.0361   -0.0030    0.0000    0.0194    0.4740    0.3925    0.6516
          29    0.0953    0.0345    0.0017   -0.0000   -0.0048   -0.1763   -0.1436   -0.2377
          30    0.0000    0.0000    0.0000   -0.0013   -0.0000   -0.0002   -0.0001   -0.0002
          31    0.0307   -0.1361    0.0126    0.0000   -0.0172   -0.2125    0.8179   -0.3335
          32    0.0438    0.0286    0.0010    0.0000   -0.0059   -0.0709    0.2627   -0.1052
          33   -0.0000    0.0000   -0.0000   -0.0010    0.0000    0.0000   -0.0001    0.0000
          34   -0.0168   -0.0582    0.0012    0.0000   -0.0020    0.0683   -0.0057   -0.0485
          35    0.1366    0.0641    0.0044    0.0000   -0.0184    0.7801   -0.0206   -0.5423
          36   -0.0000   -0.0000   -0.0000   -0.0010    0.0000   -0.0003    0.0000    0.0002
          37   -0.0236    0.0403    0.1540    0.0000   -0.0004    0.0001   -0.0003    0.0014
          38    0.0344   -0.0576   -0.2394   -0.0000    0.0004   -0.0001    0.0008   -0.0023
          39   -0.0000    0.0000    0.0001    0.0000   -0.0000    0.0000   -0.0000    0.0000


   Root No.      33

                33 A   

                3358.0
  
           1    0.0003
           2   -0.0003
           3    0.0000
           4    0.0042
           5   -0.0055
           6    0.0000
           7   -0.0005
           8    0.0004
           9    0.0000
          10    0.0005
          11   -0.0013
          12    0.0000
          13   -0.0004
          14    0.0005
          15   -0.0000
          16   -0.0555
          17    0.0865
          18   -0.0000
          19    0.1962
          20   -0.3055
          21    0.0001
          22    0.0003
          23    0.0002
          24   -0.0005
          25    0.0003
          26    0.0002
          27    0.0005
          28    0.0015
          29   -0.0005
          30   -0.0000
          31   -0.0016
          32   -0.0005
          33    0.0000
          34   -0.0002
          35   -0.0012
          36    0.0000
          37   -0.5005
          38    0.7791
          39   -0.0003


          DESCRIPTION OF VIBRATIONS


 VIBRATION          1    1A           ATOM PAIR      ENERGY CONTRIBUTION    RADIAL
 FREQUENCY           150.89         C  1 -- C  3         +17.3% (256.1%)      0.0%
 TRANSITION DIPOLE   0.1137         C  1 -- C  2         +12.7% (219.3%)      0.0%
 TRAVEL (Ang.)       0.5813         C  2 -- C  5          +9.4% (189.1%)      0.0%
 REDUCED MASS        1.3224         C  1 -- H  8          +8.2% (177.0%)     74.4%
 EFFECTIVE MASS     55.7320
 FORCE CONSTANT      0.0177

 VIBRATION          2    2A           ATOM PAIR      ENERGY CONTRIBUTION    RADIAL
 FREQUENCY           178.18         C  2 -- C  5         +12.0% (283.7%)      0.0%
 TRANSITION DIPOLE   0.1432         C  1 -- C  2         +11.0% (271.5%)      0.0%
 TRAVEL (Ang.)       0.4686         C  3 -- C  4         +10.5% (265.2%)      0.2%
 REDUCED MASS        1.7237         C  4 -- C  5          +9.7% (255.6%)      0.1%
 EFFECTIVE MASS     45.6178
 FORCE CONSTANT      0.0322

 VIBRATION          3    3A           ATOM PAIR      ENERGY CONTRIBUTION    RADIAL
 FREQUENCY           343.39         C  1 -- H  9         +18.0% (120.8%)     30.9%
 TRANSITION DIPOLE   0.4069         C  1 -- H  8         +18.0% (120.8%)     30.9%
 TRAVEL (Ang.)       0.4574         C  1 -- C  3         +13.4% (104.4%)      0.0%
 REDUCED MASS        0.9386         C  1 -- C  2         +13.4% (104.4%)      0.0%
 EFFECTIVE MASS     16.8017
 FORCE CONSTANT      0.0652

 VIBRATION          4    4A           ATOM PAIR      ENERGY CONTRIBUTION    RADIAL
 FREQUENCY           456.51         C  4 -- C  5         +22.1% ( 89.7%)      0.0%
 TRANSITION DIPOLE   0.0348         C  3 -- C  5         +18.4% ( 81.8%)      0.0%
 TRAVEL (Ang.)       0.3620         C  3 -- C  4         +11.4% ( 64.3%)      0.0%
 REDUCED MASS        1.1269         C  2 -- C  5          +8.6% ( 55.9%)      0.0%
 EFFECTIVE MASS     12.0927
 FORCE CONSTANT      0.1384

 VIBRATION          5    5A           ATOM PAIR      ENERGY CONTRIBUTION    RADIAL
 FREQUENCY           548.27         C  2 -- C  6         +19.5% (106.5%)      0.7%
 TRANSITION DIPOLE   0.4481         C  6 -- C  7         +13.2% ( 87.5%)      0.1%
 TRAVEL (Ang.)       0.1730         C  3 -- C  4         +10.2% ( 77.0%)      2.6%
 REDUCED MASS        4.1099         C  7 -- H 13          +8.1% ( 68.5%)     20.1%
 EFFECTIVE MASS     13.2224
 FORCE CONSTANT      0.7279

 VIBRATION          6    6A           ATOM PAIR      ENERGY CONTRIBUTION    RADIAL
 FREQUENCY           565.59         C  2 -- C  6         +25.0% ( 88.4%)      0.0%
 TRANSITION DIPOLE   0.2020         C  2 -- C  4         +12.9% ( 63.5%)      0.0%
 TRAVEL (Ang.)       0.2402         C  2 -- C  5         +11.7% ( 60.3%)      0.0%
 REDUCED MASS        2.0656         C  1 -- C  2         +10.6% ( 57.6%)      0.0%
 EFFECTIVE MASS      9.4477         C  1 -- H  9         +10.2% ( 56.4%)      3.3%
 FORCE CONSTANT      0.3893         C  1 -- H  8         +10.2% ( 56.4%)      3.3%

 VIBRATION          7    7A           ATOM PAIR      ENERGY CONTRIBUTION    RADIAL
 FREQUENCY           590.64         C  7 -- H 13         +15.8% (129.8%)     89.8%
 TRANSITION DIPOLE   0.1998         C  2 -- C  6         +15.7% (129.4%)     22.6%
 TRAVEL (Ang.)       0.2513         C  6 -- C  7         +12.0% (112.9%)      4.4%
 REDUCED MASS        1.8082         C  2 -- C  5          +7.5% ( 89.3%)     64.8%
 EFFECTIVE MASS     17.8239
 FORCE CONSTANT      0.3717

 VIBRATION          8    8A           ATOM PAIR      ENERGY CONTRIBUTION    RADIAL
 FREQUENCY           747.15         C  3 -- H 10         +36.1% ( 79.3%)      0.0%
 TRANSITION DIPOLE   0.6297         C  5 -- H 12         +18.7% ( 57.0%)      0.0%
 TRAVEL (Ang.)       0.4975         C  1 -- H  8         +10.6% ( 42.9%)      9.0%
 REDUCED MASS        0.3647         C  1 -- H  9         +10.6% ( 42.9%)      9.0%
 EFFECTIVE MASS      2.6774
 FORCE CONSTANT      0.1200

 VIBRATION          9    9A           ATOM PAIR      ENERGY CONTRIBUTION    RADIAL
 FREQUENCY           821.27         C  3 -- C  5         +15.1% (112.6%)      0.0%
 TRANSITION DIPOLE   0.2718         C  3 -- C  4         +15.0% (112.1%)     99.4%
 TRAVEL (Ang.)       0.1758         C  4 -- C  5         +14.7% (110.9%)      0.3%
 REDUCED MASS        2.6564         C  2 -- C  5         +13.5% (106.2%)     64.7%
 EFFECTIVE MASS     16.0843
 FORCE CONSTANT      1.0556

 VIBRATION         10   10A           ATOM PAIR      ENERGY CONTRIBUTION    RADIAL
 FREQUENCY           846.24         C  7 -- H 13         +82.9% ( 92.5%)      0.0%
 TRANSITION DIPOLE   0.6133         C  6 -- C  7         +11.8% ( 34.9%)      0.0%
 TRAVEL (Ang.)       0.2645         C  2 -- C  6          +2.1% ( 14.8%)      0.0%
 REDUCED MASS        1.1386         C  4 -- H 11          +1.3% ( 11.7%)      0.0%
 EFFECTIVE MASS      3.2602
 FORCE CONSTANT      0.4804

 VIBRATION         11   11A           ATOM PAIR      ENERGY CONTRIBUTION    RADIAL
 FREQUENCY           859.27         C  7 -- H 13         +78.9% ( 91.9%)      0.0%
 TRANSITION DIPOLE   0.5766         C  6 -- C  7         +13.1% ( 37.4%)      0.0%
 TRAVEL (Ang.)       0.2590         C  2 -- C  6          +3.0% ( 17.8%)      0.0%
 REDUCED MASS        1.1703         C  3 -- C  5          +0.8% (  9.0%)      0.0%
 EFFECTIVE MASS      3.5330
 FORCE CONSTANT      0.5091

 VIBRATION         12   12A           ATOM PAIR      ENERGY CONTRIBUTION    RADIAL
 FREQUENCY           869.70         C  4 -- H 11         +21.1% ( 61.9%)      0.0%
 TRANSITION DIPOLE   0.3322         C  1 -- H  8         +16.8% ( 55.2%)     15.8%
 TRAVEL (Ang.)       0.3966         C  1 -- H  9         +16.8% ( 55.2%)     15.9%
 REDUCED MASS        0.4929         C  5 -- H 12         +13.8% ( 50.1%)      0.0%
 EFFECTIVE MASS      3.7339         C  1 -- C  2         +12.4% ( 47.4%)      0.0%
 FORCE CONSTANT      0.2196         C  1 -- C  3         +12.4% ( 47.3%)      0.0%

 VIBRATION         13   13A           ATOM PAIR      ENERGY CONTRIBUTION    RADIAL
 FREQUENCY           943.21         C  4 -- H 11         +22.6% ( 62.1%)      0.0%
 TRANSITION DIPOLE   0.0065         C  1 -- C  2         +10.5% ( 42.3%)      0.0%
 TRAVEL (Ang.)       0.3010         C  1 -- H  8          +9.7% ( 40.6%)     15.2%
 REDUCED MASS        0.7889         C  1 -- H  9          +9.7% ( 40.6%)     15.2%
 EFFECTIVE MASS      5.7935
 FORCE CONSTANT      0.4135

 VIBRATION         14   14A           ATOM PAIR      ENERGY CONTRIBUTION    RADIAL
 FREQUENCY           951.95         C  1 -- C  2         +12.9% ( 71.3%)     76.4%
 TRANSITION DIPOLE   0.1099         C  1 -- C  3         +12.1% ( 69.1%)      5.7%
 TRAVEL (Ang.)       0.2376         C  3 -- C  4         +10.9% ( 65.6%)      1.0%
 REDUCED MASS        1.2548         C  1 -- H  9          +9.3% ( 60.5%)     45.1%
 EFFECTIVE MASS      9.7371
 FORCE CONSTANT      0.6700

 VIBRATION         15   15A           ATOM PAIR      ENERGY CONTRIBUTION    RADIAL
 FREQUENCY           969.41         C  5 -- H 12         +17.1% ( 50.1%)      0.0%
 TRANSITION DIPOLE   0.0552         C  1 -- H  8         +15.0% ( 47.0%)      9.6%
 TRAVEL (Ang.)       0.3826         C  1 -- H  9         +15.0% ( 47.0%)      9.5%
 REDUCED MASS        0.4753         C  3 -- H 10         +13.8% ( 45.1%)      0.0%
 EFFECTIVE MASS      4.3672
 FORCE CONSTANT      0.2632

 VIBRATION         16   16A           ATOM PAIR      ENERGY CONTRIBUTION    RADIAL
 FREQUENCY          1031.86         C  3 -- H 10         +18.1% ( 56.3%)     13.0%
 TRANSITION DIPOLE   0.1318         C  1 -- C  3         +16.3% ( 53.4%)     95.9%
 TRAVEL (Ang.)       0.4435         C  1 -- H  9         +14.4% ( 50.1%)     12.8%
 REDUCED MASS        0.3322         C  1 -- H  8         +11.6% ( 44.9%)     18.1%
 EFFECTIVE MASS      4.1017
 FORCE CONSTANT      0.2084

 VIBRATION         17   17A           ATOM PAIR      ENERGY CONTRIBUTION    RADIAL
 FREQUENCY          1032.44         C  1 -- H  8         +27.4% ( 56.0%)      0.3%
 TRANSITION DIPOLE   0.1111         C  1 -- H  9         +23.1% ( 51.5%)      0.1%
 TRAVEL (Ang.)       0.3699         C  3 -- H 10         +10.4% ( 34.5%)      0.0%
 REDUCED MASS        0.4773         C  3 -- C  5          +7.4% ( 29.0%)      0.0%
 EFFECTIVE MASS      3.3259
 FORCE CONSTANT      0.2998

 VIBRATION         18   18A           ATOM PAIR      ENERGY CONTRIBUTION    RADIAL
 FREQUENCY          1078.55         C  4 -- H 11         +28.9% ( 61.8%)      3.7%
 TRANSITION DIPOLE   0.0663         C  5 -- H 12         +24.3% ( 56.6%)      2.3%
 TRAVEL (Ang.)       0.4759         C  3 -- H 10          +7.5% ( 31.4%)     10.3%
 REDUCED MASS        0.2761         C  4 -- C  5          +6.2% ( 28.6%)     93.7%
 EFFECTIVE MASS      2.2468
 FORCE CONSTANT      0.1892

 VIBRATION         19   19A           ATOM PAIR      ENERGY CONTRIBUTION    RADIAL
 FREQUENCY          1123.54         C  3 -- H 10         +13.6% ( 56.3%)      6.0%
 TRANSITION DIPOLE   0.1246         C  3 -- C  4         +10.2% ( 48.9%)     97.1%
 TRAVEL (Ang.)       0.3835         C  4 -- H 11          +9.5% ( 47.2%)     21.5%
 REDUCED MASS        0.4080         C  4 -- C  5          +9.3% ( 46.6%)     69.4%
 EFFECTIVE MASS      5.5460
 FORCE CONSTANT      0.3034

 VIBRATION         20   20A           ATOM PAIR      ENERGY CONTRIBUTION    RADIAL
 FREQUENCY          1199.12         C  4 -- H 11         +17.5% ( 52.3%)      0.8%
 TRANSITION DIPOLE   0.0591         C  3 -- H 10         +12.9% ( 45.0%)      0.1%
 TRAVEL (Ang.)       0.4399         C  1 -- H  8         +11.1% ( 41.7%)      0.0%
 REDUCED MASS        0.2905         C  1 -- H  9         +11.0% ( 41.6%)      0.0%
 EFFECTIVE MASS      2.8532         C  5 -- H 12         +10.3% ( 40.2%)      0.3%
 FORCE CONSTANT      0.2461

 VIBRATION         21   21A           ATOM PAIR      ENERGY CONTRIBUTION    RADIAL
 FREQUENCY          1280.76         C  1 -- C  3         +17.8% ( 65.9%)     91.7%
 TRANSITION DIPOLE   0.1418         C  3 -- C  4         +10.8% ( 51.4%)     27.3%
 TRAVEL (Ang.)       0.2076         C  1 -- H  8          +9.4% ( 47.9%)      0.2%
 REDUCED MASS        1.2218         C  1 -- H  9          +9.4% ( 47.9%)      0.2%
 EFFECTIVE MASS      8.2215
 FORCE CONSTANT      1.1808

 VIBRATION         22   22A           ATOM PAIR      ENERGY CONTRIBUTION    RADIAL
 FREQUENCY          1360.70         C  1 -- H  9         +23.6% ( 61.8%)      5.1%
 TRANSITION DIPOLE   0.3741         C  1 -- H  8         +23.6% ( 61.8%)      5.1%
 TRAVEL (Ang.)       0.2320         C  1 -- C  3         +15.1% ( 49.4%)     95.6%
 REDUCED MASS        0.9209         C  1 -- C  2         +10.5% ( 41.3%)      0.1%
 EFFECTIVE MASS      5.1216
 FORCE CONSTANT      1.0046

 VIBRATION         23   23A           ATOM PAIR      ENERGY CONTRIBUTION    RADIAL
 FREQUENCY          1405.81         C  4 -- C  5         +21.9% ( 79.6%)     98.9%
 TRANSITION DIPOLE   0.4688         C  3 -- C  5         +12.0% ( 58.9%)      0.5%
 TRAVEL (Ang.)       0.1373         C  2 -- C  5         +11.7% ( 58.2%)     71.3%
 REDUCED MASS        2.5445         C  5 -- H 12          +9.2% ( 51.7%)     11.3%
 EFFECTIVE MASS     11.0102
 FORCE CONSTANT      2.9629

 VIBRATION         24   24A           ATOM PAIR      ENERGY CONTRIBUTION    RADIAL
 FREQUENCY          1426.44         C  1 -- C  2         +23.0% ( 81.3%)     99.4%
 TRANSITION DIPOLE   0.2530         C  2 -- C  4         +18.2% ( 72.3%)      8.5%
 TRAVEL (Ang.)       0.1117         C  2 -- C  6         +14.1% ( 63.6%)     42.4%
 REDUCED MASS        3.7857         C  2 -- C  5         +13.6% ( 62.4%)     10.3%
 EFFECTIVE MASS     11.0971
 FORCE CONSTANT      4.5384

 VIBRATION         25   25A           ATOM PAIR      ENERGY CONTRIBUTION    RADIAL
 FREQUENCY          1735.56         C  3 -- C  5         +29.4% ( 92.3%)    100.0%
 TRANSITION DIPOLE   0.5687         C  2 -- C  5         +11.8% ( 58.4%)     33.3%
 TRAVEL (Ang.)       0.1005         C  3 -- C  4          +9.8% ( 53.4%)     41.4%
 REDUCED MASS        3.8460         C  1 -- C  3          +9.3% ( 52.0%)     18.6%
 EFFECTIVE MASS     11.9909
 FORCE CONSTANT      6.8256

 VIBRATION         26   26A           ATOM PAIR      ENERGY CONTRIBUTION    RADIAL
 FREQUENCY          1804.71         C  2 -- C  4         +28.0% ( 88.5%)     98.0%
 TRANSITION DIPOLE   0.0610         C  2 -- C  5         +13.2% ( 60.7%)    100.0%
 TRAVEL (Ang.)       0.0988         C  1 -- C  2         +11.1% ( 55.8%)      0.7%
 REDUCED MASS        3.8274         C  2 -- C  6         +10.7% ( 54.7%)     52.4%
 EFFECTIVE MASS     11.8288
 FORCE CONSTANT      7.3446

 VIBRATION         27   27A           ATOM PAIR      ENERGY CONTRIBUTION    RADIAL
 FREQUENCY          2337.78         C  6 -- C  7         +55.8% ( 95.1%)    100.0%
 TRANSITION DIPOLE   0.4646         C  2 -- C  6         +30.3% ( 70.1%)    100.0%
 TRAVEL (Ang.)       0.0736         C  7 -- H 13          +9.6% ( 39.4%)    100.0%
 REDUCED MASS        5.3260         C  2 -- C  4          +1.5% ( 15.5%)     54.4%
 EFFECTIVE MASS     11.5407
 FORCE CONSTANT     17.1497

 VIBRATION         28   28A           ATOM PAIR      ENERGY CONTRIBUTION    RADIAL
 FREQUENCY          2985.61         C  1 -- H  9         +49.0% ( 72.5%)     96.8%
 TRANSITION DIPOLE   0.1959         C  1 -- H  8         +48.9% ( 72.4%)     96.8%
 TRAVEL (Ang.)       0.2090         C  1 -- C  3          +1.1% ( 10.7%)      0.0%
 REDUCED MASS        0.5172         C  1 -- C  2          +1.1% ( 10.7%)      0.0%
 EFFECTIVE MASS      1.5317
 FORCE CONSTANT      2.7163

 VIBRATION         29   29A           ATOM PAIR      ENERGY CONTRIBUTION    RADIAL
 FREQUENCY          3053.49         C  1 -- H  8         +49.3% ( 69.4%)     97.3%
 TRANSITION DIPOLE   0.3053         C  1 -- H  9         +49.1% ( 69.3%)     97.3%
 TRAVEL (Ang.)       0.2138         C  1 -- C  2          +0.7% (  8.4%)     38.2%
 REDUCED MASS        0.4832         C  1 -- C  3          +0.7% (  8.4%)     36.0%
 EFFECTIVE MASS      1.2862
 FORCE CONSTANT      2.6545

 VIBRATION         30   30A           ATOM PAIR      ENERGY CONTRIBUTION    RADIAL
 FREQUENCY          3132.35         C  5 -- H 12         +63.9% ( 81.9%)    100.0%
 TRANSITION DIPOLE   0.2823         C  3 -- H 10         +26.5% ( 52.8%)    100.0%
 TRAVEL (Ang.)       0.2097         C  4 -- H 11          +5.3% ( 23.5%)    100.0%
 REDUCED MASS        0.4896         C  3 -- C  5          +1.2% ( 11.1%)      3.8%
 EFFECTIVE MASS      1.4884
 FORCE CONSTANT      2.8302

 VIBRATION         31   31A           ATOM PAIR      ENERGY CONTRIBUTION    RADIAL
 FREQUENCY          3140.22         C  4 -- H 11         +76.8% ( 89.9%)    100.0%
 TRANSITION DIPOLE   0.5005         C  3 -- H 10         +18.1% ( 43.7%)    100.0%
 TRAVEL (Ang.)       0.1828         C  3 -- C  4          +1.5% ( 12.7%)     41.8%
 REDUCED MASS        0.6425         C  2 -- C  4          +1.4% ( 12.3%)     47.4%
 EFFECTIVE MASS      1.5436
 FORCE CONSTANT      3.7331

 VIBRATION         32   32A           ATOM PAIR      ENERGY CONTRIBUTION    RADIAL
 FREQUENCY          3152.32         C  3 -- H 10         +50.0% ( 72.8%)     99.9%
 TRANSITION DIPOLE   0.4723         C  5 -- H 12         +30.9% ( 57.2%)     99.9%
 TRAVEL (Ang.)       0.2358         C  4 -- H 11         +12.7% ( 36.7%)    100.0%
 REDUCED MASS        0.3849         C  3 -- C  5          +2.1% ( 14.8%)     98.9%
 EFFECTIVE MASS      1.6604
 FORCE CONSTANT      2.2533

 VIBRATION         33   33A           ATOM PAIR      ENERGY CONTRIBUTION    RADIAL
 FREQUENCY          3357.95         C  7 -- H 13         +94.1% ( 99.1%)    100.0%
 TRANSITION DIPOLE   1.0224         C  6 -- C  7          +5.6% ( 24.2%)    100.0%
 TRAVEL (Ang.)       0.1453         C  2 -- C  6          +0.3% (  5.9%)    100.0%
 REDUCED MASS        0.9513
 EFFECTIVE MASS      2.0669
 FORCE CONSTANT      6.3200

      SYMMETRY NUMBER FOR POINT-GROUP C1  =  1


          SYSTEM IS A GROUND STATE



 InChI=1S/C7H6/c1-2-7-5-3-4-6-7/h1,3-5H,6H2


          MOLECULE IS NOT LINEAR

          THERE ARE 33 GENUINE VIBRATIONS IN THIS SYSTEM
          THIS THERMODYNAMICS CALCULATION IS LIMITED TO
          MOLECULES WHICH HAVE NO INTERNAL ROTATIONS




                    CALCULATED THERMODYNAMIC PROPERTIES
                                          *
   TEMP. (K)   PARTITION FUNCTION   H.O.F.    ENTHALPY  HEAT CAPACITY ENTROPY
                                   KCAL/MOL   CAL/MOLE    CAL/K/MOL  CAL/K/MOL


 298.00  VIB.     0.6653D+01                  1917.0325    16.3115    10.1989
         ROT.     0.1742D+06                   888.2803     2.9808    26.9626
         INT.     0.1159D+07                  2805.3128    19.2924    37.1616
         TRA.     0.8272D+27                  1480.4672     4.9680    39.4058
         TOT.                       81.863    4285.7799    24.2604    76.5674

 200.00  VIB.     0.2545D+01                   688.3929     8.8820     5.2981
         ROT.     0.9579D+05                   596.1613     2.9808    25.7740
         INT.     0.2438D+06                  1284.5541    11.8628    31.0720
         TRA.     0.4548D+27                   993.6021     4.9680    37.4247
         TOT.                       79.855    2278.1563    16.8308    68.4967

 210.00  VIB.     0.2778D+01                   780.7454     9.5918     5.7485
         ROT.     0.1031D+06                   625.9693     2.9808    25.9194
         INT.     0.2864D+06                  1406.7148    12.5726    31.6679
         TRA.     0.4893D+27                  1043.2822     4.9680    37.6671
         TOT.                       80.027    2449.9970    17.5406    69.3350

 220.00  VIB.     0.3041D+01                   880.2893    10.3198     6.2115
         ROT.     0.1105D+06                   655.7774     2.9808    26.0581
         INT.     0.3361D+06                  1536.0668    13.3006    32.2695
         TRA.     0.5247D+27                  1092.9623     4.9680    37.8982
         TOT.                       80.206    2629.0291    18.2686    70.1677

 230.00  VIB.     0.3336D+01                   987.1929    11.0632     6.6865
         ROT.     0.1181D+06                   685.5855     2.9808    26.1906
         INT.     0.3942D+06                  1672.7784    14.0440    32.8771
         TRA.     0.5609D+27                  1142.6424     4.9680    38.1190
         TOT.                       80.392    2815.4208    19.0121    70.9961

 240.00  VIB.     0.3669D+01                  1101.5958    11.8192     7.1733
         ROT.     0.1259D+06                   715.3935     2.9808    26.3174
         INT.     0.4621D+06                  1816.9894    14.8000    33.4907
         TRA.     0.5978D+27                  1192.3226     4.9680    38.3305
         TOT.                       80.586    3009.3119    19.7680    71.8212

 250.00  VIB.     0.4045D+01                  1223.6090    12.5848     7.6713
         ROT.     0.1339D+06                   745.2016     2.9808    26.4391
         INT.     0.5415D+06                  1968.8106    15.5656    34.1104
         TRA.     0.6356D+27                  1242.0027     4.9680    38.5333
         TOT.                       80.788    3210.8132    20.5336    72.6437

 260.00  VIB.     0.4468D+01                  1353.3150    13.3573     8.1799
         ROT.     0.1420D+06                   775.0097     2.9808    26.5560
         INT.     0.6344D+06                  2128.3247    16.3381    34.7359
         TRA.     0.6741D+27                  1291.6828     4.9680    38.7281
         TOT.                       80.997    3420.0075    21.3061    73.4641

 270.00  VIB.     0.4947D+01                  1490.7697    14.1341     8.6986
         ROT.     0.1503D+06                   804.8177     2.9808    26.6685
         INT.     0.7434D+06                  2295.5874    17.1149    35.3671
         TRA.     0.7134D+27                  1341.3629     4.9680    38.9156
         TOT.                       81.214    3636.9503    22.0829    74.2827

 280.00  VIB.     0.5489D+01                  1636.0031    14.9127     9.2267
         ROT.     0.1587D+06                   834.6258     2.9808    26.7769
         INT.     0.8711D+06                  2470.6289    17.8935    36.0036
         TRA.     0.7534D+27                  1391.0430     4.9680    39.0963
         TOT.                       81.439    3861.6719    22.8615    75.0999

 290.00  VIB.     0.6103D+01                  1789.0217    15.6908     9.7636
         ROT.     0.1673D+06                   864.4339     2.9808    26.8815
         INT.     0.1021D+07                  2653.4556    18.6716    36.6451
         TRA.     0.7941D+27                  1440.7231     4.9680    39.2706
         TOT.                       81.671    4094.1787    23.6396    75.9157

 300.00  VIB.     0.6800D+01                  1949.8104    16.4664    10.3086
         ROT.     0.1760D+06                   894.2419     2.9808    26.9826
         INT.     0.1197D+07                  2844.0523    19.4472    37.2912
         TRA.     0.8355D+27                  1490.4032     4.9680    39.4391
         TOT.                       81.911    4334.4555    24.4152    76.7302

 310.00  VIB.     0.7590D+01                  2118.3344    17.2376    10.8611
         ROT.     0.1849D+06                   924.0500     2.9808    27.0803
         INT.     0.1403D+07                  3042.3844    20.2184    37.9414
         TRA.     0.8776D+27                  1540.0833     4.9680    39.6020
         TOT.                       82.159    4582.4677    25.1864    77.5434

 320.00  VIB.     0.8488D+01                  2294.5416    18.0027    11.4205
         ROT.     0.1939D+06                   953.8580     2.9808    27.1750
         INT.     0.1646D+07                  3248.3996    20.9835    38.5954
         TRA.     0.9204D+27                  1589.7634     4.9680    39.7597
         TOT.                       82.415    4838.1630    25.9516    78.3551

 330.00  VIB.     0.9510D+01                  2478.3644    18.7605    11.9861
         ROT.     0.2030D+06                   983.6661     2.9808    27.2667
         INT.     0.1931D+07                  3462.0305    21.7413    39.2527
         TRA.     0.9639D+27                  1639.4435     4.9680    39.9126
         TOT.                       82.678    5101.4740    26.7093    79.1653

 340.00  VIB.     0.1067D+02                  2669.7221    19.5095    12.5573
         ROT.     0.2123D+06                  1013.4742     2.9808    27.3557
         INT.     0.2266D+07                  3683.1962    22.4903    39.9129
         TRA.     0.1008D+28                  1689.1236     4.9680    40.0609
         TOT.                       82.949    5372.3198    27.4583    79.9738

 350.00  VIB.     0.1200D+02                  2868.5222    20.2488    13.1335
         ROT.     0.2218D+06                  1043.2822     2.9808    27.4421
         INT.     0.2661D+07                  3911.8045    23.2296    40.5756
         TRA.     0.1053D+28                  1738.8037     4.9680    40.2049
         TOT.                       83.227    5650.6082    28.1976    80.7804

 360.00  VIB.     0.1351D+02                  3074.6630    20.9775    13.7141
         ROT.     0.2313D+06                  1073.0903     2.9808    27.5260
         INT.     0.3125D+07                  4147.7533    23.9583    41.2402
         TRA.     0.1098D+28                  1788.4838     4.9680    40.3448
         TOT.                       83.513    5936.2371    28.9263    81.5850

 370.00  VIB.     0.1523D+02                  3288.0343    21.6948    14.2987
         ROT.     0.2410D+06                  1102.8984     2.9808    27.6077
         INT.     0.3672D+07                  4390.9327    24.6756    41.9064
         TRA.     0.1144D+28                  1838.1639     4.9680    40.4810
         TOT.                       83.806    6229.0966    29.6436    82.3874

 380.00  VIB.     0.1720D+02                  3508.5198    22.4002    14.8867
         ROT.     0.2509D+06                  1132.7064     2.9808    27.6872
         INT.     0.4316D+07                  4641.2262    25.3810    42.5739
         TRA.     0.1191D+28                  1887.8440     4.9680    40.6134
         TOT.                       84.106    6529.0703    30.3491    83.1873

 390.00  VIB.     0.1945D+02                  3735.9977    23.0933    15.4775
         ROT.     0.2609D+06                  1162.5145     2.9808    27.7646
         INT.     0.5074D+07                  4898.5122    26.0741    43.2422
         TRA.     0.1238D+28                  1937.5242     4.9680    40.7425
         TOT.                       84.413    6836.0364    31.0421    83.9847

 400.00  VIB.     0.2203D+02                  3970.3426    23.7736    16.0708
         ROT.     0.2709D+06                  1192.3226     2.9808    27.8401
         INT.     0.5968D+07                  5162.6652    26.7544    43.9109
         TRA.     0.1286D+28                  1987.2043     4.9680    40.8683
         TOT.                       84.727    7149.8694    31.7224    84.7792

   *: NOTE: HEATS OF FORMATION ARE RELATIVE TO THE
            ELEMENTS IN THEIR STANDARD STATE AT 298K
              (=  Standard Enthalpy of Formation).

            Hvib:  Zero-point energy is not included.
                   frequencies of less than zero cm-1 are not included.
            Hrot = (3/2)RT
            Htra = (3/2)RT + pV = (5/2)RT

            Heat capacity is Cp, not Cv

          For more information, see: HTTP://OpenMOPAC.net/Manual/thermochemistry.html


           FORCE CONSTANT IN CARTESIAN COORDINATES (Millidynes/A)

    ATOM   CHEMICAL       X               Y               Z
   NUMBER   SYMBOL  FORCE CONSTANT  FORCE CONSTANT  FORCE CONSTANT

      1       C        8.420299        9.175057        7.791975
      2       C       10.029953       16.284248        2.505567
      3       C       14.824393        9.524429        2.327488
      4       C       12.484131       12.443360        2.196653
      5       C       11.496556       13.582184        2.209356
      6       C        8.744180       18.645724        1.478263
      7       C        7.810641       17.124375        1.255528
      8       H        1.201569        1.517019        3.556262
      9       H        1.200049        1.515332        3.558683
     10       H        4.862796        1.259817        0.333100
     11       H        4.970220        1.139295        0.344880
     12       H        0.736986        5.364651        0.349413
     13       H        1.994141        4.370633        0.316142

 **********************
 *                    *
 * JOB ENDED NORMALLY *
 *                    *
 **********************



 TOTAL JOB TIME:             0.89 SECONDS

 == MOPAC DONE ==
