 *******************************************************************************
 **                                                                           **
 **                              MOPAC v23.1.2                                **
 **                                                                           **
 *******************************************************************************
 **          Digital Object Identifier (DOI): 10.5281/zenodo.6511958          **
 **    Visit the DOI location for information on how to cite this program.    **
 *******************************************************************************

                              PM3 CALCULATION RESULTS

 *******************************************************************************
 *  CALCULATION DONE: (MAX THREADS = 1)              Tue Jun  3 16:31:06 2025  *
 *  PM3        - The PM3 Hamiltonian to be used
 *  PRECISE    - TIGHTER CRITERIA TO BE USED
 *  NOSYM      - POINT-GROUP SYMMETRY SET TO C1
 *  THREADS=1  - MULTI-THREADING NOT USED
 *  T=         - A TIME OF 172800.0 SECONDS REQUESTED
 *  DUMP=N     - RESTART FILE WRITTEN EVERY 7200.0 SECONDS REQUESTED
 *******************************************************************************
pm3  precise nosym THREADS=1
 InChI=1S/C10H10/c1-2-3-7-10-8-5-4-6-9-10/h1,4-8H,3,9H2

   ATOM   CHEMICAL          X               Y               Z
  NUMBER   SYMBOL      (ANGSTROMS)     (ANGSTROMS)     (ANGSTROMS)

     1       C         -0.54150000  *   0.74860000  *  -0.40510000  *
     2       C          1.89790000  *  -0.68610000  *  -1.38440000  *
     3       C         -0.19250000  *  -0.66590000  *   0.02640000  *
     4       C          0.90880000  *  -1.29430000  *  -0.42870000  *
     5       C         -1.81420000  *   1.27570000  *   0.20740000  *
     6       C         -1.08700000  *  -1.38560000  *   0.96050000  *
     7       C         -2.56490000  *   0.55830000  *   1.04710000  *
     8       C         -2.19170000  *  -0.80980000  *   1.43370000  *
     9       C          2.73850000  *   0.30180000  *  -0.69960000  *
    10       C          3.42910000  *   1.11430000  *  -0.13720000  *
    11       H          0.28120000  *   1.43620000  *  -0.11880000  *
    12       H         -0.65910000  *   0.77720000  *  -1.50890000  *
    13       H          2.55770000  *  -1.48630000  *  -1.78040000  *
    14       H          1.38110000  *  -0.21530000  *  -2.24630000  *
    15       H          1.10120000  *  -2.31520000  *  -0.11710000  *
    16       H         -2.12940000  *   2.27950000  *  -0.04920000  *
    17       H         -0.85030000  *  -2.39630000  *   1.27260000  *
    18       H         -2.82960000  *  -1.35660000  *   2.11640000  *
    19       H         -3.47000000  *   0.99020000  *   1.45490000  *
    20       H          4.03470000  *   1.82780000  *   0.35680000  *



          CARTESIAN COORDINATES 

    NO.       ATOM           X           Y           Z

     1         C         -0.5415      0.7486     -0.4051
     2         C          1.8979     -0.6861     -1.3844
     3         C         -0.1925     -0.6659      0.0264
     4         C          0.9088     -1.2943     -0.4287
     5         C         -1.8142      1.2757      0.2074
     6         C         -1.0870     -1.3856      0.9605
     7         C         -2.5649      0.5583      1.0471
     8         C         -2.1917     -0.8098      1.4337
     9         C          2.7385      0.3018     -0.6996
    10         C          3.4291      1.1143     -0.1372
    11         H          0.2812      1.4362     -0.1188
    12         H         -0.6591      0.7772     -1.5089
    13         H          2.5577     -1.4863     -1.7804
    14         H          1.3811     -0.2153     -2.2463
    15         H          1.1012     -2.3152     -0.1171
    16         H         -2.1294      2.2795     -0.0492
    17         H         -0.8503     -2.3963      1.2726
    18         H         -2.8296     -1.3566      2.1164
    19         H         -3.4700      0.9902      1.4549
    20         H          4.0347      1.8278      0.3568

  H: (PM3): J. J. P. STEWART, J. COMP. CHEM. 10, 209 (1989).
  C: (PM3): J. J. P. STEWART, J. COMP. CHEM. 10, 209 (1989).

           Empirical Formula: C10 H10  =    20 atoms



      MOLECULAR POINT GROUP   :   C1  


      RHF CALCULATION, NO. OF DOUBLY OCCUPIED LEVELS = 25


          Geometry optimization using EF

          DIAGONAL MATRIX USED AS START HESSIAN

 CYCLE:     1 TIME:   0.012 TIME LEFT:  2.00D  GRAD.:    87.749 HEAT:  87.75757
 CYCLE:     2 TIME:   0.012 TIME LEFT:  2.00D  GRAD.:    89.511 HEAT:  86.49657
 CYCLE:     3 TIME:   0.012 TIME LEFT:  2.00D  GRAD.:    52.357 HEAT:  85.93469
 CYCLE:     4 TIME:   0.008 TIME LEFT:  2.00D  GRAD.:    29.102 HEAT:  85.51900
 CYCLE:     5 TIME:   0.012 TIME LEFT:  2.00D  GRAD.:    24.337 HEAT:  85.34360
 CYCLE:     6 TIME:   0.008 TIME LEFT:  2.00D  GRAD.:    32.969 HEAT:  85.27201
 CYCLE:     7 TIME:   0.004 TIME LEFT:  2.00D  GRAD.:    30.142 HEAT:  85.15562
 CYCLE:     8 TIME:   0.008 TIME LEFT:  2.00D  GRAD.:    34.207 HEAT:  85.13247
 CYCLE:     9 TIME:   0.008 TIME LEFT:  2.00D  GRAD.:    23.551 HEAT:  85.02429
 CYCLE:    10 TIME:   0.012 TIME LEFT:  2.00D  GRAD.:    14.529 HEAT:  84.92123
 CYCLE:    11 TIME:   0.012 TIME LEFT:  2.00D  GRAD.:     8.096 HEAT:  84.89389
 CYCLE:    12 TIME:   0.008 TIME LEFT:  2.00D  GRAD.:     9.445 HEAT:  84.88161
 CYCLE:    13 TIME:   0.008 TIME LEFT:  2.00D  GRAD.:     9.250 HEAT:  84.87673
 CYCLE:    14 TIME:   0.008 TIME LEFT:  2.00D  GRAD.:     6.095 HEAT:  84.86179
 CYCLE:    15 TIME:   0.012 TIME LEFT:  2.00D  GRAD.:     3.972 HEAT:  84.85732
 CYCLE:    16 TIME:   0.004 TIME LEFT:  2.00D  GRAD.:     2.938 HEAT:  84.85308
 CYCLE:    17 TIME:   0.008 TIME LEFT:  2.00D  GRAD.:     8.597 HEAT:  84.85470
 CYCLE:    18 TIME:   0.008 TIME LEFT:  2.00D  GRAD.:     4.204 HEAT:  84.84425
 CYCLE:    19 TIME:   0.008 TIME LEFT:  2.00D  GRAD.:     5.912 HEAT:  84.84450
 CYCLE:    20 TIME:   0.008 TIME LEFT:  2.00D  GRAD.:     3.078 HEAT:  84.83889
 CYCLE:    21 TIME:   0.008 TIME LEFT:  2.00D  GRAD.:     7.774 HEAT:  84.84373
 CYCLE:    22 TIME:   0.008 TIME LEFT:  2.00D  GRAD.:     1.813 HEAT:  84.83371
 CYCLE:    23 TIME:   0.008 TIME LEFT:  2.00D  GRAD.:     3.031 HEAT:  84.83336
 CYCLE:    24 TIME:   0.004 TIME LEFT:  2.00D  GRAD.:     1.539 HEAT:  84.82924
 CYCLE:    25 TIME:   0.008 TIME LEFT:  2.00D  GRAD.:     2.176 HEAT:  84.82703
 CYCLE:    26 TIME:   0.008 TIME LEFT:  2.00D  GRAD.:     2.068 HEAT:  84.82396
 CYCLE:    27 TIME:   0.008 TIME LEFT:  2.00D  GRAD.:     1.751 HEAT:  84.82140
 CYCLE:    28 TIME:   0.004 TIME LEFT:  2.00D  GRAD.:     1.529 HEAT:  84.81793
 CYCLE:    29 TIME:   0.008 TIME LEFT:  2.00D  GRAD.:     2.653 HEAT:  84.81554
 CYCLE:    30 TIME:   0.008 TIME LEFT:  2.00D  GRAD.:     1.703 HEAT:  84.81278
 CYCLE:    31 TIME:   0.004 TIME LEFT:  2.00D  GRAD.:     1.139 HEAT:  84.81114
 CYCLE:    32 TIME:   0.008 TIME LEFT:  2.00D  GRAD.:     0.913 HEAT:  84.80961
 CYCLE:    33 TIME:   0.008 TIME LEFT:  2.00D  GRAD.:     0.582 HEAT:  84.80904
 CYCLE:    34 TIME:   0.004 TIME LEFT:  2.00D  GRAD.:     0.507 HEAT:  84.80869
 CYCLE:    35 TIME:   0.008 TIME LEFT:  2.00D  GRAD.:     0.470 HEAT:  84.80848
 CYCLE:    36 TIME:   0.008 TIME LEFT:  2.00D  GRAD.:     0.410 HEAT:  84.80822
 CYCLE:    37 TIME:   0.008 TIME LEFT:  2.00D  GRAD.:     0.360 HEAT:  84.80792
 CYCLE:    38 TIME:   0.008 TIME LEFT:  2.00D  GRAD.:     0.426 HEAT:  84.80758
 CYCLE:    39 TIME:   0.004 TIME LEFT:  2.00D  GRAD.:     0.524 HEAT:  84.80707
 CYCLE:    40 TIME:   0.008 TIME LEFT:  2.00D  GRAD.:     0.506 HEAT:  84.80649
 CYCLE:    41 TIME:   0.008 TIME LEFT:  2.00D  GRAD.:     0.445 HEAT:  84.80587
 CYCLE:    42 TIME:   0.004 TIME LEFT:  2.00D  GRAD.:     0.393 HEAT:  84.80554
 CYCLE:    43 TIME:   0.008 TIME LEFT:  2.00D  GRAD.:     0.447 HEAT:  84.80497
 CYCLE:    44 TIME:   0.008 TIME LEFT:  2.00D  GRAD.:     0.472 HEAT:  84.80463
 CYCLE:    45 TIME:   0.008 TIME LEFT:  2.00D  GRAD.:     0.543 HEAT:  84.80387
 CYCLE:    46 TIME:   0.004 TIME LEFT:  2.00D  GRAD.:     0.417 HEAT:  84.80350
 CYCLE:    47 TIME:   0.008 TIME LEFT:  2.00D  GRAD.:     0.410 HEAT:  84.80309
 CYCLE:    48 TIME:   0.008 TIME LEFT:  2.00D  GRAD.:     0.277 HEAT:  84.80293
 CYCLE:    49 TIME:   0.004 TIME LEFT:  2.00D  GRAD.:     0.220 HEAT:  84.80269
 CYCLE:    50 TIME:   0.008 TIME LEFT:  2.00D  GRAD.:     0.208 HEAT:  84.80254
 CYCLE:    51 TIME:   0.008 TIME LEFT:  2.00D  GRAD.:     0.257 HEAT:  84.80242
 CYCLE:    52 TIME:   0.008 TIME LEFT:  2.00D  GRAD.:     0.165 HEAT:  84.80227
 CYCLE:    53 TIME:   0.004 TIME LEFT:  2.00D  GRAD.:     0.139 HEAT:  84.80219
 CYCLE:    54 TIME:   0.012 TIME LEFT:  2.00D  GRAD.:     0.189 HEAT:  84.80209
 CYCLE:    55 TIME:   0.004 TIME LEFT:  2.00D  GRAD.:     0.205 HEAT:  84.80196
 CYCLE:    56 TIME:   0.008 TIME LEFT:  2.00D  GRAD.:     0.438 HEAT:  84.80188
 CYCLE:    57 TIME:   0.008 TIME LEFT:  2.00D  GRAD.:     0.258 HEAT:  84.80144
 CYCLE:    58 TIME:   0.004 TIME LEFT:  2.00D  GRAD.:     0.240 HEAT:  84.80131
 CYCLE:    59 TIME:   0.008 TIME LEFT:  2.00D  GRAD.:     0.325 HEAT:  84.80097
 CYCLE:    60 TIME:   0.008 TIME LEFT:  2.00D  GRAD.:     0.395 HEAT:  84.80064
 CYCLE:    61 TIME:   0.008 TIME LEFT:  2.00D  GRAD.:     0.387 HEAT:  84.80011
 CYCLE:    62 TIME:   0.008 TIME LEFT:  2.00D  GRAD.:     0.378 HEAT:  84.79977
 CYCLE:    63 TIME:   0.004 TIME LEFT:  2.00D  GRAD.:     0.399 HEAT:  84.79930
 CYCLE:    64 TIME:   0.008 TIME LEFT:  2.00D  GRAD.:     0.370 HEAT:  84.79899
 CYCLE:    65 TIME:   0.008 TIME LEFT:  2.00D  GRAD.:     0.504 HEAT:  84.79823
 CYCLE:    66 TIME:   0.004 TIME LEFT:  2.00D  GRAD.:     0.365 HEAT:  84.79782
 CYCLE:    67 TIME:   0.008 TIME LEFT:  2.00D  GRAD.:     0.254 HEAT:  84.79716
 CYCLE:    68 TIME:   0.008 TIME LEFT:  2.00D  GRAD.:     0.278 HEAT:  84.79689
 CYCLE:    69 TIME:   0.008 TIME LEFT:  2.00D  GRAD.:     0.312 HEAT:  84.79673
 CYCLE:    70 TIME:   0.008 TIME LEFT:  2.00D  GRAD.:     0.253 HEAT:  84.79649
 CYCLE:    71 TIME:   0.008 TIME LEFT:  2.00D  GRAD.:     0.332 HEAT:  84.79803
 CYCLE:    72 TIME:   0.004 TIME LEFT:  2.00D  GRAD.:     0.178 HEAT:  84.79628
 CYCLE:    73 TIME:   0.008 TIME LEFT:  2.00D  GRAD.:     0.143 HEAT:  84.79618
 CYCLE:    74 TIME:   0.008 TIME LEFT:  2.00D  GRAD.:     1.603 HEAT:  84.80014
 CYCLE:    75 TIME:   0.008 TIME LEFT:  2.00D  GRAD.:     0.134 HEAT:  84.79603
 CYCLE:    76 TIME:   0.008 TIME LEFT:  2.00D  GRAD.:     0.133 HEAT:  84.79599
 CYCLE:    77 TIME:   0.008 TIME LEFT:  2.00D  GRAD.:     0.192 HEAT:  84.79589
 CYCLE:    78 TIME:   0.004 TIME LEFT:  2.00D  GRAD.:     0.176 HEAT:  84.79583
 CYCLE:    79 TIME:   0.008 TIME LEFT:  2.00D  GRAD.:     1.257 HEAT:  84.80027
 CYCLE:    80 TIME:   0.008 TIME LEFT:  2.00D  GRAD.:     0.197 HEAT:  84.79552
 CYCLE:    81 TIME:   0.008 TIME LEFT:  2.00D  GRAD.:     0.201 HEAT:  84.79546
 CYCLE:    82 TIME:   0.008 TIME LEFT:  2.00D  GRAD.:     0.167 HEAT:  84.79526
 CYCLE:    83 TIME:   0.008 TIME LEFT:  2.00D  GRAD.:     0.221 HEAT:  84.79518
 CYCLE:    84 TIME:   0.004 TIME LEFT:  2.00D  GRAD.:     0.175 HEAT:  84.79510
 CYCLE:    85 TIME:   0.008 TIME LEFT:  2.00D  GRAD.:     0.201 HEAT:  84.79491
 CYCLE:    86 TIME:   0.008 TIME LEFT:  2.00D  GRAD.:     0.295 HEAT:  84.79474
 CYCLE:    87 TIME:   0.008 TIME LEFT:  2.00D  GRAD.:     0.461 HEAT:  84.79443
 CYCLE:    88 TIME:   0.008 TIME LEFT:  2.00D  GRAD.:     0.389 HEAT:  84.79412
 CYCLE:    89 TIME:   0.012 TIME LEFT:  2.00D  GRAD.:     1.923 HEAT:  84.79853
 CYCLE:    90 TIME:   0.008 TIME LEFT:  2.00D  GRAD.:     0.368 HEAT:  84.79263
 CYCLE:    91 TIME:   0.008 TIME LEFT:  2.00D  GRAD.:     0.264 HEAT:  84.79225
 CYCLE:    92 TIME:   0.008 TIME LEFT:  2.00D  GRAD.:     0.798 HEAT:  84.79060
 CYCLE:    93 TIME:   0.008 TIME LEFT:  2.00D  GRAD.:     0.508 HEAT:  84.78941
 CYCLE:    94 TIME:   0.008 TIME LEFT:  2.00D  GRAD.:     1.233 HEAT:  84.78674
 CYCLE:    95 TIME:   0.008 TIME LEFT:  2.00D  GRAD.:     0.573 HEAT:  84.78550
 CYCLE:    96 TIME:   0.008 TIME LEFT:  2.00D  GRAD.:     0.561 HEAT:  84.78443
 CYCLE:    97 TIME:   0.008 TIME LEFT:  2.00D  GRAD.:     0.723 HEAT:  84.78303
 CYCLE:    98 TIME:   0.008 TIME LEFT:  2.00D  GRAD.:     0.932 HEAT:  84.78167
 CYCLE:    99 TIME:   0.004 TIME LEFT:  2.00D  GRAD.:     0.546 HEAT:  84.78015
 CYCLE:   100 TIME:   0.008 TIME LEFT:  2.00D  GRAD.:     1.449 HEAT:  84.77947
 CYCLE:   101 TIME:   0.008 TIME LEFT:  2.00D  GRAD.:     0.662 HEAT:  84.77821
 CYCLE:   102 TIME:   0.008 TIME LEFT:  2.00D  GRAD.:     0.657 HEAT:  84.77606
 CYCLE:   103 TIME:   0.008 TIME LEFT:  2.00D  GRAD.:     1.170 HEAT:  84.77409
 CYCLE:   104 TIME:   0.008 TIME LEFT:  2.00D  GRAD.:     2.020 HEAT:  84.77240
 CYCLE:   105 TIME:   0.008 TIME LEFT:  2.00D  GRAD.:     0.999 HEAT:  84.77160
 CYCLE:   106 TIME:   0.008 TIME LEFT:  2.00D  GRAD.:     1.645 HEAT:  84.77056
 CYCLE:   107 TIME:   0.008 TIME LEFT:  2.00D  GRAD.:     1.319 HEAT:  84.76883
 CYCLE:   108 TIME:   0.004 TIME LEFT:  2.00D  GRAD.:     2.815 HEAT:  84.76662
 CYCLE:   109 TIME:   0.008 TIME LEFT:  2.00D  GRAD.:     1.024 HEAT:  84.76498
 CYCLE:   110 TIME:   0.008 TIME LEFT:  2.00D  GRAD.:     1.676 HEAT:  84.76275
 CYCLE:   111 TIME:   0.008 TIME LEFT:  2.00D  GRAD.:     1.578 HEAT:  84.76012
 CYCLE:   112 TIME:   0.008 TIME LEFT:  2.00D  GRAD.:     1.089 HEAT:  84.75705
 CYCLE:   113 TIME:   0.008 TIME LEFT:  2.00D  GRAD.:     2.201 HEAT:  84.75360
 CYCLE:   114 TIME:   0.008 TIME LEFT:  2.00D  GRAD.:     2.087 HEAT:  84.74832
 CYCLE:   115 TIME:   0.008 TIME LEFT:  2.00D  GRAD.:     1.261 HEAT:  84.74393
 CYCLE:   116 TIME:   0.008 TIME LEFT:  2.00D  GRAD.:     1.121 HEAT:  84.73731
 CYCLE:   117 TIME:   0.008 TIME LEFT:  2.00D  GRAD.:     2.416 HEAT:  84.72754
 CYCLE:   118 TIME:   0.008 TIME LEFT:  2.00D  GRAD.:     8.228 HEAT:  84.71854
 CYCLE:   119 TIME:   0.008 TIME LEFT:  2.00D  GRAD.:     8.671 HEAT:  84.71150
 CYCLE:   120 TIME:   0.008 TIME LEFT:  2.00D  GRAD.:    10.963 HEAT:  84.69348
 CYCLE:   121 TIME:   0.008 TIME LEFT:  2.00D  GRAD.:    15.061 HEAT:  84.67661
 CYCLE:   122 TIME:   0.020 TIME LEFT:  2.00D  GRAD.:    23.301 HEAT:  84.66356
 CYCLE:   123 TIME:   0.008 TIME LEFT:  2.00D  GRAD.:     6.214 HEAT:  84.53531
 CYCLE:   124 TIME:   0.008 TIME LEFT:  2.00D  GRAD.:     5.046 HEAT:  84.50021
 CYCLE:   125 TIME:   0.008 TIME LEFT:  2.00D  GRAD.:     9.329 HEAT:  84.47827
 CYCLE:   126 TIME:   0.012 TIME LEFT:  2.00D  GRAD.:     8.134 HEAT:  84.46196
 CYCLE:   127 TIME:   0.008 TIME LEFT:  2.00D  GRAD.:     8.439 HEAT:  84.44399
 CYCLE:   128 TIME:   0.016 TIME LEFT:  2.00D  GRAD.:     6.715 HEAT:  84.43393
 CYCLE:   129 TIME:   0.008 TIME LEFT:  2.00D  GRAD.:     4.698 HEAT:  84.42052
 CYCLE:   130 TIME:   0.008 TIME LEFT:  2.00D  GRAD.:     2.119 HEAT:  84.41256
 CYCLE:   131 TIME:   0.008 TIME LEFT:  2.00D  GRAD.:     4.060 HEAT:  84.40666
 CYCLE:   132 TIME:   0.008 TIME LEFT:  2.00D  GRAD.:     2.187 HEAT:  84.40171
 CYCLE:   133 TIME:   0.008 TIME LEFT:  2.00D  GRAD.:     4.764 HEAT:  84.40172
 CYCLE:   134 TIME:   0.008 TIME LEFT:  2.00D  GRAD.:     1.358 HEAT:  84.39591
 CYCLE:   135 TIME:   0.008 TIME LEFT:  2.00D  GRAD.:     1.861 HEAT:  84.39587
 CYCLE:   136 TIME:   0.008 TIME LEFT:  2.00D  GRAD.:     0.728 HEAT:  84.39410
 CYCLE:   137 TIME:   0.008 TIME LEFT:  2.00D  GRAD.:     0.546 HEAT:  84.39334
 CYCLE:   138 TIME:   0.008 TIME LEFT:  2.00D  GRAD.:     0.459 HEAT:  84.39262
 CYCLE:   139 TIME:   0.008 TIME LEFT:  2.00D  GRAD.:     0.354 HEAT:  84.39241
 CYCLE:   140 TIME:   0.008 TIME LEFT:  2.00D  GRAD.:     0.306 HEAT:  84.39228
 CYCLE:   141 TIME:   0.008 TIME LEFT:  2.00D  GRAD.:     0.282 HEAT:  84.39218
 CYCLE:   142 TIME:   0.008 TIME LEFT:  2.00D  GRAD.:     0.285 HEAT:  84.39215
 CYCLE:   143 TIME:   0.012 TIME LEFT:  2.00D  GRAD.:     0.141 HEAT:  84.39206
 CYCLE:   144 TIME:   0.008 TIME LEFT:  2.00D  GRAD.:     0.399 HEAT:  84.39248
 CYCLE:   145 TIME:   0.008 TIME LEFT:  2.00D  GRAD.:     0.077 HEAT:  84.39204
 CYCLE:   146 TIME:   0.008 TIME LEFT:  2.00D  GRAD.:     0.076 HEAT:  84.39203
 CYCLE:   147 TIME:   0.008 TIME LEFT:  2.00D  GRAD.:     0.263 HEAT:  84.39215
 CYCLE:   148 TIME:   0.008 TIME LEFT:  2.00D  GRAD.:     0.078 HEAT:  84.39203
 CYCLE:   149 TIME:   0.008 TIME LEFT:  2.00D  GRAD.:     0.899 HEAT:  84.39738
 CYCLE:   150 TIME:   0.004 TIME LEFT:  2.00D  GRAD.:     0.407 HEAT:  84.39245
 CYCLE:   151 TIME:   0.008 TIME LEFT:  2.00D  GRAD.:     0.280 HEAT:  84.39206
 CYCLE:   152 TIME:   0.008 TIME LEFT:  2.00D  GRAD.:     0.062 HEAT:  84.39203
 CYCLE:   153 TIME:   0.008 TIME LEFT:  2.00D  GRAD.:     0.029 HEAT:  84.39203

     GRADIENT =  0.02854 IS LESS THAN CUTOFF =  0.05000



 -------------------------------------------------------------------------------
 pm3  precise nosym THREADS=1
 InChI=1S/C10H10/c1-2-3-7-10-8-5-4-6-9-10/h1,4-8H,3,9H2



     GEOMETRY OPTIMISED USING EIGENVECTOR FOLLOWING (EF).     
     SCF FIELD WAS ACHIEVED                                   


                              PM3 CALCULATION
                                                       MOPAC v23.1.2 MacOS
                                                       Tue Jun  3 16:31:07 2025




          FINAL HEAT OF FORMATION =         84.39203 KCAL/MOL =     353.09623 KJ/MOL


          COSMO AREA              =        185.23 SQUARE ANGSTROMS
          COSMO VOLUME            =        182.67 CUBIC ANGSTROMS

          GRADIENT NORM           =          0.02854          =       0.00638 PER ATOM
          IONIZATION POTENTIAL    =          8.601374 EV
          HOMO LUMO ENERGIES (EV) =         -8.601 -0.259
          NO. OF FILLED LEVELS    =         25
          MOLECULAR WEIGHT        =        130.1890         POINT GROUP:  C1  

          MOLECULAR DIMENSIONS (Angstroms)

            Atom       Atom       Distance
            H    20    H    19     8.88914
            H    17    H    16     4.76682
            H    11    H    13     3.32442


          SCF CALCULATIONS        =        169

          WALL-CLOCK TIME         =      1.191 SECONDS
          COMPUTATION TIME        =      0.744 SECONDS




   ATOM   CHEMICAL          X               Y               Z
  NUMBER   SYMBOL      (ANGSTROMS)     (ANGSTROMS)     (ANGSTROMS)

     1       C         -0.67497686  *   0.85713899  *  -0.23538105  *
     2       C          1.78102056  *  -0.37622862  *  -1.34578973  *
     3       C         -0.18263987  *  -0.48677224  *   0.19594097  *
     4       C          0.95003033  *  -1.02378820  *  -0.29139777  *
     5       C         -2.11936301  *   1.09242045  *   0.01178512  *
     6       C         -0.98719882  *  -1.22229970  *   1.16480229  *
     7       C         -2.84895482  *   0.29508552  *   0.80435098  *
     8       C         -2.24923237  *  -0.85650903  *   1.44614998  *
     9       C          3.00146793  *   0.16140057  *  -0.80049246  *
    10       C          4.01160943  *   0.60611344  *  -0.35220702  *
    11       H         -0.10017852  *   1.63739748  *   0.30858710  *
    12       H         -0.43148662  *   1.00981325  *  -1.31294678  *
    13       H          2.03160249  *  -1.11752778  *  -2.13113633  *
    14       H          1.21276686  *   0.44027547  *  -1.85041876  *
    15       H          1.30700490  *  -1.99361375  *   0.07626261  *
    16       H         -2.55906754  *   1.97121387  *  -0.47191709  *
    17       H         -0.53094529  *  -2.09956159  *   1.63810391  *
    18       H         -2.85911647  *  -1.41808817  *   2.16107289  *
    19       H         -3.90982265  *   0.48927103  *   0.99180951  *
    20       H          4.91408079  *   1.00326372  *   0.04769783  *

                             CARTESIAN COORDINATES

   1    C       -0.674976856     0.857138990    -0.235381047
   2    C        1.781020559    -0.376228620    -1.345789735
   3    C       -0.182639871    -0.486772244     0.195940966
   4    C        0.950030327    -1.023788196    -0.291397765
   5    C       -2.119363007     1.092420446     0.011785118
   6    C       -0.987198820    -1.222299701     1.164802286
   7    C       -2.848954821     0.295085521     0.804350977
   8    C       -2.249232367    -0.856509030     1.446149982
   9    C        3.001467934     0.161400568    -0.800492457
  10    C        4.011609429     0.606113440    -0.352207022
  11    H       -0.100178517     1.637397484     0.308587103
  12    H       -0.431486622     1.009813245    -1.312946782
  13    H        2.031602489    -1.117527781    -2.131136332
  14    H        1.212766860     0.440275465    -1.850418764
  15    H        1.307004897    -1.993613748     0.076262613
  16    H       -2.559067539     1.971213868    -0.471917092
  17    H       -0.530945291    -2.099561588     1.638103908
  18    H       -2.859116474    -1.418088167     2.161072892
  19    H       -3.909822652     0.489271028     0.991809510
  20    H        4.914080789     1.003263725     0.047697831


           Empirical Formula: C10 H10  =    20 atoms



      MOLECULAR POINT GROUP   :   C1  


                  EIGENVALUES  
 -40.27401 -35.37050 -30.86767 -30.30155 -27.31232 -24.02633 -21.44455 -19.64864
 -18.10254 -17.73983 -16.82789 -16.04084 -15.94256 -14.97321 -14.70591 -14.51189
 -14.32699 -13.23786 -12.66772 -12.07078 -11.68524 -11.03662 -10.83062 -10.60064
  -8.60137  -0.25872   1.15294   1.89618   1.91511   2.24469   2.78723   3.13857
   3.28706   3.36173   3.52180   3.73386   3.75482   4.03987   4.17984   4.28013
   4.34297   4.39154   4.46494   4.81374   5.24300   5.35376   5.60399   6.11184
   6.20699   6.68250


              NET ATOMIC CHARGES AND DIPOLE CONTRIBUTIONS

  ATOM NO.   TYPE          CHARGE      No. of ELECS.   s-Pop       p-Pop       
    1          C          -0.028502        4.0285     1.13377     2.89473
    2          C           0.079123        3.9209     1.10177     2.81910
    3          C          -0.071641        4.0716     1.18207     2.88957
    4          C          -0.156755        4.1568     1.19532     2.96144
    5          C          -0.125770        4.1258     1.19514     2.93063
    6          C          -0.096193        4.0962     1.18166     2.91453
    7          C          -0.117397        4.1174     1.17862     2.93878
    8          C          -0.094527        4.0945     1.17999     2.91454
    9          C          -0.180596        4.1806     1.21087     2.96972
   10          C          -0.187280        4.1873     1.21064     2.97664
   11          H           0.072052        0.9279     0.92795
   12          H           0.069068        0.9309     0.93093
   13          H           0.063000        0.9370     0.93700
   14          H           0.064898        0.9351     0.93510
   15          H           0.106940        0.8931     0.89306
   16          H           0.099625        0.9004     0.90038
   17          H           0.103552        0.8964     0.89645
   18          H           0.101653        0.8983     0.89835
   19          H           0.103030        0.8970     0.89697
   20          H           0.195720        0.8043     0.80428
 DIPOLE           X         Y         Z       TOTAL
 POINT-CHG.    -0.445     0.189    -0.303     0.570
 HYBRID         0.179     0.058     0.089     0.208
 SUM           -0.266     0.247    -0.214     0.421


          ATOMIC ORBITAL ELECTRON POPULATIONS

     Atom    s        px        py        pz   
    1  C   1.13377   0.94228   0.94890   1.00355
    2  C   1.10177   0.89092   0.98068   0.94750
    3  C   1.18207   0.95962   0.95769   0.97226
    4  C   1.19532   0.96625   0.99848   0.99671
    5  C   1.19514   0.95851   0.98803   0.98409
    6  C   1.18166   0.95380   0.98486   0.97587
    7  C   1.17862   0.98428   0.96642   0.98808
    8  C   1.17999   0.95858   0.96819   0.98776
    9  C   1.21087   0.96987   0.99764   1.00222
   10  C   1.21064   0.97327   1.00611   0.99726
   11  H   0.92795
   12  H   0.93093
   13  H   0.93700
   14  H   0.93510
   15  H   0.89306
   16  H   0.90038
   17  H   0.89645
   18  H   0.89835
   19  H   0.89697
   20  H   0.80428
 *******************************************************************************
 **                                                                           **
 **                              MOPAC v23.1.2                                **
 **                                                                           **
 *******************************************************************************
 **          Digital Object Identifier (DOI): 10.5281/zenodo.6511958          **
 **    Visit the DOI location for information on how to cite this program.    **
 *******************************************************************************

                              PM3 CALCULATION RESULTS

 *******************************************************************************
 *  CALCULATION DONE: (MAX THREADS = 1)              Tue Jun  3 16:31:07 2025  *
 *  PM3        - The PM3 Hamiltonian to be used
 *  OLDGEO     - PREVIOUS GEOMETRY TO BE USED
 *  PRECISE    - TIGHTER CRITERIA TO BE USED
 *  NOSYM      - POINT-GROUP SYMMETRY SET TO C1
 *  THREADS=1  - MULTI-THREADING NOT USED
 *  T=         - A TIME OF 172800.0 SECONDS REQUESTED
 *  DUMP=N     - RESTART FILE WRITTEN EVERY 7200.0 SECONDS REQUESTED
 *  THERMO     - THERMODYNAMIC QUANTITIES TO BE CALCULATED
 *******************************************************************************
oldgeo thermo nosym precise THREADS=1  pm3
 InChI=1S/C10H10/c1-2-3-7-10-8-5-4-6-9-10/h1,4-8H,3,9H2

   ATOM   CHEMICAL          X               Y               Z
  NUMBER   SYMBOL      (ANGSTROMS)     (ANGSTROMS)     (ANGSTROMS)

     1       C         -0.67497686  *   0.85713899  *  -0.23538105  *
     2       C          1.78102056  *  -0.37622862  *  -1.34578973  *
     3       C         -0.18263987  *  -0.48677224  *   0.19594097  *
     4       C          0.95003033  *  -1.02378820  *  -0.29139777  *
     5       C         -2.11936301  *   1.09242045  *   0.01178512  *
     6       C         -0.98719882  *  -1.22229970  *   1.16480229  *
     7       C         -2.84895482  *   0.29508552  *   0.80435098  *
     8       C         -2.24923237  *  -0.85650903  *   1.44614998  *
     9       C          3.00146793  *   0.16140057  *  -0.80049246  *
    10       C          4.01160943  *   0.60611344  *  -0.35220702  *
    11       H         -0.10017852  *   1.63739748  *   0.30858710  *
    12       H         -0.43148662  *   1.00981325  *  -1.31294678  *
    13       H          2.03160249  *  -1.11752778  *  -2.13113633  *
    14       H          1.21276686  *   0.44027547  *  -1.85041876  *
    15       H          1.30700490  *  -1.99361375  *   0.07626261  *
    16       H         -2.55906754  *   1.97121387  *  -0.47191709  *
    17       H         -0.53094529  *  -2.09956159  *   1.63810391  *
    18       H         -2.85911647  *  -1.41808817  *   2.16107289  *
    19       H         -3.90982265  *   0.48927103  *   0.99180951  *
    20       H          4.91408079  *   1.00326372  *   0.04769783  *



          CARTESIAN COORDINATES 

    NO.       ATOM           X           Y           Z

     1         C         -0.6750      0.8571     -0.2354
     2         C          1.7810     -0.3762     -1.3458
     3         C         -0.1826     -0.4868      0.1959
     4         C          0.9500     -1.0238     -0.2914
     5         C         -2.1194      1.0924      0.0118
     6         C         -0.9872     -1.2223      1.1648
     7         C         -2.8490      0.2951      0.8044
     8         C         -2.2492     -0.8565      1.4461
     9         C          3.0015      0.1614     -0.8005
    10         C          4.0116      0.6061     -0.3522
    11         H         -0.1002      1.6374      0.3086
    12         H         -0.4315      1.0098     -1.3129
    13         H          2.0316     -1.1175     -2.1311
    14         H          1.2128      0.4403     -1.8504
    15         H          1.3070     -1.9936      0.0763
    16         H         -2.5591      1.9712     -0.4719
    17         H         -0.5309     -2.0996      1.6381
    18         H         -2.8591     -1.4181      2.1611
    19         H         -3.9098      0.4893      0.9918
    20         H          4.9141      1.0033      0.0477

  H: (PM3): J. J. P. STEWART, J. COMP. CHEM. 10, 209 (1989).
  C: (PM3): J. J. P. STEWART, J. COMP. CHEM. 10, 209 (1989).

           Empirical Formula: C10 H10  =    20 atoms



      MOLECULAR POINT GROUP   :   C1  


      RHF CALCULATION, NO. OF DOUBLY OCCUPIED LEVELS = 25



          HEAT OF FORMATION =      84.392025 KCALS/MOLE


          CARTESIAN COORDINATE DERIVATIVES

   NUMBER  ATOM         X            Y            Z

     1       C      0.003819     0.004570    -0.001795
     2       C      0.000150     0.003299     0.006293
     3       C     -0.000596     0.001535    -0.000139
     4       C     -0.000451     0.000742     0.000528
     5       C     -0.004303    -0.002124    -0.000681
     6       C      0.000851     0.000363     0.000792
     7       C      0.000159    -0.002171    -0.002950
     8       C     -0.000530     0.001817     0.002076
     9       C      0.008627     0.005014     0.005903
    10       C     -0.003590    -0.009563    -0.015563
    11       H      0.001766     0.001038    -0.002602
    12       H      0.003113    -0.004832     0.003960
    13       H      0.000007     0.002090     0.001244
    14       H     -0.005121    -0.005102    -0.000444
    15       H     -0.000832     0.001894     0.000445
    16       H     -0.002581    -0.000210     0.000777
    17       H      0.002785     0.001311    -0.000845
    18       H     -0.000362     0.000869    -0.000755
    19       H     -0.003324    -0.001445     0.002462
    20       H      0.000414     0.000904     0.001294



          GRADIENT NORM =   0.02799

          MOLECULAR WEIGHT =  130.19



          ROTATIONAL CONSTANTS IN CM(-1)

          A =    0.11869730   B =    0.02314827   C =    0.02106267



           PRINCIPAL MOMENTS OF INERTIA IN UNITS OF 10**(-40)*GRAM-CM**2

          A =      235.8331   B =     1209.2806   C =     1329.0222


          ORIENTATION OF MOLECULE IN FORCE CALCULATION

    NO.       ATOM         X         Y         Z

     1          C      -0.8917   -0.8227    0.1960
     2          C       2.0725   -0.8227    0.1960
     3          C      -0.0861    0.4366    0.1960
     4          C       1.2584    0.4255    0.1644
     5          C      -2.2790   -0.6664    0.6997
     6          C      -0.8097    1.7017    0.2497
     7          C      -2.8486    0.5352    0.8666
     8          C      -2.1130    1.7480    0.5737
     9          C       2.6557   -1.1056   -1.0907
    10          C       3.1397   -1.3413   -2.1534
    11          H      -0.9439   -1.2109   -0.8440
    12          H      -0.3498   -1.6062    0.7758
    13          H       2.8827   -0.7209    0.9458
    14          H       1.4509   -1.6915    0.5170
    15          H       1.8200    1.3668    0.1228
    16          H      -2.8277   -1.5908    0.9091
    17          H      -0.2439    2.6166    0.0382
    18          H      -2.6524    2.6989    0.6302
    19          H      -3.8786    0.6364    1.2231
    20          H       3.5724   -1.5522   -3.1023


    FIRST DERIVATIVES WILL BE USED IN THE CALCULATION OF SECOND DERIVATIVES

          ESTIMATED TIME TO COMPLETE CALCULATION =        1.88 SECONDS

    FOR POINT-GROUP C1   THERE ARE   1 UNIQUE SYMMETRY FUNCTIONS.

 STEP:   1 TIME =     0.02 SECS, INTEGRAL =      0.02 TIME LEFT: 172799.97
 STEP:   2 TIME =     0.02 SECS, INTEGRAL =      0.04 TIME LEFT: 172799.95
 STEP:   3 TIME =     0.02 SECS, INTEGRAL =      0.06 TIME LEFT: 172799.93
 STEP:   4 TIME =     0.02 SECS, INTEGRAL =      0.07 TIME LEFT: 172799.92
 STEP:   5 TIME =     0.02 SECS, INTEGRAL =      0.09 TIME LEFT: 172799.90
 STEP:   6 TIME =     0.02 SECS, INTEGRAL =      0.11 TIME LEFT: 172799.88
 STEP:   7 TIME =     0.02 SECS, INTEGRAL =      0.13 TIME LEFT: 172799.86
 STEP:   8 TIME =     0.02 SECS, INTEGRAL =      0.15 TIME LEFT: 172799.84
 STEP:   9 TIME =     0.02 SECS, INTEGRAL =      0.17 TIME LEFT: 172799.82
 STEP:  10 TIME =     0.02 SECS, INTEGRAL =      0.19 TIME LEFT: 172799.80
 STEP:  11 TIME =     0.02 SECS, INTEGRAL =      0.21 TIME LEFT: 172799.78
 STEP:  12 TIME =     0.02 SECS, INTEGRAL =      0.23 TIME LEFT: 172799.76
 STEP:  13 TIME =     0.02 SECS, INTEGRAL =      0.25 TIME LEFT: 172799.74
 STEP:  14 TIME =     0.02 SECS, INTEGRAL =      0.27 TIME LEFT: 172799.72
 STEP:  15 TIME =     0.02 SECS, INTEGRAL =      0.30 TIME LEFT: 172799.70
 STEP:  16 TIME =     0.02 SECS, INTEGRAL =      0.32 TIME LEFT: 172799.67
 STEP:  17 TIME =     0.02 SECS, INTEGRAL =      0.34 TIME LEFT: 172799.65
 STEP:  18 TIME =     0.02 SECS, INTEGRAL =      0.36 TIME LEFT: 172799.63
 STEP:  19 TIME =     0.02 SECS, INTEGRAL =      0.38 TIME LEFT: 172799.61
 STEP:  20 TIME =     0.02 SECS, INTEGRAL =      0.41 TIME LEFT: 172799.59
 STEP:  21 TIME =     0.02 SECS, INTEGRAL =      0.43 TIME LEFT: 172799.56
 STEP:  22 TIME =     0.02 SECS, INTEGRAL =      0.45 TIME LEFT: 172799.54
 STEP:  23 TIME =     0.02 SECS, INTEGRAL =      0.47 TIME LEFT: 172799.52
 STEP:  24 TIME =     0.02 SECS, INTEGRAL =      0.49 TIME LEFT: 172799.50
 STEP:  25 TIME =     0.02 SECS, INTEGRAL =      0.51 TIME LEFT: 172799.48
 STEP:  26 TIME =     0.02 SECS, INTEGRAL =      0.53 TIME LEFT: 172799.46
 STEP:  27 TIME =     0.02 SECS, INTEGRAL =      0.55 TIME LEFT: 172799.44
 STEP:  28 TIME =     0.02 SECS, INTEGRAL =      0.57 TIME LEFT: 172799.42
 STEP:  29 TIME =     0.02 SECS, INTEGRAL =      0.60 TIME LEFT: 172799.39
 STEP:  30 TIME =     0.02 SECS, INTEGRAL =      0.62 TIME LEFT: 172799.38
 STEP:  31 TIME =     0.02 SECS, INTEGRAL =      0.64 TIME LEFT: 172799.36
 STEP:  32 TIME =     0.02 SECS, INTEGRAL =      0.66 TIME LEFT: 172799.34
 STEP:  33 TIME =     0.02 SECS, INTEGRAL =      0.68 TIME LEFT: 172799.32
 STEP:  34 TIME =     0.02 SECS, INTEGRAL =      0.70 TIME LEFT: 172799.30
 STEP:  35 TIME =     0.02 SECS, INTEGRAL =      0.71 TIME LEFT: 172799.28
 STEP:  36 TIME =     0.02 SECS, INTEGRAL =      0.73 TIME LEFT: 172799.26
 STEP:  37 TIME =     0.02 SECS, INTEGRAL =      0.75 TIME LEFT: 172799.24
 STEP:  38 TIME =     0.02 SECS, INTEGRAL =      0.78 TIME LEFT: 172799.21
 STEP:  39 TIME =     0.02 SECS, INTEGRAL =      0.80 TIME LEFT: 172799.20
 STEP:  40 TIME =     0.02 SECS, INTEGRAL =      0.81 TIME LEFT: 172799.18
 STEP:  41 TIME =     0.02 SECS, INTEGRAL =      0.83 TIME LEFT: 172799.16
 STEP:  42 TIME =     0.02 SECS, INTEGRAL =      0.85 TIME LEFT: 172799.14
 STEP:  43 TIME =     0.02 SECS, INTEGRAL =      0.87 TIME LEFT: 172799.12
 STEP:  44 TIME =     0.02 SECS, INTEGRAL =      0.89 TIME LEFT: 172799.10
 STEP:  45 TIME =     0.02 SECS, INTEGRAL =      0.91 TIME LEFT: 172799.08
 STEP:  46 TIME =     0.02 SECS, INTEGRAL =      0.93 TIME LEFT: 172799.06
 STEP:  47 TIME =     0.02 SECS, INTEGRAL =      0.95 TIME LEFT: 172799.04
 STEP:  48 TIME =     0.02 SECS, INTEGRAL =      0.97 TIME LEFT: 172799.02
 STEP:  49 TIME =     0.02 SECS, INTEGRAL =      0.99 TIME LEFT: 172799.00
 STEP:  50 TIME =     0.02 SECS, INTEGRAL =      1.01 TIME LEFT: 172798.98
 STEP:  51 TIME =     0.02 SECS, INTEGRAL =      1.03 TIME LEFT: 172798.96
 STEP:  52 TIME =     0.02 SECS, INTEGRAL =      1.05 TIME LEFT: 172798.94
 STEP:  53 TIME =     0.02 SECS, INTEGRAL =      1.07 TIME LEFT: 172798.92
 STEP:  54 TIME =     0.02 SECS, INTEGRAL =      1.09 TIME LEFT: 172798.90
 STEP:  55 TIME =     0.02 SECS, INTEGRAL =      1.11 TIME LEFT: 172798.88
 STEP:  56 TIME =     0.02 SECS, INTEGRAL =      1.13 TIME LEFT: 172798.86
 STEP:  57 TIME =     0.02 SECS, INTEGRAL =      1.15 TIME LEFT: 172798.84
 STEP:  58 TIME =     0.02 SECS, INTEGRAL =      1.17 TIME LEFT: 172798.82
 STEP:  59 TIME =     0.02 SECS, INTEGRAL =      1.19 TIME LEFT: 172798.80
 STEP:  60 TIME =     0.02 SECS, INTEGRAL =      1.21 TIME LEFT: 172798.79

(To convert to Hartree/Bohr^2, multiply by (10^(-21) x N x a0^2)/(4.184 x 627.51) =  0.0642)


           FORCE MATRIX IN MILLIDYNES/ANGSTROM


                  C  1       C  2       C  3       C  4       C  5       C  6
 ------------------------------------------------------------------------------
     C    1  14.983989
     C    2   0.123246  15.358222
     C    3   4.693478   0.787157  18.649505
     C    4   0.788775   4.857882   9.890824  17.888034
     C    5   5.015000   0.014035   0.707503   0.065815  18.005177
     C    6   0.625520   0.133293   5.368959   1.118656   0.218092  18.298056
     C    7   0.882030   0.015682   0.177783   0.067878  10.176211   1.180747
     C    8   0.146733   0.024003   1.097187   0.155363   1.199088   9.933853
     C    9   0.019931   6.388066   0.036555   0.823715   0.005038   0.023263
     C   10   0.001856   0.528093   0.006968   0.034780   0.001476   0.003766
     H   11   4.323384   0.016354   0.414440   0.031983   0.409321   0.019681
     H   12   4.204691   0.100189   0.436175   0.049040   0.432592   0.037359
     H   13   0.009640   4.417813   0.041342   0.426948   0.001123   0.016583
     H   14   0.120048   4.194441   0.043140   0.459894   0.003195   0.004099
     H   15   0.111133   0.432845   0.454304   4.793482   0.011493   0.088050
     H   16   0.424133   0.002614   0.048243   0.008560   4.843904   0.012225
     H   17   0.040236   0.003589   0.446766   0.046702   0.013315   4.810288
     H   18   0.004766   0.010221   0.121536   0.008493   0.048344   0.440046
     H   19   0.121866   0.000861   0.003734   0.001053   0.444665   0.048526
     H   20   0.000765   0.069716   0.001914   0.009203   0.000688   0.001200


                  C  7       C  8       C  9       C 10       H 11       H 12
 ------------------------------------------------------------------------------
     C    7  18.322548
     C    8   5.655685  18.236347
     C    9   0.004776   0.004349  24.931211
     C   10   0.000858   0.002317  17.540608  23.882612
     H   11   0.037054   0.018019   0.004585   0.001402   4.909214
     H   12   0.046111   0.014361   0.010715   0.001596   0.568255   4.851814
     H   13   0.001459   0.002805   0.439350   0.033349   0.001144   0.002938
     H   14   0.002310   0.001519   0.438179   0.032693   0.005356   0.102441
     H   15   0.007939   0.008373   0.010680   0.002920   0.016784   0.010133
     H   16   0.444785   0.124889   0.000973   0.000761   0.020309   0.032543
     H   17   0.124817   0.441489   0.000819   0.000867   0.003951   0.005891
     H   18   0.434743   4.862628   0.002124   0.000874   0.001182   0.001010
     H   19   4.862489   0.435899   0.000494   0.000617   0.017020   0.013928
     H   20   0.000472   0.000965   0.343993   5.887075   0.000603   0.000572


                  H 13       H 14       H 15       H 16       H 17       H 18
 ------------------------------------------------------------------------------
     H   13   4.962010
     H   14   0.524374   4.812582
     H   15   0.031234   0.038911   5.172970
     H   16   0.000208   0.000622   0.003829   5.217568
     H   17   0.000779   0.000648   0.029811   0.009630   5.185328
     H   18   0.001285   0.000326   0.005254   0.007743   0.064753   5.225207
     H   19   0.000145   0.000346   0.000632   0.065168   0.007216   0.031338
     H   20   0.007008   0.007027   0.001250   0.000378   0.000397   0.000461


                  H 19       H 20
 ------------------------------
     H   19   5.228545
     H   20   0.000358   6.065578


          HEAT OF FORMATION =      84.392025 KCALS/MOLE

          ZERO POINT ENERGY     103.406 KCAL/MOL


           NORMAL COORDINATE ANALYSIS (Total motion = 1 Angstrom)


   Root No.       1         2         3         4         5         6         7         8

                 1 A       2 A       3 A       4 A       5 A       6 A       7 A       8 A   

                  33.6      85.9     110.7     226.1     281.0     315.8     386.4     411.4
  
           1   -0.0296    0.0044    0.0067   -0.0015   -0.0365    0.0058    0.0036    0.0051
           2   -0.0035   -0.0131    0.0041   -0.0191   -0.0184   -0.0067    0.0200   -0.0251
           3    0.0014    0.0656    0.0357    0.0171   -0.0119    0.0163    0.0074   -0.0022
           4   -0.0231    0.0005   -0.0011    0.0093    0.0525   -0.0040   -0.0026   -0.0356
           5   -0.0255   -0.0243    0.0165    0.0072    0.0339    0.0042   -0.0233    0.0056
           6   -0.0230   -0.0059   -0.0289    0.0220    0.0009   -0.0161   -0.0024   -0.0050
           7   -0.0167    0.0063   -0.0037   -0.0061   -0.0097   -0.0015    0.0079   -0.0131
           8   -0.0117   -0.0143    0.0109   -0.0166   -0.0360   -0.0015    0.0179   -0.0124
           9   -0.0170    0.0319    0.0133   -0.0320    0.0097    0.0095    0.0085   -0.0294
          10   -0.0173    0.0059   -0.0041   -0.0063   -0.0087   -0.0003    0.0097   -0.0155
          11   -0.0220   -0.0201    0.0142   -0.0055   -0.0098    0.0065   -0.0076    0.0090
          12   -0.0298    0.0133   -0.0362   -0.0316    0.0144    0.0539   -0.0035    0.0040
          13   -0.0159   -0.0106   -0.0129   -0.0168   -0.0308   -0.0111   -0.0053    0.0199
          14    0.0123    0.0079   -0.0003    0.0023    0.0111    0.0013    0.0020   -0.0091
          15    0.0350    0.0173   -0.0191   -0.0309    0.0096   -0.0309   -0.0125    0.0247
          16   -0.0056    0.0129   -0.0052    0.0067    0.0094   -0.0088   -0.0161    0.0186
          17   -0.0049   -0.0097    0.0081   -0.0105   -0.0239   -0.0035    0.0073    0.0005
          18   -0.0200    0.0014    0.0450   -0.0240    0.0113   -0.0385   -0.0087    0.0026
          19   -0.0016   -0.0134   -0.0213    0.0066   -0.0151    0.0089   -0.0110    0.0187
          20    0.0188    0.0146   -0.0034    0.0084    0.0213    0.0031   -0.0052   -0.0015
          21    0.0374   -0.0406   -0.0259    0.0061   -0.0026    0.0248    0.0150   -0.0331
          22    0.0015    0.0025   -0.0100    0.0235    0.0071    0.0041   -0.0162    0.0232
          23    0.0095    0.0041    0.0018    0.0052    0.0063    0.0026   -0.0048    0.0058
          24    0.0065   -0.0428    0.0271    0.0387   -0.0066    0.0103    0.0015    0.0089
          25    0.0333   -0.0021    0.0137    0.0053    0.0366   -0.0168    0.0861   -0.0036
          26    0.0025    0.0093   -0.0081   -0.0031    0.0310    0.0273    0.0254    0.0553
          27   -0.0035   -0.0150   -0.0163    0.0232   -0.0077   -0.0290    0.0257    0.0026
          28    0.0806   -0.0067    0.0360   -0.0207   -0.0017    0.0186   -0.0303   -0.0128
          29    0.0257    0.0475   -0.0429    0.0265   -0.0208   -0.0222   -0.0166   -0.0127
          30    0.0129   -0.0256    0.0014    0.0052   -0.0141   -0.0024   -0.0185    0.0146
          31   -0.0596    0.0317    0.0461    0.0362   -0.0701    0.0549    0.0228   -0.0195
          32   -0.0011   -0.0587   -0.0350   -0.0888    0.0170   -0.0555    0.0171   -0.0477
          33    0.0020    0.0809    0.0481    0.0415   -0.0236    0.0327    0.0074    0.0075
          34   -0.0250   -0.0089   -0.0016   -0.0120   -0.0294   -0.0113   -0.0076    0.0165
          35   -0.0107    0.0121    0.0316    0.0234   -0.0437    0.0237    0.0217   -0.0143
          36   -0.0131    0.1116    0.0808    0.0855   -0.0536    0.0745    0.0193    0.0015
          37   -0.0551    0.0010   -0.0056    0.0064    0.0648    0.0125   -0.0850   -0.0723
          38   -0.0417   -0.0423    0.0291    0.0447    0.0774   -0.0356   -0.0863   -0.0453
          39    0.0142   -0.0040   -0.0252    0.0197   -0.0186   -0.0285    0.0941    0.0409
          40   -0.0366   -0.0029    0.0002    0.0184    0.0820   -0.0059   -0.0454   -0.0528
          41   -0.0318   -0.0278    0.0192    0.0113    0.0199   -0.0032   -0.0397   -0.0116
          42   -0.0670   -0.0226   -0.0188    0.0498    0.0220   -0.0382   -0.1270   -0.0821
          43   -0.0113    0.0101   -0.0073   -0.0160   -0.0435   -0.0022    0.0269   -0.0147
          44   -0.0261   -0.0233    0.0147   -0.0010    0.0131    0.0101   -0.0188    0.0096
          45   -0.0444   -0.0025   -0.0675   -0.0666    0.0301    0.1149   -0.0147    0.0344
          46   -0.0184   -0.0203   -0.0209   -0.0469   -0.0434   -0.0347   -0.0012    0.0213
          47    0.0189    0.0161   -0.0034    0.0078    0.0228    0.0017   -0.0071    0.0011
          48    0.0575    0.0285   -0.0533   -0.0843    0.0275   -0.0900   -0.0418    0.0732
          49   -0.0026    0.0249   -0.0016    0.0089    0.0287   -0.0229   -0.0355    0.0421
          50   -0.0122   -0.0159    0.0149   -0.0169   -0.0331   -0.0119    0.0124   -0.0030
          51   -0.0435    0.0066    0.0832   -0.0462    0.0213   -0.1117   -0.0371    0.0491
          52    0.0100    0.0067   -0.0062    0.0449    0.0270    0.0023   -0.0271    0.0379
          53    0.0143    0.0086    0.0027    0.0142    0.0181    0.0019   -0.0098    0.0103
          54    0.0053   -0.0779    0.0510    0.0920   -0.0179    0.0042   -0.0146    0.0681
          55    0.0081   -0.0265   -0.0368    0.0031   -0.0130    0.0157   -0.0074    0.0043
          56    0.0312    0.0281   -0.0105    0.0147    0.0418    0.0035   -0.0127    0.0012
          57    0.0620   -0.0823   -0.0685   -0.0055   -0.0022    0.0441    0.0272   -0.0749
          58    0.1230   -0.0107    0.0557   -0.0442   -0.0383    0.0521   -0.1476   -0.0206
          59    0.0464    0.0814   -0.0736    0.0528   -0.0695   -0.0688   -0.0576   -0.0841
          60    0.0276   -0.0350    0.0172   -0.0113   -0.0201    0.0231   -0.0629    0.0272


   Root No.       9        10        11        12        13        14        15        16

                 9 A      10 A      11 A      12 A      13 A      14 A      15 A      16 A   

                 449.8     515.7     557.6     591.2     596.7     746.2     800.4     828.1
  
           1    0.0010   -0.0097    0.0160   -0.0063    0.0381   -0.0044    0.0029   -0.0174
           2    0.0193    0.0164   -0.0220    0.0297   -0.0223    0.0007   -0.0095   -0.0179
           3    0.0027    0.0095    0.0014    0.0059   -0.0160   -0.0053    0.0264   -0.0066
           4    0.0239   -0.0085    0.0022    0.0268    0.0044    0.0026    0.0088    0.0298
           5   -0.0136    0.0039   -0.0050   -0.0362   -0.0175    0.0011   -0.0003   -0.0016
           6    0.0035    0.0017   -0.0022    0.0286    0.0129    0.0011    0.0051    0.0155
           7    0.0057    0.0238   -0.0360   -0.0033    0.0210    0.0017    0.0027    0.0106
           8    0.0137   -0.0034    0.0030    0.0232   -0.0272    0.0010   -0.0009    0.0022
           9   -0.0384    0.0394    0.0562   -0.0160    0.0047    0.0237   -0.0125   -0.0096
          10    0.0108    0.0218   -0.0416   -0.0060    0.0210    0.0037    0.0087    0.0249
          11   -0.0114    0.0170   -0.0289   -0.0589   -0.0083    0.0052    0.0085    0.0143
          12    0.0290   -0.0140    0.0036   -0.0146   -0.0191    0.0104    0.0081   -0.0025
          13    0.0076   -0.0162    0.0290   -0.0099    0.0456   -0.0127   -0.0018   -0.0227
          14    0.0101   -0.0081   -0.0088   -0.0131    0.0599   -0.0051   -0.0088   -0.0271
          15    0.0299    0.0080   -0.0027   -0.0023   -0.0148   -0.0188    0.0091    0.0027
          16   -0.0230    0.0108   -0.0189    0.0071   -0.0417   -0.0046   -0.0163   -0.0128
          17    0.0021   -0.0163    0.0286    0.0322   -0.0580   -0.0005   -0.0021    0.0129
          18   -0.0262   -0.0281   -0.0183    0.0009    0.0131   -0.0214   -0.0213    0.0164
          19   -0.0347   -0.0158    0.0385   -0.0008   -0.0257   -0.0058    0.0202    0.0242
          20   -0.0016   -0.0060    0.0007   -0.0118    0.0273   -0.0015    0.0022   -0.0017
          21   -0.0307   -0.0102   -0.0232    0.0055    0.0072   -0.0217    0.0121   -0.0142
          22   -0.0106    0.0227   -0.0078    0.0006   -0.0433   -0.0018   -0.0181   -0.0148
          23   -0.0003   -0.0215    0.0414   -0.0111    0.0277    0.0001    0.0146    0.0323
          24    0.0382    0.0187    0.0200   -0.0072    0.0101   -0.0093   -0.0253    0.0151
          25    0.0091   -0.0176    0.0145   -0.0262   -0.0227    0.0013   -0.0017   -0.0022
          26   -0.0190    0.0162   -0.0085    0.0633    0.0335   -0.0030   -0.0026   -0.0001
          27   -0.0068   -0.0021    0.0001   -0.0171   -0.0057   -0.0022   -0.0026   -0.0029
          28    0.0081   -0.0028    0.0026   -0.0006   -0.0040    0.0019   -0.0009   -0.0176
          29   -0.0009    0.0004   -0.0015   -0.0033    0.0002   -0.0014   -0.0029   -0.0064
          30   -0.0125    0.0093   -0.0080    0.0108    0.0122   -0.0033   -0.0029   -0.0093
          31   -0.0414   -0.0491    0.0101    0.0072    0.0372    0.0627   -0.0648   -0.0259
          32    0.0030    0.1254    0.0587    0.0177   -0.0190   -0.0082    0.0701   -0.0505
          33    0.0107   -0.0310   -0.0302    0.0098   -0.0178   -0.0041   -0.0019    0.0068
          34    0.0254   -0.0184    0.0308    0.0155    0.0045   -0.0282    0.0113   -0.0174
          35    0.0286   -0.0528   -0.0622    0.0513   -0.0454    0.0122   -0.0639   -0.0045
          36   -0.0072   -0.0812   -0.0681    0.0161   -0.0153    0.0332   -0.0596    0.0104
          37    0.0438   -0.0144    0.0080    0.0630    0.0066    0.0035    0.0045    0.0059
          38   -0.0131   -0.0275    0.0588    0.0175   -0.0376   -0.0158   -0.0435   -0.1043
          39   -0.0178    0.0116   -0.0162   -0.0171    0.0128    0.0022    0.0147    0.0536
          40    0.0320   -0.0311    0.0520    0.0870    0.0037   -0.0097   -0.0098   -0.0339
          41   -0.0135    0.0119   -0.0289   -0.0646   -0.0231    0.0071    0.0008    0.0147
          42    0.0185   -0.0198    0.0255    0.0607   -0.0038   -0.0063   -0.0262   -0.0580
          43    0.0180    0.0233   -0.0479    0.0205    0.0251    0.0022    0.0099    0.0281
          44   -0.0127    0.0114   -0.0278   -0.0779   -0.0148    0.0023    0.0060    0.0107
          45    0.0969   -0.1112   -0.0658   -0.1033   -0.0896   -0.0780   -0.0318   -0.0439
          46    0.0318   -0.0200    0.0050    0.0044    0.0530    0.0543   -0.0780   -0.0410
          47    0.0015   -0.0137    0.0033   -0.0238    0.0595    0.0010   -0.0015   -0.0029
          48    0.0560   -0.0284   -0.0124   -0.0130    0.0058    0.1828   -0.1570    0.0650
          49   -0.0392   -0.0127   -0.0122    0.0005   -0.0351    0.0182    0.0333   -0.0369
          50    0.0118   -0.0199    0.0037    0.0447   -0.0655    0.0073    0.0176    0.0061
          51   -0.0268   -0.1062   -0.1056    0.0400   -0.0032    0.0729    0.1957   -0.0775
          52    0.0164    0.0401   -0.0303   -0.0208   -0.0064    0.0468    0.0065   -0.0660
          53    0.0094   -0.0127    0.0268   -0.0230    0.0490    0.0165    0.0206    0.0087
          54    0.1401    0.0377    0.0452   -0.0029   -0.0041    0.1793    0.1170   -0.0562
          55   -0.0662   -0.0371    0.0180    0.0066   -0.0268    0.0647    0.0129    0.0266
          56   -0.0158    0.0118   -0.0295   -0.0037   -0.0329    0.0110   -0.0028    0.0001
          57   -0.1177   -0.0777   -0.0732    0.0246    0.0203    0.1794   -0.0076   -0.0062
          58    0.0054    0.0171   -0.0145    0.0382    0.0266    0.0010    0.0213    0.1374
          59    0.0201   -0.0204    0.0088   -0.1060   -0.0527    0.0071    0.0176    0.0374
          60   -0.0187    0.0232   -0.0184    0.0516    0.0383   -0.0058    0.0025    0.0515


   Root No.      17        18        19        20        21        22        23        24

                17 A      18 A      19 A      20 A      21 A      22 A      23 A      24 A   

                 846.1     859.6     883.9     931.7     947.8     957.6     969.6    1014.9
  
           1    0.0103   -0.0050    0.0063    0.0177    0.0023   -0.0106    0.0065   -0.0110
           2    0.0122   -0.0047    0.0066   -0.0154   -0.0123    0.0593   -0.0034    0.0040
           3   -0.0010   -0.0080    0.0325    0.0347   -0.0088    0.0089    0.0142   -0.0232
           4    0.0014    0.0062   -0.0045    0.0090    0.0481    0.0160    0.0033    0.0047
           5    0.0111   -0.0009   -0.0066    0.0094    0.0176    0.0173   -0.0002   -0.0003
           6   -0.0022    0.0039   -0.0064    0.0064    0.0143    0.0054    0.0008   -0.0049
           7   -0.0124    0.0024    0.0091   -0.0113   -0.0095   -0.0114   -0.0004    0.0019
           8   -0.0015    0.0008   -0.0008    0.0002   -0.0011   -0.0118   -0.0003   -0.0008
           9    0.0067   -0.0082   -0.0045   -0.0313    0.0233   -0.0109    0.0004    0.0291
          10   -0.0219    0.0063    0.0062   -0.0124   -0.0099   -0.0172   -0.0003    0.0028
          11   -0.0152    0.0018   -0.0085    0.0004   -0.0139   -0.0133   -0.0014   -0.0019
          12    0.0037    0.0140   -0.0419    0.0239   -0.0366    0.0094   -0.0100   -0.0143
          13    0.0170   -0.0037   -0.0090    0.0078    0.0081    0.0065   -0.0158    0.0147
          14    0.0202   -0.0040   -0.0106    0.0152    0.0131   -0.0134   -0.0036    0.0013
          15   -0.0027    0.0022   -0.0096   -0.0154    0.0008   -0.0003   -0.0295    0.0330
          16    0.0115   -0.0018   -0.0053    0.0100    0.0084   -0.0072   -0.0097   -0.0067
          17   -0.0021    0.0037   -0.0100    0.0165    0.0261   -0.0467   -0.0027   -0.0005
          18   -0.0077    0.0044    0.0096    0.0053   -0.0039    0.0074   -0.0362   -0.0354
          19   -0.0195    0.0039    0.0067   -0.0248   -0.0148    0.0265    0.0073   -0.0120
          20    0.0004   -0.0001   -0.0008    0.0001   -0.0000   -0.0044    0.0020   -0.0031
          21    0.0100    0.0011   -0.0223   -0.0197    0.0134   -0.0109    0.0211   -0.0369
          22    0.0126   -0.0023   -0.0066    0.0117    0.0021   -0.0013    0.0067    0.0097
          23   -0.0240    0.0053    0.0135   -0.0133   -0.0147    0.0180    0.0050    0.0039
          24   -0.0059    0.0059    0.0008    0.0194   -0.0143    0.0035    0.0300    0.0367
          25    0.0183   -0.0243   -0.0031   -0.0059   -0.0317   -0.0128   -0.0020   -0.0008
          26    0.0152    0.0339    0.0168   -0.0127   -0.0120   -0.0121    0.0005    0.0022
          27    0.0048   -0.0166    0.0045   -0.0045   -0.0076   -0.0053   -0.0001    0.0040
          28   -0.0447    0.0392   -0.0049    0.0061    0.0108    0.0066    0.0001   -0.0031
          29   -0.0406   -0.0587   -0.0104    0.0043    0.0064    0.0042    0.0001    0.0011
          30   -0.0114    0.0337    0.0139   -0.0052    0.0099   -0.0012    0.0014    0.0063
          31    0.0285   -0.0043   -0.0374   -0.0728    0.0321    0.0224    0.0689   -0.0198
          32    0.0142   -0.0329    0.0962    0.0703   -0.0277    0.0711    0.0772   -0.0810
          33   -0.0031    0.0028    0.0002    0.0045   -0.0049    0.0039   -0.0194    0.0100
          34    0.0139   -0.0032    0.0157    0.0321   -0.0086    0.0145   -0.0165   -0.0086
          35    0.0170    0.0099   -0.0431   -0.0817   -0.0117    0.0988   -0.0404    0.0473
          36    0.0036    0.0103   -0.0467   -0.0717    0.0046    0.0373   -0.0160    0.0354
          37   -0.0439    0.0302    0.0027   -0.0185   -0.0390   -0.0445   -0.0003    0.0231
          38    0.0397   -0.0501    0.0401   -0.0325   -0.1043   -0.0207   -0.0041   -0.0253
          39    0.0426   -0.0163   -0.0196    0.0406    0.1223    0.0741    0.0050   -0.0217
          40    0.0207    0.0007    0.0234   -0.0008   -0.0296   -0.0152    0.0006   -0.0104
          41   -0.0199   -0.0065   -0.0151   -0.0081    0.0104    0.0059   -0.0010    0.0108
          42   -0.0487   -0.0223    0.0229   -0.0576   -0.1443   -0.0805   -0.0056   -0.0037
          43   -0.0396    0.0102    0.0256   -0.0368   -0.0523   -0.0704    0.0013    0.0051
          44   -0.0051   -0.0064   -0.0078    0.0097    0.0180    0.0158    0.0006   -0.0009
          45   -0.0015   -0.1158    0.2305   -0.0870    0.1236   -0.0335    0.0569    0.0373
          46    0.0400   -0.0092   -0.0047    0.0161    0.0090    0.0619    0.0410   -0.0286
          47    0.0016    0.0010   -0.0076    0.0136    0.0106   -0.0509    0.0066   -0.0085
          48   -0.0270    0.0106    0.0150   -0.0018   -0.0089   -0.0220    0.1628   -0.1214
          49    0.0205   -0.0081   -0.0133   -0.0112   -0.0060    0.0437    0.0373    0.0330
          50    0.0006    0.0050   -0.0219    0.0235    0.0332   -0.0820    0.0167    0.0114
          51    0.0278   -0.0069   -0.0618   -0.0230   -0.0142   -0.0059    0.1725    0.1211
          52    0.0365   -0.0211    0.0008   -0.0227    0.0060    0.0327   -0.0412   -0.0379
          53   -0.0123   -0.0025    0.0165   -0.0258   -0.0179    0.0386   -0.0113   -0.0135
          54    0.0117   -0.0379    0.0244   -0.1008    0.0762   -0.0373   -0.1485   -0.1244
          55   -0.0250   -0.0059    0.0559    0.0308   -0.0304    0.0305   -0.0388    0.0439
          56   -0.0024   -0.0010    0.0016   -0.0031   -0.0046   -0.0257    0.0041   -0.0127
          57   -0.0062   -0.0266    0.1187    0.1429   -0.0289    0.0008   -0.1121    0.1274
          58    0.2765   -0.2393   -0.0081   -0.0102   -0.0473   -0.0168   -0.0022   -0.0022
          59    0.2558    0.3545    0.0695   -0.0240   -0.0165   -0.0161    0.0006    0.0026
          60    0.0691   -0.1848   -0.0042   -0.0070   -0.0109   -0.0077    0.0003    0.0071


   Root No.      25        26        27        28        29        30        31        32

                25 A      26 A      27 A      28 A      29 A      30 A      31 A      32 A   

                1029.0    1040.7    1054.3    1081.9    1107.3    1154.0    1158.9    1180.2
  
           1    0.0076    0.0237   -0.0065    0.0059    0.0180   -0.0095   -0.0062    0.0096
           2   -0.0103   -0.0118    0.0036   -0.0130    0.0009   -0.0037   -0.0066   -0.0001
           3   -0.0105   -0.0117    0.0052   -0.0006   -0.0036    0.0010    0.0029    0.0000
           4   -0.0112    0.0051   -0.0047   -0.0015   -0.0005    0.0026    0.0010    0.0036
           5   -0.0068    0.0016   -0.0133   -0.0030   -0.0149    0.0008    0.0112    0.0363
           6    0.0397   -0.0125    0.0340    0.0058    0.0182   -0.0029   -0.0131   -0.0041
           7    0.0087   -0.0063   -0.0139   -0.0034   -0.0123    0.0031    0.0121   -0.0123
           8    0.0074    0.0050   -0.0077    0.0005    0.0110    0.0139   -0.0073    0.0203
           9    0.0009   -0.0164   -0.0064    0.0024    0.0137   -0.0001   -0.0038    0.0009
          10    0.0073   -0.0052   -0.0112    0.0037   -0.0120   -0.0012    0.0081   -0.0117
          11    0.0071   -0.0003    0.0110    0.0106    0.0175   -0.0069   -0.0225   -0.0278
          12    0.0027    0.0036   -0.0103   -0.0026   -0.0099    0.0008    0.0056    0.0023
          13   -0.0093   -0.0204    0.0127   -0.0125   -0.0061    0.0056    0.0033    0.0081
          14   -0.0079   -0.0185    0.0068   -0.0194   -0.0084   -0.0037   -0.0060   -0.0014
          15    0.0172    0.0335    0.0070   -0.0006   -0.0101    0.0004    0.0020   -0.0052
          16   -0.0044   -0.0023    0.0048    0.0131   -0.0109   -0.0036   -0.0056   -0.0098
          17   -0.0038   -0.0017    0.0037    0.0196   -0.0126   -0.0035    0.0063   -0.0062
          18   -0.0027    0.0069    0.0036   -0.0055    0.0013    0.0017    0.0009    0.0026
          19   -0.0046   -0.0186   -0.0007   -0.0414    0.0023    0.0069    0.0006    0.0030
          20    0.0032    0.0053   -0.0026   -0.0145    0.0047   -0.0046    0.0017   -0.0049
          21   -0.0073   -0.0039   -0.0037    0.0183    0.0028   -0.0017   -0.0002   -0.0002
          22    0.0001    0.0000    0.0033   -0.0020    0.0035    0.0044   -0.0015   -0.0050
          23    0.0016    0.0069   -0.0037    0.0415   -0.0099   -0.0036    0.0094   -0.0134
          24    0.0059    0.0011   -0.0013   -0.0050    0.0008   -0.0011    0.0006    0.0027
          25   -0.0080   -0.0005    0.0149    0.0010    0.0041   -0.0009   -0.0015    0.0014
          26    0.0006   -0.0036    0.0113    0.0008    0.0021   -0.0002    0.0010   -0.0010
          27   -0.0322    0.0097   -0.0137   -0.0024   -0.0047    0.0010    0.0023   -0.0003
          28    0.0223   -0.0063    0.0094    0.0018    0.0040   -0.0009   -0.0026    0.0006
          29   -0.0101    0.0041   -0.0096   -0.0013   -0.0032    0.0006    0.0015    0.0004
          30   -0.0349    0.0115   -0.0248   -0.0039   -0.0092    0.0022    0.0055   -0.0020
          31    0.0737    0.2730    0.0865   -0.0262   -0.0964    0.0079   -0.0079   -0.0361
          32    0.0021    0.0946    0.0739   -0.0341   -0.0569    0.0064   -0.0092   -0.0078
          33   -0.0182   -0.0644   -0.0254    0.0075    0.0232   -0.0029    0.0029    0.0055
          34    0.0047    0.0401   -0.0949    0.0477    0.1388   -0.0471   -0.1161   -0.0020
          35   -0.0080   -0.0101   -0.0391   -0.0063    0.0547   -0.0184   -0.0691   -0.0086
          36   -0.0040   -0.0224    0.0281   -0.0266   -0.0417    0.0139    0.0233   -0.0025
          37   -0.2040    0.0470    0.0567   -0.0014    0.0307    0.0001   -0.0207    0.0039
          38    0.1903   -0.0414   -0.1354   -0.0097   -0.0816    0.0120    0.0428   -0.0569
          39    0.2264   -0.0535   -0.0141    0.0078   -0.0050   -0.0025    0.0048    0.0110
          40    0.0204    0.0292   -0.1182    0.0057    0.0122   -0.0053   -0.0528   -0.1017
          41   -0.0171   -0.0311    0.1114   -0.0039   -0.0180    0.0038    0.0557    0.1255
          42    0.0781   -0.0582    0.1672    0.0174    0.0381   -0.0113    0.0044    0.0400
          43    0.0502   -0.0041   -0.0742    0.0478   -0.0521   -0.0207   -0.0002    0.2138
          44   -0.0160   -0.0023    0.0487   -0.0143    0.0416    0.0040   -0.0190   -0.1630
          45    0.0237   -0.0170    0.0283    0.0043    0.0139    0.0012   -0.0074   -0.0010
          46   -0.0570   -0.0690    0.0197    0.1293    0.0195   -0.0903    0.1925   -0.0644
          47    0.0120   -0.0060   -0.0052   -0.1153   -0.0177    0.0583   -0.1356    0.0496
          48   -0.0205   -0.0409   -0.0274   -0.0342    0.0117    0.0264   -0.0642    0.0251
          49   -0.0125    0.0003    0.0126    0.1603   -0.0520   -0.1767   -0.1268    0.0663
          50    0.0051   -0.0097   -0.0057   -0.0712    0.0162    0.1096    0.0847   -0.0577
          51    0.0147   -0.0226   -0.0178   -0.0244    0.0201    0.0293    0.0196   -0.0127
          52    0.0091    0.0540   -0.0055    0.1079    0.0989    0.2615    0.0309    0.0607
          53    0.0087    0.0398   -0.0095    0.1066    0.0456    0.1453    0.0306    0.0238
          54   -0.0207   -0.0216    0.0023   -0.0334   -0.0288   -0.0802   -0.0109   -0.0179
          55    0.0099    0.0009    0.0012   -0.0533    0.0132   -0.0060    0.0123    0.0088
          56    0.0548    0.1223   -0.0359   -0.1124    0.1678   -0.1914    0.1526    0.0691
          57    0.0223    0.0253    0.0098    0.0156   -0.0122    0.0080   -0.0115   -0.0047
          58    0.0047   -0.0041    0.0177    0.0021    0.0059   -0.0012   -0.0032    0.0013
          59   -0.0048   -0.0006    0.0020   -0.0005   -0.0020    0.0005    0.0021    0.0007
          60   -0.0489    0.0152   -0.0269   -0.0044   -0.0099    0.0025    0.0059   -0.0021


   Root No.      33        34        35        36        37        38        39        40

                33 A      34 A      35 A      36 A      37 A      38 A      39 A      40 A   

                1219.3    1246.5    1343.1    1358.5    1396.4    1401.9    1424.5    1506.9
  
           1   -0.0273   -0.0090   -0.0114    0.0324    0.0293    0.0528   -0.0093   -0.0782
           2   -0.0037   -0.0071   -0.0326    0.0038    0.0214   -0.0221   -0.0293   -0.0555
           3    0.0058    0.0027   -0.0050   -0.0125   -0.0075   -0.0200   -0.0039    0.0166
           4    0.0047   -0.0067    0.0126   -0.0350    0.0014    0.0257   -0.0332    0.0003
           5   -0.0127    0.0143   -0.0127    0.0310    0.0150   -0.0266    0.0436    0.0052
           6    0.0247    0.0047   -0.0219    0.0522   -0.0301   -0.0097    0.0081   -0.0016
           7   -0.0247   -0.0076   -0.0050    0.0122   -0.0029   -0.0138    0.0266    0.0063
           8    0.0080   -0.0146   -0.0273   -0.0123   -0.0056    0.0507    0.0262    0.1250
           9   -0.0008    0.0031   -0.0002    0.0024   -0.0004    0.0017   -0.0008    0.0001
          10   -0.0165   -0.0062    0.0065   -0.0053   -0.0160   -0.0197    0.0183    0.0014
          11    0.0471    0.0018    0.0131   -0.0164    0.0062    0.0080   -0.0328   -0.0165
          12   -0.0076   -0.0016    0.0026   -0.0070    0.0012    0.0022   -0.0027    0.0003
          13    0.0162   -0.0164    0.0202   -0.0014   -0.0025   -0.0420   -0.0168    0.0535
          14    0.0124    0.0068    0.0021   -0.0151   -0.0127   -0.0019    0.0123   -0.0060
          15   -0.0006    0.0037   -0.0071    0.0010    0.0023    0.0154    0.0064   -0.0179
          16   -0.0071    0.0115    0.0003    0.0146    0.0126   -0.0024   -0.0191    0.0309
          17   -0.0064   -0.0126    0.0198   -0.0052   -0.0116   -0.0305    0.0098   -0.0745
          18    0.0045   -0.0011   -0.0014   -0.0030   -0.0017    0.0037    0.0027   -0.0015
          19    0.0146    0.0025   -0.0082   -0.0190   -0.0135    0.0081    0.0219   -0.0355
          20    0.0017    0.0194   -0.0141   -0.0129   -0.0106    0.0346    0.0240   -0.0401
          21   -0.0061   -0.0015    0.0033    0.0071    0.0049   -0.0042   -0.0086    0.0132
          22    0.0038    0.0128   -0.0062    0.0057    0.0105    0.0182   -0.0141    0.0360
          23   -0.0188    0.0060    0.0031    0.0277    0.0223   -0.0093   -0.0305    0.0540
          24    0.0009   -0.0045    0.0012   -0.0039   -0.0047   -0.0039    0.0066   -0.0134
          25   -0.0001    0.0020   -0.0021    0.0044   -0.0005   -0.0021    0.0023    0.0000
          26   -0.0052   -0.0012    0.0021   -0.0056   -0.0019    0.0023   -0.0041   -0.0006
          27   -0.0025   -0.0013    0.0020   -0.0044    0.0022    0.0007   -0.0003    0.0001
          28    0.0039    0.0020   -0.0041    0.0099   -0.0032   -0.0033    0.0037   -0.0002
          29   -0.0012   -0.0008    0.0018   -0.0042    0.0020    0.0013   -0.0011    0.0002
          30   -0.0074   -0.0051    0.0095   -0.0228    0.0068    0.0081   -0.0093    0.0004
          31    0.0225    0.0526   -0.0850   -0.0837   -0.0405   -0.1005   -0.0100    0.0381
          32    0.0204    0.0182    0.2229    0.0526   -0.0275    0.0581    0.0451    0.0258
          33   -0.0057   -0.0106   -0.0758   -0.0164    0.0140   -0.0304   -0.0254   -0.0176
          34   -0.1203    0.1490    0.0430   -0.0614   -0.1175   -0.0775    0.0055    0.0410
          35   -0.0437    0.0664    0.1808    0.0315   -0.0572   -0.0003    0.0258    0.0120
          36    0.0367   -0.0418    0.1933    0.0959    0.0245    0.1080    0.0472   -0.0080
          37    0.0526    0.0022   -0.0404    0.0883   -0.0680    0.0019   -0.0092   -0.0011
          38   -0.0098   -0.0553   -0.0056    0.0190   -0.1672    0.0544   -0.1116   -0.0201
          39   -0.0281    0.0084    0.0392   -0.0897    0.0928   -0.0007    0.0153    0.0061
          40    0.1218    0.0029    0.0145   -0.0072    0.1774   -0.0691    0.1238    0.0161
          41   -0.1319    0.0141    0.0097   -0.0463   -0.0662    0.0433   -0.0670   -0.0032
          42   -0.0841    0.0283    0.0504   -0.1291    0.1473   -0.0186    0.0414    0.0083
          43    0.1640    0.1053    0.0336    0.0026    0.0176   -0.0123   -0.0764   -0.0760
          44   -0.0572   -0.0653   -0.0025   -0.0220   -0.0152    0.0030    0.0238    0.0316
          45    0.0157    0.0033   -0.0048    0.0128   -0.0052   -0.0043    0.0034    0.0032
          46    0.0752    0.0693   -0.0117   -0.0528   -0.0422    0.0446    0.0606   -0.0095
          47   -0.0287   -0.0502    0.0239    0.0175    0.0120   -0.0631   -0.0401    0.0347
          48   -0.0293   -0.0232    0.0021    0.0182    0.0151   -0.0139   -0.0214    0.0015
          49    0.0081   -0.1279   -0.0026   -0.0550   -0.0494   -0.0032    0.0740   -0.0480
          50   -0.0201    0.0761    0.0228    0.0413    0.0287   -0.0331   -0.0503   -0.0245
          51   -0.0068    0.0207   -0.0021    0.0098    0.0084    0.0026   -0.0110    0.0120
          52    0.0405   -0.0700    0.0248   -0.0455   -0.0399   -0.0354    0.0428   -0.1033
          53    0.0005   -0.0423    0.0224    0.0008   -0.0054   -0.0440    0.0002   -0.0251
          54   -0.0123    0.0228   -0.0083    0.0124    0.0113    0.0132   -0.0115    0.0314
          55    0.0181   -0.0064   -0.0035   -0.0192   -0.0142   -0.0019    0.0195   -0.0307
          56    0.0216   -0.1030    0.0561    0.0198    0.0058   -0.0979   -0.0386    0.0718
          57   -0.0083    0.0071   -0.0013    0.0051    0.0037    0.0044   -0.0054    0.0060
          58    0.0043    0.0027   -0.0050    0.0120   -0.0039   -0.0039    0.0044   -0.0002
          59   -0.0036   -0.0011    0.0024   -0.0056    0.0020    0.0016   -0.0015    0.0002
          60   -0.0080   -0.0057    0.0111   -0.0269    0.0083    0.0098   -0.0112    0.0005


   Root No.      41        42        43        44        45        46        47        48

                41 A      42 A      43 A      44 A      45 A      46 A      47 A      48 A   

                1824.4    1847.1    1880.7    2323.8    2883.8    2903.8    2980.3    2986.8
  
           1    0.0122   -0.0096   -0.0301   -0.0000    0.0129   -0.0103    0.0066    0.0058
           2   -0.0036    0.0133   -0.0075    0.0001   -0.0119    0.0078   -0.0198   -0.0153
           3   -0.0034    0.0049    0.0053    0.0000    0.0280   -0.0258   -0.0147   -0.0084
           4   -0.0032   -0.0098    0.0176    0.0260   -0.0207   -0.0241    0.0120   -0.0120
           5    0.0036    0.0095   -0.0165   -0.0136   -0.0196   -0.0212   -0.0030    0.0078
           6    0.0011    0.0008   -0.0010   -0.0538    0.0001   -0.0018    0.0165   -0.0217
           7    0.0112   -0.0666    0.1847   -0.0019    0.0001    0.0000   -0.0007   -0.0002
           8   -0.0172   -0.0124   -0.0140    0.0006   -0.0004   -0.0002   -0.0004   -0.0004
           9   -0.0019    0.0008   -0.0075   -0.0002   -0.0000   -0.0001    0.0000   -0.0001
          10    0.0100    0.0756   -0.1614    0.0025    0.0005    0.0007   -0.0000    0.0003
          11   -0.0074   -0.0153    0.0292   -0.0014    0.0006    0.0009   -0.0010    0.0007
          12   -0.0002   -0.0018    0.0042   -0.0007    0.0000   -0.0001   -0.0000   -0.0001
          13   -0.0608    0.0703    0.0375    0.0000    0.0002   -0.0000    0.0012    0.0009
          14    0.0996   -0.1000   -0.0561   -0.0000    0.0004   -0.0003    0.0010    0.0009
          15    0.0189   -0.0217   -0.0126   -0.0000   -0.0000   -0.0000   -0.0004   -0.0003
          16   -0.1640   -0.0830   -0.0568    0.0001    0.0000    0.0000   -0.0000   -0.0001
          17    0.0292    0.0168    0.0245   -0.0001    0.0001   -0.0000   -0.0001   -0.0000
          18    0.0367    0.0192    0.0107   -0.0001    0.0001   -0.0001    0.0000   -0.0000
          19    0.0136   -0.0453   -0.0224   -0.0000   -0.0000   -0.0000    0.0000    0.0000
          20   -0.1356    0.1088    0.0598    0.0000    0.0000    0.0000    0.0003    0.0002
          21   -0.0015    0.0124    0.0059   -0.0000    0.0002   -0.0001   -0.0000   -0.0000
          22    0.1700    0.0837    0.0334   -0.0000   -0.0000   -0.0000   -0.0001   -0.0001
          23    0.0419   -0.0072   -0.0029   -0.0000   -0.0000   -0.0000   -0.0001   -0.0000
          24   -0.0464   -0.0210   -0.0084    0.0000   -0.0000    0.0000    0.0001    0.0000
          25   -0.0001   -0.0001    0.0001   -0.1227   -0.0001   -0.0001   -0.0000    0.0000
          26    0.0000    0.0005   -0.0010    0.0608   -0.0000   -0.0000    0.0000   -0.0000
          27    0.0002   -0.0001    0.0006    0.2673    0.0001    0.0000    0.0001   -0.0001
          28    0.0002    0.0001    0.0001    0.0827   -0.0000   -0.0001    0.0001   -0.0001
          29   -0.0001   -0.0000   -0.0001   -0.0404   -0.0001   -0.0001   -0.0000    0.0001
          30   -0.0006   -0.0003   -0.0000   -0.1812   -0.0001   -0.0001   -0.0001    0.0001
          31    0.0121   -0.0110    0.0121    0.0000   -0.0046    0.0074    0.0248    0.0175
          32    0.0008    0.0021   -0.0042    0.0004   -0.0741    0.0754    0.0972    0.0645
          33   -0.0007    0.0040    0.0038    0.0001   -0.1771    0.1910    0.3092    0.2089
          34    0.0294   -0.0324    0.0238   -0.0011   -0.1502    0.1133   -0.1044   -0.0852
          35    0.0043   -0.0022    0.0213   -0.0015    0.2169   -0.1687    0.1426    0.1201
          36   -0.0137    0.0110   -0.0058    0.0008   -0.1632    0.1228   -0.1315   -0.1075
          37   -0.0002   -0.0054    0.0102   -0.0083    0.0800    0.1128   -0.2052    0.2546
          38    0.0003    0.0074   -0.0167   -0.0004    0.0034    0.0079   -0.0333    0.0430
          39   -0.0020   -0.0007    0.0003   -0.0135    0.0809    0.1107   -0.1800    0.2212
          40   -0.0017    0.0168   -0.0290    0.0086    0.1691    0.1773    0.0604   -0.1111
          41    0.0021   -0.0112    0.0184    0.0094    0.2341    0.2484    0.0723   -0.1393
          42   -0.0009   -0.0001    0.0005   -0.0075   -0.0815   -0.0889   -0.0167    0.0383
          43   -0.0006    0.0038   -0.0046   -0.0007   -0.0081   -0.0084    0.0057   -0.0047
          44   -0.0022    0.0390   -0.0942    0.0003   -0.0094   -0.0095    0.0082   -0.0066
          45   -0.0036    0.0002   -0.0012   -0.0018    0.0017    0.0003    0.0001   -0.0004
          46    0.0443   -0.0608   -0.0338    0.0001   -0.0012    0.0008   -0.0070   -0.0058
          47    0.0500   -0.0341   -0.0233    0.0000   -0.0045    0.0031   -0.0147   -0.0119
          48   -0.0187    0.0236    0.0131   -0.0000    0.0013   -0.0011    0.0022    0.0020
          49   -0.0196   -0.0109    0.0336   -0.0002    0.0004   -0.0002    0.0013    0.0013
          50   -0.0934   -0.0491   -0.0369   -0.0001    0.0006   -0.0005    0.0025    0.0024
          51    0.0186    0.0065    0.0022    0.0001   -0.0000   -0.0000   -0.0006   -0.0005
          52    0.0248   -0.0096   -0.0053    0.0001   -0.0001    0.0000    0.0000    0.0003
          53   -0.0716   -0.0779   -0.0303   -0.0001    0.0002   -0.0001   -0.0001   -0.0004
          54    0.0022    0.0089    0.0059    0.0001   -0.0000    0.0000   -0.0000    0.0000
          55    0.0400   -0.0740   -0.0380    0.0000   -0.0005    0.0002   -0.0030   -0.0024
          56   -0.0133   -0.0414   -0.0186   -0.0000    0.0002   -0.0001    0.0005    0.0004
          57   -0.0146    0.0275    0.0140   -0.0000    0.0006   -0.0005    0.0008    0.0007
          58    0.0004    0.0000    0.0003    0.1602    0.0002    0.0001    0.0006   -0.0006
          59   -0.0001    0.0000   -0.0003   -0.0779   -0.0002   -0.0002   -0.0002    0.0003
          60   -0.0009   -0.0004   -0.0000   -0.3518   -0.0006   -0.0005   -0.0010    0.0012


   Root No.      49        50        51        52        53        54

                49 A      50 A      51 A      52 A      53 A      54 A   

                3045.5    3047.0    3053.9    3066.8    3077.6    3360.7
  
           1    0.0002   -0.0003    0.0003    0.0003    0.0005   -0.0000
           2    0.0005    0.0002   -0.0010   -0.0006   -0.0011   -0.0000
           3    0.0002   -0.0000   -0.0002   -0.0002   -0.0003   -0.0000
           4   -0.0014    0.0010   -0.0000    0.0000    0.0000    0.0008
           5   -0.0008    0.0005    0.0000    0.0001    0.0000   -0.0005
           6   -0.0006    0.0005   -0.0001   -0.0000   -0.0000   -0.0016
           7    0.0026   -0.0020    0.0005   -0.0004    0.0006   -0.0000
           8   -0.0002    0.0003    0.0000    0.0002   -0.0001    0.0000
           9   -0.0001    0.0001   -0.0001    0.0000   -0.0001   -0.0000
          10   -0.0209    0.0142   -0.0006    0.0005   -0.0002    0.0001
          11   -0.0310    0.0205   -0.0007    0.0004   -0.0000   -0.0001
          12    0.0014   -0.0009    0.0000   -0.0000    0.0000   -0.0000
          13   -0.0006   -0.0011   -0.0169   -0.0082   -0.0077   -0.0000
          14   -0.0012   -0.0019   -0.0289   -0.0178   -0.0188   -0.0000
          15    0.0002    0.0004    0.0065    0.0032    0.0031    0.0000
          16   -0.0130   -0.0159    0.0046   -0.0108    0.0071   -0.0000
          17   -0.0196   -0.0248    0.0065   -0.0124    0.0078   -0.0000
          18    0.0047    0.0059   -0.0017    0.0036   -0.0024   -0.0000
          19    0.0022    0.0039    0.0270   -0.0140   -0.0275   -0.0000
          20   -0.0001   -0.0004   -0.0020    0.0038    0.0050    0.0000
          21   -0.0008   -0.0013   -0.0093    0.0048    0.0094    0.0000
          22   -0.0048   -0.0067   -0.0029    0.0167   -0.0123   -0.0000
          23    0.0103    0.0140    0.0036   -0.0242    0.0193    0.0000
          24    0.0004    0.0005    0.0005   -0.0022    0.0015    0.0000
          25   -0.0000    0.0000    0.0000   -0.0000    0.0000   -0.0115
          26   -0.0000    0.0000   -0.0000    0.0000   -0.0000    0.0056
          27    0.0000   -0.0000   -0.0000    0.0000   -0.0000    0.0251
          28   -0.0000   -0.0000   -0.0000    0.0000   -0.0000    0.0401
          29   -0.0000    0.0000   -0.0000   -0.0000    0.0000   -0.0196
          30   -0.0000    0.0000   -0.0000   -0.0000    0.0000   -0.0880
          31   -0.0000   -0.0003   -0.0004    0.0000    0.0002    0.0001
          32   -0.0009   -0.0001    0.0023    0.0016    0.0021    0.0000
          33   -0.0029   -0.0003    0.0103    0.0067    0.0082    0.0002
          34    0.0011    0.0001   -0.0083   -0.0049   -0.0059   -0.0000
          35   -0.0006   -0.0009    0.0081    0.0050    0.0064    0.0001
          36    0.0008    0.0008   -0.0066   -0.0040   -0.0052   -0.0001
          37    0.0125   -0.0088    0.0006    0.0000    0.0002   -0.0018
          38   -0.0009    0.0005    0.0000    0.0001    0.0000   -0.0001
          39    0.0108   -0.0076    0.0005   -0.0000    0.0001   -0.0017
          40    0.0033   -0.0019   -0.0005   -0.0004   -0.0004    0.0015
          41    0.0091   -0.0056   -0.0006   -0.0007   -0.0005    0.0020
          42   -0.0030    0.0018    0.0002    0.0002    0.0002   -0.0008
          43    0.2206   -0.1463    0.0049   -0.0031    0.0003   -0.0001
          44    0.3691   -0.2480    0.0088   -0.0063    0.0011   -0.0001
          45   -0.0165    0.0110   -0.0003    0.0003   -0.0000   -0.0001
          46    0.0076    0.0132    0.2044    0.1114    0.1076    0.0001
          47    0.0123    0.0215    0.3372    0.1877    0.1825    0.0002
          48   -0.0029   -0.0051   -0.0782   -0.0426   -0.0412   -0.0000
          49    0.1398    0.1778   -0.0482    0.0925   -0.0556   -0.0001
          50    0.2331    0.2922   -0.0783    0.1479   -0.0888   -0.0001
          51   -0.0534   -0.0672    0.0181   -0.0346    0.0209    0.0000
          52    0.0671    0.0921    0.0257   -0.1627    0.1218    0.0002
          53   -0.1215   -0.1664   -0.0406    0.2843   -0.2184   -0.0004
          54   -0.0067   -0.0093   -0.0032    0.0173   -0.0124   -0.0000
          55   -0.0248   -0.0443   -0.3224    0.1555    0.3013    0.0003
          56    0.0031    0.0052    0.0290   -0.0181   -0.0286   -0.0000
          57    0.0085    0.0152    0.1115   -0.0536   -0.1042   -0.0001
          58    0.0000    0.0000    0.0000   -0.0000    0.0001   -0.3515
          59    0.0000   -0.0000    0.0000    0.0000   -0.0000    0.1713
          60   -0.0000   -0.0000   -0.0000    0.0001   -0.0002    0.7710


           MASS-WEIGHTED COORDINATE ANALYSIS (NORMAL COORDINATES)


   Root No.       1         2         3         4         5         6         7         8

                 1 A       2 A       3 A       4 A       5 A       6 A       7 A       8 A   

                  33.6      85.9     110.7     226.1     281.0     315.8     386.4     411.4
  
[...]
 REDUCED MASS        1.4145         C  2 -- C  9         +13.0% ( 52.8%)     89.1%
 EFFECTIVE MASS      7.5986
 FORCE CONSTANT      1.5381

 VIBRATION         37   37A           ATOM PAIR      ENERGY CONTRIBUTION    RADIAL
 FREQUENCY          1396.38         C  2 -- H 14         +22.0% ( 54.0%)      4.3%
 TRANSITION DIPOLE   0.0193         C  2 -- H 13         +15.5% ( 45.3%)      3.9%
 TRAVEL (Ang.)       0.3587         C  1 -- H 12         +12.2% ( 40.2%)      0.2%
 REDUCED MASS        0.3754         C  1 -- H 11          +6.1% ( 28.3%)      0.1%
 EFFECTIVE MASS      3.8987
 FORCE CONSTANT      0.4312

 VIBRATION         38   38A           ATOM PAIR      ENERGY CONTRIBUTION    RADIAL
 FREQUENCY          1401.90         C  1 -- C  5         +14.2% ( 55.7%)     99.2%
 TRANSITION DIPOLE   0.1157         C  1 -- C  3         +12.0% ( 51.1%)      6.4%
 TRAVEL (Ang.)       0.2098         C  3 -- C  6          +9.7% ( 45.9%)     85.9%
 REDUCED MASS        1.0924         C  1 -- H 12          +9.3% ( 45.0%)      7.3%
 EFFECTIVE MASS      8.7624
 FORCE CONSTANT      1.2649

 VIBRATION         39   39A           ATOM PAIR      ENERGY CONTRIBUTION    RADIAL
 FREQUENCY          1424.45         C  2 -- C  4         +13.7% ( 52.9%)     98.1%
 TRANSITION DIPOLE   0.1625         C  2 -- H 14         +11.8% ( 49.1%)      1.6%
 TRAVEL (Ang.)       0.2318         C  2 -- H 13          +9.1% ( 43.0%)      2.5%
 REDUCED MASS        0.8812         C  7 -- C  8          +8.2% ( 40.9%)     99.8%
 EFFECTIVE MASS      8.0033
 FORCE CONSTANT      1.0535

 VIBRATION         40   40A           ATOM PAIR      ENERGY CONTRIBUTION    RADIAL
 FREQUENCY          1506.94         C  1 -- C  3         +19.5% ( 67.1%)     97.6%
 TRANSITION DIPOLE   0.0518         C  3 -- C  6         +19.1% ( 66.4%)     85.0%
 TRAVEL (Ang.)       0.1361         C  3 -- C  4          +9.9% ( 47.8%)      0.1%
 REDUCED MASS        2.4158         C  1 -- C  5          +9.7% ( 47.4%)     80.0%
 EFFECTIVE MASS     11.3372
 FORCE CONSTANT      3.2322

 VIBRATION         41   41A           ATOM PAIR      ENERGY CONTRIBUTION    RADIAL
 FREQUENCY          1824.45         C  6 -- C  8         +28.7% ( 80.1%)     99.5%
 TRANSITION DIPOLE   0.3412         C  7 -- C  8         +16.3% ( 60.5%)     97.0%
 TRAVEL (Ang.)       0.1086         C  5 -- C  7         +14.9% ( 57.8%)     98.0%
 REDUCED MASS        3.1333         C  8 -- H 18          +9.1% ( 45.1%)      2.5%
 EFFECTIVE MASS     11.9540
 FORCE CONSTANT      6.1448

 VIBRATION         42   42A           ATOM PAIR      ENERGY CONTRIBUTION    RADIAL
 FREQUENCY          1847.13         C  5 -- C  7         +24.2% ( 72.1%)     99.6%
 TRANSITION DIPOLE   0.4729         C  6 -- C  8         +12.3% ( 51.4%)     98.9%
 TRAVEL (Ang.)       0.1293         C  7 -- C  8         +10.6% ( 47.6%)      2.0%
 REDUCED MASS        2.1844         C  3 -- C  4          +8.5% ( 42.8%)    100.0%
 EFFECTIVE MASS     11.7909
 FORCE CONSTANT      4.3912

 VIBRATION         43   43A           ATOM PAIR      ENERGY CONTRIBUTION    RADIAL
 FREQUENCY          1880.72         C  3 -- C  4         +35.2% ( 87.7%)     98.7%
 TRANSITION DIPOLE   0.3291         C  3 -- C  6         +15.0% ( 57.2%)     39.4%
 TRAVEL (Ang.)       0.0967         C  1 -- C  3         +13.1% ( 53.6%)     26.2%
 REDUCED MASS        3.8335         C  2 -- C  4         +10.0% ( 46.8%)     54.1%
 EFFECTIVE MASS     11.8550
 FORCE CONSTANT      7.9891

 VIBRATION         44   44A           ATOM PAIR      ENERGY CONTRIBUTION    RADIAL
 FREQUENCY          2323.79         C  9 -- C 10         +59.8% ( 97.2%)    100.0%
 TRANSITION DIPOLE   0.5113         C  2 -- C  9         +27.9% ( 66.5%)    100.0%
 TRAVEL (Ang.)       0.0734         C 10 -- H 20         +11.0% ( 41.8%)    100.0%
 REDUCED MASS        5.3872         C  2 -- C  4          +0.4% (  8.1%)     13.6%
 EFFECTIVE MASS     11.5132
 FORCE CONSTANT     17.1398

 VIBRATION         45   45A           ATOM PAIR      ENERGY CONTRIBUTION    RADIAL
 FREQUENCY          2883.81         C  1 -- H 12         +39.2% ( 64.9%)     98.2%
 TRANSITION DIPOLE   0.1027         C  2 -- H 14         +36.0% ( 62.3%)     99.1%
 TRAVEL (Ang.)       0.2658         C  1 -- H 11         +16.2% ( 41.8%)     92.9%
 REDUCED MASS        0.3310         C  2 -- H 13          +6.3% ( 25.9%)     85.6%
 EFFECTIVE MASS      1.5126
 FORCE CONSTANT      1.6218

 VIBRATION         46   46A           ATOM PAIR      ENERGY CONTRIBUTION    RADIAL
 FREQUENCY          2903.75         C  2 -- H 14         +42.5% ( 67.3%)     98.8%
 TRANSITION DIPOLE   0.0917         C  1 -- H 12         +24.3% ( 50.9%)     97.2%
 TRAVEL (Ang.)       0.2737         C  1 -- H 11         +18.9% ( 44.8%)     95.6%
 REDUCED MASS        0.3100         C  2 -- H 13         +12.0% ( 35.8%)     90.0%
 EFFECTIVE MASS      1.5258
 FORCE CONSTANT      1.5400

 VIBRATION         47   47A           ATOM PAIR      ENERGY CONTRIBUTION    RADIAL
 FREQUENCY          2980.35         C  1 -- H 11         +43.7% ( 65.5%)     99.3%
 TRANSITION DIPOLE   0.1263         C  2 -- H 13         +32.1% ( 56.1%)     99.9%
 TRAVEL (Ang.)       0.2649         C  1 -- H 12         +19.2% ( 43.4%)     94.5%
 REDUCED MASS        0.3224         C  2 -- H 14          +3.5% ( 18.6%)     73.4%
 EFFECTIVE MASS      1.3007
 FORCE CONSTANT      1.6871

 VIBRATION         48   48A           ATOM PAIR      ENERGY CONTRIBUTION    RADIAL
 FREQUENCY          2986.79         C  2 -- H 13         +50.7% ( 70.3%)     99.6%
 TRANSITION DIPOLE   0.1242         C  1 -- H 11         +20.6% ( 44.8%)     98.7%
 TRAVEL (Ang.)       0.2644         C  1 -- H 12         +13.8% ( 36.7%)     96.7%
 REDUCED MASS        0.3230         C  2 -- H 14         +13.4% ( 36.2%)     89.1%
 EFFECTIVE MASS      1.2946
 FORCE CONSTANT      1.6977

 VIBRATION         49   49A           ATOM PAIR      ENERGY CONTRIBUTION    RADIAL
 FREQUENCY          3045.46         C  4 -- H 15         +63.7% ( 81.0%)    100.0%
 TRANSITION DIPOLE   0.4688         C  6 -- H 17         +26.5% ( 52.2%)    100.0%
 TRAVEL (Ang.)       0.2164         C  8 -- H 18          +6.7% ( 26.2%)     99.9%
 REDUCED MASS        0.4730         C  3 -- C  4          +0.9% (  9.9%)     35.8%
 EFFECTIVE MASS      1.5014
 FORCE CONSTANT      2.5847

 VIBRATION         50   50A           ATOM PAIR      ENERGY CONTRIBUTION    RADIAL
 FREQUENCY          3047.02         C  6 -- H 17         +48.5% ( 70.7%)    100.0%
 TRANSITION DIPOLE   0.0596         C  4 -- H 15         +33.1% ( 58.4%)    100.0%
 TRAVEL (Ang.)       0.2480         C  8 -- H 18         +14.5% ( 38.6%)     99.9%
 REDUCED MASS        0.3597         C  7 -- H 19          +0.9% (  9.6%)    100.0%
 EFFECTIVE MASS      1.4873
 FORCE CONSTANT      1.9678

 VIBRATION         51   51A           ATOM PAIR      ENERGY CONTRIBUTION    RADIAL
 FREQUENCY          3053.95         C  5 -- H 16         +54.3% ( 74.8%)    100.0%
 TRANSITION DIPOLE   0.2438         C  7 -- H 19         +39.4% ( 63.7%)    100.0%
 TRAVEL (Ang.)       0.2239         C  6 -- H 17          +2.9% ( 17.4%)    100.0%
 REDUCED MASS        0.4404         C  5 -- C  7          +1.1% ( 10.6%)      0.4%
 EFFECTIVE MASS      1.4673
 FORCE CONSTANT      2.4203

 VIBRATION         52   52A           ATOM PAIR      ENERGY CONTRIBUTION    RADIAL
 FREQUENCY          3066.82         C  8 -- H 18         +48.0% ( 70.4%)     99.9%
 TRANSITION DIPOLE   0.3825         C  5 -- H 16         +22.0% ( 47.7%)     99.9%
 TRAVEL (Ang.)       0.2648         C  6 -- H 17         +14.1% ( 38.2%)     99.8%
 REDUCED MASS        0.3135         C  7 -- H 19         +12.3% ( 35.6%)     99.7%
 EFFECTIVE MASS      1.5673
 FORCE CONSTANT      1.7375

 VIBRATION         53   53A           ATOM PAIR      ENERGY CONTRIBUTION    RADIAL
 FREQUENCY          3077.56         C  7 -- H 19         +44.2% ( 67.4%)    100.0%
 TRANSITION DIPOLE   0.4107         C  8 -- H 18         +27.0% ( 52.7%)    100.0%
 TRAVEL (Ang.)       0.2649         C  5 -- H 16         +20.1% ( 45.5%)     99.8%
 REDUCED MASS        0.3122         C  6 -- H 17          +4.9% ( 22.6%)     99.7%
 EFFECTIVE MASS      1.6034
 FORCE CONSTANT      1.7421

 VIBRATION         54   54A           ATOM PAIR      ENERGY CONTRIBUTION    RADIAL
 FREQUENCY          3360.66         C 10 -- H 20         +94.0% ( 99.1%)    100.0%
 TRANSITION DIPOLE   0.9773         C  9 -- C 10          +5.7% ( 24.4%)    100.0%
 TRAVEL (Ang.)       0.1452         C  2 -- C  9          +0.3% (  5.9%)    100.0%
 REDUCED MASS        0.9523
 EFFECTIVE MASS      2.0791
 FORCE CONSTANT      6.3371

      SYMMETRY NUMBER FOR POINT-GROUP C1  =  1


          SYSTEM IS A GROUND STATE



 InChI=1S/C10H10/c1-2-3-7-10-8-5-4-6-9-10/h1,4-8H,3,9H2


          MOLECULE IS NOT LINEAR

          THERE ARE 54 GENUINE VIBRATIONS IN THIS SYSTEM
          THIS THERMODYNAMICS CALCULATION IS LIMITED TO
          MOLECULES WHICH HAVE NO INTERNAL ROTATIONS




                    CALCULATED THERMODYNAMIC PROPERTIES
                                          *
   TEMP. (K)   PARTITION FUNCTION   H.O.F.    ENTHALPY  HEAT CAPACITY ENTROPY
                                   KCAL/MOL   CAL/MOLE    CAL/K/MOL  CAL/K/MOL


 298.00  VIB.     0.3107D+03                  3914.7553    28.8342    24.5412
         ROT.     0.6945D+06                   888.2803     2.9808    29.7106
         INT.     0.2158D+09                  4803.0356    31.8150    54.2518
         TRA.     0.1436D+28                  1480.4672     4.9680    40.5022
         TOT.                       84.392    6283.5028    36.7830    94.7540

 200.00  VIB.     0.3792D+02                  1651.2859    17.5236    15.4808
         ROT.     0.3819D+06                   596.1613     2.9808    28.5219
         INT.     0.1448D+08                  2247.4472    20.5044    44.0027
         TRA.     0.7896D+27                   993.6021     4.9680    38.5210
         TOT.                       81.350    3241.0493    25.4725    82.5237

 210.00  VIB.     0.4670D+02                  1831.9640    18.6157    16.3621
         ROT.     0.4108D+06                   625.9693     2.9808    28.6673
         INT.     0.1919D+08                  2457.9333    21.5965    45.0294
         TRA.     0.8496D+27                  1043.2822     4.9680    38.7634
         TOT.                       81.610    3501.2156    26.5645    83.7928

 220.00  VIB.     0.5760D+02                  2023.6717    19.7292    17.2537
         ROT.     0.4405D+06                   655.7774     2.9808    28.8060
         INT.     0.2538D+08                  2679.4491    22.7100    46.0597
         TRA.     0.9110D+27                  1092.9623     4.9680    38.9945
         TOT.                       81.881    3772.4115    27.6780    85.0542

 230.00  VIB.     0.7114D+02                  2226.6111    20.8616    18.1556
         ROT.     0.4709D+06                   685.5855     2.9808    28.9385
         INT.     0.3350D+08                  2912.1966    23.8424    47.0941
         TRA.     0.9738D+27                  1142.6424     4.9680    39.2154
         TOT.                       82.163    4054.8390    28.8104    86.3095

 240.00  VIB.     0.8798D+02                  2440.9580    22.0102    19.0677
         ROT.     0.5020D+06                   715.3935     2.9808    29.0654
         INT.     0.4416D+08                  3156.3515    24.9910    48.1331
         TRA.     0.1038D+28                  1192.3226     4.9680    39.4268
         TOT.                       82.457    4348.6741    29.9590    87.5599

 250.00  VIB.     0.1090D+03                  2666.8592    23.1720    19.9897
         ROT.     0.5337D+06                   745.2016     2.9808    29.1871
         INT.     0.5816D+08                  3412.0608    26.1528    49.1768
         TRA.     0.1103D+28                  1242.0027     4.9680    39.6296
         TOT.                       82.763    4654.0634    31.1208    88.8064

 260.00  VIB.     0.1352D+03                  2904.4308    24.3438    20.9213
         ROT.     0.5660D+06                   775.0097     2.9808    29.3040
         INT.     0.7651D+08                  3679.4405    27.3246    50.2253
         TRA.     0.1170D+28                  1291.6828     4.9680    39.8245
         TOT.                       83.080    4971.1232    32.2926    90.0498

 270.00  VIB.     0.1679D+03                  3153.7578    25.5225    21.8621
         ROT.     0.5990D+06                   804.8177     2.9808    29.4165
         INT.     0.1006D+09                  3958.5755    28.5033    51.2786
         TRA.     0.1239D+28                  1341.3629     4.9680    40.0120
         TOT.                       83.408    5299.9384    33.4713    91.2906

 280.00  VIB.     0.2089D+03                  3414.8939    26.7051    22.8117
         ROT.     0.6325D+06                   834.6258     2.9808    29.5249
         INT.     0.1322D+09                  4249.5197    29.6859    52.3366
         TRA.     0.1308D+28                  1391.0430     4.9680    40.1926
         TOT.                       83.749    5640.5627    34.6539    92.5292

 290.00  VIB.     0.2603D+03                  3687.8629    27.8886    23.7695
         ROT.     0.6667D+06                   864.4339     2.9808    29.6295
         INT.     0.1736D+09                  4552.2968    30.8694    53.3989
         TRA.     0.1379D+28                  1440.7231     4.9680    40.3670
         TOT.                       84.102    5993.0198    35.8374    93.7659

 300.00  VIB.     0.3248D+03                  3972.6598    29.0702    24.7349
         ROT.     0.7015D+06                   894.2419     2.9808    29.7305
         INT.     0.2279D+09                  4866.9017    32.0510    54.4654
         TRA.     0.1451D+28                  1490.4032     4.9680    40.5354
         TOT.                       84.466    6357.3049    37.0190    95.0008

 310.00  VIB.     0.4059D+03                  4269.2527    30.2474    25.7073
         ROT.     0.7369D+06                   924.0500     2.9808    29.8283
         INT.     0.2991D+09                  5193.3027    33.2282    55.5355
         TRA.     0.1524D+28                  1540.0833     4.9680    40.6983
         TOT.                       84.842    6733.3860    38.1962    96.2338

 320.00  VIB.     0.5080D+03                  4577.5853    31.4178    26.6861
         ROT.     0.7728D+06                   953.8580     2.9808    29.9229
         INT.     0.3926D+09                  5531.4433    34.3986    56.6090
         TRA.     0.1598D+28                  1589.7634     4.9680    40.8560
         TOT.                       85.230    7121.2067    39.3666    97.4650

 330.00  VIB.     0.6366D+03                  4897.5787    32.5792    27.6707
         ROT.     0.8093D+06                   983.6661     2.9808    30.0146
         INT.     0.5152D+09                  5881.2448    35.5601    57.6853
         TRA.     0.1674D+28                  1639.4435     4.9680    41.0089
         TOT.                       85.629    7520.6883    40.5281    98.6942

 340.00  VIB.     0.7987D+03                  5229.1341    33.7299    28.6604
         ROT.     0.8464D+06                  1013.4742     2.9808    30.1036
         INT.     0.6760D+09                  6242.6083    36.7107    58.7640
         TRA.     0.1750D+28                  1689.1236     4.9680    41.1572
         TOT.                       86.040    7931.7319    41.6787    99.9212

 350.00  VIB.     0.1004D+04                  5572.1352    34.8681    29.6546
         ROT.     0.8840D+06                  1043.2822     2.9808    30.1900
         INT.     0.8871D+09                  6615.4174    37.8489    59.8446
         TRA.     0.1828D+28                  1738.8037     4.9680    41.3012
         TOT.                       86.463    8354.2211    42.8169   101.1458

 360.00  VIB.     0.1262D+04                  5926.4501    35.9925    30.6526
         ROT.     0.9222D+06                  1073.0903     2.9808    30.2740
         INT.     0.1164D+10                  6999.5404    38.9733    60.9266
         TRA.     0.1907D+28                  1788.4838     4.9680    41.4412
         TOT.                       86.897    8788.0242    43.9413   102.3678

 370.00  VIB.     0.1590D+04                  6291.9340    37.1017    31.6540
         ROT.     0.9608D+06                  1102.8984     2.9808    30.3557
         INT.     0.1528D+10                  7394.8323    40.0825    62.0096
         TRA.     0.1987D+28                  1838.1639     4.9680    41.5773
         TOT.                       87.342    9232.9963    45.0505   103.5869

 380.00  VIB.     0.2005D+04                  6668.4310    38.1949    32.6579
         ROT.     0.1000D+07                  1132.7064     2.9808    30.4352
         INT.     0.2005D+10                  7801.1374    41.1757    63.0931
         TRA.     0.2068D+28                  1887.8440     4.9680    41.7098
         TOT.                       87.798    9688.9815    46.1437   104.8029

 390.00  VIB.     0.2531D+04                  7055.7762    39.2712    33.6640
         ROT.     0.1040D+07                  1162.5145     2.9808    30.5126
         INT.     0.2631D+10                  8218.2907    42.2520    64.1766
         TRA.     0.2150D+28                  1937.5242     4.9680    41.8388
         TOT.                       88.264   10155.8148    47.2201   106.0155

 400.00  VIB.     0.3198D+04                  7453.7973    40.3300    34.6717
         ROT.     0.1080D+07                  1192.3226     2.9808    30.5881
         INT.     0.3454D+10                  8646.1199    43.3108    65.2597
         TRA.     0.2233D+28                  1987.2043     4.9680    41.9646
         TOT.                       88.742   10633.3241    48.2788   107.2243

   *: NOTE: HEATS OF FORMATION ARE RELATIVE TO THE
            ELEMENTS IN THEIR STANDARD STATE AT 298K
              (=  Standard Enthalpy of Formation).

            Hvib:  Zero-point energy is not included.
                   frequencies of less than zero cm-1 are not included.
            Hrot = (3/2)RT
            Htra = (3/2)RT + pV = (5/2)RT

            Heat capacity is Cp, not Cv

          For more information, see: HTTP://OpenMOPAC.net/Manual/thermochemistry.html


           FORCE CONSTANT IN CARTESIAN COORDINATES (Millidynes/A)

    ATOM   CHEMICAL       X               Y               Z
   NUMBER   SYMBOL  FORCE CONSTANT  FORCE CONSTANT  FORCE CONSTANT

      1       C        9.556030        8.724132        7.535809
      2       C        8.689248        8.441258        9.344809
      3       C       15.348655       10.201346        2.683858
      4       C       14.943633        9.492178        2.469936
      5       C        9.568956       14.227482        3.228510
      6       C       14.409791       10.063792        2.948584
      7       C       10.567676       13.825290        3.164479
      8       C       13.954175       10.505787        3.000360
      9       C        5.584709        2.753816       19.981235
     10       C        5.018633        2.188625       19.204591
     11       H        0.644745        1.062593        4.366760
     12       H        1.734312        2.612936        1.868267
     13       H        2.955901        0.710958        2.483171
     14       H        2.088684        3.161140        0.920573
     15       H        1.918200        3.969739        0.339978
     16       H        1.837827        3.868874        0.551592
     17       H        1.894690        3.820942        0.527734
     18       H        1.792725        4.084193        0.383998
     19       H        4.615143        0.794093        0.858050
     20       H        1.268462        0.548353        4.877503

 **********************
 *                    *
 * JOB ENDED NORMALLY *
 *                    *
 **********************



 TOTAL JOB TIME:             3.72 SECONDS

 == MOPAC DONE ==
