 *******************************************************************************
 **                                                                           **
 **                              MOPAC v23.1.2                                **
 **                                                                           **
 *******************************************************************************
 **          Digital Object Identifier (DOI): 10.5281/zenodo.6511958          **
 **    Visit the DOI location for information on how to cite this program.    **
 *******************************************************************************

                              PM3 CALCULATION RESULTS

 *******************************************************************************
 *  CALCULATION DONE: (MAX THREADS = 1)              Tue Jun  3 16:31:43 2025  *
 *  PM3        - The PM3 Hamiltonian to be used
 *  NONR       - DO NOT USE NEWTON-RAPHSON STEP IN EF
 *  PRECISE    - TIGHTER CRITERIA TO BE USED
 *  NOSYM      - POINT-GROUP SYMMETRY SET TO C1
 *  THREADS=1  - MULTI-THREADING NOT USED
 *  T=         - A TIME OF 2000.0 SECONDS REQUESTED
 *  DUMP=N     - RESTART FILE WRITTEN EVERY 7200.0 SECONDS REQUESTED
 *  CYCLES=    - DO A MAXIMUM OF 2000 STEPS
 *  RECALC=    - DO  10 CYCLES BETWEEN HESSIAN RECALC
 *  DMAX=      - STARTING TRUST RADIUS  0.100 ANG/RAD
 *******************************************************************************
pm3  precise nosym recalc=10 dmax=0.10 nonr cycles=2000 t=2000 THREADS=1
 InChI=1S/C10H10/c1-2-6-10-8-4-3-7-9(10)5-1/h1-6H,7-8H2

   ATOM   CHEMICAL          X               Y               Z
  NUMBER   SYMBOL      (ANGSTROMS)     (ANGSTROMS)     (ANGSTROMS)

     1       C         -0.96460000  *  -1.59600000  *  -0.01810000  *
     2       C         -1.26830000  *   1.26860000  *  -0.51010000  *
     3       C          0.23520000  *  -0.68450000  *   0.06020000  *
     4       C          0.08860000  *   0.69870000  *  -0.17740000  *
     5       C         -2.24170000  *  -0.86790000  *   0.31620000  *
     6       C         -2.38120000  *   0.44770000  *   0.09020000  *
     7       C          1.51090000  *  -1.21560000  *   0.30550000  *
     8       C          1.21990000  *   1.52900000  *  -0.16590000  *
     9       C          2.48350000  *   0.99240000  *   0.09630000  *
    10       C          2.62860000  *  -0.37700000  *   0.33150000  *
    11       H         -1.04160000  *  -2.00130000  *  -1.04910000  *
    12       H         -0.84650000  *  -2.44750000  *   0.68630000  *
    13       H         -1.39010000  *   1.28610000  *  -1.61370000  *
    14       H         -1.35080000  *   2.31000000  *  -0.13090000  *
    15       H         -3.07850000  *  -1.43010000  *   0.71950000  *
    16       H         -3.32850000  *   0.92850000  *   0.31430000  *
    17       H          1.63930000  *  -2.27770000  *   0.47340000  *
    18       H          1.12340000  *   2.58960000  *  -0.36260000  *
    19       H          3.35250000  *   1.63750000  *   0.10860000  *
    20       H          3.60980000  *  -0.79060000  *   0.52570000  *



          CARTESIAN COORDINATES 

    NO.       ATOM           X           Y           Z

     1         C         -0.9646     -1.5960     -0.0181
     2         C         -1.2683      1.2686     -0.5101
     3         C          0.2352     -0.6845      0.0602
     4         C          0.0886      0.6987     -0.1774
     5         C         -2.2417     -0.8679      0.3162
     6         C         -2.3812      0.4477      0.0902
     7         C          1.5109     -1.2156      0.3055
     8         C          1.2199      1.5290     -0.1659
     9         C          2.4835      0.9924      0.0963
    10         C          2.6286     -0.3770      0.3315
    11         H         -1.0416     -2.0013     -1.0491
    12         H         -0.8465     -2.4475      0.6863
    13         H         -1.3901      1.2861     -1.6137
    14         H         -1.3508      2.3100     -0.1309
    15         H         -3.0785     -1.4301      0.7195
    16         H         -3.3285      0.9285      0.3143
    17         H          1.6393     -2.2777      0.4734
    18         H          1.1234      2.5896     -0.3626
    19         H          3.3525      1.6375      0.1086
    20         H          3.6098     -0.7906      0.5257

  H: (PM3): J. J. P. STEWART, J. COMP. CHEM. 10, 209 (1989).
  C: (PM3): J. J. P. STEWART, J. COMP. CHEM. 10, 209 (1989).

           Empirical Formula: C10 H10  =    20 atoms



      MOLECULAR POINT GROUP   :   C1  


      RHF CALCULATION, NO. OF DOUBLY OCCUPIED LEVELS = 25


          Geometry optimization using EF

          DIAGONAL MATRIX USED AS START HESSIAN

 CYCLE:     1 TIME:   0.008 TIME LEFT: 33.33M  GRAD.:    66.937 HEAT:  30.87342
 CYCLE:     2 TIME:   0.012 TIME LEFT: 33.33M  GRAD.:    52.063 HEAT:  29.99029
 CYCLE:     3 TIME:   0.012 TIME LEFT: 33.33M  GRAD.:    33.327 HEAT:  29.54375
 CYCLE:     4 TIME:   0.012 TIME LEFT: 33.33M  GRAD.:    17.510 HEAT:  29.34443
 CYCLE:     5 TIME:   0.008 TIME LEFT: 33.33M  GRAD.:    16.493 HEAT:  29.27212
 CYCLE:     6 TIME:   0.004 TIME LEFT: 33.33M  GRAD.:    17.712 HEAT:  29.21002
 CYCLE:     7 TIME:   0.008 TIME LEFT: 33.33M  GRAD.:    23.323 HEAT:  29.19082
 CYCLE:     8 TIME:   0.008 TIME LEFT: 33.33M  GRAD.:    16.954 HEAT:  29.08816
 CYCLE:     9 TIME:   0.012 TIME LEFT: 33.33M  GRAD.:    13.913 HEAT:  29.04870
 CYCLE:    10 TIME:   0.008 TIME LEFT: 33.33M  GRAD.:    12.923 HEAT:  29.02408

          HESSIAN CALCULATED NUMERICALLY

 CYCLE:    11 TIME:   0.230 TIME LEFT: 33.33M  GRAD.:    13.903 HEAT:  29.02016
 CYCLE:    12 TIME:   0.008 TIME LEFT: 33.33M  GRAD.:     2.040 HEAT:  28.95589
 CYCLE:    13 TIME:   0.008 TIME LEFT: 33.33M  GRAD.:     2.099 HEAT:  28.94438
 CYCLE:    14 TIME:   0.008 TIME LEFT: 33.33M  GRAD.:     1.240 HEAT:  28.89979
 CYCLE:    15 TIME:   0.004 TIME LEFT: 33.33M  GRAD.:     0.837 HEAT:  28.87242
 CYCLE:    16 TIME:   0.008 TIME LEFT: 33.33M  GRAD.:     1.162 HEAT:  28.85053
 CYCLE:    17 TIME:   0.008 TIME LEFT: 33.33M  GRAD.:     1.056 HEAT:  28.79153
 CYCLE:    18 TIME:   0.008 TIME LEFT: 33.33M  GRAD.:     2.087 HEAT:  28.74815
 CYCLE:    19 TIME:   0.008 TIME LEFT: 33.33M  GRAD.:     2.991 HEAT:  28.71382
 CYCLE:    20 TIME:   0.008 TIME LEFT: 33.33M  GRAD.:     7.911 HEAT:  28.67329

          HESSIAN CALCULATED NUMERICALLY

 CYCLE:    21 TIME:   0.234 TIME LEFT: 33.32M  GRAD.:     6.543 HEAT:  28.65318
 CYCLE:    22 TIME:   0.008 TIME LEFT: 33.32M  GRAD.:     0.226 HEAT:  28.63241
 CYCLE:    23 TIME:   0.008 TIME LEFT: 33.32M  GRAD.:     0.310 HEAT:  28.63040
 CYCLE:    24 TIME:   0.008 TIME LEFT: 33.32M  GRAD.:     0.534 HEAT:  28.62459
 CYCLE:    25 TIME:   0.004 TIME LEFT: 33.32M  GRAD.:     0.800 HEAT:  28.62126
 CYCLE:    26 TIME:   0.008 TIME LEFT: 33.32M  GRAD.:     1.472 HEAT:  28.61275
 CYCLE:    27 TIME:   0.008 TIME LEFT: 33.32M  GRAD.:     5.386 HEAT:  28.61010
 CYCLE:    28 TIME:   0.027 TIME LEFT: 33.32M  GRAD.:     4.225 HEAT:  28.59648
 CYCLE:    29 TIME:   0.004 TIME LEFT: 33.32M  GRAD.:     0.298 HEAT:  28.59128
 CYCLE:    30 TIME:   0.008 TIME LEFT: 33.32M  GRAD.:     0.273 HEAT:  28.59103

          HESSIAN CALCULATED NUMERICALLY

 CYCLE:    31 TIME:   0.254 TIME LEFT: 33.32M  GRAD.:     0.249 HEAT:  28.59028
 CYCLE:    32 TIME:   0.008 TIME LEFT: 33.32M  GRAD.:     0.509 HEAT:  28.58903
 CYCLE:    33 TIME:   0.008 TIME LEFT: 33.32M  GRAD.:     0.580 HEAT:  28.58773
 CYCLE:    34 TIME:   0.008 TIME LEFT: 33.32M  GRAD.:     2.290 HEAT:  28.58404
 CYCLE:    35 TIME:   0.008 TIME LEFT: 33.32M  GRAD.:     0.648 HEAT:  28.58148
 CYCLE:    36 TIME:   0.004 TIME LEFT: 33.32M  GRAD.:     0.575 HEAT:  28.58101
 CYCLE:    37 TIME:   0.008 TIME LEFT: 33.32M  GRAD.:     0.322 HEAT:  28.57991
 CYCLE:    38 TIME:   0.008 TIME LEFT: 33.32M  GRAD.:     0.392 HEAT:  28.57939
 CYCLE:    39 TIME:   0.008 TIME LEFT: 33.32M  GRAD.:     0.929 HEAT:  28.57813
 CYCLE:    40 TIME:   0.008 TIME LEFT: 33.32M  GRAD.:     0.469 HEAT:  28.57749

          HESSIAN CALCULATED NUMERICALLY

 CYCLE:    41 TIME:   0.246 TIME LEFT: 33.31M  GRAD.:     0.532 HEAT:  28.57764
 CYCLE:    42 TIME:   0.008 TIME LEFT: 33.31M  GRAD.:     0.461 HEAT:  28.57753
 CYCLE:    43 TIME:   0.004 TIME LEFT: 33.31M  GRAD.:     0.466 HEAT:  28.57746
 CYCLE:    44 TIME:   0.008 TIME LEFT: 33.31M  GRAD.:     0.051 HEAT:  28.57728
 CYCLE:    45 TIME:   0.008 TIME LEFT: 33.31M  GRAD.:     0.027 HEAT:  28.57725

     GRADIENT =  0.02743 IS LESS THAN CUTOFF =  0.05000



 -------------------------------------------------------------------------------
 pm3  precise nosym recalc=10 dmax=0.10 nonr cycles=2000 t=2000 THREADS=1
 InChI=1S/C10H10/c1-2-6-10-8-4-3-7-9(10)5-1/h1-6H,7-8H2



     GEOMETRY OPTIMISED USING EIGENVECTOR FOLLOWING (EF).     
     SCF FIELD WAS ACHIEVED                                   


                              PM3 CALCULATION
                                                       MOPAC v23.1.2 MacOS
                                                       Tue Jun  3 16:31:44 2025




          FINAL HEAT OF FORMATION =         28.57724 KCAL/MOL =     119.56719 KJ/MOL


          COSMO AREA              =        169.38 SQUARE ANGSTROMS
          COSMO VOLUME            =        169.46 CUBIC ANGSTROMS

          GRADIENT NORM           =          0.02743          =       0.00613 PER ATOM
          IONIZATION POTENTIAL    =          9.085084 EV
          HOMO LUMO ENERGIES (EV) =         -9.085  0.392
          NO. OF FILLED LEVELS    =         25
          MOLECULAR WEIGHT        =        130.1890         POINT GROUP:  C1  

          MOLECULAR DIMENSIONS (Angstroms)

            Atom       Atom       Distance
            H    20    H    16     7.24521
            H    18    H    12     5.30253
            H    11    H    14     2.38228


          SCF CALCULATIONS        =        297

          WALL-CLOCK TIME         =      1.316 SECONDS
          COMPUTATION TIME        =      1.015 SECONDS




   ATOM   CHEMICAL          X               Y               Z
  NUMBER   SYMBOL      (ANGSTROMS)     (ANGSTROMS)     (ANGSTROMS)

     1       C         -0.94738403  *  -1.57906228  *   0.21852200  *
     2       C         -1.25624319  *   1.33459823  *  -0.28190113  *
     3       C          0.22962681  *  -0.66586511  *   0.12913923  *
     4       C          0.08451146  *   0.70316358  *  -0.10599626  *
     5       C         -2.26212483  *  -0.90370093  *   0.09040981  *
     6       C         -2.40053473  *   0.40199265  *  -0.13384062  *
     7       C          1.50950912  *  -1.20714294  *   0.28594819  *
     8       C          1.22102376  *   1.51452702  *  -0.18152054  *
     9       C          2.48717348  *   0.96958516  *  -0.02546767  *
    10       C          2.63186196  *  -0.39544881  *   0.20899207  *
    11       H         -0.86525798  *  -2.35533265  *  -0.57047302  *
    12       H         -0.91452471  *  -2.12233721  *   1.18564685  *
    13       H         -1.30641951  *   1.80639662  *  -1.28526351  *
    14       H         -1.36860108  *   2.16123621  *   0.44994226  *
    15       H         -3.14091729  *  -1.55110728  *   0.19060202  *
    16       H         -3.39575307  *   0.85273968  *  -0.22225743  *
    17       H          1.62074820  *  -2.28146607  *   0.47091748  *
    18       H          1.10458205  *   2.58845888  *  -0.36553077  *
    19       H          3.37157995  *   1.61175703  *  -0.08628627  *
    20       H          3.63009816  *  -0.82729854  *   0.33265699  *

                             CARTESIAN COORDINATES

   1    C       -0.947384028    -1.579062280     0.218521996
   2    C       -1.256243194     1.334598234    -0.281901127
   3    C        0.229626811    -0.665865106     0.129139235
   4    C        0.084511457     0.703163580    -0.105996259
   5    C       -2.262124825    -0.903700932     0.090409806
   6    C       -2.400534730     0.401992648    -0.133840621
   7    C        1.509509121    -1.207142939     0.285948195
   8    C        1.221023757     1.514527018    -0.181520537
   9    C        2.487173481     0.969585159    -0.025467668
  10    C        2.631861956    -0.395448815     0.208992072
  11    H       -0.865257983    -2.355332647    -0.570473017
  12    H       -0.914524710    -2.122337214     1.185646852
  13    H       -1.306419512     1.806396621    -1.285263515
  14    H       -1.368601078     2.161236211     0.449942258
  15    H       -3.140917293    -1.551107281     0.190602018
  16    H       -3.395753067     0.852739682    -0.222257430
  17    H        1.620748197    -2.281466068     0.470917479
  18    H        1.104582047     2.588458880    -0.365530768
  19    H        3.371579947     1.611757026    -0.086286267
  20    H        3.630098158    -0.827298542     0.332656988


           Empirical Formula: C10 H10  =    20 atoms



      MOLECULAR POINT GROUP   :   C1  


                  EIGENVALUES  
 -41.23716 -35.73862 -32.21890 -28.70833 -27.42231 -23.19458 -21.43213 -21.17365
 -17.88671 -17.14910 -17.07348 -15.78501 -15.49967 -14.94624 -14.59497 -14.18020
 -14.09519 -13.29170 -13.22361 -12.69845 -12.18032 -11.88244 -10.04854  -9.57237
  -9.08508   0.39160   0.41452   1.05067   2.78619   3.13310   3.24936   3.37629
   3.49895   3.56754   3.75047   3.88919   3.93944   4.10978   4.23833   4.33414
   4.48690   4.58357   5.02899   5.13574   5.15554   5.31957   5.63527   5.83486
   6.26350   6.44073


              NET ATOMIC CHARGES AND DIPOLE CONTRIBUTIONS

  ATOM NO.   TYPE          CHARGE      No. of ELECS.   s-Pop       p-Pop       
    1          C          -0.010179        4.0102     1.13032     2.87985
    2          C          -0.010175        4.0102     1.13032     2.87985
    3          C          -0.067058        4.0671     1.17813     2.88893
    4          C          -0.067055        4.0671     1.17813     2.88893
    5          C          -0.145639        4.1456     1.19187     2.95377
    6          C          -0.145637        4.1456     1.19187     2.95377
    7          C          -0.103521        4.1035     1.17807     2.92545
    8          C          -0.103516        4.1035     1.17807     2.92544
    9          C          -0.103063        4.1031     1.17804     2.92502
   10          C          -0.103064        4.1031     1.17804     2.92502
   11          H           0.062848        0.9372     0.93715
   12          H           0.062234        0.9378     0.93777
   13          H           0.062848        0.9372     0.93715
   14          H           0.062235        0.9378     0.93777
   15          H           0.098416        0.9016     0.90158
   16          H           0.098416        0.9016     0.90158
   17          H           0.103684        0.8963     0.89632
   18          H           0.103683        0.8963     0.89632
   19          H           0.102272        0.8977     0.89773
   20          H           0.102272        0.8977     0.89773
 DIPOLE           X         Y         Z       TOTAL
 POINT-CHG.    -0.255    -0.032    -0.029     0.259
 HYBRID         0.001     0.000     0.001     0.001
 SUM           -0.254    -0.032    -0.029     0.257


          ATOMIC ORBITAL ELECTRON POPULATIONS

     Atom    s        px        py        pz   
    1  C   1.13032   0.91202   0.96001   1.00782
    2  C   1.13032   0.90902   0.96410   1.00673
    3  C   1.17813   0.94852   0.94196   0.99844
    4  C   1.17813   0.95052   0.93982   0.99859
    5  C   1.19187   0.97529   0.96279   1.01569
    6  C   1.19187   0.98097   0.95717   1.01562
    7  C   1.17807   0.93315   0.98276   1.00954
    8  C   1.17807   0.93551   0.98032   1.00962
    9  C   1.17804   0.96604   0.95626   1.00272
   10  C   1.17804   0.97371   0.94816   1.00314
   11  H   0.93715
   12  H   0.93777
   13  H   0.93715
   14  H   0.93777
   15  H   0.90158
   16  H   0.90158
   17  H   0.89632
   18  H   0.89632
   19  H   0.89773
   20  H   0.89773
 *******************************************************************************
 **                                                                           **
 **                              MOPAC v23.1.2                                **
 **                                                                           **
 *******************************************************************************
 **          Digital Object Identifier (DOI): 10.5281/zenodo.6511958          **
 **    Visit the DOI location for information on how to cite this program.    **
 *******************************************************************************

                              PM3 CALCULATION RESULTS

 *******************************************************************************
 *  CALCULATION DONE: (MAX THREADS = 1)              Tue Jun  3 16:31:44 2025  *
 *  PM3        - The PM3 Hamiltonian to be used
 *  OLDGEO     - PREVIOUS GEOMETRY TO BE USED
 *  PRECISE    - TIGHTER CRITERIA TO BE USED
 *  NOSYM      - POINT-GROUP SYMMETRY SET TO C1
 *  THREADS=1  - MULTI-THREADING NOT USED
 *  T=         - A TIME OF 172800.0 SECONDS REQUESTED
 *  DUMP=N     - RESTART FILE WRITTEN EVERY 7200.0 SECONDS REQUESTED
 *  THERMO     - THERMODYNAMIC QUANTITIES TO BE CALCULATED
 *******************************************************************************
oldgeo thermo nosym precise THREADS=1  pm3
 InChI=1S/C10H10/c1-2-6-10-8-4-3-7-9(10)5-1/h1-6H,7-8H2

   ATOM   CHEMICAL          X               Y               Z
  NUMBER   SYMBOL      (ANGSTROMS)     (ANGSTROMS)     (ANGSTROMS)

     1       C         -0.94738403  *  -1.57906228  *   0.21852200  *
     2       C         -1.25624319  *   1.33459823  *  -0.28190113  *
     3       C          0.22962681  *  -0.66586511  *   0.12913923  *
     4       C          0.08451146  *   0.70316358  *  -0.10599626  *
     5       C         -2.26212483  *  -0.90370093  *   0.09040981  *
     6       C         -2.40053473  *   0.40199265  *  -0.13384062  *
     7       C          1.50950912  *  -1.20714294  *   0.28594819  *
     8       C          1.22102376  *   1.51452702  *  -0.18152054  *
     9       C          2.48717348  *   0.96958516  *  -0.02546767  *
    10       C          2.63186196  *  -0.39544881  *   0.20899207  *
    11       H         -0.86525798  *  -2.35533265  *  -0.57047302  *
    12       H         -0.91452471  *  -2.12233721  *   1.18564685  *
    13       H         -1.30641951  *   1.80639662  *  -1.28526351  *
    14       H         -1.36860108  *   2.16123621  *   0.44994226  *
    15       H         -3.14091729  *  -1.55110728  *   0.19060202  *
    16       H         -3.39575307  *   0.85273968  *  -0.22225743  *
    17       H          1.62074820  *  -2.28146607  *   0.47091748  *
    18       H          1.10458205  *   2.58845888  *  -0.36553077  *
    19       H          3.37157995  *   1.61175703  *  -0.08628627  *
    20       H          3.63009816  *  -0.82729854  *   0.33265699  *



          CARTESIAN COORDINATES 

    NO.       ATOM           X           Y           Z

     1         C         -0.9474     -1.5791      0.2185
     2         C         -1.2562      1.3346     -0.2819
     3         C          0.2296     -0.6659      0.1291
     4         C          0.0845      0.7032     -0.1060
     5         C         -2.2621     -0.9037      0.0904
     6         C         -2.4005      0.4020     -0.1338
     7         C          1.5095     -1.2071      0.2859
     8         C          1.2210      1.5145     -0.1815
     9         C          2.4872      0.9696     -0.0255
    10         C          2.6319     -0.3954      0.2090
    11         H         -0.8653     -2.3553     -0.5705
    12         H         -0.9145     -2.1223      1.1856
    13         H         -1.3064      1.8064     -1.2853
    14         H         -1.3686      2.1612      0.4499
    15         H         -3.1409     -1.5511      0.1906
    16         H         -3.3958      0.8527     -0.2223
    17         H          1.6207     -2.2815      0.4709
    18         H          1.1046      2.5885     -0.3655
    19         H          3.3716      1.6118     -0.0863
    20         H          3.6301     -0.8273      0.3327

  H: (PM3): J. J. P. STEWART, J. COMP. CHEM. 10, 209 (1989).
  C: (PM3): J. J. P. STEWART, J. COMP. CHEM. 10, 209 (1989).

           Empirical Formula: C10 H10  =    20 atoms



      MOLECULAR POINT GROUP   :   C1  


      RHF CALCULATION, NO. OF DOUBLY OCCUPIED LEVELS = 25



          HEAT OF FORMATION =      28.577245 KCALS/MOLE


          CARTESIAN COORDINATE DERIVATIVES

   NUMBER  ATOM         X            Y            Z

     1       C      0.003485     0.005980     0.004497
     2       C     -0.001357     0.006124     0.003556
     3       C      0.007949    -0.000468     0.001308
     4       C     -0.004957    -0.000516    -0.000444
     5       C      0.005573     0.001236    -0.002269
     6       C     -0.002884     0.001622    -0.001792
     7       C      0.001165     0.009295    -0.001720
     8       C      0.001894     0.009372    -0.001352
     9       C      0.007380    -0.000596    -0.003776
    10       C     -0.004042    -0.000381    -0.004268
    11       H     -0.003891    -0.001557     0.008068
    12       H     -0.005162    -0.002457    -0.001178
    13       H      0.001257    -0.001379     0.008352
    14       H      0.002629    -0.002222    -0.000974
    15       H     -0.003107    -0.005248    -0.005751
    16       H      0.000221    -0.007408    -0.005807
    17       H     -0.001446    -0.004692     0.001701
    18       H     -0.001604    -0.002239     0.001701
    19       H     -0.001565    -0.002211     0.000227
    20       H     -0.001536    -0.002253    -0.000079



          GRADIENT NORM =   0.03105

          MOLECULAR WEIGHT =  130.19



          ROTATIONAL CONSTANTS IN CM(-1)

          A =    0.09695480   B =    0.03972055   C =    0.02848170



           PRINCIPAL MOMENTS OF INERTIA IN UNITS OF 10**(-40)*GRAM-CM**2

          A =      288.7196   B =      704.7422   C =      982.8330


          ORIENTATION OF MOLECULE IN FORCE CALCULATION

    NO.       ATOM         X         Y         Z

     1          C      -1.4862   -1.2205    0.0098
     2          C       1.4862   -1.2205    0.0098
     3          C      -0.6983    0.0470    0.0098
     4          C       0.6983    0.0470    0.0098
     5          C      -0.6660   -2.4556   -0.0431
     6          C       0.6660   -2.4556   -0.0431
     7          C      -1.3883    1.2634    0.0107
     8          C       1.3883    1.2634    0.0107
     9          C       0.6963    2.4657    0.0122
    10          C      -0.6963    2.4657    0.0122
    11          H      -2.1228   -1.2522    0.9184
    12          H      -2.1850   -1.2152   -0.8523
    13          H       2.1228   -1.2522    0.9184
    14          H       2.1850   -1.2152   -0.8523
    15          H      -1.2262   -3.3970   -0.0817
    16          H       1.2261   -3.3970   -0.0817
    17          H      -2.4841    1.2607    0.0101
    18          H       2.4841    1.2608    0.0101
    19          H       1.2441    3.4134    0.0132
    20          H      -1.2442    3.4134    0.0131


    FIRST DERIVATIVES WILL BE USED IN THE CALCULATION OF SECOND DERIVATIVES

          ESTIMATED TIME TO COMPLETE CALCULATION =        1.88 SECONDS

    FOR POINT-GROUP C1   THERE ARE   1 UNIQUE SYMMETRY FUNCTIONS.

 STEP:   1 TIME =     0.02 SECS, INTEGRAL =      0.02 TIME LEFT: 172799.97
 STEP:   2 TIME =     0.02 SECS, INTEGRAL =      0.04 TIME LEFT: 172799.95
 STEP:   3 TIME =     0.02 SECS, INTEGRAL =      0.06 TIME LEFT: 172799.93
 STEP:   4 TIME =     0.02 SECS, INTEGRAL =      0.08 TIME LEFT: 172799.91
 STEP:   5 TIME =     0.02 SECS, INTEGRAL =      0.10 TIME LEFT: 172799.89
 STEP:   6 TIME =     0.02 SECS, INTEGRAL =      0.12 TIME LEFT: 172799.88
 STEP:   7 TIME =     0.02 SECS, INTEGRAL =      0.14 TIME LEFT: 172799.85
 STEP:   8 TIME =     0.02 SECS, INTEGRAL =      0.16 TIME LEFT: 172799.83
 STEP:   9 TIME =     0.02 SECS, INTEGRAL =      0.19 TIME LEFT: 172799.80
 STEP:  10 TIME =     0.02 SECS, INTEGRAL =      0.21 TIME LEFT: 172799.78
 STEP:  11 TIME =     0.02 SECS, INTEGRAL =      0.23 TIME LEFT: 172799.76
 STEP:  12 TIME =     0.02 SECS, INTEGRAL =      0.25 TIME LEFT: 172799.74
 STEP:  13 TIME =     0.02 SECS, INTEGRAL =      0.27 TIME LEFT: 172799.72
 STEP:  14 TIME =     0.02 SECS, INTEGRAL =      0.29 TIME LEFT: 172799.70
 STEP:  15 TIME =     0.02 SECS, INTEGRAL =      0.31 TIME LEFT: 172799.68
 STEP:  16 TIME =     0.02 SECS, INTEGRAL =      0.33 TIME LEFT: 172799.66
 STEP:  17 TIME =     0.02 SECS, INTEGRAL =      0.35 TIME LEFT: 172799.64
 STEP:  18 TIME =     0.02 SECS, INTEGRAL =      0.38 TIME LEFT: 172799.62
 STEP:  19 TIME =     0.02 SECS, INTEGRAL =      0.39 TIME LEFT: 172799.60
 STEP:  20 TIME =     0.02 SECS, INTEGRAL =      0.42 TIME LEFT: 172799.57
 STEP:  21 TIME =     0.02 SECS, INTEGRAL =      0.44 TIME LEFT: 172799.55
 STEP:  22 TIME =     0.02 SECS, INTEGRAL =      0.46 TIME LEFT: 172799.53
 STEP:  23 TIME =     0.02 SECS, INTEGRAL =      0.48 TIME LEFT: 172799.51
 STEP:  24 TIME =     0.02 SECS, INTEGRAL =      0.51 TIME LEFT: 172799.48
 STEP:  25 TIME =     0.02 SECS, INTEGRAL =      0.53 TIME LEFT: 172799.46
 STEP:  26 TIME =     0.02 SECS, INTEGRAL =      0.55 TIME LEFT: 172799.44
 STEP:  27 TIME =     0.02 SECS, INTEGRAL =      0.58 TIME LEFT: 172799.41
 STEP:  28 TIME =     0.02 SECS, INTEGRAL =      0.60 TIME LEFT: 172799.39
 STEP:  29 TIME =     0.02 SECS, INTEGRAL =      0.62 TIME LEFT: 172799.37
 STEP:  30 TIME =     0.02 SECS, INTEGRAL =      0.64 TIME LEFT: 172799.35
 STEP:  31 TIME =     0.02 SECS, INTEGRAL =      0.66 TIME LEFT: 172799.33
 STEP:  32 TIME =     0.02 SECS, INTEGRAL =      0.68 TIME LEFT: 172799.31
 STEP:  33 TIME =     0.02 SECS, INTEGRAL =      0.70 TIME LEFT: 172799.29
 STEP:  34 TIME =     0.02 SECS, INTEGRAL =      0.73 TIME LEFT: 172799.27
 STEP:  35 TIME =     0.02 SECS, INTEGRAL =      0.75 TIME LEFT: 172799.25
 STEP:  36 TIME =     0.02 SECS, INTEGRAL =      0.77 TIME LEFT: 172799.23
 STEP:  37 TIME =     0.02 SECS, INTEGRAL =      0.79 TIME LEFT: 172799.21
 STEP:  38 TIME =     0.02 SECS, INTEGRAL =      0.80 TIME LEFT: 172799.19
 STEP:  39 TIME =     0.02 SECS, INTEGRAL =      0.82 TIME LEFT: 172799.17
 STEP:  40 TIME =     0.02 SECS, INTEGRAL =      0.84 TIME LEFT: 172799.15
 STEP:  41 TIME =     0.02 SECS, INTEGRAL =      0.86 TIME LEFT: 172799.13
 STEP:  42 TIME =     0.02 SECS, INTEGRAL =      0.88 TIME LEFT: 172799.11
 STEP:  43 TIME =     0.02 SECS, INTEGRAL =      0.90 TIME LEFT: 172799.09
 STEP:  44 TIME =     0.02 SECS, INTEGRAL =      0.92 TIME LEFT: 172799.07
 STEP:  45 TIME =     0.02 SECS, INTEGRAL =      0.94 TIME LEFT: 172799.05
 STEP:  46 TIME =     0.02 SECS, INTEGRAL =      0.96 TIME LEFT: 172799.03
 STEP:  47 TIME =     0.02 SECS, INTEGRAL =      0.98 TIME LEFT: 172799.01
 STEP:  48 TIME =     0.02 SECS, INTEGRAL =      1.00 TIME LEFT: 172798.99
 STEP:  49 TIME =     0.02 SECS, INTEGRAL =      1.02 TIME LEFT: 172798.97
 STEP:  50 TIME =     0.02 SECS, INTEGRAL =      1.04 TIME LEFT: 172798.95
 STEP:  51 TIME =     0.02 SECS, INTEGRAL =      1.06 TIME LEFT: 172798.93
 STEP:  52 TIME =     0.02 SECS, INTEGRAL =      1.08 TIME LEFT: 172798.91
 STEP:  53 TIME =     0.02 SECS, INTEGRAL =      1.10 TIME LEFT: 172798.89
 STEP:  54 TIME =     0.02 SECS, INTEGRAL =      1.12 TIME LEFT: 172798.88
 STEP:  55 TIME =     0.02 SECS, INTEGRAL =      1.14 TIME LEFT: 172798.86
 STEP:  56 TIME =     0.02 SECS, INTEGRAL =      1.15 TIME LEFT: 172798.84
 STEP:  57 TIME =     0.02 SECS, INTEGRAL =      1.17 TIME LEFT: 172798.82
 STEP:  58 TIME =     0.02 SECS, INTEGRAL =      1.19 TIME LEFT: 172798.80
 STEP:  59 TIME =     0.02 SECS, INTEGRAL =      1.21 TIME LEFT: 172798.78
 STEP:  60 TIME =     0.02 SECS, INTEGRAL =      1.23 TIME LEFT: 172798.76

(To convert to Hartree/Bohr^2, multiply by (10^(-21) x N x a0^2)/(4.184 x 627.51) =  0.0642)


           FORCE MATRIX IN MILLIDYNES/ANGSTROM


                  C  1       C  2       C  3       C  4       C  5       C  6
 ------------------------------------------------------------------------------
     C    1  15.166927
     C    2   0.145027  15.166913
     C    3   4.787467   0.681800  17.717001
     C    4   0.681784   4.787441   6.673951  17.716446
     C    5   5.101528   0.843340   0.699835   0.044654  18.343300
     C    6   0.843348   5.101429   0.044660   0.699821  10.776856  18.343225
     C    7   0.755148   0.095370   6.615470   2.441119   0.055488   0.003866
     C    8   0.095368   0.755105   2.440847   6.615285   0.003867   0.055488
     C    9   0.018579   0.096020   1.856580   2.496488   0.004412   0.011884
     C   10   0.096018   0.018585   2.496242   1.856880   0.011883   0.004412
     H   11   4.377246   0.011269   0.425682   0.027214   0.419299   0.036804
     H   12   4.384467   0.010920   0.427938   0.028907   0.420943   0.038747
     H   13   0.011268   4.377319   0.027214   0.425679   0.036804   0.419295
     H   14   0.010919   4.384571   0.028908   0.427936   0.038747   0.420942
     H   15   0.423890   0.126996   0.045612   0.003149   4.814258   0.444814
     H   16   0.126996   0.423888   0.003150   0.045611   0.444802   4.814261
     H   17   0.048104   0.007868   0.448562   0.085154   0.002064   0.001450
     H   18   0.007868   0.048094   0.085155   0.448562   0.001449   0.002062
     H   19   0.008534   0.008022   0.008713   0.092135   0.000292   0.001584
     H   20   0.008023   0.008534   0.092142   0.008734   0.001584   0.000292


                  C  7       C  8       C  9       C 10       H 11       H 12
 ------------------------------------------------------------------------------
     C    7  17.329886
     C    8   1.875352  17.329901
     C    9   2.560304   7.126356  17.285870
     C   10   7.126351   2.560282   6.922971  17.285888
     H   11   0.037410   0.012088   0.005457   0.011816   4.958790
     H   12   0.040840   0.011943   0.005448   0.011281   0.564579   4.966310
     H   13   0.012087   0.037406   0.011812   0.005456   0.001860   0.001878
     H   14   0.011943   0.040835   0.011280   0.005447   0.001878   0.001676
     H   15   0.008437   0.001251   0.000269   0.001550   0.027889   0.030933
     H   16   0.001250   0.008437   0.001550   0.000269   0.016986   0.016481
     H   17   4.829611   0.011361   0.091655   0.439321   0.009955   0.013318
     H   18   0.011362   4.829728   0.439324   0.091658   0.000962   0.000976
     H   19   0.087109   0.438284   4.866544   0.439565   0.001071   0.001009
     H   20   0.438316   0.087112   0.439581   4.866488   0.000643   0.000616


                  H 13       H 14       H 15       H 16       H 17       H 18
 ------------------------------------------------------------------------------
     H   13   4.958833
     H   14   0.564547   4.966384
     H   15   0.016985   0.016480   5.189017
     H   16   0.027886   0.030930   0.071273   5.189020
     H   17   0.000962   0.000976   0.000630   0.000335   5.203293
     H   18   0.009950   0.013315   0.000334   0.000629   0.007702   5.203411
     H   19   0.000643   0.000616   0.000231   0.000419   0.007098   0.043027
     H   20   0.001071   0.001009   0.000419   0.000231   0.043027   0.007099


                  H 19       H 20
 ------------------------------
     H   19   5.233539
     H   20   0.040219   5.233486


          HEAT OF FORMATION =      28.577245 KCALS/MOLE

          ZERO POINT ENERGY     105.137 KCAL/MOL


           NORMAL COORDINATE ANALYSIS (Total motion = 1 Angstrom)


   Root No.       1         2         3         4         5         6         7         8

                 1 A       2 A       3 A       4 A       5 A       6 A       7 A       8 A   

                   6.6     131.4     227.6     352.1     372.5     409.0     467.3     478.3
  
           1    0.0011    0.0006   -0.0011   -0.0007    0.0097   -0.0023   -0.0004   -0.0498
           2   -0.0010   -0.0003    0.0003    0.0002    0.0274    0.0006   -0.0004    0.0268
           3    0.0432    0.0409   -0.0209   -0.0099   -0.0004   -0.0003    0.0020    0.0011
           4   -0.0011    0.0006    0.0011   -0.0007    0.0097    0.0023   -0.0004    0.0498
           5   -0.0010    0.0003    0.0003   -0.0002   -0.0274    0.0006    0.0004    0.0268
           6    0.0432   -0.0409   -0.0209    0.0099    0.0004   -0.0003   -0.0020    0.0011
           7   -0.0000    0.0001    0.0000    0.0006    0.0526   -0.0001   -0.0002   -0.0025
           8   -0.0002   -0.0000   -0.0004   -0.0004   -0.0045   -0.0010   -0.0003   -0.0161
           9    0.0192   -0.0056    0.0457    0.0020   -0.0000    0.0575    0.0409   -0.0044
          10    0.0000    0.0001   -0.0000    0.0006    0.0526    0.0001   -0.0002    0.0025
          11   -0.0002    0.0000   -0.0004    0.0004    0.0045   -0.0010    0.0003   -0.0161
          12    0.0192    0.0056    0.0457   -0.0020    0.0000    0.0575   -0.0409   -0.0044
          13   -0.0000   -0.0008    0.0000    0.0001   -0.0338   -0.0000    0.0003   -0.0012
          14    0.0018   -0.0003    0.0006   -0.0025    0.0078    0.0026    0.0005    0.0710
          15   -0.0423    0.0200   -0.0099    0.0655   -0.0008   -0.0044   -0.0100    0.0017
          16    0.0000   -0.0008   -0.0000    0.0001   -0.0338    0.0000    0.0003    0.0012
          17    0.0018    0.0003    0.0006    0.0025   -0.0078    0.0026   -0.0005    0.0710
          18   -0.0423   -0.0200   -0.0099   -0.0655    0.0008   -0.0044    0.0100    0.0017
          19   -0.0001    0.0000    0.0001    0.0005    0.0112   -0.0001    0.0001   -0.0177
          20   -0.0003   -0.0000   -0.0003   -0.0005   -0.0317   -0.0010   -0.0002   -0.0340
          21   -0.0019   -0.0444    0.0388   -0.0009   -0.0002   -0.0481    0.0273    0.0013
          22    0.0001    0.0000   -0.0001    0.0005    0.0112    0.0001    0.0001    0.0177
          23   -0.0003    0.0000   -0.0003    0.0005    0.0317   -0.0010    0.0002   -0.0340
          24   -0.0019    0.0444    0.0388    0.0009    0.0002   -0.0481   -0.0273    0.0013
          25   -0.0000   -0.0000    0.0000    0.0001   -0.0322   -0.0000    0.0003   -0.0002
          26   -0.0003    0.0000   -0.0002    0.0003    0.0124   -0.0013    0.0001   -0.0502
          27   -0.0214    0.0319   -0.0397    0.0027    0.0002    0.0161    0.0547   -0.0005
          28    0.0000   -0.0000   -0.0000    0.0001   -0.0322    0.0000    0.0003    0.0002
          29   -0.0003   -0.0000   -0.0002   -0.0003   -0.0124   -0.0013   -0.0001   -0.0502
          30   -0.0214   -0.0319   -0.0397   -0.0027   -0.0002    0.0161   -0.0547   -0.0005
          31    0.0669    0.0451   -0.0584   -0.0940    0.0079   -0.0569   -0.0383   -0.0518
          32   -0.0237    0.0119   -0.0213    0.0370    0.0540   -0.0253   -0.0277    0.0315
          33    0.0887    0.0728   -0.0624   -0.0757   -0.0003   -0.0405   -0.0263    0.0005
          34   -0.0614   -0.0417    0.0532    0.0876    0.0100    0.0492    0.0354   -0.0527
          35    0.0186   -0.0130    0.0223   -0.0316    0.0562    0.0262    0.0261    0.0265
          36    0.0942    0.0753   -0.0654   -0.0835   -0.0011   -0.0431   -0.0277    0.0026
          37   -0.0670    0.0451    0.0584   -0.0940    0.0079    0.0569   -0.0383    0.0518
          38   -0.0237   -0.0119   -0.0213   -0.0370   -0.0540   -0.0253    0.0277    0.0315
          39    0.0887   -0.0728   -0.0624    0.0756    0.0003   -0.0405    0.0263    0.0005
          40    0.0614   -0.0417   -0.0532    0.0876    0.0100   -0.0492    0.0354    0.0527
          41    0.0186    0.0130    0.0223    0.0316   -0.0563    0.0262   -0.0261    0.0265
          42    0.0942   -0.0753   -0.0654    0.0835    0.0011   -0.0431    0.0277    0.0026
          43   -0.0003   -0.0016    0.0003   -0.0000   -0.0564    0.0011    0.0005    0.0296
          44    0.0046   -0.0006    0.0002   -0.0062    0.0215    0.0024    0.0012    0.0527
          45   -0.1040    0.0387   -0.0057    0.1578   -0.0016   -0.0170   -0.0294   -0.0025
          46    0.0003   -0.0016   -0.0003   -0.0000   -0.0564   -0.0011    0.0005   -0.0296
          47    0.0046    0.0006    0.0002    0.0062   -0.0215    0.0024   -0.0012    0.0527
          48   -0.1040   -0.0387   -0.0057   -0.1578    0.0016   -0.0170    0.0294   -0.0025
          49   -0.0001    0.0000    0.0001    0.0005    0.0108   -0.0000    0.0001   -0.0178
          50   -0.0001    0.0001   -0.0004   -0.0009   -0.0754   -0.0006    0.0000   -0.0355
          51   -0.0031   -0.0801    0.0650   -0.0021   -0.0001   -0.1786    0.0558    0.0092
          52    0.0001    0.0000   -0.0001    0.0005    0.0108    0.0000    0.0001    0.0178
          53   -0.0001   -0.0001   -0.0004    0.0009    0.0754   -0.0006   -0.0000   -0.0355
          54   -0.0031    0.0801    0.0650    0.0021    0.0001   -0.1786   -0.0558    0.0092
          55   -0.0000   -0.0001    0.0000   -0.0003   -0.0603   -0.0001    0.0002   -0.0105
          56   -0.0003    0.0000   -0.0002    0.0005    0.0290   -0.0013    0.0001   -0.0447
          57   -0.0372    0.0649   -0.0988    0.0071    0.0006    0.0302    0.1735    0.0009
          58    0.0000   -0.0001   -0.0000   -0.0003   -0.0603    0.0001    0.0002    0.0105
          59   -0.0003   -0.0000   -0.0002   -0.0005   -0.0290   -0.0013   -0.0001   -0.0447
          60   -0.0372   -0.0649   -0.0988   -0.0071   -0.0006    0.0302   -0.1735    0.0009


   Root No.       9        10        11        12        13        14        15        16

                 9 A      10 A      11 A      12 A      13 A      14 A      15 A      16 A   

                 508.3     611.1     674.8     710.2     774.3     780.9     853.7     854.4
  
           1    0.0298   -0.0539   -0.0006   -0.0014    0.0001   -0.0278   -0.0447   -0.0012
           2    0.0456   -0.0201   -0.0000    0.0004    0.0000    0.0240   -0.0260   -0.0013
           3    0.0001    0.0014    0.0181   -0.0178    0.0009    0.0016   -0.0004    0.0225
           4    0.0298    0.0539   -0.0006    0.0014   -0.0001   -0.0278    0.0447   -0.0012
           5   -0.0456   -0.0201    0.0000    0.0004    0.0000   -0.0240   -0.0260    0.0014
           6   -0.0001    0.0014   -0.0181   -0.0178    0.0009   -0.0016   -0.0004   -0.0225
           7   -0.0008   -0.0019   -0.0002   -0.0001    0.0000   -0.0163   -0.0205    0.0007
           8    0.0443   -0.0394   -0.0004   -0.0007   -0.0000   -0.0121    0.0152   -0.0005
           9    0.0002   -0.0018    0.0503    0.0094    0.0137   -0.0034    0.0001   -0.0074
          10   -0.0008    0.0019   -0.0002    0.0001   -0.0000   -0.0163    0.0205    0.0007
          11   -0.0443   -0.0394    0.0004   -0.0007   -0.0000    0.0121    0.0152    0.0005
          12   -0.0002   -0.0018   -0.0503    0.0094    0.0137    0.0034    0.0001    0.0074
          13    0.0303   -0.0021    0.0009   -0.0001    0.0000    0.0361   -0.0018    0.0003
          14    0.0423    0.0109    0.0019    0.0015    0.0005    0.0692   -0.0132   -0.0002
          15    0.0018    0.0006   -0.0073   -0.0140   -0.0105    0.0021    0.0003   -0.0006
          16    0.0303    0.0021    0.0009    0.0001   -0.0000    0.0361    0.0018    0.0003
          17   -0.0423    0.0109   -0.0019    0.0015    0.0005   -0.0692   -0.0132    0.0002
          18   -0.0018    0.0006    0.0073   -0.0140   -0.0105   -0.0021    0.0003    0.0006
          19   -0.0282    0.0693    0.0001    0.0010    0.0001   -0.0120   -0.0463    0.0021
          20    0.0374    0.0029   -0.0003   -0.0004   -0.0000   -0.0296    0.0235    0.0007
          21    0.0003   -0.0000   -0.0177    0.0054   -0.0151   -0.0005    0.0001   -0.0239
          22   -0.0282   -0.0693    0.0001   -0.0010   -0.0001   -0.0120    0.0463    0.0020
          23   -0.0374    0.0029    0.0003   -0.0004   -0.0000    0.0296    0.0235   -0.0007
          24   -0.0003   -0.0000    0.0177    0.0054   -0.0151    0.0005    0.0002    0.0239
          25   -0.0330   -0.0044    0.0002   -0.0001   -0.0000    0.0289    0.0019   -0.0016
          26   -0.0370    0.0483    0.0005    0.0001    0.0000    0.0567    0.0061   -0.0028
          27    0.0004   -0.0001   -0.0186    0.0048   -0.0219    0.0008   -0.0002    0.0128
          28   -0.0330    0.0044    0.0002    0.0001    0.0000    0.0289   -0.0019   -0.0016
          29    0.0370    0.0483   -0.0005    0.0001    0.0000   -0.0567    0.0061    0.0028
          30   -0.0004   -0.0001    0.0186    0.0048   -0.0219   -0.0008   -0.0002   -0.0128
          31    0.0295   -0.0594   -0.0648    0.0730    0.0010   -0.0354   -0.0517   -0.0635
          32    0.0394   -0.0254   -0.0380   -0.0208   -0.0249    0.0116   -0.0643    0.0002
          33   -0.0001   -0.0026   -0.0298    0.0360    0.0009   -0.0024   -0.0058   -0.0226
          34    0.0324   -0.0565    0.0599   -0.0720   -0.0007   -0.0312   -0.0576    0.0570
          35    0.0360   -0.0266    0.0363    0.0170    0.0228    0.0028   -0.0628   -0.0015
          36   -0.0023    0.0032   -0.0324    0.0419    0.0019    0.0022    0.0090   -0.0262
          37    0.0295    0.0594   -0.0648   -0.0730   -0.0010   -0.0354    0.0516   -0.0635
          38   -0.0394   -0.0254    0.0380   -0.0208   -0.0249   -0.0116   -0.0643   -0.0002
          39    0.0001   -0.0026    0.0298    0.0360    0.0009    0.0024   -0.0058    0.0226
          40    0.0324    0.0565    0.0599    0.0720    0.0007   -0.0312    0.0576    0.0569
          41   -0.0360   -0.0266   -0.0363    0.0170    0.0228   -0.0028   -0.0628    0.0016
          42    0.0023    0.0032    0.0324    0.0419    0.0019   -0.0022    0.0091    0.0262
          43   -0.0101    0.0295   -0.0001    0.0007   -0.0003   -0.0092    0.0339    0.0022
          44    0.0656   -0.0084    0.0038   -0.0066   -0.0031    0.0961   -0.0361    0.0016
          45    0.0036   -0.0078   -0.0412    0.1734    0.0821   -0.0019   -0.0036   -0.0724
          46   -0.0101   -0.0295   -0.0001   -0.0007    0.0003   -0.0092   -0.0339    0.0022
          47   -0.0656   -0.0084   -0.0038   -0.0066   -0.0031   -0.0961   -0.0361   -0.0016
          48   -0.0036   -0.0078    0.0412    0.1734    0.0821    0.0020   -0.0035    0.0724
          49   -0.0282    0.0688    0.0001    0.0010    0.0000   -0.0124   -0.0474    0.0020
          50    0.0177    0.0072    0.0003   -0.0001   -0.0003    0.0007    0.0652   -0.0021
          51    0.0008    0.0040   -0.1292   -0.0528    0.1116    0.0110   -0.0000    0.1497
          52   -0.0282   -0.0688    0.0001   -0.0010   -0.0000   -0.0124    0.0474    0.0020
          53   -0.0177    0.0072   -0.0003   -0.0001   -0.0003   -0.0007    0.0652    0.0021
          54   -0.0008    0.0040    0.1292   -0.0528    0.1116   -0.0109   -0.0002   -0.1497
          55   -0.0008    0.0397   -0.0003    0.0006    0.0001   -0.0191   -0.0410   -0.0003
          56   -0.0553    0.0227    0.0008   -0.0003   -0.0003    0.0850    0.0326   -0.0036
          57    0.0014    0.0020   -0.0591   -0.0528    0.1963   -0.0009    0.0012   -0.0797
          58   -0.0008   -0.0397   -0.0003   -0.0006   -0.0001   -0.0191    0.0410   -0.0003
          59    0.0553    0.0227   -0.0008   -0.0003   -0.0002   -0.0850    0.0326    0.0036
          60   -0.0014    0.0020    0.0591   -0.0528    0.1963    0.0010    0.0013    0.0797


   Root No.      17        18        19        20        21        22        23        24

                17 A      18 A      19 A      20 A      21 A      22 A      23 A      24 A   

                 884.4     910.9     917.3     967.1     998.7    1023.0    1026.5    1063.9
  
           1    0.0487    0.0005   -0.0015   -0.0003   -0.0007   -0.0011   -0.0270   -0.0011
           2    0.0074   -0.0013    0.0005    0.0007    0.0006    0.0011    0.0200    0.0020
           3    0.0005    0.0331   -0.0202   -0.0182   -0.0118   -0.0242    0.0013    0.0020
           4    0.0487   -0.0005   -0.0015    0.0003   -0.0007   -0.0011    0.0270    0.0011
           5   -0.0074   -0.0013   -0.0005    0.0007   -0.0006   -0.0011    0.0200    0.0020
           6   -0.0005    0.0331    0.0202   -0.0182    0.0118    0.0242    0.0013    0.0020
           7   -0.0106   -0.0002    0.0002    0.0001    0.0001    0.0003    0.0052    0.0006
           8    0.0140    0.0002   -0.0003    0.0000    0.0002    0.0004   -0.0019   -0.0005
           9    0.0016   -0.0125    0.0265    0.0166    0.0039    0.0248    0.0011   -0.0166
          10   -0.0106    0.0002    0.0002   -0.0001    0.0001    0.0003   -0.0052   -0.0006
          11   -0.0141    0.0002    0.0003    0.0000   -0.0002   -0.0004   -0.0019   -0.0005
          12   -0.0016   -0.0125   -0.0265    0.0166   -0.0039   -0.0248    0.0011   -0.0166
          13   -0.0232    0.0001    0.0008   -0.0001    0.0004    0.0006   -0.0136   -0.0010
          14   -0.0243    0.0009    0.0016   -0.0005   -0.0013   -0.0018   -0.0414   -0.0026
          15   -0.0011   -0.0237   -0.0090    0.0125    0.0225    0.0362   -0.0032    0.0142
          16   -0.0232   -0.0001    0.0008    0.0001    0.0004    0.0006    0.0136    0.0010
          17    0.0243    0.0009   -0.0016   -0.0005    0.0013    0.0019   -0.0414   -0.0026
          18    0.0011   -0.0237    0.0090    0.0125   -0.0225   -0.0362   -0.0032    0.0142
          19   -0.0469   -0.0007    0.0010    0.0002   -0.0001   -0.0003   -0.0002    0.0007
          20   -0.0018    0.0004   -0.0002   -0.0001   -0.0000    0.0000    0.0039    0.0003
          21   -0.0029   -0.0119   -0.0157   -0.0361    0.0207   -0.0217   -0.0005    0.0069
          22   -0.0469    0.0007    0.0010   -0.0002   -0.0001   -0.0003    0.0002   -0.0007
          23    0.0018    0.0004    0.0002   -0.0001    0.0000   -0.0000    0.0039    0.0003
          24    0.0029   -0.0119    0.0157   -0.0361   -0.0207    0.0217   -0.0005    0.0069
          25    0.0277    0.0001   -0.0004   -0.0000    0.0001    0.0002    0.0014   -0.0005
          26    0.0407    0.0002   -0.0004   -0.0001    0.0002    0.0004   -0.0060   -0.0013
          27    0.0018    0.0134    0.0147    0.0205    0.0370   -0.0218    0.0001   -0.0020
          28    0.0277   -0.0001   -0.0004    0.0000    0.0001    0.0002   -0.0014    0.0005
          29   -0.0407    0.0002    0.0004   -0.0001   -0.0002   -0.0004   -0.0060   -0.0013
          30   -0.0018    0.0134   -0.0147    0.0204   -0.0370    0.0218    0.0001   -0.0020
          31    0.0552   -0.0832    0.0503    0.0432    0.0266    0.0547   -0.0457   -0.0051
          32    0.0255   -0.0164   -0.0454   -0.0242    0.0412    0.0033    0.1574   -0.1922
          33    0.0043   -0.0281    0.0159    0.0126    0.0092    0.0160   -0.0052   -0.0076
          34    0.0646    0.0794   -0.0509   -0.0414   -0.0269   -0.0544   -0.0445    0.0004
          35    0.0310    0.0124    0.0393    0.0245   -0.0345    0.0026    0.1361    0.2031
          36   -0.0108   -0.0329    0.0214    0.0165    0.0097    0.0201    0.0140    0.0016
          37    0.0552    0.0832    0.0503   -0.0432    0.0267    0.0547    0.0457    0.0051
          38   -0.0255   -0.0164    0.0454   -0.0242   -0.0412   -0.0034    0.1575   -0.1924
          39   -0.0043   -0.0281   -0.0159    0.0126   -0.0092   -0.0160   -0.0052   -0.0076
          40    0.0646   -0.0794   -0.0509    0.0414   -0.0269   -0.0544    0.0445   -0.0004
          41   -0.0310    0.0124   -0.0393    0.0245    0.0345   -0.0026    0.1362    0.2032
          42    0.0108   -0.0329   -0.0214    0.0165   -0.0097   -0.0201    0.0140    0.0016
          43   -0.0507   -0.0004    0.0003   -0.0001    0.0033    0.0045   -0.0715   -0.0100
          44   -0.0085   -0.0038   -0.0034    0.0016    0.0020    0.0023   -0.0086    0.0043
          45   -0.0009    0.0985    0.1220   -0.0404   -0.0981   -0.1194    0.0034   -0.0219
          46   -0.0507    0.0004    0.0003    0.0001    0.0033    0.0045    0.0715    0.0101
          47    0.0085   -0.0038    0.0034    0.0016   -0.0020   -0.0023   -0.0087    0.0043
          48    0.0009    0.0986   -0.1220   -0.0404    0.0981    0.1194    0.0034   -0.0219
          49   -0.0478   -0.0008    0.0010    0.0001   -0.0000   -0.0003   -0.0005    0.0007
          50    0.0447    0.0008   -0.0011   -0.0010   -0.0001   -0.0003    0.0153    0.0091
          51    0.0144    0.0557    0.0645    0.1615   -0.0715    0.0689    0.0018   -0.0295
          52   -0.0478    0.0008    0.0010   -0.0001   -0.0000   -0.0003    0.0005   -0.0007
          53   -0.0447    0.0008    0.0011   -0.0010    0.0001    0.0003    0.0153    0.0091
          54   -0.0144    0.0557   -0.0645    0.1615    0.0715   -0.0688    0.0018   -0.0295
          55    0.0297   -0.0007   -0.0013    0.0003   -0.0003   -0.0004   -0.0113   -0.0031
          56    0.0402    0.0008    0.0002   -0.0002    0.0005    0.0007    0.0011    0.0002
          57   -0.0115   -0.0748   -0.0896   -0.0922   -0.1395    0.0677   -0.0003    0.0045
          58    0.0297    0.0007   -0.0013   -0.0003   -0.0003   -0.0004    0.0113    0.0031
          59   -0.0402    0.0008   -0.0002   -0.0002   -0.0005   -0.0007    0.0012    0.0002
          60    0.0115   -0.0748    0.0896   -0.0922    0.1395   -0.0677   -0.0004    0.0045


   Root No.      25        26        27        28        29        30        31        32

                25 A      26 A      27 A      28 A      29 A      30 A      31 A      32 A   

                1064.5    1082.6    1104.3    1118.4    1153.4    1161.1    1179.0    1212.6
  
           1   -0.0197   -0.0040    0.0091   -0.0077    0.0008    0.0043    0.0047   -0.0056
           2    0.0158    0.0036   -0.0004   -0.0031   -0.0015   -0.0018   -0.0107    0.0045
           3    0.0016    0.0017   -0.0003   -0.0001    0.0000    0.0003   -0.0006    0.0001
           4   -0.0197   -0.0040   -0.0091   -0.0077   -0.0008   -0.0043    0.0047   -0.0056
           5   -0.0158   -0.0036   -0.0004    0.0031   -0.0015   -0.0018    0.0107   -0.0045
           6   -0.0016   -0.0017   -0.0003    0.0001    0.0000    0.0003    0.0006   -0.0001
           7    0.0095    0.0028   -0.0044    0.0154    0.0095    0.0041   -0.0090    0.0275
           8    0.0090    0.0022   -0.0102    0.0006   -0.0045    0.0009   -0.0257    0.0013
           9    0.0037   -0.0234    0.0006    0.0000   -0.0002   -0.0002    0.0000    0.0003
          10    0.0095    0.0028    0.0044    0.0154   -0.0095   -0.0041   -0.0090    0.0275
          11   -0.0090   -0.0022   -0.0102   -0.0006   -0.0045    0.0009    0.0257   -0.0012
          12   -0.0037    0.0233    0.0006   -0.0000   -0.0002   -0.0002   -0.0000   -0.0003
          13    0.0115    0.0023    0.0016   -0.0007    0.0012    0.0044    0.0089   -0.0068
          14   -0.0171   -0.0035    0.0060    0.0052    0.0017    0.0011   -0.0004    0.0074
          15   -0.0064    0.0212   -0.0002    0.0003    0.0002    0.0001   -0.0000    0.0001
          16    0.0115    0.0023   -0.0016   -0.0007   -0.0012   -0.0044    0.0089   -0.0068
          17    0.0171    0.0035    0.0060   -0.0052    0.0017    0.0011    0.0004   -0.0074
          18    0.0063   -0.0212   -0.0002   -0.0003    0.0002    0.0001    0.0000   -0.0001
          19   -0.0112   -0.0028    0.0181   -0.0237    0.0025    0.0004    0.0041   -0.0089
          20    0.0015    0.0004    0.0017   -0.0103    0.0033    0.0023   -0.0116   -0.0075
          21   -0.0014    0.0079   -0.0003    0.0000    0.0001    0.0000   -0.0001   -0.0001
          22   -0.0112   -0.0028   -0.0181   -0.0237   -0.0025   -0.0004    0.0041   -0.0089
          23   -0.0015   -0.0004    0.0017    0.0103    0.0034    0.0023    0.0116    0.0075
          24    0.0014   -0.0079   -0.0003   -0.0000    0.0001    0.0000    0.0001    0.0001
          25    0.0033    0.0006   -0.0224    0.0043    0.0013    0.0015   -0.0112   -0.0112
          26    0.0078    0.0018   -0.0215    0.0012    0.0023   -0.0035   -0.0047    0.0073
          27   -0.0009    0.0044    0.0001    0.0000   -0.0000   -0.0000   -0.0000   -0.0000
          28    0.0033    0.0006    0.0224    0.0043   -0.0013   -0.0015   -0.0112   -0.0112
          29   -0.0078   -0.0018   -0.0215   -0.0012    0.0023   -0.0035    0.0047   -0.0073
          30    0.0009   -0.0044    0.0001   -0.0000   -0.0000   -0.0000    0.0000    0.0000
          31   -0.0332   -0.0088    0.0153   -0.0122    0.0038    0.0112    0.0054   -0.0121
          32    0.1348   -0.1655    0.0092   -0.0306    0.0144    0.0571    0.0890   -0.0653
          33   -0.0036   -0.0076    0.0035   -0.0034    0.0021    0.0050    0.0037   -0.0065
          34   -0.0300   -0.0049    0.0152   -0.0134    0.0035    0.0123    0.0046   -0.0124
          35    0.0774    0.1966   -0.0043   -0.0324    0.0200    0.0665    0.0946   -0.0755
          36    0.0102    0.0032   -0.0043    0.0034   -0.0015   -0.0033   -0.0002    0.0048
          37   -0.0331   -0.0088   -0.0153   -0.0122   -0.0038   -0.0112    0.0054   -0.0121
          38   -0.1346    0.1654    0.0092    0.0306    0.0144    0.0572   -0.0889    0.0653
          39    0.0036    0.0076    0.0036    0.0034    0.0021    0.0050   -0.0037    0.0065
          40   -0.0300   -0.0049   -0.0152   -0.0134   -0.0035   -0.0123    0.0046   -0.0124
          41   -0.0775   -0.1965   -0.0043    0.0324    0.0200    0.0666   -0.0946    0.0755
          42   -0.0102   -0.0032   -0.0043   -0.0034   -0.0015   -0.0033    0.0002   -0.0048
          43    0.1463    0.0292   -0.0102    0.0040    0.0592    0.2189   -0.0585    0.0424
          44   -0.0942   -0.0167    0.0136    0.0022   -0.0322   -0.1248    0.0399   -0.0219
          45    0.0085   -0.0283    0.0009   -0.0000   -0.0012   -0.0043    0.0020   -0.0010
          46    0.1463    0.0292    0.0102    0.0040   -0.0592   -0.2188   -0.0586    0.0424
          47    0.0942    0.0167    0.0135   -0.0022   -0.0322   -0.1248   -0.0400    0.0219
          48   -0.0085    0.0283    0.0009    0.0000   -0.0012   -0.0043   -0.0020    0.0010
          49   -0.0119   -0.0030    0.0205   -0.0243    0.0036    0.0003    0.0043   -0.0087
          50    0.0053    0.0049    0.2298   -0.1465   -0.1389    0.0445    0.0799    0.1816
          51    0.0037   -0.0219    0.0018   -0.0005   -0.0007   -0.0002    0.0002    0.0008
          52   -0.0119   -0.0030   -0.0205   -0.0243   -0.0036   -0.0003    0.0043   -0.0087
          53   -0.0053   -0.0049    0.2300    0.1464   -0.1389    0.0446   -0.0798   -0.1815
          54   -0.0037    0.0219    0.0018    0.0005   -0.0007   -0.0002   -0.0002   -0.0008
          55    0.0073    0.0019   -0.1353    0.1922   -0.2036    0.0485    0.0748    0.0497
          56    0.0058    0.0011    0.0425   -0.1058    0.1215   -0.0310   -0.0552   -0.0286
          57    0.0016   -0.0066   -0.0002   -0.0002    0.0002   -0.0000   -0.0001    0.0000
          58    0.0073    0.0019    0.1355    0.1921    0.2037   -0.0486    0.0748    0.0497
          59   -0.0058   -0.0011    0.0426    0.1058    0.1215   -0.0310    0.0552    0.0285
          60   -0.0016    0.0066   -0.0002    0.0002    0.0002   -0.0000    0.0001   -0.0000


   Root No.      33        34        35        36        37        38        39        40

                33 A      34 A      35 A      36 A      37 A      38 A      39 A      40 A   

                1285.0    1296.6    1349.9    1360.4    1377.4    1433.9    1440.2    1580.2
  
           1   -0.0076    0.0071    0.0075    0.0362    0.0402    0.0033   -0.0155    0.0020
           2    0.0348    0.0125    0.0125   -0.0136    0.0162    0.0562    0.0637   -0.0466
           3    0.0011    0.0003   -0.0002   -0.0015   -0.0008    0.0010    0.0019   -0.0007
           4    0.0076    0.0071   -0.0075   -0.0362    0.0402   -0.0033   -0.0155    0.0020
           5    0.0348   -0.0125    0.0125   -0.0136   -0.0162    0.0563   -0.0636    0.0466
           6    0.0011   -0.0003   -0.0002   -0.0015    0.0008    0.0010   -0.0019    0.0007
           7   -0.0034   -0.0238    0.0623   -0.0077   -0.0237    0.0029   -0.0249   -0.0148
           8    0.0381   -0.0163   -0.0274   -0.0013   -0.0115   -0.0331    0.0086    0.0752
           9   -0.0001   -0.0001    0.0001    0.0001    0.0000   -0.0001   -0.0001    0.0001
          10    0.0034   -0.0239   -0.0623    0.0077   -0.0237   -0.0028   -0.0249   -0.0147
          11    0.0381    0.0163   -0.0274   -0.0013    0.0115   -0.0331   -0.0086   -0.0752
          12   -0.0001    0.0001    0.0001    0.0001   -0.0000   -0.0001    0.0001   -0.0001
          13   -0.0046   -0.0201   -0.0008    0.0049   -0.0127   -0.0068    0.0270   -0.0095
          14   -0.0222    0.0218   -0.0009    0.0102    0.0072   -0.0156   -0.0512    0.0157
          15   -0.0008    0.0010   -0.0001    0.0005    0.0005   -0.0006   -0.0020    0.0007
          16    0.0046   -0.0201    0.0008   -0.0049   -0.0127    0.0068    0.0270   -0.0095
          17   -0.0222   -0.0218   -0.0008    0.0102   -0.0072   -0.0157    0.0512   -0.0157
          18   -0.0008   -0.0010   -0.0001    0.0005   -0.0005   -0.0006    0.0020   -0.0007
          19    0.0268    0.0133    0.0120   -0.0055    0.0124   -0.0210    0.0266    0.0473
          20   -0.0073   -0.0096    0.0732   -0.0147   -0.0076   -0.0351   -0.0142    0.0128
          21    0.0001   -0.0000    0.0001   -0.0000   -0.0000   -0.0000    0.0000    0.0000
          22   -0.0268    0.0133   -0.0120    0.0055    0.0124    0.0209    0.0266    0.0473
          23   -0.0073    0.0096    0.0732   -0.0147    0.0076   -0.0351    0.0141   -0.0128
          24    0.0001    0.0000    0.0001   -0.0000    0.0000   -0.0000   -0.0000   -0.0000
          25   -0.0282   -0.0057    0.0555   -0.0041   -0.0048    0.0294   -0.0172   -0.0384
          26   -0.0196   -0.0018   -0.0451    0.0121    0.0003    0.0305    0.0185    0.0596
          27   -0.0000   -0.0000   -0.0001    0.0000    0.0000    0.0000    0.0000    0.0001
          28    0.0282   -0.0057   -0.0555    0.0041   -0.0048   -0.0294   -0.0172   -0.0384
          29   -0.0196    0.0018   -0.0451    0.0121   -0.0002    0.0305   -0.0184   -0.0596
          30   -0.0000   -0.0000   -0.0001    0.0000   -0.0000    0.0000   -0.0000   -0.0001
          31   -0.0480    0.0967   -0.0683   -0.1484   -0.1136   -0.0011    0.0178   -0.0027
          32   -0.0800   -0.0103   -0.0650    0.0284   -0.0133   -0.0619   -0.0551    0.0359
          33   -0.0274    0.0532   -0.0487   -0.1107   -0.0940   -0.0055    0.0176   -0.0020
          34   -0.0454    0.0936   -0.0661   -0.1401   -0.1060   -0.0008    0.0169   -0.0016
          35   -0.0837   -0.0069   -0.0734    0.0251   -0.0171   -0.0653   -0.0554    0.0380
          36    0.0269   -0.0603    0.0515    0.1220    0.1011    0.0029   -0.0214    0.0036
          37    0.0480    0.0967    0.0681    0.1485   -0.1135    0.0011    0.0178   -0.0027
          38   -0.0800    0.0103   -0.0650    0.0284    0.0133   -0.0620    0.0550   -0.0359
          39   -0.0274   -0.0532   -0.0486   -0.1108    0.0939   -0.0055   -0.0176    0.0020
          40    0.0454    0.0936    0.0660    0.1402   -0.1059    0.0008    0.0169   -0.0016
          41   -0.0837    0.0068   -0.0733    0.0251    0.0172   -0.0653    0.0553   -0.0380
          42    0.0269    0.0603    0.0514    0.1221   -0.1010    0.0029    0.0214   -0.0036
          43    0.0357    0.1155    0.0013    0.0067    0.0521    0.0279   -0.0772    0.0120
          44   -0.0485   -0.0571   -0.0022    0.0114   -0.0303   -0.0378    0.0090    0.0024
          45   -0.0022   -0.0025   -0.0002    0.0004   -0.0014   -0.0019    0.0002    0.0001
          46   -0.0357    0.1155   -0.0013   -0.0068    0.0521   -0.0278   -0.0772    0.0120
          47   -0.0485    0.0571   -0.0022    0.0114    0.0303   -0.0378   -0.0090   -0.0024
          48   -0.0022    0.0025   -0.0002    0.0004    0.0014   -0.0019   -0.0002   -0.0001
          49    0.0304    0.0143    0.0142   -0.0065    0.0133   -0.0251    0.0299    0.0567
          50   -0.0383   -0.0110    0.0173    0.0099   -0.0109    0.0697    0.0049    0.0009
          51   -0.0002    0.0000    0.0001    0.0000    0.0000    0.0002   -0.0000   -0.0000
          52   -0.0304    0.0143   -0.0142    0.0065    0.0133    0.0251    0.0299    0.0567
          53   -0.0382    0.0110    0.0173    0.0099    0.0109    0.0697   -0.0048   -0.0009
          54   -0.0002   -0.0000    0.0001    0.0000   -0.0000    0.0002    0.0000    0.0000
          55   -0.0119    0.0282    0.0151   -0.0035    0.0192   -0.0089    0.0599    0.0948
          56   -0.0340   -0.0215   -0.0239    0.0132   -0.0136    0.0608   -0.0244   -0.0105
          57   -0.0001   -0.0000    0.0000    0.0000   -0.0000    0.0000   -0.0000   -0.0000
          58    0.0119    0.0281   -0.0150    0.0035    0.0192    0.0088    0.0599    0.0948
          59   -0.0340    0.0214   -0.0239    0.0132    0.0136    0.0608    0.0244    0.0105
          60   -0.0001    0.0000    0.0000    0.0000    0.0000    0.0000    0.0000    0.0000


   Root No.      41        42        43        44        45        46        47        48

                41 A      42 A      43 A      44 A      45 A      46 A      47 A      48 A   

                1632.8    1789.7    1801.6    1891.7    2927.9    2928.2    3005.9    3006.3
  
           1   -0.0199    0.0107    0.0015    0.0268   -0.0009    0.0008    0.0205   -0.0201
           2   -0.0376    0.0086    0.0157   -0.0252    0.0007   -0.0006    0.0004   -0.0003
           3   -0.0003    0.0001    0.0001   -0.0010   -0.0325    0.0287   -0.0004    0.0004
           4    0.0199   -0.0107    0.0015   -0.0268    0.0008    0.0009   -0.0199   -0.0206
           5   -0.0376    0.0086   -0.0157   -0.0252    0.0006    0.0007    0.0003    0.0003
           6   -0.0003    0.0001   -0.0001   -0.0010   -0.0285   -0.0326   -0.0003   -0.0004
           7    0.0626   -0.1375    0.0277   -0.0164    0.0000   -0.0000    0.0004    0.0000
           8    0.0788    0.0175   -0.0950    0.0042    0.0000   -0.0000    0.0002   -0.0005
           9    0.0001   -0.0000   -0.0001    0.0001   -0.0001   -0.0001   -0.0000   -0.0000
          10   -0.0626    0.1375    0.0277    0.0164   -0.0000   -0.0000   -0.0004   -0.0000
          11    0.0788    0.0175    0.0950    0.0042    0.0000    0.0000    0.0002    0.0005
          12    0.0001   -0.0000    0.0001    0.0001   -0.0001    0.0001   -0.0000    0.0000
          13    0.0012    0.0159    0.0015   -0.2320    0.0001   -0.0000   -0.0011    0.0012
          14    0.0039   -0.0047   -0.0005    0.0369    0.0000   -0.0000   -0.0023    0.0023
          15    0.0001   -0.0001   -0.0001    0.0015   -0.0001   -0.0001   -0.0001    0.0001
          16   -0.0012   -0.0159    0.0015    0.2320   -0.0001   -0.0000    0.0011    0.0013
          17    0.0039   -0.0047    0.0005    0.0369    0.0000    0.0000   -0.0022   -0.0024
          18    0.0001   -0.0001    0.0001    0.0015   -0.0002    0.0001   -0.0001   -0.0001
          19    0.0204    0.0489    0.0037    0.0056   -0.0000    0.0000   -0.0000   -0.0000
          20   -0.0653    0.0106    0.1437    0.0027   -0.0000    0.0000    0.0000    0.0000
          21   -0.0001    0.0000    0.0001   -0.0000   -0.0001    0.0000   -0.0000    0.0000
          22   -0.0204   -0.0489    0.0037   -0.0056    0.0000    0.0000    0.0000   -0.0000
          23   -0.0653    0.0106   -0.1437    0.0027   -0.0000   -0.0000    0.0000   -0.0000
          24   -0.0001    0.0000   -0.0002   -0.0000   -0.0001   -0.0000   -0.0000   -0.0000
          25    0.0663    0.1109   -0.0395    0.0096   -0.0000   -0.0000   -0.0000   -0.0000
          26    0.0042   -0.0384    0.0752   -0.0042    0.0000    0.0000    0.0001   -0.0000
          27    0.0000   -0.0001    0.0001   -0.0000   -0.0000   -0.0000   -0.0000   -0.0000
          28   -0.0663   -0.1109   -0.0394   -0.0096    0.0000   -0.0000    0.0000   -0.0000
          29    0.0042   -0.0384   -0.0752   -0.0042    0.0000   -0.0000    0.0001    0.0000
          30    0.0000   -0.0001   -0.0001   -0.0000   -0.0000    0.0000   -0.0000    0.0000
          31   -0.0043    0.0048    0.0016    0.0130   -0.1470    0.1292   -0.1147    0.1121
          32    0.0056    0.0216   -0.0158   -0.0179   -0.0071    0.0063   -0.0065    0.0063
          33    0.0091   -0.0014    0.0009   -0.0044    0.2044   -0.1798    0.1915   -0.1873
          34   -0.0057    0.0062    0.0010    0.0156    0.1575   -0.1385   -0.1311    0.1281
          35    0.0057    0.0240   -0.0174   -0.0200   -0.0011    0.0009    0.0012   -0.0012
          36   -0.0086    0.0015   -0.0012    0.0023    0.1886   -0.1662   -0.1872    0.1828
          37    0.0043   -0.0048    0.0016   -0.0130    0.1292    0.1470    0.1116    0.1152
          38    0.0056    0.0216    0.0158   -0.0179   -0.0062   -0.0071   -0.0063   -0.0065
          39    0.0091   -0.0014   -0.0009   -0.0044    0.1797    0.2047    0.1864    0.1924
          40    0.0057   -0.0062    0.0010   -0.0156   -0.1384   -0.1576    0.1276    0.1316
          41    0.0057    0.0240    0.0174   -0.0200   -0.0009   -0.0010    0.0012    0.0012
          42   -0.0086    0.0015    0.0012    0.0023    0.1657    0.1891   -0.1822   -0.1878
          43   -0.0163    0.0081    0.0010   -0.0200   -0.0004    0.0004    0.0168   -0.0149
          44    0.0134    0.0024    0.0009   -0.1341   -0.0004    0.0004    0.0247   -0.0227
          45    0.0008   -0.0001    0.0000   -0.0055   -0.0013    0.0004    0.0010   -0.0009
          46    0.0163   -0.0081    0.0010    0.0200    0.0004    0.0004   -0.0164   -0.0154
          47    0.0134    0.0024   -0.0009   -0.1341   -0.0003   -0.0005    0.0241    0.0233
          48    0.0008   -0.0001   -0.0000   -0.0055   -0.0012   -0.0006    0.0009    0.0009
          49    0.0257    0.0562    0.0056    0.0070    0.0001   -0.0001    0.0007   -0.0004
          50    0.1017   -0.0156   -0.0592   -0.0024   -0.0001    0.0001    0.0007   -0.0007
          51    0.0002   -0.0000   -0.0001    0.0001   -0.0001    0.0002    0.0000   -0.0000
          52   -0.0257   -0.0562    0.0056   -0.0070   -0.0001   -0.0001   -0.0007   -0.0004
          53    0.1017   -0.0155    0.0592   -0.0024   -0.0001   -0.0001    0.0007    0.0007
          54    0.0002   -0.0000    0.0001    0.0001   -0.0001   -0.0002    0.0000    0.0000
          55   -0.0239   -0.0238    0.0516   -0.0022    0.0000    0.0000   -0.0002    0.0002
          56    0.0642    0.0438    0.0324    0.0028   -0.0000    0.0000   -0.0003    0.0004
          57    0.0001    0.0001    0.0000    0.0000    0.0000    0.0000    0.0000   -0.0000
          58    0.0239    0.0238    0.0516    0.0022   -0.0000    0.0000    0.0002    0.0002
          59    0.0642    0.0438   -0.0324    0.0028    0.0000   -0.0000   -0.0003   -0.0004
          60    0.0001    0.0001   -0.0000    0.0000    0.0000    0.0000    0.0000    0.0000


   Root No.      49        50        51        52        53        54

                49 A      50 A      51 A      52 A      53 A      54 A   

                3042.8    3052.6    3054.5    3063.0    3065.2    3078.5
  
           1    0.0022   -0.0001    0.0001   -0.0029    0.0000    0.0000
           2    0.0002    0.0001   -0.0002   -0.0000   -0.0001   -0.0001
           3    0.0000    0.0000   -0.0000   -0.0000   -0.0000   -0.0000
           4    0.0022   -0.0001   -0.0001    0.0029    0.0000   -0.0000
           5   -0.0002   -0.0001   -0.0002   -0.0000    0.0001   -0.0001
           6   -0.0000   -0.0000   -0.0000   -0.0000    0.0000   -0.0000
           7    0.0000    0.0005   -0.0001   -0.0002   -0.0004   -0.0000
           8   -0.0003   -0.0005    0.0011    0.0004    0.0008    0.0009
           9   -0.0000   -0.0000    0.0000    0.0000    0.0000    0.0000
          10    0.0000    0.0005    0.0002    0.0002   -0.0004    0.0000
          11    0.0003    0.0005    0.0011    0.0004   -0.0008    0.0009
          12    0.0000    0.0000    0.0000    0.0000   -0.0000    0.0000
          13    0.0174    0.0001    0.0001   -0.0229   -0.0000    0.0000
          14    0.0295    0.0001    0.0002   -0.0290   -0.0000    0.0000
          15    0.0012    0.0000    0.0000   -0.0012   -0.0000    0.0000
          16    0.0174    0.0001   -0.0001    0.0229   -0.0000   -0.0000
          17   -0.0295   -0.0001    0.0002   -0.0290    0.0000    0.0000
          18   -0.0012   -0.0000    0.0000   -0.0012    0.0000    0.0000
          19    0.0001   -0.0231    0.0277    0.0003    0.0175    0.0128
          20    0.0000    0.0003   -0.0003   -0.0000    0.0009    0.0013
          21    0.0000   -0.0000    0.0000   -0.0000    0.0000    0.0000
          22    0.0001   -0.0227   -0.0281   -0.0003    0.0175   -0.0128
          23   -0.0000   -0.0003   -0.0003   -0.0000   -0.0009    0.0013
          24   -0.0000    0.0000    0.0000   -0.0000   -0.0000    0.0000
          25   -0.0000    0.0086    0.0068    0.0001    0.0101   -0.0152
          26   -0.0000    0.0141    0.0093   -0.0000    0.0207   -0.0252
          27   -0.0000    0.0000    0.0000   -0.0000    0.0000   -0.0000
          28   -0.0000    0.0087   -0.0067   -0.0001    0.0101    0.0152
          29    0.0000   -0.0142    0.0090   -0.0000   -0.0207   -0.0251
          30    0.0000   -0.0000    0.0000   -0.0000   -0.0000   -0.0000
          31   -0.0134    0.0001   -0.0002    0.0139    0.0001   -0.0003
          32    0.0013    0.0003   -0.0003   -0.0010   -0.0002   -0.0001
          33    0.0218   -0.0004    0.0006   -0.0227   -0.0001    0.0005
          34   -0.0160    0.0000   -0.0001    0.0166    0.0002   -0.0003
          35    0.0023    0.0003   -0.0004   -0.0021   -0.0003   -0.0002
          36   -0.0219    0.0003   -0.0004    0.0227    0.0001   -0.0004
          37   -0.0134    0.0001    0.0002   -0.0139    0.0001    0.0003
          38   -0.0013   -0.0003   -0.0003   -0.0010    0.0002   -0.0001
          39   -0.0218    0.0004    0.0006   -0.0227    0.0001    0.0005
          40   -0.0160    0.0000    0.0001   -0.0166    0.0002    0.0003
          41   -0.0023   -0.0003   -0.0004   -0.0021    0.0003   -0.0002
          42    0.0219   -0.0003   -0.0004    0.0227   -0.0001   -0.0004
          43   -0.2047   -0.0005   -0.0012    0.2049    0.0001   -0.0003
          44   -0.3536   -0.0008   -0.0021    0.3447    0.0002   -0.0005
          45   -0.0145   -0.0000   -0.0001    0.0141    0.0000   -0.0000
          46   -0.2047   -0.0005    0.0012   -0.2048    0.0002    0.0003
          47    0.3536    0.0008   -0.0021    0.3447   -0.0003   -0.0005
          48    0.0145    0.0000   -0.0001    0.0141   -0.0000   -0.0000
          49   -0.0012    0.2648   -0.3181   -0.0029   -0.1945   -0.1342
          50    0.0001   -0.0015    0.0011   -0.0001   -0.0013   -0.0016
          51    0.0000    0.0001   -0.0001   -0.0000   -0.0001   -0.0001
          52   -0.0012    0.2600    0.3222    0.0029   -0.1948    0.1346
          53   -0.0001    0.0015    0.0012   -0.0001    0.0013   -0.0016
          54   -0.0000   -0.0001   -0.0001   -0.0000    0.0001   -0.0001
          55    0.0002   -0.0975   -0.0709   -0.0002   -0.1292    0.1614
          56    0.0003   -0.1680   -0.1173   -0.0003   -0.2286    0.2771
          57    0.0000   -0.0002   -0.0001   -0.0000   -0.0002    0.0003
          58    0.0002   -0.0986    0.0691    0.0002   -0.1295   -0.1613
          59   -0.0003    0.1697   -0.1141   -0.0003    0.2291    0.2767
          60   -0.0000    0.0002   -0.0001   -0.0000    0.0002    0.0003


           MASS-WEIGHTED COORDINATE ANALYSIS (NORMAL COORDINATES)


   Root No.       1         2         3         4         5         6         7         8

                 1 A       2 A       3 A       4 A       5 A       6 A       7 A       8 A   

                   6.6     131.4     227.6     352.1     372.5     409.0     467.3     478.3
  
           1    0.0085    0.0046   -0.0084   -0.0055    0.0730   -0.0166   -0.0030   -0.3002
           2   -0.0077   -0.0026    0.0022    0.0015    0.2062    0.0044   -0.0028    0.1616
           3    0.3484    0.3365   -0.1636   -0.0732   -0.0028   -0.0020    0.0152    0.0064
           4   -0.0085    0.0046    0.0084   -0.0055    0.0730    0.0166   -0.0030    0.3002
           5   -0.0077    0.0026    0.0022   -0.0015   -0.2062    0.0044    0.0028    0.1616
           6    0.3484   -0.3365   -0.1636    0.0732    0.0028   -0.0020   -0.0152    0.0064
           7   -0.0004    0.0007    0.0002    0.0044    0.3950   -0.0006   -0.0012   -0.0152
           8   -0.0017   -0.0002   -0.0033   -0.0028   -0.0336   -0.0072   -0.0026   -0.0970
           9    0.1545   -0.0463    0.3575    0.0146   -0.0003    0.4155    0.3075   -0.0267
          10    0.0004    0.0007   -0.0002    0.0044    0.3950    0.0006   -0.0012    0.0153
          11   -0.0017    0.0002   -0.0033    0.0028    0.0336   -0.0072    0.0026   -0.0970
          12    0.1545    0.0463    0.3575   -0.0146    0.0003    0.4155   -0.3075   -0.0267
          13   -0.0002   -0.0063    0.0001    0.0005   -0.2543   -0.0001    0.0025   -0.0071
          14    0.0148   -0.0023    0.0048   -0.0182    0.0587    0.0187    0.0037    0.4281
          15   -0.3413    0.1645   -0.0776    0.4841   -0.0057   -0.0315   -0.0749    0.0104
          16    0.0002   -0.0063   -0.0001    0.0005   -0.2543    0.0001    0.0025    0.0071
          17    0.0148    0.0023    0.0048    0.0182   -0.0587    0.0187   -0.0037    0.4281
          18   -0.3413   -0.1645   -0.0775   -0.4841    0.0057   -0.0315    0.0749    0.0104
          19   -0.0007    0.0001    0.0008    0.0035    0.0840   -0.0004    0.0010   -0.1068
          20   -0.0025   -0.0004   -0.0024   -0.0035   -0.2385   -0.0075   -0.0013   -0.2052
          21   -0.0154   -0.3657    0.3038   -0.0064   -0.0016   -0.3476    0.2053    0.0076
          22    0.0007    0.0001   -0.0008    0.0035    0.0840    0.0004    0.0010    0.1068
          23   -0.0025    0.0004   -0.0024    0.0035    0.2385   -0.0075    0.0013   -0.2052
          24   -0.0154    0.3657    0.3037    0.0064    0.0016   -0.3476   -0.2053    0.0076
          25   -0.0002   -0.0004    0.0001    0.0009   -0.2422   -0.0002    0.0020   -0.0013
          26   -0.0023    0.0001   -0.0017    0.0021    0.0934   -0.0094    0.0009   -0.3030
          27   -0.1724    0.2629   -0.3102    0.0196    0.0018    0.1166    0.4113   -0.0032
          28    0.0002   -0.0004   -0.0001    0.0009   -0.2422    0.0002    0.0020    0.0013
          29   -0.0023   -0.0001   -0.0017   -0.0021   -0.0934   -0.0094   -0.0009   -0.3030
          30   -0.1724   -0.2629   -0.3102   -0.0196   -0.0018    0.1166   -0.4113   -0.0031
          31    0.1564    0.1076   -0.1323   -0.2012    0.0171   -0.1191   -0.0833   -0.0905
          32   -0.0554    0.0285   -0.0483    0.0791    0.1175   -0.0529   -0.0604    0.0549
          33    0.2073    0.1736   -0.1415   -0.1619   -0.0006   -0.0848   -0.0573    0.0008
          34   -0.1434   -0.0994    0.1205    0.1876    0.0218    0.1031    0.0771   -0.0921
          35    0.0434   -0.0310    0.0505   -0.0677    0.1224    0.0548    0.0569    0.0463
          36    0.2199    0.1796   -0.1483   -0.1788   -0.0023   -0.0902   -0.0604    0.0046
          37   -0.1564    0.1076    0.1323   -0.2012    0.0171    0.1191   -0.0833    0.0905
          38   -0.0554   -0.0285   -0.0483   -0.0791   -0.1175   -0.0529    0.0604    0.0549
          39    0.2073   -0.1736   -0.1415    0.1619    0.0006   -0.0848    0.0573    0.0008
          40    0.1434   -0.0995   -0.1205    0.1876    0.0218   -0.1031    0.0771    0.0921
          41    0.0434    0.0310    0.0505    0.0677   -0.1224    0.0548   -0.0569    0.0463
          42    0.2199   -0.1796   -0.1483    0.1788    0.0023   -0.0902    0.0604    0.0046
          43   -0.0007   -0.0038    0.0008   -0.0000   -0.1228    0.0023    0.0010    0.0517
          44    0.0107   -0.0013    0.0005   -0.0134    0.0467    0.0050    0.0026    0.0921
          45   -0.2429    0.0922   -0.0130    0.3378   -0.0034   -0.0356   -0.0641   -0.0043
          46    0.0007   -0.0038   -0.0008   -0.0000   -0.1228   -0.0023    0.0010   -0.0517
          47    0.0107    0.0013    0.0005    0.0134   -0.0467    0.0050   -0.0026    0.0921
          48   -0.2429   -0.0922   -0.0130   -0.3378    0.0034   -0.0356    0.0641   -0.0043
          49   -0.0002    0.0001    0.0002    0.0010    0.0235   -0.0000    0.0002   -0.0311
          50   -0.0003    0.0002   -0.0010   -0.0019   -0.1641   -0.0013    0.0001   -0.0621
          51   -0.0071   -0.1911    0.1472   -0.0045   -0.0002   -0.3739    0.1216    0.0160
          52    0.0002    0.0001   -0.0002    0.0010    0.0234    0.0000    0.0003    0.0311
          53   -0.0003   -0.0002   -0.0010    0.0019    0.1641   -0.0013   -0.0001   -0.0621
          54   -0.0071    0.1911    0.1472    0.0045    0.0002   -0.3739   -0.1216    0.0160
          55   -0.0001   -0.0002    0.0001   -0.0006   -0.1313   -0.0002    0.0004   -0.0184
          56   -0.0006    0.0000   -0.0004    0.0011    0.0630   -0.0027    0.0001   -0.0781
          57   -0.0868    0.1548   -0.2239    0.0151    0.0012    0.0633    0.3777    0.0015
          58    0.0001   -0.0002   -0.0001   -0.0006   -0.1313    0.0002    0.0004    0.0184
          59   -0.0006   -0.0000   -0.0004   -0.0011   -0.0630   -0.0027   -0.0001   -0.0781
          60   -0.0868   -0.1548   -0.2239   -0.0151   -0.0012    0.0633   -0.3777    0.0016


   Root No.       9        10        11        12        13        14        15        16

                 9 A      10 A      11 A      12 A      13 A      14 A      15 A      16 A   

                 508.3     611.1     674.8     710.2     774.3     780.9     853.7     854.4
  
           1    0.1818   -0.3282   -0.0052   -0.0145    0.0009   -0.1626   -0.3447   -0.0121
           2    0.2785   -0.1222   -0.0004    0.0043    0.0001    0.1407   -0.2007   -0.0136
           3    0.0009    0.0084    0.1597   -0.1810    0.0080    0.0094   -0.0031    0.2274
           4    0.1818    0.3282   -0.0052    0.0145   -0.0009   -0.1626    0.3447   -0.0124
           5   -0.2785   -0.1222    0.0004    0.0043    0.0001   -0.1407   -0.2007    0.0137
           6   -0.0009    0.0084   -0.1597   -0.1810    0.0080   -0.0094   -0.0033   -0.2274
           7   -0.0047   -0.0119   -0.0014   -0.0015    0.0001   -0.0955   -0.1582    0.0068
           8    0.2706   -0.2398   -0.0035   -0.0076   -0.0003   -0.0708    0.1170   -0.0048
           9    0.0012   -0.0108    0.4424    0.0950    0.1255   -0.0199    0.0010   -0.0749
          10   -0.0047    0.0119   -0.0014    0.0015   -0.0000   -0.0955    0.1582    0.0066
          11   -0.2706   -0.2398    0.0035   -0.0076   -0.0004    0.0708    0.1170    0.0047
          12   -0.0012   -0.0108   -0.4424    0.0950    0.1256    0.0200    0.0011    0.0749
          13    0.1848   -0.0128    0.0081   -0.0008    0.0001    0.2115   -0.0142    0.0033
          14    0.2582    0.0663    0.0165    0.0155    0.0046    0.4053   -0.1019   -0.0024
          15    0.0112    0.0037   -0.0639   -0.1421   -0.0960    0.0121    0.0020   -0.0059
          16    0.1848    0.0128    0.0081    0.0008   -0.0002    0.2115    0.0142    0.0033
          17   -0.2582    0.0663   -0.0165    0.0155    0.0047   -0.4053   -0.1019    0.0024
          18   -0.0112    0.0037    0.0639   -0.1421   -0.0960   -0.0121    0.0020    0.0059
          19   -0.1721    0.4216    0.0006    0.0102    0.0007   -0.0702   -0.3566    0.0209
          20    0.2285    0.0174   -0.0030   -0.0046   -0.0002   -0.1731    0.1810    0.0072
          21    0.0020   -0.0000   -0.1560    0.0551   -0.1385   -0.0031    0.0010   -0.2416
          22   -0.1721   -0.4216    0.0006   -0.0102   -0.0006   -0.0702    0.3566    0.0206
          23   -0.2285    0.0174    0.0030   -0.0046   -0.0003    0.1731    0.1810   -0.0073
          24   -0.0020   -0.0000    0.1560    0.0551   -0.1386    0.0031    0.0012    0.2416
          25   -0.2015   -0.0267    0.0016   -0.0015   -0.0001    0.1695    0.0149   -0.0164
[...]
 FREQUENCY          1377.36         C  1 -- H 11         +11.2% ( 42.4%)      6.8%
 TRANSITION DIPOLE   0.0622         C  2 -- H 13         +11.2% ( 42.4%)      6.8%
 TRAVEL (Ang.)       0.2950         C  1 -- H 12         +11.1% ( 42.2%)      7.0%
 REDUCED MASS        0.5626         C  2 -- H 14         +11.1% ( 42.2%)      7.0%
 EFFECTIVE MASS      5.5490         C  1 -- C  3         +10.9% ( 41.8%)     67.5%
 FORCE CONSTANT      0.6289         C  2 -- C  4         +10.9% ( 41.8%)     67.6%

 VIBRATION         38   38A           ATOM PAIR      ENERGY CONTRIBUTION    RADIAL
 FREQUENCY          1433.94         C  2 -- C  4          +8.4% ( 45.0%)     72.6%
 TRANSITION DIPOLE   0.3653         C  1 -- C  3          +8.4% ( 44.9%)     72.6%
 TRAVEL (Ang.)       0.2052         C  9 -- C 10          +8.1% ( 44.1%)    100.0%
 REDUCED MASS        1.1173         C  7 -- C 10          +7.7% ( 43.1%)     63.4%
 EFFECTIVE MASS     10.3637
 FORCE CONSTANT      1.3536

 VIBRATION         39   39A           ATOM PAIR      ENERGY CONTRIBUTION    RADIAL
 FREQUENCY          1440.22         C  1 -- C  5         +13.7% ( 57.9%)     94.7%
 TRANSITION DIPOLE   0.2503         C  2 -- C  6         +13.7% ( 57.8%)     94.7%
 TRAVEL (Ang.)       0.1802         C  5 -- C  6          +7.8% ( 43.8%)      0.0%
 REDUCED MASS        1.4412         C  1 -- C  3          +6.1% ( 38.6%)     85.5%
 EFFECTIVE MASS     10.5171
 FORCE CONSTANT      1.7613

 VIBRATION         40   40A           ATOM PAIR      ENERGY CONTRIBUTION    RADIAL
 FREQUENCY          1580.18         C  3 -- C  4         +12.2% ( 52.6%)      0.0%
 TRANSITION DIPOLE   0.4421         C  8 -- C  9          +9.4% ( 46.1%)     88.4%
 TRAVEL (Ang.)       0.1716         C  7 -- C 10          +9.4% ( 46.0%)     88.4%
 REDUCED MASS        1.4488         C  9 -- C 10          +9.2% ( 45.7%)      0.0%
 EFFECTIVE MASS     11.3791
 FORCE CONSTANT      2.1314

 VIBRATION         41   41A           ATOM PAIR      ENERGY CONTRIBUTION    RADIAL
 FREQUENCY          1632.79         C  3 -- C  4         +15.9% ( 58.9%)    100.0%
 TRANSITION DIPOLE   0.5784         C  4 -- C  8         +12.3% ( 51.7%)     48.5%
 TRAVEL (Ang.)       0.1532         C  3 -- C  7         +12.3% ( 51.7%)     48.5%
 REDUCED MASS        1.7601         C  1 -- C  3          +9.7% ( 46.1%)     99.6%
 EFFECTIVE MASS     11.3142
 FORCE CONSTANT      2.7647

 VIBRATION         42   42A           ATOM PAIR      ENERGY CONTRIBUTION    RADIAL
 FREQUENCY          1789.70         C  3 -- C  4         +21.9% ( 65.0%)    100.0%
 TRANSITION DIPOLE   0.3512         C  9 -- C 10         +14.6% ( 53.1%)    100.0%
 TRAVEL (Ang.)       0.1218         C  4 -- C  8          +9.6% ( 43.2%)     27.6%
 REDUCED MASS        2.5411         C  3 -- C  7          +9.6% ( 43.2%)     27.6%
 EFFECTIVE MASS     11.8988
 FORCE CONSTANT      4.7955

 VIBRATION         43   43A           ATOM PAIR      ENERGY CONTRIBUTION    RADIAL
 FREQUENCY          1801.63         C  3 -- C  7         +15.1% ( 53.9%)     83.7%
 TRANSITION DIPOLE   0.0955         C  4 -- C  8         +15.1% ( 53.9%)     83.7%
 TRAVEL (Ang.)       0.1270         C  8 -- C  9         +13.8% ( 51.7%)     89.6%
 REDUCED MASS        2.3202         C  7 -- C 10         +13.8% ( 51.7%)     89.6%
 EFFECTIVE MASS     11.8501
 FORCE CONSTANT      4.4372

 VIBRATION         44   44A           ATOM PAIR      ENERGY CONTRIBUTION    RADIAL
 FREQUENCY          1891.68         C  5 -- C  6         +43.9% ( 97.6%)    100.0%
 TRANSITION DIPOLE   0.0797         C  1 -- C  5         +14.2% ( 55.5%)     53.6%
 TRAVEL (Ang.)       0.0818         C  2 -- C  6         +14.2% ( 55.5%)     53.6%
 REDUCED MASS        5.3258         C  6 -- H 16         +13.0% ( 53.1%)      4.5%
 EFFECTIVE MASS     11.8789         C  5 -- H 15         +13.0% ( 53.1%)      4.5%
 FORCE CONSTANT     11.2286

 VIBRATION         45   45A           ATOM PAIR      ENERGY CONTRIBUTION    RADIAL
 FREQUENCY          2927.94         C  1 -- H 11         +28.2% ( 55.1%)     96.6%
 TRANSITION DIPOLE   0.0636         C  1 -- H 12         +27.0% ( 53.9%)     96.4%
 TRAVEL (Ang.)       0.2959         C  2 -- H 13         +21.8% ( 48.4%)     96.6%
 REDUCED MASS        0.2631         C  2 -- H 14         +20.8% ( 47.3%)     96.4%
 EFFECTIVE MASS      1.5325
 FORCE CONSTANT      1.3288

 VIBRATION         46   46A           ATOM PAIR      ENERGY CONTRIBUTION    RADIAL
 FREQUENCY          2928.17         C  2 -- H 13         +28.2% ( 55.1%)     96.6%
 TRANSITION DIPOLE   0.0041         C  2 -- H 14         +27.0% ( 53.9%)     96.4%
 TRAVEL (Ang.)       0.2956         C  1 -- H 11         +21.8% ( 48.4%)     96.6%
 REDUCED MASS        0.2635         C  1 -- H 12         +20.9% ( 47.4%)     96.4%
 EFFECTIVE MASS      1.5393
 FORCE CONSTANT      1.3313

 VIBRATION         47   47A           ATOM PAIR      ENERGY CONTRIBUTION    RADIAL
 FREQUENCY          3005.94         C  1 -- H 12         +25.7% ( 50.0%)     97.9%
 TRANSITION DIPOLE   0.0076         C  1 -- H 11         +24.5% ( 48.8%)     97.6%
 TRAVEL (Ang.)       0.3070         C  2 -- H 14         +24.4% ( 48.7%)     97.9%
 REDUCED MASS        0.2381         C  2 -- H 13         +23.2% ( 47.5%)     97.6%
 EFFECTIVE MASS      1.2786
 FORCE CONSTANT      1.2674

 VIBRATION         48   48A           ATOM PAIR      ENERGY CONTRIBUTION    RADIAL
 FREQUENCY          3006.35         C  2 -- H 14         +25.7% ( 50.0%)     97.9%
 TRANSITION DIPOLE   0.1476         C  2 -- H 13         +24.5% ( 48.8%)     97.6%
 TRAVEL (Ang.)       0.3066         C  1 -- H 12         +24.3% ( 48.6%)     97.9%
 REDUCED MASS        0.2386         C  1 -- H 11         +23.2% ( 47.5%)     97.6%
 EFFECTIVE MASS      1.2827
 FORCE CONSTANT      1.2704

 VIBRATION         49   49A           ATOM PAIR      ENERGY CONTRIBUTION    RADIAL
 FREQUENCY          3042.77         C  6 -- H 16         +48.5% ( 70.6%)    100.0%
 TRANSITION DIPOLE   0.2927         C  5 -- H 15         +48.5% ( 70.6%)    100.0%
 TRAVEL (Ang.)       0.2201         C  5 -- C  6          +1.1% ( 10.5%)      0.0%
 REDUCED MASS        0.4575         C  2 -- C  6          +0.6% (  8.1%)     23.7%
 EFFECTIVE MASS      1.4544
 FORCE CONSTANT      2.4959

 VIBRATION         50   50A           ATOM PAIR      ENERGY CONTRIBUTION    RADIAL
 FREQUENCY          3052.59         C  7 -- H 17         +31.8% ( 57.4%)    100.0%
 TRANSITION DIPOLE   0.2264         C  8 -- H 18         +30.7% ( 56.3%)    100.0%
 TRAVEL (Ang.)       0.2960         C 10 -- H 20         +17.5% ( 42.6%)    100.0%
 REDUCED MASS        0.2521         C  9 -- H 19         +17.2% ( 42.1%)    100.0%
 EFFECTIVE MASS      1.4990
 FORCE CONSTANT      1.3839

 VIBRATION         51   51A           ATOM PAIR      ENERGY CONTRIBUTION    RADIAL
 FREQUENCY          3054.55         C  8 -- H 18         +41.7% ( 65.6%)    100.0%
 TRANSITION DIPOLE   0.1585         C  7 -- H 17         +40.7% ( 64.8%)    100.0%
 TRAVEL (Ang.)       0.2526         C  9 -- H 19          +7.5% ( 27.9%)     99.8%
 REDUCED MASS        0.3460         C 10 -- H 20          +7.1% ( 27.2%)     99.8%
 EFFECTIVE MASS      1.5026
 FORCE CONSTANT      1.9022

 VIBRATION         52   52A           ATOM PAIR      ENERGY CONTRIBUTION    RADIAL
 FREQUENCY          3063.00         C  5 -- H 15         +47.8% ( 70.1%)     99.9%
 TRANSITION DIPOLE   0.2997         C  6 -- H 16         +47.8% ( 70.1%)     99.9%
 TRAVEL (Ang.)       0.2193         C  5 -- C  6          +2.0% ( 14.5%)    100.0%
 REDUCED MASS        0.4579         C  1 -- C  5          +0.8% (  9.1%)     13.8%
 EFFECTIVE MASS      1.5884
 FORCE CONSTANT      2.5312

 VIBRATION         53   53A           ATOM PAIR      ENERGY CONTRIBUTION    RADIAL
 FREQUENCY          3065.16         C 10 -- H 20         +31.4% ( 56.9%)     99.9%
 TRANSITION DIPOLE   0.4684         C  9 -- H 19         +31.2% ( 56.7%)     99.9%
 TRAVEL (Ang.)       0.2954         C  8 -- H 18         +17.1% ( 42.1%)    100.0%
 REDUCED MASS        0.2521         C  7 -- H 17         +17.1% ( 42.0%)    100.0%
 EFFECTIVE MASS      1.5285
 FORCE CONSTANT      1.3957

 VIBRATION         54   54A           ATOM PAIR      ENERGY CONTRIBUTION    RADIAL
 FREQUENCY          3078.51         C  9 -- H 19         +41.1% ( 65.0%)    100.0%
 TRANSITION DIPOLE   0.4162         C 10 -- H 20         +41.0% ( 64.9%)    100.0%
 TRAVEL (Ang.)       0.2513         C  8 -- H 18          +7.2% ( 27.3%)     99.9%
 REDUCED MASS        0.3469         C  7 -- H 17          +7.2% ( 27.2%)     99.9%
 EFFECTIVE MASS      1.5905
 FORCE CONSTANT      1.9368

      SYMMETRY NUMBER FOR POINT-GROUP C1  =  1


          SYSTEM IS A GROUND STATE



 InChI=1S/C10H10/c1-2-6-10-8-4-3-7-9(10)5-1/h1-6H,7-8H2


          MOLECULE IS NOT LINEAR

          THERE ARE 54 GENUINE VIBRATIONS IN THIS SYSTEM
          THIS THERMODYNAMICS CALCULATION IS LIMITED TO
          MOLECULES WHICH HAVE NO INTERNAL ROTATIONS




                    CALCULATED THERMODYNAMIC PROPERTIES
                                          *
   TEMP. (K)   PARTITION FUNCTION   H.O.F.    ENTHALPY  HEAT CAPACITY ENTROPY
                                   KCAL/MOL   CAL/MOLE    CAL/K/MOL  CAL/K/MOL


 298.00  VIB.     0.3249D+03                  3194.4488    25.6482    22.2126
         ROT.     0.5045D+06                   888.2803     2.9808    29.0753
         INT.     0.1639D+09                  4082.7291    28.6290    51.2879
         TRA.     0.1436D+28                  1480.4672     4.9680    40.5022
         TOT.                       28.577    5563.1963    33.5970    91.7900

 200.00  VIB.     0.6190D+02                  1253.5494    14.2264    14.4662
         ROT.     0.2774D+06                   596.1613     2.9808    27.8866
         INT.     0.1717D+08                  1849.7107    17.2073    42.3528
         TRA.     0.7896D+27                   993.6021     4.9680    38.5210
         TOT.                       25.857    2843.3128    22.1753    80.8738

 210.00  VIB.     0.7256D+02                  1401.1570    15.3002    15.1861
         ROT.     0.2984D+06                   625.9693     2.9808    28.0321
         INT.     0.2165D+08                  2027.1263    18.2810    43.2182
         TRA.     0.8496D+27                  1043.2822     4.9680    38.7634
         TOT.                       26.084    3070.4085    23.2490    81.9816

 220.00  VIB.     0.8523D+02                  1559.6499    16.4031    15.9232
         ROT.     0.3200D+06                   655.7774     2.9808    28.1707
         INT.     0.2727D+08                  2215.4273    19.3839    44.0940
         TRA.     0.9110D+27                  1092.9623     4.9680    38.9945
         TOT.                       26.322    3308.3896    24.3519    83.0885

 230.00  VIB.     0.1004D+03                  1729.3061    17.5323    16.6772
         ROT.     0.3421D+06                   685.5855     2.9808    28.3032
         INT.     0.3433D+08                  2414.8916    20.5131    44.9804
         TRA.     0.9738D+27                  1142.6424     4.9680    39.2154
         TOT.                       26.572    3557.5340    25.4811    84.1958

 240.00  VIB.     0.1184D+03                  1910.3731    18.6847    17.4476
         ROT.     0.3646D+06                   715.3935     2.9808    28.4301
         INT.     0.4318D+08                  2625.7667    21.6655    45.8777
         TRA.     0.1038D+28                  1192.3226     4.9680    39.4268
         TOT.                       26.832    3818.0892    26.6335    85.3045

 250.00  VIB.     0.1401D+03                  2103.0656    19.8568    18.2341
         ROT.     0.3876D+06                   745.2016     2.9808    28.5518
         INT.     0.5432D+08                  2848.2671    22.8376    46.7859
         TRA.     0.1103D+28                  1242.0027     4.9680    39.6296
         TOT.                       27.104    4090.2698    27.8056    86.4155

 260.00  VIB.     0.1662D+03                  2307.5634    21.0452    19.0360
         ROT.     0.4111D+06                   775.0097     2.9808    28.6687
         INT.     0.6832D+08                  3082.5730    24.0260    47.7047
         TRA.     0.1170D+28                  1291.6828     4.9680    39.8245
         TOT.                       27.388    4374.2558    28.9940    87.5291

 270.00  VIB.     0.1976D+03                  2524.0116    22.2463    19.8527
         ROT.     0.4351D+06                   804.8177     2.9808    28.7812
         INT.     0.8596D+08                  3328.8293    25.2271    48.6339
         TRA.     0.1239D+28                  1341.3629     4.9680    40.0120
         TOT.                       27.684    4670.1922    30.1951    88.6459

 280.00  VIB.     0.2355D+03                  2752.5201    23.4567    20.6836
         ROT.     0.4595D+06                   834.6258     2.9808    28.8896
         INT.     0.1082D+09                  3587.1459    26.4375    49.5732
         TRA.     0.1308D+28                  1391.0430     4.9680    40.1926
         TOT.                       27.992    4978.1888    31.4055    89.7658

 290.00  VIB.     0.2813D+03                  2993.1648    24.6730    21.5280
         ROT.     0.4843D+06                   864.4339     2.9808    28.9942
         INT.     0.1362D+09                  3857.5987    27.6538    50.5221
         TRA.     0.1379D+28                  1440.7231     4.9680    40.3670
         TOT.                       28.312    5298.3217    32.6218    90.8891

 300.00  VIB.     0.3369D+03                  3245.9890    25.8921    22.3850
         ROT.     0.5096D+06                   894.2419     2.9808    29.0952
         INT.     0.1717D+09                  4140.2309    28.8729    51.4802
         TRA.     0.1451D+28                  1490.4032     4.9680    40.5354
         TOT.                       28.645    5630.6341    33.8409    92.0156

 310.00  VIB.     0.4044D+03                  3511.0051    27.1109    23.2538
         ROT.     0.5352D+06                   924.0500     2.9808    29.1930
         INT.     0.2165D+09                  4435.0551    30.0917    52.4468
         TRA.     0.1524D+28                  1540.0833     4.9680    40.6983
         TOT.                       28.989    5975.1384    35.0597    93.1451

 320.00  VIB.     0.4866D+03                  3788.1967    28.3267    24.1338
         ROT.     0.5614D+06                   953.8580     2.9808    29.2876
         INT.     0.2731D+09                  4742.0548    31.3075    53.4214
         TRA.     0.1598D+28                  1589.7634     4.9680    40.8560
         TOT.                       29.346    6331.8182    36.2755    94.2774

 330.00  VIB.     0.5868D+03                  4077.5212    29.5371    25.0240
         ROT.     0.5879D+06                   983.6661     2.9808    29.3793
         INT.     0.3450D+09                  5061.1873    32.5179    54.4033
         TRA.     0.1674D+28                  1639.4435     4.9680    41.0089
         TOT.                       29.715    6700.6308    37.4859    95.4122

 340.00  VIB.     0.7093D+03                  4378.9119    30.7396    25.9236
         ROT.     0.6148D+06                  1013.4742     2.9808    29.4683
         INT.     0.4361D+09                  5392.3861    33.7204    55.3920
         TRA.     0.1750D+28                  1689.1236     4.9680    41.1572
         TOT.                       30.096    7081.5097    38.6884    96.5492

 350.00  VIB.     0.8591D+03                  4692.2806    31.9323    26.8319
         ROT.     0.6421D+06                  1043.2822     2.9808    29.5547
         INT.     0.5517D+09                  5735.5628    34.9131    56.3867
         TRA.     0.1828D+28                  1738.8037     4.9680    41.3012
         TOT.                       30.488    7474.3666    39.8812    97.6879

 360.00  VIB.     0.1043D+04                  5017.5200    33.1135    27.7481
         ROT.     0.6698D+06                  1073.0903     2.9808    29.6387
         INT.     0.6985D+09                  6090.6103    36.0943    57.3868
         TRA.     0.1907D+28                  1788.4838     4.9680    41.4412
         TOT.                       30.893    7879.0941    41.0623    98.8280

 370.00  VIB.     0.1268D+04                  5354.5061    34.2814    28.6713
         ROT.     0.6979D+06                  1102.8984     2.9808    29.7204
         INT.     0.8853D+09                  6457.4044    37.2622    58.3917
         TRA.     0.1987D+28                  1838.1639     4.9680    41.5773
         TOT.                       31.310    8295.5684    42.2303    99.9690

 380.00  VIB.     0.1546D+04                  5703.1004    35.4349    29.6009
         ROT.     0.7264D+06                  1132.7064     2.9808    29.7999
         INT.     0.1123D+10                  6835.8068    38.4157    59.4007
         TRA.     0.2068D+28                  1887.8440     4.9680    41.7098
         TOT.                       31.738    8723.6508    43.3837   101.1105

 390.00  VIB.     0.1888D+04                  6063.1521    36.5727    30.5361
         ROT.     0.7553D+06                  1162.5145     2.9808    29.8773
         INT.     0.1426D+10                  7225.6666    39.5536    60.4134
         TRA.     0.2150D+28                  1937.5242     4.9680    41.8388
         TOT.                       32.177    9163.1907    44.5216   102.2522

 400.00  VIB.     0.2309D+04                  6434.5000    37.6940    31.4762
         ROT.     0.7845D+06                  1192.3226     2.9808    29.9528
         INT.     0.1811D+10                  7626.8226    40.6748    61.4289
         TRA.     0.2233D+28                  1987.2043     4.9680    41.9646
         TOT.                       32.628    9614.0268    45.6428   103.3936

   *: NOTE: HEATS OF FORMATION ARE RELATIVE TO THE
            ELEMENTS IN THEIR STANDARD STATE AT 298K
              (=  Standard Enthalpy of Formation).

            Hvib:  Zero-point energy is not included.
                   frequencies of less than zero cm-1 are not included.
            Hrot = (3/2)RT
            Htra = (3/2)RT + pV = (5/2)RT

            Heat capacity is Cp, not Cv

          For more information, see: HTTP://OpenMOPAC.net/Manual/thermochemistry.html


           FORCE CONSTANT IN CARTESIAN COORDINATES (Millidynes/A)

    ATOM   CHEMICAL       X               Y               Z
   NUMBER   SYMBOL  FORCE CONSTANT  FORCE CONSTANT  FORCE CONSTANT

      1       C        8.897295        9.602039        7.653523
      2       C        8.897280        9.601874        7.653721
      3       C       12.405863       12.350700        2.726375
      4       C       12.405201       12.350570        2.726387
      5       C       15.472488        9.556006        2.357895
      6       C       15.472402        9.555999        2.357899
      7       C       12.009831       12.267453        2.319183
      8       C       12.010057       12.267255        2.319189
      9       C       12.034810       12.192270        2.304883
     10       C       12.034978       12.192142        2.304819
     11       H        1.909892        0.678568        3.577585
     12       H        2.194088        0.691089        3.302050
     13       H        1.909848        0.678552        3.577660
     14       H        2.194107        0.691068        3.302092
     15       H        1.883286        4.000620        0.355196
     16       H        1.883205        4.000720        0.355196
     17       H        5.133544        0.773475        0.350227
     18       H        5.133669        0.773443        0.350209
     19       H        1.863381        4.061418        0.351543
     20       H        1.863503        4.061235        0.351550

 **********************
 *                    *
 * JOB ENDED NORMALLY *
 *                    *
 **********************



 TOTAL JOB TIME:             4.00 SECONDS

 == MOPAC DONE ==
