 *******************************************************************************
 **                                                                           **
 **                              MOPAC v23.1.2                                **
 **                                                                           **
 *******************************************************************************
 **          Digital Object Identifier (DOI): 10.5281/zenodo.6511958          **
 **    Visit the DOI location for information on how to cite this program.    **
 *******************************************************************************

                              PM3 CALCULATION RESULTS

 *******************************************************************************
 *  CALCULATION DONE: (MAX THREADS = 1)              Tue Jun  3 16:30:53 2025  *
 *  PM3        - The PM3 Hamiltonian to be used
 *  PRECISE    - TIGHTER CRITERIA TO BE USED
 *  NOSYM      - POINT-GROUP SYMMETRY SET TO C1
 *  THREADS=1  - MULTI-THREADING NOT USED
 *  T=         - A TIME OF 172800.0 SECONDS REQUESTED
 *  DUMP=N     - RESTART FILE WRITTEN EVERY 7200.0 SECONDS REQUESTED
 *******************************************************************************
pm3  precise nosym THREADS=1
 InChI=1S/C6H10/c1-6-4-2-3-5-6/h2-3,6H,4-5H2,1H3

   ATOM   CHEMICAL          X               Y               Z
  NUMBER   SYMBOL      (ANGSTROMS)     (ANGSTROMS)     (ANGSTROMS)

     1       C          0.50260000  *   0.05160000  *  -0.49770000  *
     2       C         -0.42300000  *   1.20090000  *  -0.06190000  *
     3       C         -0.24100000  *  -1.24470000  *  -0.13170000  *
     4       C          1.88540000  *   0.13580000  *   0.15640000  *
     5       C         -1.70790000  *   0.52840000  *   0.26200000  *
     6       C         -1.60990000  *  -0.78920000  *   0.22440000  *
     7       H          0.62980000  *   0.09260000  *  -1.60330000  *
     8       H         -0.56840000  *   1.93150000  *  -0.88640000  *
     9       H         -0.04960000  *   1.72610000  *   0.84420000  *
    10       H          0.20980000  *  -1.75950000  *   0.74470000  *
    11       H         -0.28030000  *  -1.94090000  *  -0.99690000  *
    12       H          1.80030000  *   0.09790000  *   1.26390000  *
    13       H          2.38320000  *   1.08540000  *  -0.13390000  *
    14       H          2.51690000  *  -0.71170000  *  -0.18510000  *
    15       H         -2.61740000  *   1.05280000  *   0.53650000  *
    16       H         -2.43060000  *  -1.45700000  *   0.46490000  *



          CARTESIAN COORDINATES 

    NO.       ATOM           X           Y           Z

     1         C          0.5026      0.0516     -0.4977
     2         C         -0.4230      1.2009     -0.0619
     3         C         -0.2410     -1.2447     -0.1317
     4         C          1.8854      0.1358      0.1564
     5         C         -1.7079      0.5284      0.2620
     6         C         -1.6099     -0.7892      0.2244
     7         H          0.6298      0.0926     -1.6033
     8         H         -0.5684      1.9315     -0.8864
     9         H         -0.0496      1.7261      0.8442
    10         H          0.2098     -1.7595      0.7447
    11         H         -0.2803     -1.9409     -0.9969
    12         H          1.8003      0.0979      1.2639
    13         H          2.3832      1.0854     -0.1339
    14         H          2.5169     -0.7117     -0.1851
    15         H         -2.6174      1.0528      0.5365
    16         H         -2.4306     -1.4570      0.4649

  H: (PM3): J. J. P. STEWART, J. COMP. CHEM. 10, 209 (1989).
  C: (PM3): J. J. P. STEWART, J. COMP. CHEM. 10, 209 (1989).

           Empirical Formula: C6 H10  =    16 atoms



      MOLECULAR POINT GROUP   :   C1  


      RHF CALCULATION, NO. OF DOUBLY OCCUPIED LEVELS = 17


          Geometry optimization using EF

          DIAGONAL MATRIX USED AS START HESSIAN

 CYCLE:     1 TIME:   0.004 TIME LEFT:  2.00D  GRAD.:    51.067 HEAT: -1.117480
 CYCLE:     2 TIME:   0.012 TIME LEFT:  2.00D  GRAD.:    52.496 HEAT: -1.644889
 CYCLE:     3 TIME:   0.004 TIME LEFT:  2.00D  GRAD.:    26.925 HEAT: -2.240930
 CYCLE:     4 TIME:   0.008 TIME LEFT:  2.00D  GRAD.:    20.810 HEAT: -2.473941
 CYCLE:     5 TIME:   0.004 TIME LEFT:  2.00D  GRAD.:    25.421 HEAT: -2.600086
 CYCLE:     6 TIME:   0.004 TIME LEFT:  2.00D  GRAD.:    26.064 HEAT: -2.709173
 CYCLE:     7 TIME:   0.004 TIME LEFT:  2.00D  GRAD.:    25.620 HEAT: -2.720958
 CYCLE:     8 TIME:   0.008 TIME LEFT:  2.00D  GRAD.:    10.760 HEAT: -2.893031
 CYCLE:     9 TIME:   0.008 TIME LEFT:  2.00D  GRAD.:     6.839 HEAT: -2.926134
 CYCLE:    10 TIME:   0.004 TIME LEFT:  2.00D  GRAD.:     3.439 HEAT: -2.940860
 CYCLE:    11 TIME:   0.008 TIME LEFT:  2.00D  GRAD.:     2.963 HEAT: -2.945836
 CYCLE:    12 TIME:   0.004 TIME LEFT:  2.00D  GRAD.:     2.504 HEAT: -2.951345
 CYCLE:    13 TIME:   0.004 TIME LEFT:  2.00D  GRAD.:     2.547 HEAT: -2.955097
 CYCLE:    14 TIME:   0.004 TIME LEFT:  2.00D  GRAD.:     5.992 HEAT: -2.948074
 CYCLE:    15 TIME:   0.004 TIME LEFT:  2.00D  GRAD.:     3.148 HEAT: -2.959017
 CYCLE:    16 TIME:   0.008 TIME LEFT:  2.00D  GRAD.:     6.739 HEAT: -2.949158
 CYCLE:    17 TIME:   0.004 TIME LEFT:  2.00D  GRAD.:     1.139 HEAT: -2.964612
 CYCLE:    18 TIME:   0.004 TIME LEFT:  2.00D  GRAD.:     1.609 HEAT: -2.966374
 CYCLE:    19 TIME:   0.004 TIME LEFT:  2.00D  GRAD.:     1.934 HEAT: -2.971851
 CYCLE:    20 TIME:   0.004 TIME LEFT:  2.00D  GRAD.:     2.499 HEAT: -2.981434
 CYCLE:    21 TIME:   0.004 TIME LEFT:  2.00D  GRAD.:     2.973 HEAT: -2.990188
 CYCLE:    22 TIME:   0.004 TIME LEFT:  2.00D  GRAD.:     2.886 HEAT: -3.002083
 CYCLE:    23 TIME:   0.004 TIME LEFT:  2.00D  GRAD.:     4.982 HEAT: -3.017414
 CYCLE:    24 TIME:   0.004 TIME LEFT:  2.00D  GRAD.:     2.584 HEAT: -3.030281
 CYCLE:    25 TIME:   0.008 TIME LEFT:  2.00D  GRAD.:     2.159 HEAT: -3.037384
 CYCLE:    26 TIME:   0.004 TIME LEFT:  2.00D  GRAD.:     2.593 HEAT: -3.050528
 CYCLE:    27 TIME:   0.004 TIME LEFT:  2.00D  GRAD.:     3.031 HEAT: -3.060127
 CYCLE:    28 TIME:   0.004 TIME LEFT:  2.00D  GRAD.:     2.210 HEAT: -3.066619
 CYCLE:    29 TIME:   0.004 TIME LEFT:  2.00D  GRAD.:     1.707 HEAT: -3.071790
 CYCLE:    30 TIME:   0.004 TIME LEFT:  2.00D  GRAD.:     1.775 HEAT: -3.079112
 CYCLE:    31 TIME:   0.004 TIME LEFT:  2.00D  GRAD.:     1.528 HEAT: -3.084428
 CYCLE:    32 TIME:   0.004 TIME LEFT:  2.00D  GRAD.:     0.788 HEAT: -3.086642
 CYCLE:    33 TIME:   0.004 TIME LEFT:  2.00D  GRAD.:     0.623 HEAT: -3.087211
 CYCLE:    34 TIME:   0.004 TIME LEFT:  2.00D  GRAD.:     0.440 HEAT: -3.087540
 CYCLE:    35 TIME:   0.004 TIME LEFT:  2.00D  GRAD.:     0.327 HEAT: -3.087754
 CYCLE:    36 TIME:   0.004 TIME LEFT:  2.00D  GRAD.:     0.166 HEAT: -3.087932
 CYCLE:    37 TIME:   0.004 TIME LEFT:  2.00D  GRAD.:     0.122 HEAT: -3.087986
 CYCLE:    38 TIME:   0.008 TIME LEFT:  2.00D  GRAD.:     0.101 HEAT: -3.088008
 CYCLE:    39 TIME:   0.000 TIME LEFT:  2.00D  GRAD.:     0.083 HEAT: -3.088019
 CYCLE:    40 TIME:   0.004 TIME LEFT:  2.00D  GRAD.:     0.030 HEAT: -3.088026

     GRADIENT =  0.02984 IS LESS THAN CUTOFF =  0.05000



 -------------------------------------------------------------------------------
 pm3  precise nosym THREADS=1
 InChI=1S/C6H10/c1-6-4-2-3-5-6/h2-3,6H,4-5H2,1H3



     GEOMETRY OPTIMISED USING EIGENVECTOR FOLLOWING (EF).     
     SCF FIELD WAS ACHIEVED                                   


                              PM3 CALCULATION
                                                       MOPAC v23.1.2 MacOS
                                                       Tue Jun  3 16:30:53 2025




          FINAL HEAT OF FORMATION =         -3.08803 KCAL/MOL =     -12.92030 KJ/MOL


          COSMO AREA              =        131.76 SQUARE ANGSTROMS
          COSMO VOLUME            =        123.48 CUBIC ANGSTROMS

          GRADIENT NORM           =          0.02984          =       0.00746 PER ATOM
          IONIZATION POTENTIAL    =          9.536893 EV
          HOMO LUMO ENERGIES (EV) =         -9.537  1.148
          NO. OF FILLED LEVELS    =         17
          MOLECULAR WEIGHT        =         82.1450         POINT GROUP:  C1  

          MOLECULAR DIMENSIONS (Angstroms)

            Atom       Atom       Distance
            H    15    H    14     5.41489
            H     8    H    16     4.05725
            H    12    H    11     3.30254


          SCF CALCULATIONS        =         48

          WALL-CLOCK TIME         =      0.203 SECONDS
          COMPUTATION TIME        =      0.117 SECONDS




   ATOM   CHEMICAL          X               Y               Z
  NUMBER   SYMBOL      (ANGSTROMS)     (ANGSTROMS)     (ANGSTROMS)

     1       C          0.51905715  *   0.05351802  *  -0.52425576  *
     2       C         -0.43339085  *   1.20487490  *  -0.13395917  *
     3       C         -0.25106451  *  -1.24618849  *  -0.20368333  *
     4       C          1.83697877  *   0.13044105  *   0.21793371  *
     5       C         -1.68826160  *   0.53603468  *   0.32543226  *
     6       C         -1.58913547  *  -0.79727911  *   0.28739239  *
     7       H          0.72705155  *   0.10013750  *  -1.61809589  *
     8       H         -0.63547779  *   1.87878078  *  -0.98637653  *
     9       H         -0.01380125  *   1.84133187  *   0.66819640  *
    10       H          0.26124200  *  -1.85776259  *   0.56320370  *
    11       H         -0.35460225  *  -1.89344046  *  -1.09359664  *
    12       H          1.69668780  *   0.08708127  *   1.30661178  *
    13       H          2.36602639  *   1.06561516  *  -0.00725396  *
    14       H          2.49903127  *  -0.69983169  *  -0.06041379  *
    15       H         -2.55328822  *   1.11578514  *   0.64575087  *
    16       H         -2.35768754  *  -1.51566763  *   0.57064561  *

                             CARTESIAN COORDINATES

   1    C        0.519057154     0.053518021    -0.524255757
   2    C       -0.433390847     1.204874899    -0.133959175
   3    C       -0.251064513    -1.246188492    -0.203683328
   4    C        1.836978775     0.130441047     0.217933710
   5    C       -1.688261605     0.536034675     0.325432258
   6    C       -1.589135474    -0.797279114     0.287392390
   7    H        0.727051551     0.100137495    -1.618095893
   8    H       -0.635477794     1.878780782    -0.986376534
   9    H       -0.013801250     1.841331867     0.668196398
  10    H        0.261242004    -1.857762593     0.563203704
  11    H       -0.354602251    -1.893440464    -1.093596636
  12    H        1.696687801     0.087081266     1.306611779
  13    H        2.366026390     1.065615157    -0.007253960
  14    H        2.499031271    -0.699831687    -0.060413789
  15    H       -2.553288223     1.115785142     0.645750873
  16    H       -2.357687543    -1.515667627     0.570645610


           Empirical Formula: C6 H10  =    16 atoms



      MOLECULAR POINT GROUP   :   C1  


                  EIGENVALUES  
 -40.49185 -31.14882 -28.11248 -24.40588 -19.62088 -18.59814 -17.46253 -16.03374
 -14.18425 -13.88644 -13.71032 -13.40772 -12.61400 -12.57916 -12.00364 -11.79846
  -9.53689   1.14766   3.43067   3.51665   3.77268   3.82265   3.88468   3.97390
   4.13373   4.34119   4.39051   4.53170   4.55745   4.74814   5.19330   5.28207
   5.62809   6.01586


              NET ATOMIC CHARGES AND DIPOLE CONTRIBUTIONS

  ATOM NO.   TYPE          CHARGE      No. of ELECS.   s-Pop       p-Pop       
    1          C          -0.078537        4.0785     1.18224     2.89630
    2          C          -0.067501        4.0675     1.15751     2.90999
    3          C          -0.067491        4.0675     1.15751     2.90998
    4          C          -0.107567        4.1076     1.14128     2.96628
    5          C          -0.155221        4.1552     1.20197     2.95326
    6          C          -0.155216        4.1552     1.20197     2.95325
    7          H           0.061862        0.9381     0.93814
    8          H           0.055043        0.9450     0.94496
    9          H           0.060007        0.9400     0.93999
   10          H           0.059999        0.9400     0.94000
   11          H           0.055050        0.9450     0.94495
   12          H           0.042342        0.9577     0.95766
   13          H           0.038405        0.9616     0.96159
   14          H           0.038386        0.9616     0.96161
   15          H           0.110218        0.8898     0.88978
   16          H           0.110222        0.8898     0.88978
 DIPOLE           X         Y         Z       TOTAL
 POINT-CHG.     0.188     0.015    -0.041     0.193
 HYBRID        -0.007    -0.001     0.027     0.028
 SUM            0.181     0.014    -0.014     0.182


          ATOMIC ORBITAL ELECTRON POPULATIONS

     Atom    s        px        py        pz   
    1  C   1.18224   0.94975   0.94989   0.99666
    2  C   1.15751   0.94296   0.96532   1.00170
    3  C   1.15751   0.94487   0.96324   1.00187
    4  C   1.14128   0.96138   1.00724   0.99767
    5  C   1.20197   0.98090   0.96124   1.01111
    6  C   1.20197   0.97754   0.96501   1.01070
    7  H   0.93814
    8  H   0.94496
    9  H   0.93999
   10  H   0.94000
   11  H   0.94495
   12  H   0.95766
   13  H   0.96159
   14  H   0.96161
   15  H   0.88978
   16  H   0.88978
 *******************************************************************************
 **                                                                           **
 **                              MOPAC v23.1.2                                **
 **                                                                           **
 *******************************************************************************
 **          Digital Object Identifier (DOI): 10.5281/zenodo.6511958          **
 **    Visit the DOI location for information on how to cite this program.    **
 *******************************************************************************

                              PM3 CALCULATION RESULTS

 *******************************************************************************
 *  CALCULATION DONE: (MAX THREADS = 1)              Tue Jun  3 16:30:53 2025  *
 *  PM3        - The PM3 Hamiltonian to be used
 *  OLDGEO     - PREVIOUS GEOMETRY TO BE USED
 *  PRECISE    - TIGHTER CRITERIA TO BE USED
 *  NOSYM      - POINT-GROUP SYMMETRY SET TO C1
 *  THREADS=1  - MULTI-THREADING NOT USED
 *  T=         - A TIME OF 172800.0 SECONDS REQUESTED
 *  DUMP=N     - RESTART FILE WRITTEN EVERY 7200.0 SECONDS REQUESTED
 *  THERMO     - THERMODYNAMIC QUANTITIES TO BE CALCULATED
 *******************************************************************************
oldgeo thermo nosym precise THREADS=1  pm3
 InChI=1S/C6H10/c1-6-4-2-3-5-6/h2-3,6H,4-5H2,1H3

   ATOM   CHEMICAL          X               Y               Z
  NUMBER   SYMBOL      (ANGSTROMS)     (ANGSTROMS)     (ANGSTROMS)

     1       C          0.51905715  *   0.05351802  *  -0.52425576  *
     2       C         -0.43339085  *   1.20487490  *  -0.13395917  *
     3       C         -0.25106451  *  -1.24618849  *  -0.20368333  *
     4       C          1.83697877  *   0.13044105  *   0.21793371  *
     5       C         -1.68826160  *   0.53603468  *   0.32543226  *
     6       C         -1.58913547  *  -0.79727911  *   0.28739239  *
     7       H          0.72705155  *   0.10013750  *  -1.61809589  *
     8       H         -0.63547779  *   1.87878078  *  -0.98637653  *
     9       H         -0.01380125  *   1.84133187  *   0.66819640  *
    10       H          0.26124200  *  -1.85776259  *   0.56320370  *
    11       H         -0.35460225  *  -1.89344046  *  -1.09359664  *
    12       H          1.69668780  *   0.08708127  *   1.30661178  *
    13       H          2.36602639  *   1.06561516  *  -0.00725396  *
    14       H          2.49903127  *  -0.69983169  *  -0.06041379  *
    15       H         -2.55328822  *   1.11578514  *   0.64575087  *
    16       H         -2.35768754  *  -1.51566763  *   0.57064561  *



          CARTESIAN COORDINATES 

    NO.       ATOM           X           Y           Z

     1         C          0.5191      0.0535     -0.5243
     2         C         -0.4334      1.2049     -0.1340
     3         C         -0.2511     -1.2462     -0.2037
     4         C          1.8370      0.1304      0.2179
     5         C         -1.6883      0.5360      0.3254
     6         C         -1.5891     -0.7973      0.2874
     7         H          0.7271      0.1001     -1.6181
     8         H         -0.6355      1.8788     -0.9864
     9         H         -0.0138      1.8413      0.6682
    10         H          0.2612     -1.8578      0.5632
    11         H         -0.3546     -1.8934     -1.0936
    12         H          1.6967      0.0871      1.3066
    13         H          2.3660      1.0656     -0.0073
    14         H          2.4990     -0.6998     -0.0604
    15         H         -2.5533      1.1158      0.6458
    16         H         -2.3577     -1.5157      0.5706

  H: (PM3): J. J. P. STEWART, J. COMP. CHEM. 10, 209 (1989).
  C: (PM3): J. J. P. STEWART, J. COMP. CHEM. 10, 209 (1989).

           Empirical Formula: C6 H10  =    16 atoms



      MOLECULAR POINT GROUP   :   C1  


      RHF CALCULATION, NO. OF DOUBLY OCCUPIED LEVELS = 17



          HEAT OF FORMATION =      -3.088026 KCALS/MOLE


          CARTESIAN COORDINATE DERIVATIVES

   NUMBER  ATOM         X            Y            Z

     1       C     -0.004387     0.002872     0.004155
     2       C     -0.000135    -0.003939     0.003002
     3       C      0.005134    -0.005761    -0.001588
     4       C     -0.003245    -0.002434     0.001396
     5       C     -0.000816     0.002722     0.001603
     6       C      0.000584     0.010029    -0.002445
     7       H     -0.000992    -0.000001     0.001176
     8       H     -0.003808     0.002647     0.002508
     9       H      0.006447    -0.005217    -0.006209
    10       H      0.004428     0.005400    -0.000756
    11       H     -0.006751    -0.008834     0.003994
    12       H     -0.006422     0.005425    -0.002185
    13       H      0.011849     0.002100    -0.002581
    14       H     -0.002053     0.001213    -0.005807
    15       H     -0.001334    -0.005073     0.002573
    16       H      0.001501    -0.001149     0.001163



          GRADIENT NORM =   0.02999

          MOLECULAR WEIGHT =   82.15



          ROTATIONAL CONSTANTS IN CM(-1)

          A =    0.20988113   B =    0.11163476   C =    0.08292463



           PRINCIPAL MOMENTS OF INERTIA IN UNITS OF 10**(-40)*GRAM-CM**2

          A =      133.3743   B =      250.7530   C =      337.5686


          ORIENTATION OF MOLECULE IN FORCE CALCULATION

    NO.       ATOM         X         Y         Z

     1          C      -0.5321   -0.6999   -0.2004
     2          C       1.0122   -0.6999   -0.2004
     3          C      -0.9451    0.7882   -0.2004
     4          C      -1.1000   -1.4469    0.9885
     5          C       1.4036    0.7412   -0.2556
     6          C       0.3389    1.5507   -0.2557
     7          H      -0.9021   -1.1866   -1.1321
     8          H       1.4239   -1.2533   -1.0640
     9          H       1.4307   -1.1840    0.7025
    10          H      -1.5232    1.0620    0.7027
    11          H      -1.5887    1.0368   -1.0638
    12          H      -0.7707   -1.0105    1.9413
    13          H      -0.7860   -2.4988    0.9840
    14          H      -2.1976   -1.4289    0.9819
    15          H       2.4503    1.0420   -0.2881
    16          H       0.3489    2.6397   -0.2884


    FIRST DERIVATIVES WILL BE USED IN THE CALCULATION OF SECOND DERIVATIVES

          ESTIMATED TIME TO COMPLETE CALCULATION =        0.75 SECONDS

    FOR POINT-GROUP C1   THERE ARE   1 UNIQUE SYMMETRY FUNCTIONS.

 STEP:   1 TIME =     0.01 SECS, INTEGRAL =      0.01 TIME LEFT: 172799.98
 STEP:   2 TIME =     0.01 SECS, INTEGRAL =      0.02 TIME LEFT: 172799.97
 STEP:   3 TIME =     0.01 SECS, INTEGRAL =      0.04 TIME LEFT: 172799.96
 STEP:   4 TIME =     0.01 SECS, INTEGRAL =      0.04 TIME LEFT: 172799.95
 STEP:   5 TIME =     0.01 SECS, INTEGRAL =      0.05 TIME LEFT: 172799.95
 STEP:   6 TIME =     0.01 SECS, INTEGRAL =      0.06 TIME LEFT: 172799.93
 STEP:   7 TIME =     0.01 SECS, INTEGRAL =      0.07 TIME LEFT: 172799.92
 STEP:   8 TIME =     0.01 SECS, INTEGRAL =      0.09 TIME LEFT: 172799.91
 STEP:   9 TIME =     0.01 SECS, INTEGRAL =      0.10 TIME LEFT: 172799.90
 STEP:  10 TIME =     0.01 SECS, INTEGRAL =      0.11 TIME LEFT: 172799.89
 STEP:  11 TIME =     0.01 SECS, INTEGRAL =      0.12 TIME LEFT: 172799.88
 STEP:  12 TIME =     0.01 SECS, INTEGRAL =      0.13 TIME LEFT: 172799.86
 STEP:  13 TIME =     0.01 SECS, INTEGRAL =      0.14 TIME LEFT: 172799.85
 STEP:  14 TIME =     0.01 SECS, INTEGRAL =      0.16 TIME LEFT: 172799.84
 STEP:  15 TIME =     0.02 SECS, INTEGRAL =      0.17 TIME LEFT: 172799.82
 STEP:  16 TIME =     0.01 SECS, INTEGRAL =      0.18 TIME LEFT: 172799.81
 STEP:  17 TIME =     0.01 SECS, INTEGRAL =      0.20 TIME LEFT: 172799.80
 STEP:  18 TIME =     0.02 SECS, INTEGRAL =      0.21 TIME LEFT: 172799.79
 STEP:  19 TIME =     0.01 SECS, INTEGRAL =      0.22 TIME LEFT: 172799.77
 STEP:  20 TIME =     0.01 SECS, INTEGRAL =      0.23 TIME LEFT: 172799.76
 STEP:  21 TIME =     0.01 SECS, INTEGRAL =      0.25 TIME LEFT: 172799.75
 STEP:  22 TIME =     0.01 SECS, INTEGRAL =      0.25 TIME LEFT: 172799.74
 STEP:  23 TIME =     0.01 SECS, INTEGRAL =      0.26 TIME LEFT: 172799.73
 STEP:  24 TIME =     0.01 SECS, INTEGRAL =      0.27 TIME LEFT: 172799.73
 STEP:  25 TIME =     0.01 SECS, INTEGRAL =      0.28 TIME LEFT: 172799.71
 STEP:  26 TIME =     0.01 SECS, INTEGRAL =      0.29 TIME LEFT: 172799.70
 STEP:  27 TIME =     0.01 SECS, INTEGRAL =      0.30 TIME LEFT: 172799.69
 STEP:  28 TIME =     0.01 SECS, INTEGRAL =      0.32 TIME LEFT: 172799.68
 STEP:  29 TIME =     0.01 SECS, INTEGRAL =      0.32 TIME LEFT: 172799.67
 STEP:  30 TIME =     0.01 SECS, INTEGRAL =      0.33 TIME LEFT: 172799.66
 STEP:  31 TIME =     0.01 SECS, INTEGRAL =      0.34 TIME LEFT: 172799.65
 STEP:  32 TIME =     0.01 SECS, INTEGRAL =      0.36 TIME LEFT: 172799.64
 STEP:  33 TIME =     0.01 SECS, INTEGRAL =      0.37 TIME LEFT: 172799.63
 STEP:  34 TIME =     0.01 SECS, INTEGRAL =      0.38 TIME LEFT: 172799.62
 STEP:  35 TIME =     0.01 SECS, INTEGRAL =      0.39 TIME LEFT: 172799.61
 STEP:  36 TIME =     0.01 SECS, INTEGRAL =      0.40 TIME LEFT: 172799.60
 STEP:  37 TIME =     0.01 SECS, INTEGRAL =      0.41 TIME LEFT: 172799.59
 STEP:  38 TIME =     0.01 SECS, INTEGRAL =      0.41 TIME LEFT: 172799.58
 STEP:  39 TIME =     0.01 SECS, INTEGRAL =      0.43 TIME LEFT: 172799.57
 STEP:  40 TIME =     0.01 SECS, INTEGRAL =      0.44 TIME LEFT: 172799.56
 STEP:  41 TIME =     0.01 SECS, INTEGRAL =      0.45 TIME LEFT: 172799.55
 STEP:  42 TIME =     0.01 SECS, INTEGRAL =      0.46 TIME LEFT: 172799.54
 STEP:  43 TIME =     0.01 SECS, INTEGRAL =      0.47 TIME LEFT: 172799.53
 STEP:  44 TIME =     0.01 SECS, INTEGRAL =      0.48 TIME LEFT: 172799.52
 STEP:  45 TIME =     0.01 SECS, INTEGRAL =      0.49 TIME LEFT: 172799.50
 STEP:  46 TIME =     0.01 SECS, INTEGRAL =      0.50 TIME LEFT: 172799.49
 STEP:  47 TIME =     0.01 SECS, INTEGRAL =      0.51 TIME LEFT: 172799.48
 STEP:  48 TIME =     0.01 SECS, INTEGRAL =      0.52 TIME LEFT: 172799.47

(To convert to Hartree/Bohr^2, multiply by (10^(-21) x N x a0^2)/(4.184 x 627.51) =  0.0642)


           FORCE MATRIX IN MILLIDYNES/ANGSTROM


                  C  1       C  2       C  3       C  4       C  5       C  6
 ------------------------------------------------------------------------------
     C    1  14.290941
     C    2   3.501996  14.623028
     C    3   3.502005   0.721600  14.622744
     C    4   4.366604   0.605778   0.605828  14.435082
     C    5   0.862251   4.752655   1.184378   0.033608  18.374456
     C    6   0.862088   1.183999   4.752515   0.033588  10.578353  18.375454
     H    7   4.315300   0.423739   0.423871   0.423332   0.025471   0.025403
     H    8   0.435921   4.529818   0.030313   0.026982   0.431957   0.039212
     H    9   0.448106   4.483743   0.025896   0.061026   0.428817   0.037583
     H   10   0.448209   0.025907   4.483486   0.061071   0.037562   0.428664
     H   11   0.436029   0.030338   4.529757   0.026971   0.039215   0.431907
     H   12   0.468094   0.020784   0.020988   4.715970   0.001711   0.001712
     H   13   0.451831   0.020122   0.048096   4.738007   0.001857   0.005458
     H   14   0.451825   0.048131   0.019887   4.738941   0.005494   0.001825
     H   15   0.042814   0.412774   0.119029   0.004543   5.020946   0.449951
     H   16   0.042801   0.119052   0.412911   0.004513   0.450075   5.020913


                  H  7       H  8       H  9       H 10       H 11       H 12
 ------------------------------------------------------------------------------
     H    7   4.768674
     H    8   0.028509   5.132904
     H    9   0.027835   0.572110   5.105154
     H   10   0.027859   0.003745   0.001393   5.104825
     H   11   0.028489   0.001238   0.003743   0.572095   5.132886
     H   12   0.047109   0.001522   0.022971   0.023272   0.001537   5.459250
     H   13   0.030562   0.001625   0.017183   0.002778   0.004369   0.573155
     H   14   0.030702   0.004371   0.002784   0.016904   0.001631   0.573633
     H   15   0.002817   0.014879   0.014195   0.016193   0.016215   0.000502
     H   16   0.002788   0.016167   0.016123   0.014220   0.014902   0.000501


                  H 13       H 14       H 15       H 16
 ------------------------------------------------------
     H   13   5.474647
     H   14   0.570228   5.475018
     H   15   0.000525   0.001138   5.417960
     H   16   0.001129   0.000515   0.049091   5.417929


          HEAT OF FORMATION =      -3.088026 KCALS/MOLE

          ZERO POINT ENERGY      89.946 KCAL/MOL


           NORMAL COORDINATE ANALYSIS (Total motion = 1 Angstrom)


   Root No.       1         2         3         4         5         6         7         8

                 1 A       2 A       3 A       4 A       5 A       6 A       7 A       8 A   

                  75.4     200.5     345.6     385.1     442.6     650.2     739.3     766.4
  
           1    0.0054    0.0057   -0.0198   -0.0211    0.0016    0.0353    0.0086    0.0416
           2    0.0073   -0.0042    0.0150    0.0161    0.0021    0.0464    0.0114   -0.0315
           3    0.0107   -0.0001    0.0000   -0.0001    0.0569    0.0329    0.0146    0.0000
           4    0.0053    0.0059   -0.0206   -0.0228    0.0018    0.0369    0.0113   -0.0065
           5    0.0076    0.0038   -0.0025   -0.0013    0.0157   -0.0344   -0.0070   -0.0587
           6    0.0390    0.0091    0.0023    0.0261   -0.0193    0.0083   -0.0149    0.0014
           7    0.0060   -0.0021   -0.0031   -0.0048    0.0147   -0.0430   -0.0098    0.0548
           8    0.0072   -0.0066    0.0206    0.0223    0.0059    0.0264    0.0090    0.0220
           9    0.0392   -0.0080   -0.0023   -0.0261   -0.0194    0.0083   -0.0149   -0.0015
          10   -0.0224   -0.0001    0.0302    0.0330   -0.0343    0.0157   -0.0011    0.0109
          11   -0.0294   -0.0002   -0.0229   -0.0250   -0.0452    0.0206   -0.0015   -0.0083
          12   -0.0266   -0.0004    0.0000   -0.0000    0.0169   -0.0220    0.0057    0.0000
          13    0.0042   -0.0023   -0.0013   -0.0032    0.0121   -0.0203   -0.0035   -0.1020
          14    0.0054    0.0065   -0.0077   -0.0111    0.0167   -0.0308   -0.0057   -0.0210
          15   -0.0328    0.0074    0.0529   -0.0214   -0.0069    0.0017   -0.0200    0.0026
          16    0.0041   -0.0069    0.0071    0.0098    0.0128   -0.0243   -0.0046   -0.0070
          17    0.0054    0.0005    0.0033    0.0060    0.0162   -0.0278   -0.0051    0.1039
          18   -0.0327   -0.0081   -0.0529    0.0214   -0.0068    0.0017   -0.0200   -0.0027
          19    0.0270    0.0100   -0.0343   -0.0242   -0.0065    0.0542    0.0041    0.0200
          20    0.0357   -0.0069    0.0261    0.0185   -0.0085    0.0713    0.0055   -0.0152
          21   -0.0131   -0.0004    0.0000   -0.0001    0.0625    0.0104    0.0193    0.0000
          22    0.0225    0.0143   -0.0300   -0.0078   -0.0582   -0.0166    0.0120    0.0321
          23   -0.0443    0.0055    0.0432   -0.0669    0.0606   -0.0090   -0.0819   -0.0419
          24    0.0809    0.0120   -0.0325    0.0766   -0.0783   -0.0364    0.0355    0.0063
          25   -0.0123    0.0041   -0.0217   -0.0464    0.0564    0.0733    0.0085    0.0223
          26    0.0625    0.0067   -0.0618    0.0562   -0.0307   -0.0870    0.0674   -0.0468
          27    0.0769    0.0114   -0.0294    0.0703   -0.0723   -0.0381    0.0286   -0.0029
          28    0.0636   -0.0035    0.0538   -0.0665   -0.0449   -0.1035    0.0626    0.0512
          29    0.0049   -0.0062    0.0374    0.0295    0.0461    0.0473    0.0264   -0.0089
          30    0.0770   -0.0090    0.0293   -0.0701   -0.0726   -0.0381    0.0286    0.0030
          31   -0.0487   -0.0032   -0.0496    0.0622    0.0741   -0.0043   -0.0822    0.0486
          32    0.0101   -0.0148    0.0174    0.0255   -0.0400   -0.0184   -0.0105   -0.0198
          33    0.0811   -0.0095    0.0325   -0.0765   -0.0786   -0.0364    0.0355   -0.0062
          34   -0.0472    0.2182    0.0445    0.0608   -0.0746   -0.0218   -0.0242   -0.0137
          35   -0.0586   -0.1655   -0.0339   -0.0460   -0.0999   -0.0287   -0.0319    0.0103
          36   -0.0047   -0.0001    0.0001   -0.0000    0.0536    0.0121    0.0267   -0.0000
          37   -0.0203   -0.2282    0.0699    0.0676   -0.0363    0.0165   -0.0021   -0.0339
          38   -0.0287   -0.0670   -0.0119   -0.0156   -0.0463    0.0207   -0.0020   -0.0214
          39   -0.0515   -0.1469   -0.0352   -0.0491   -0.0299   -0.0709   -0.0197    0.0492
          40   -0.0222    0.0026    0.0301    0.0332   -0.0347    0.0157   -0.0014    0.0115
          41   -0.0309    0.2379   -0.0641   -0.0608   -0.0457    0.0216   -0.0025    0.0383
          42   -0.0538    0.1455    0.0352    0.0492   -0.0288   -0.0711   -0.0196   -0.0492
          43    0.0032   -0.0038    0.0049    0.0011    0.0138   -0.0328   -0.0015   -0.0875
          44    0.0038    0.0126   -0.0207   -0.0299    0.0112    0.0075    0.0142   -0.0735
          45   -0.0764    0.0158    0.1303   -0.0583   -0.0056   -0.0502    0.2273    0.0027
          46    0.0030   -0.0132    0.0213    0.0292    0.0071    0.0161    0.0140    0.0474
          47    0.0041    0.0003    0.0008    0.0070    0.0163   -0.0296    0.0022    0.1039
          48   -0.0763   -0.0176   -0.1302    0.0583   -0.0054   -0.0503    0.2273   -0.0018


   Root No.       9        10        11        12        13        14        15        16

                 9 A      10 A      11 A      12 A      13 A      14 A      15 A      16 A   

                 865.5     896.3     928.8     952.2     989.4    1020.8    1032.1    1074.9
  
           1    0.0006   -0.0093   -0.0088    0.0173    0.0047   -0.0038    0.0052   -0.0097
           2   -0.0005   -0.0122   -0.0116   -0.0133   -0.0036   -0.0049   -0.0040   -0.0013
           3    0.0000   -0.0172   -0.0055   -0.0000   -0.0000   -0.0167   -0.0000    0.0010
           4    0.0022    0.0522    0.0113   -0.0278   -0.0045    0.0021    0.0004    0.0018
           5   -0.0026   -0.0127   -0.0004    0.0244    0.0075    0.0018    0.0175    0.0006
           6   -0.0359   -0.0231    0.0245   -0.0014    0.0190    0.0151   -0.0129    0.0097
           7    0.0031   -0.0261   -0.0033   -0.0309   -0.0084    0.0013   -0.0168    0.0049
           8   -0.0015    0.0468    0.0106    0.0203    0.0023    0.0025   -0.0051    0.0008
           9    0.0359   -0.0231    0.0245    0.0015   -0.0189    0.0151    0.0130   -0.0066
          10    0.0016   -0.0235   -0.0120    0.0311   -0.0044    0.0080   -0.0162    0.0052
          11   -0.0012   -0.0308   -0.0156   -0.0237    0.0034    0.0104    0.0124    0.0007
          12   -0.0000    0.0286   -0.0115    0.0000    0.0000    0.0168    0.0000   -0.0040
          13    0.0009   -0.0023   -0.0004    0.0079   -0.0030   -0.0035   -0.0074   -0.0034
          14    0.0020   -0.0018    0.0006   -0.0077   -0.0059   -0.0027   -0.0143   -0.0036
          15   -0.0040    0.0125   -0.0182    0.0019   -0.0385   -0.0171    0.0078   -0.0302
          16   -0.0017   -0.0012    0.0006    0.0096    0.0049   -0.0017    0.0118   -0.0004
          17   -0.0014   -0.0026   -0.0002   -0.0055    0.0045   -0.0041    0.0109   -0.0044
          18    0.0040    0.0125   -0.0182   -0.0020    0.0384   -0.0174   -0.0078    0.0316
          19   -0.0490   -0.0126    0.0352    0.0522    0.0829   -0.0327    0.0645   -0.0535
          20    0.0373   -0.0164    0.0467   -0.0396   -0.0633   -0.0424   -0.0495    0.0048
          21   -0.0000   -0.0084   -0.0519   -0.0001    0.0001    0.0153    0.0002    0.0149
          22    0.0531    0.1513   -0.0173   -0.0144   -0.0888    0.0972    0.0846    0.1451
          23   -0.0982   -0.0146    0.0627    0.0386    0.0160    0.1122    0.0599    0.1261
          24    0.0536    0.0267   -0.0319   -0.0046   -0.0290   -0.0109    0.0002   -0.0017
          25   -0.0446    0.0142    0.0609   -0.0344    0.0846   -0.0633    0.0104   -0.0946
          26    0.1026    0.0315   -0.0525    0.0271    0.0047   -0.0843    0.0675   -0.0854
          27    0.0460    0.0194   -0.0292    0.0036   -0.0261   -0.0014    0.0096    0.0087
          28   -0.1109    0.0264   -0.0666   -0.0357    0.0177   -0.0644   -0.0625    0.0878
          29    0.0155    0.0219    0.0447    0.0259   -0.0832   -0.0840   -0.0284    0.1747
          30   -0.0460    0.0193   -0.0292   -0.0037    0.0261   -0.0014   -0.0096   -0.0079
          31    0.1090   -0.0542    0.0651   -0.0407   -0.0387    0.0829   -0.0348   -0.0588
          32   -0.0252    0.1420   -0.0002    0.0038    0.0818    0.1246   -0.0974   -0.1639
          33   -0.0537    0.0266   -0.0319    0.0045    0.0289   -0.0111   -0.0003   -0.0061
          34   -0.0105    0.0008    0.0746   -0.0430    0.0106   -0.0600    0.0214   -0.0045
          35    0.0080    0.0008    0.0979    0.0331   -0.0083   -0.0787   -0.0166    0.0024
          36   -0.0001    0.0068   -0.0899   -0.0004    0.0002    0.0786    0.0003   -0.0020
          37   -0.0180   -0.0301   -0.0073   -0.1124    0.0177    0.0005    0.0511   -0.0002
          38   -0.0062   -0.0332   -0.0129   -0.0638    0.0093    0.0069    0.0310   -0.0010
          39    0.0187    0.0760    0.0874    0.1435   -0.0206   -0.0544   -0.0675   -0.0071
          40    0.0012   -0.0241   -0.0108    0.0312   -0.0041    0.0067   -0.0161    0.0053
          41    0.0190   -0.0380   -0.0112    0.1251   -0.0194    0.0027   -0.0573    0.0097
          42   -0.0186    0.0764    0.0881   -0.1427    0.0203   -0.0548    0.0669   -0.0155
          43    0.0020   -0.0238   -0.0028    0.0282    0.0111   -0.0050    0.0253   -0.0088
          44    0.0144    0.0689    0.0197   -0.0773   -0.0326    0.0092   -0.1258    0.0245
          45    0.1484   -0.0627    0.0706   -0.0105    0.1598    0.0445   -0.0186    0.0593
          46   -0.0135    0.0728    0.0195    0.0826    0.0346    0.0095    0.1289    0.0014
          47   -0.0058   -0.0045    0.0027   -0.0065   -0.0020   -0.0024    0.0092   -0.0074
          48   -0.1482   -0.0631    0.0708    0.0109   -0.1593    0.0453    0.0188   -0.0605


   Root No.      17        18        19        20        21        22        23        24

                17 A      18 A      19 A      20 A      21 A      22 A      23 A      24 A   

                1075.2    1100.3    1122.4    1125.7    1163.3    1240.9    1267.7    1283.7
  
           1   -0.0184   -0.0069    0.0124    0.0107    0.0191    0.0211    0.0768   -0.0285
           2   -0.0263   -0.0090   -0.0099    0.0133    0.0251   -0.0161   -0.0584   -0.0375
           3    0.0050   -0.0072    0.0000   -0.0011    0.0425    0.0000    0.0000    0.0493
           4    0.0027    0.0034   -0.0183   -0.0240   -0.0103    0.0138   -0.0462   -0.0144
           5    0.0134   -0.0130   -0.0050    0.0192    0.0087    0.0134   -0.0073   -0.0256
           6    0.0055    0.0075   -0.0149   -0.0078   -0.0111    0.0007    0.0043   -0.0094
           7    0.0113   -0.0133   -0.0014    0.0249    0.0112   -0.0093   -0.0053   -0.0208
           8    0.0065   -0.0002    0.0199   -0.0169   -0.0077   -0.0170    0.0465   -0.0207
           9    0.0086    0.0075    0.0152   -0.0070   -0.0112   -0.0007   -0.0043   -0.0094
          10    0.0097    0.0035   -0.0060   -0.0025   -0.0067   -0.0051   -0.0159    0.0069
          11    0.0139    0.0046    0.0047   -0.0028   -0.0089    0.0039    0.0121    0.0091
          12   -0.0190   -0.0064   -0.0005    0.0196   -0.0328   -0.0000    0.0000   -0.0055
          13   -0.0174    0.0133    0.0057   -0.0210   -0.0089   -0.0025    0.0148    0.0153
          14   -0.0119    0.0160    0.0060   -0.0157   -0.0088    0.0269    0.0021    0.0192
          15    0.0091   -0.0017    0.0028    0.0021   -0.0013   -0.0017   -0.0012   -0.0005
          16   -0.0072    0.0118   -0.0037   -0.0099   -0.0061   -0.0265    0.0020    0.0145
          17   -0.0200    0.0170   -0.0057   -0.0248   -0.0109   -0.0047   -0.0149    0.0199
          18   -0.0024   -0.0017   -0.0030    0.0020   -0.0013    0.0017    0.0012   -0.0005
          19   -0.0734   -0.0617    0.2288    0.1260   -0.0549   -0.0653   -0.1351    0.0756
          20   -0.1111   -0.0804   -0.1803    0.1519   -0.0715    0.0497    0.1026    0.0991
          21    0.0698    0.0502    0.0032   -0.1192    0.1252    0.0000    0.0000   -0.0641
          22   -0.0216   -0.0771   -0.0171   -0.0090    0.0699   -0.0682   -0.0210    0.1102
          23    0.0367   -0.0755   -0.0569    0.0414    0.0407   -0.0767    0.0633    0.0056
          24   -0.0184    0.0088    0.0166   -0.0131    0.0090    0.0175   -0.0257    0.0275
          25    0.1402   -0.0380   -0.1077   -0.0359   -0.1074   -0.0817   -0.0151    0.0194
          26    0.1284   -0.0761   -0.0573    0.0456   -0.0139   -0.0886    0.0561   -0.0092
          27    0.0004   -0.0062    0.0008    0.0092    0.0235   -0.0065    0.0224   -0.0129
          28    0.0596   -0.0628    0.0232    0.0552    0.0154    0.0633   -0.0580   -0.0142
          29    0.1164   -0.0570    0.1192   -0.0154   -0.1072    0.1024   -0.0005    0.0162
          30    0.0035   -0.0061   -0.0013    0.0092    0.0235    0.0064   -0.0224   -0.0130
          31    0.0679   -0.0520    0.0478    0.0453    0.0203    0.0556   -0.0665   -0.0243
          32    0.0521   -0.0944    0.0315    0.0046    0.0780    0.0865    0.0033    0.1075
          33   -0.0176    0.0088   -0.0158   -0.0141    0.0091   -0.0174    0.0257    0.0276
          34   -0.0001   -0.0035    0.0186   -0.0134    0.0695    0.0027    0.0209    0.0476
          35   -0.0015   -0.0044   -0.0133   -0.0189    0.0914   -0.0021   -0.0160    0.0627
          36   -0.0109   -0.0006   -0.0008    0.0317   -0.1020    0.0000    0.0002   -0.0494
          37    0.0189    0.0017    0.0302   -0.0029    0.0040    0.0151    0.0480    0.0546
          38    0.0165    0.0033    0.0134   -0.0020   -0.0051    0.0095    0.0290    0.0293
          39   -0.0525   -0.0141   -0.0356    0.0084    0.0464   -0.0232   -0.0586   -0.0978
          40    0.0098    0.0027   -0.0048   -0.0014   -0.0061   -0.0050   -0.0150    0.0137
          41    0.0208    0.0027   -0.0326   -0.0052    0.0024   -0.0172   -0.0540    0.0603
          42   -0.0510   -0.0143    0.0353    0.0106    0.0464    0.0229    0.0583   -0.0981
          43   -0.0379   -0.0342   -0.0118   -0.0744   -0.0203    0.0441   -0.0041    0.0141
          44    0.0538    0.1825    0.0618    0.1590    0.0263   -0.1333    0.0670    0.0297
          45   -0.0140   -0.0008   -0.0078   -0.0078    0.0003    0.0040   -0.0014   -0.0032
          46    0.0661    0.1845   -0.0715    0.1693    0.0309    0.1400   -0.0656    0.0246
          47   -0.0212    0.0158   -0.0036   -0.0295   -0.0125   -0.0068   -0.0139    0.0216
          48    0.0083   -0.0007    0.0081   -0.0074    0.0003   -0.0039    0.0014   -0.0032


   Root No.      25        26        27        28        29        30        31        32

                25 A      26 A      27 A      28 A      29 A      30 A      31 A      32 A   

                1371.6    1371.7    1405.6    1406.6    1410.2    1414.3    1420.4    1829.4
  
           1   -0.0113   -0.0189   -0.0024    0.0015    0.0089   -0.0071    0.0331    0.0056
           2   -0.0039   -0.0280   -0.0032    0.0018   -0.0067    0.0059    0.0433    0.0074
           3    0.0028    0.0095    0.0023   -0.0048   -0.0000   -0.0003   -0.0402   -0.0020
           4   -0.0203    0.0407    0.0183   -0.0002   -0.0024    0.0066   -0.0188    0.0065
           5   -0.0107    0.0423   -0.0348    0.0021    0.0324   -0.0204   -0.0131   -0.0181
           6    0.0000   -0.0037    0.0005    0.0004   -0.0007    0.0003    0.0064    0.0004
           7    0.0202    0.0226   -0.0387    0.0015   -0.0317    0.0215   -0.0080   -0.0192
           8    0.0463    0.0306    0.0082    0.0002   -0.0065   -0.0013   -0.0215    0.0014
           9   -0.0020   -0.0031    0.0005    0.0004    0.0007   -0.0002    0.0064    0.0004
          10   -0.0028   -0.0049   -0.0015   -0.0232   -0.0144   -0.0157   -0.0290   -0.0007
          11   -0.0011   -0.0072   -0.0017   -0.0305    0.0111    0.0115   -0.0385   -0.0009
          12    0.0051    0.0177    0.0030   -0.0185    0.0000    0.0003    0.0585    0.0012
          13    0.0101   -0.0167    0.0093   -0.0004   -0.0052    0.0018    0.0035   -0.1683
          14    0.0333   -0.0255    0.0075   -0.0009   -0.0269    0.0149    0.0022    0.1600
          15   -0.0010    0.0010   -0.0006   -0.0001    0.0009   -0.0006   -0.0005   -0.0010
          16   -0.0356   -0.0013    0.0050   -0.0003    0.0245   -0.0139    0.0015    0.1991
          17   -0.0281   -0.0093    0.0111   -0.0004    0.0121   -0.0057    0.0040   -0.1194
          18    0.0014    0.0004   -0.0006   -0.0001   -0.0009    0.0006   -0.0005   -0.0010
          19    0.0238    0.0077    0.0086   -0.0044   -0.0343    0.0157   -0.0447    0.0010
          20   -0.0098    0.0221    0.0116   -0.0050    0.0259   -0.0126   -0.0583    0.0012
          21   -0.0079   -0.0267   -0.0098    0.0001    0.0001    0.0003    0.0431    0.0051
          22    0.0890   -0.0931   -0.0923    0.0014    0.0308   -0.0346    0.0157   -0.0186
          23   -0.0479   -0.0310    0.1074   -0.0067   -0.0605    0.0474    0.0123   -0.0301
          24    0.0663   -0.0168   -0.1249    0.0057    0.0649   -0.0543    0.0043    0.0015
          25    0.0931   -0.1190   -0.1052    0.0051    0.0319   -0.0420    0.0637   -0.0183
          26   -0.0496   -0.0359    0.1132   -0.0087   -0.0661    0.0500    0.0174   -0.0281
          27   -0.0649    0.0261    0.1200   -0.0067   -0.0595    0.0529   -0.0143    0.0013
          28    0.0601   -0.0410    0.1375   -0.0086    0.0713   -0.0601    0.0009   -0.0222
          29   -0.1318   -0.0636   -0.0708    0.0028   -0.0123    0.0284    0.0652   -0.0251
          30    0.0691   -0.0127    0.1201   -0.0059    0.0586   -0.0536   -0.0132    0.0013
          31    0.0566   -0.0415    0.1284   -0.0058    0.0656   -0.0554    0.0088   -0.0241
          32   -0.1145   -0.0435   -0.0599   -0.0004   -0.0129    0.0212    0.0179   -0.0260
          33   -0.0652    0.0213   -0.1252    0.0046   -0.0640    0.0549    0.0031    0.0015
          34    0.0423    0.0481    0.0115   -0.0801    0.1221    0.1734    0.1040    0.0009
          35    0.0016    0.0786    0.0126   -0.1067   -0.0922   -0.1305    0.1413    0.0013
          36   -0.0144   -0.0491   -0.0079    0.0648    0.0001   -0.0001   -0.0897   -0.0004
          37    0.0180    0.0464    0.0205    0.3484    0.0347    0.0441    0.0643    0.0009
          38    0.0054    0.0160    0.0069    0.0952    0.0164    0.0160    0.0047   -0.0001
          39   -0.0040   -0.1089   -0.0158    0.1039    0.0801    0.1262   -0.1471   -0.0001
          40    0.0014    0.0028    0.0011   -0.0027   -0.0062   -0.0034   -0.0125   -0.0004
          41    0.0112    0.0509    0.0208    0.3608   -0.0402   -0.0457    0.0641    0.0008
          42   -0.0555   -0.0945   -0.0175    0.1029   -0.0806   -0.1276   -0.1444   -0.0002
          43    0.0379   -0.0203    0.0141   -0.0008   -0.0260    0.0140    0.0004   -0.1393
          44   -0.0612   -0.0177   -0.0021    0.0001    0.0438   -0.0268    0.0125   -0.0966
          45    0.0009    0.0010   -0.0001    0.0000   -0.0007    0.0006    0.0005    0.0063
          46    0.0518   -0.0466   -0.0062   -0.0007   -0.0491    0.0298    0.0114   -0.0559
          47   -0.0301   -0.0097    0.0132   -0.0005    0.0133   -0.0064    0.0038   -0.1600
          48   -0.0002    0.0013   -0.0001    0.0000    0.0007   -0.0006    0.0006    0.0062


   Root No.      33        34        35        36        37        38        39        40

                33 A      34 A      35 A      36 A      37 A      38 A      39 A      40 A   

                2904.1    2972.3    2973.6    3051.1    3052.0    3078.2    3083.2    3115.9
  
           1   -0.0201    0.0001   -0.0013   -0.0006    0.0001   -0.0006   -0.0003   -0.0001
           2   -0.0264   -0.0001   -0.0017    0.0005    0.0001   -0.0007    0.0002    0.0001
           3   -0.0501   -0.0000   -0.0034   -0.0000   -0.0004   -0.0014   -0.0000    0.0000
           4   -0.0008    0.0010   -0.0011   -0.0129    0.0131    0.0004    0.0001    0.0002
           5    0.0004   -0.0000    0.0001    0.0164   -0.0167   -0.0003    0.0003   -0.0001
           6    0.0053    0.0301   -0.0292    0.0016   -0.0016   -0.0003   -0.0005   -0.0001
           7    0.0006    0.0003    0.0004   -0.0201   -0.0189   -0.0004   -0.0003    0.0001
           8   -0.0007   -0.0010   -0.0010    0.0083    0.0079    0.0003   -0.0002   -0.0002
           9    0.0053   -0.0308   -0.0285   -0.0017   -0.0016   -0.0003    0.0005    0.0001
          10    0.0013   -0.0000    0.0000    0.0002    0.0003   -0.0232   -0.0456   -0.0001
          11    0.0017    0.0000    0.0000   -0.0001    0.0004   -0.0310    0.0344    0.0001
          12    0.0010    0.0000    0.0003    0.0000    0.0006   -0.0316   -0.0002    0.0000
          13    0.0002   -0.0000    0.0000    0.0007   -0.0009   -0.0001   -0.0001    0.0365
          14    0.0001   -0.0000    0.0001    0.0004   -0.0007   -0.0000   -0.0000    0.0106
          15   -0.0000   -0.0001   -0.0002   -0.0000    0.0000   -0.0000    0.0000   -0.0011
          16    0.0001    0.0000    0.0001   -0.0002   -0.0004   -0.0000    0.0000   -0.0004
          17    0.0002    0.0000    0.0000   -0.0008   -0.0010   -0.0001    0.0001   -0.0379
          18   -0.0000    0.0001   -0.0002    0.0000    0.0000   -0.0000   -0.0000    0.0011
          19    0.2404   -0.0025    0.0171   -0.0010    0.0026    0.0043   -0.0011   -0.0001
          20    0.3162    0.0023    0.0224    0.0009    0.0033    0.0056    0.0009    0.0001
          21    0.6063    0.0005    0.0384    0.0001    0.0059    0.0178    0.0001    0.0000
          22    0.0116    0.0815   -0.0790    0.0846   -0.0845   -0.0025    0.0001   -0.0007
          23   -0.0221   -0.1092    0.1057   -0.1145    0.1146    0.0032    0.0002    0.0034
          24   -0.0334   -0.1626    0.1570   -0.2020    0.2020    0.0057   -0.0000    0.0040
          25   -0.0116   -0.0959    0.0934    0.0743   -0.0739   -0.0002    0.0029   -0.0004
          26    0.0163    0.1093   -0.1065   -0.0832    0.0830    0.0009   -0.0012    0.0026
          27   -0.0299   -0.1993    0.1939    0.1827   -0.1823   -0.0037    0.0032   -0.0035
          28    0.0188   -0.1341   -0.1246    0.1038    0.0958    0.0010    0.0020   -0.0026
          29   -0.0068    0.0647    0.0601   -0.0512   -0.0471    0.0001   -0.0025   -0.0003
          30   -0.0300    0.2043    0.1894   -0.1897   -0.1752   -0.0037   -0.0034    0.0035
          31   -0.0244    0.1300    0.1200    0.1383    0.1281    0.0038   -0.0000   -0.0035
          32    0.0052   -0.0504   -0.0466   -0.0529   -0.0488   -0.0015   -0.0002   -0.0003
          33   -0.0334    0.1663    0.1531    0.2100    0.1944    0.0057    0.0001   -0.0040
          34   -0.0074    0.0004   -0.0010   -0.0003   -0.0026    0.1400   -0.0228   -0.0001
          35   -0.0098   -0.0003   -0.0014    0.0000   -0.0034    0.1854    0.0187    0.0000
          36   -0.0135   -0.0000   -0.0012   -0.0002   -0.0077    0.3995    0.0019   -0.0000
          37    0.0051    0.0010    0.0007   -0.0008    0.0010   -0.0814    0.1172    0.0002
          38   -0.0098   -0.0026   -0.0029    0.0018   -0.0015    0.2068   -0.4330   -0.0008
          39   -0.0031    0.0000   -0.0000    0.0002    0.0002   -0.0104   -0.0125   -0.0000
          40   -0.0108    0.0027   -0.0031   -0.0021   -0.0017    0.2181    0.4500    0.0008
          41    0.0023   -0.0002   -0.0001    0.0003    0.0005   -0.0227    0.0040    0.0000
          42   -0.0031   -0.0000   -0.0000   -0.0002    0.0002   -0.0101    0.0132    0.0000
          43    0.0021   -0.0001   -0.0002   -0.0039    0.0154    0.0010    0.0008   -0.4325
          44    0.0010   -0.0000   -0.0000   -0.0003    0.0033    0.0003    0.0002   -0.1276
          45   -0.0000    0.0003   -0.0010    0.0001   -0.0005   -0.0000   -0.0000    0.0136
          46    0.0004    0.0000    0.0000   -0.0008   -0.0009   -0.0000    0.0000    0.0073
          47    0.0023    0.0001   -0.0002    0.0045    0.0155    0.0010   -0.0008    0.4507
          48   -0.0000   -0.0003   -0.0010   -0.0001   -0.0005   -0.0000    0.0000   -0.0136


   Root No.      41        42

                41 A      42 A   

                3135.0    3178.7
  
           1    0.0006   -0.0003
           2    0.0008   -0.0004
           3    0.0001    0.0003
           4   -0.0012   -0.0000
           5    0.0019    0.0001
           6    0.0000   -0.0002
           7    0.0021    0.0001
           8   -0.0007    0.0000
           9    0.0000   -0.0002
          10    0.0000   -0.0098
          11    0.0000   -0.0129
          12    0.0001    0.0185
          13   -0.0402   -0.0000
          14   -0.0063    0.0000
          15    0.0011   -0.0000
          16    0.0047    0.0000
          17   -0.0404   -0.0000
          18    0.0011    0.0000
          19   -0.0007    0.0003
          20   -0.0010    0.0004
          21   -0.0019    0.0028
          22    0.0044    0.0002
          23   -0.0080   -0.0003
          24   -0.0123   -0.0007
          25    0.0039    0.0002
          26   -0.0062   -0.0014
          27    0.0116    0.0027
          28   -0.0070   -0.0014
          29    0.0021   -0.0001
          30    0.0116    0.0027
          31   -0.0089   -0.0003
          32    0.0021    0.0001
          33   -0.0123   -0.0007
          34   -0.0002   -0.1027
          35   -0.0002   -0.1360
          36   -0.0005   -0.2608
          37    0.0001   -0.1024
          38   -0.0005    0.3089
          39    0.0000    0.0167
          40   -0.0005    0.3255
          41    0.0000   -0.0152
          42    0.0000    0.0174
          43    0.4086    0.0001
          44    0.1179    0.0000
          45   -0.0127   -0.0000
          46    0.0044    0.0000
          47    0.4254    0.0001
          48   -0.0128   -0.0000


           MASS-WEIGHTED COORDINATE ANALYSIS (NORMAL COORDINATES)


   Root No.       1         2         3         4         5         6         7         8

                 1 A       2 A       3 A       4 A       5 A       6 A       7 A       8 A   

                  75.4     200.5     345.6     385.1     442.6     650.2     739.3     766.4
  
           1    0.0472    0.0402   -0.1641   -0.1932    0.0129    0.2581    0.0742    0.2207
           2    0.0630   -0.0298    0.1246    0.1468    0.0172    0.3396    0.0982   -0.1675
           3    0.0925   -0.0008    0.0000   -0.0006    0.4587    0.2404    0.1264    0.0002
           4    0.0457    0.0414   -0.1712   -0.2082    0.0143    0.2698    0.0974   -0.0343
           5    0.0663    0.0267   -0.0211   -0.0123    0.1268   -0.2516   -0.0602   -0.3118
           6    0.3389    0.0644    0.0189    0.2387   -0.1553    0.0608   -0.1286    0.0076
           7    0.0520   -0.0145   -0.0253   -0.0441    0.1182   -0.3148   -0.0847    0.2910
           8    0.0628   -0.0464    0.1706    0.2038    0.0477    0.1928    0.0775    0.1166
           9    0.3400   -0.0565   -0.0193   -0.2384   -0.1564    0.0609   -0.1285   -0.0080
          10   -0.1942   -0.0005    0.2501    0.3018   -0.2764    0.1150   -0.0096    0.0580
          11   -0.2556   -0.0012   -0.1902   -0.2288   -0.3641    0.1510   -0.0126   -0.0439
          12   -0.2313   -0.0029    0.0002   -0.0002    0.1365   -0.1609    0.0490    0.0000
          13    0.0361   -0.0165   -0.0106   -0.0295    0.0979   -0.1485   -0.0303   -0.5417
          14    0.0464    0.0456   -0.0642   -0.1013    0.1346   -0.2256   -0.0496   -0.1117
          15   -0.2849    0.0523    0.4388   -0.1958   -0.0555    0.0127   -0.1728    0.0138
          16    0.0360   -0.0484    0.0592    0.0895    0.1033   -0.1776   -0.0397   -0.0373
          17    0.0472    0.0036    0.0274    0.0553    0.1305   -0.2036   -0.0438    0.5517
          18   -0.2842   -0.0573   -0.4386    0.1960   -0.0552    0.0126   -0.1727   -0.0142
          19    0.0678    0.0205   -0.0824   -0.0642   -0.0151    0.1149    0.0103    0.0308
          20    0.0897   -0.0141    0.0626    0.0489   -0.0199    0.1512    0.0137   -0.0233
          21   -0.0330   -0.0008    0.0000   -0.0002    0.1460    0.0221    0.0484    0.0001
          22    0.0566    0.0293   -0.0721   -0.0206   -0.1359   -0.0352    0.0301    0.0493
          23   -0.1115    0.0113    0.1037   -0.1771    0.1414   -0.0191   -0.2049   -0.0644
          24    0.2034    0.0246   -0.0781    0.2029   -0.1828   -0.0771    0.0889    0.0097
          25   -0.0310    0.0084   -0.0520   -0.1228    0.1316    0.1553    0.0212    0.0343
          26    0.1571    0.0136   -0.1484    0.1488   -0.0717   -0.1845    0.1685   -0.0719
          27    0.1933    0.0234   -0.0706    0.1862   -0.1688   -0.0808    0.0716   -0.0044
          28    0.1600   -0.0072    0.1291   -0.1760   -0.1048   -0.2195    0.1566    0.0788
          29    0.0124   -0.0126    0.0899    0.0782    0.1077    0.1003    0.0661   -0.0137
          30    0.1937   -0.0184    0.0704   -0.1857   -0.1694   -0.0808    0.0715    0.0046
          31   -0.1225   -0.0066   -0.1190    0.1647    0.1731   -0.0091   -0.2056    0.0747
          32    0.0254   -0.0302    0.0418    0.0674   -0.0933   -0.0391   -0.0261   -0.0305
          33    0.2039   -0.0193    0.0779   -0.2026   -0.1836   -0.0771    0.0888   -0.0095
          34   -0.1186    0.4463    0.1069    0.1610   -0.1743   -0.0462   -0.0604   -0.0210
          35   -0.1473   -0.3386   -0.0813   -0.1219   -0.2333   -0.0607   -0.0797    0.0159
          36   -0.0117   -0.0002    0.0001   -0.0000    0.1252    0.0256    0.0668   -0.0000
          37   -0.0510   -0.4667    0.1678    0.1791   -0.0847    0.0350   -0.0053   -0.0522
          38   -0.0721   -0.1371   -0.0285   -0.0414   -0.1081    0.0440   -0.0051   -0.0329
          39   -0.1296   -0.3004   -0.0845   -0.1301   -0.0699   -0.1504   -0.0492    0.0757
          40   -0.0558    0.0052    0.0724    0.0879   -0.0811    0.0333   -0.0034    0.0177
          41   -0.0777    0.4865   -0.1540   -0.1611   -0.1067    0.0458   -0.0062    0.0590
          42   -0.1353    0.2976    0.0846    0.1302   -0.0673   -0.1508   -0.0490   -0.0757
          43    0.0081   -0.0079    0.0117    0.0028    0.0322   -0.0696   -0.0037   -0.1346
          44    0.0096    0.0258   -0.0497   -0.0793    0.0262    0.0160    0.0356   -0.1131
          45   -0.1922    0.0323    0.3128   -0.1543   -0.0130   -0.1063    0.5684    0.0041
          46    0.0077   -0.0270    0.0512    0.0772    0.0166    0.0342    0.0349    0.0728
          47    0.0104    0.0006    0.0020    0.0184    0.0381   -0.0628    0.0056    0.1599
          48   -0.1918   -0.0360   -0.3126    0.1543   -0.0127   -0.1065    0.5684   -0.0028


   Root No.       9        10        11        12        13        14        15        16

                 9 A      10 A      11 A      12 A      13 A      14 A      15 A      16 A   

                 865.5     896.3     928.8     952.2     989.4    1020.8    1032.1    1074.9
  
           1    0.0057   -0.0707   -0.0899    0.1486    0.0427   -0.0379    0.0531   -0.0838
           2   -0.0043   -0.0931   -0.1179   -0.1137   -0.0327   -0.0490   -0.0409   -0.0109
           3    0.0001   -0.1312   -0.0562   -0.0004   -0.0003   -0.1671   -0.0004    0.0083
           4    0.0206    0.3982    0.1145   -0.2379   -0.0405    0.0210    0.0046    0.0158
           5   -0.0235   -0.0966   -0.0046    0.2090    0.0673    0.0179    0.1803    0.0055
           6   -0.3293   -0.1765    0.2486   -0.0119    0.1710    0.1512   -0.1329    0.0835
           7    0.0285   -0.1992   -0.0338   -0.2651   -0.0755    0.0131   -0.1722    0.0423
           8   -0.0142    0.3574    0.1082    0.1742    0.0210    0.0249   -0.0527    0.0069
           9    0.3298   -0.1760    0.2486    0.0130   -0.1699    0.1517    0.1339   -0.0566
          10    0.0150   -0.1791   -0.1216    0.2666   -0.0400    0.0800   -0.1662    0.0446
          11   -0.0112   -0.2350   -0.1585   -0.2035    0.0308    0.1045    0.1271    0.0059
          12   -0.0002    0.2181   -0.1170    0.0001    0.0001    0.1685    0.0001   -0.0341
          13    0.0082   -0.0172   -0.0037    0.0676   -0.0270   -0.0346   -0.0760   -0.0290
          14    0.0185   -0.0141    0.0058   -0.0664   -0.0533   -0.0269   -0.1472   -0.0311
          15   -0.0367    0.0952   -0.1845    0.0165   -0.3465   -0.1717    0.0799   -0.2607
          16   -0.0155   -0.0092    0.0062    0.0822    0.0440   -0.0175    0.1215   -0.0039
          17   -0.0126   -0.0201   -0.0017   -0.0474    0.0402   -0.0410    0.1123   -0.0376
          18    0.0365    0.0954   -0.1846   -0.0175    0.3453   -0.1745   -0.0806    0.2724
          19   -0.1303   -0.0278    0.1038    0.1296    0.2160   -0.0948    0.1919   -0.1335
          20    0.0993   -0.0363    0.1374   -0.0982   -0.1649   -0.1230   -0.1474    0.0121
          21   -0.0001   -0.0185   -0.1529   -0.0003    0.0002    0.0444    0.0006    0.0371
          22    0.1413    0.3345   -0.0511   -0.0356   -0.2316    0.2821    0.2520    0.3624
          23   -0.2613   -0.0323    0.1847    0.0959    0.0418    0.3257    0.1784    0.3150
          24    0.1425    0.0590   -0.0941   -0.0115   -0.0755   -0.0316    0.0007   -0.0041
          25   -0.1187    0.0313    0.1793   -0.0854    0.2206   -0.1838    0.0308   -0.2362
          26    0.2729    0.0697   -0.1545    0.0674    0.0121   -0.2446    0.2011   -0.2132
          27    0.1222    0.0428   -0.0860    0.0090   -0.0681   -0.0040    0.0287    0.0218
          28   -0.2949    0.0583   -0.1962   -0.0887    0.0462   -0.1870   -0.1862    0.2194
          29    0.0413    0.0484    0.1317    0.0643   -0.2168   -0.2436   -0.0845    0.4362
          30   -0.1223    0.0426   -0.0859   -0.0092    0.0679   -0.0040   -0.0286   -0.0198
          31    0.2898   -0.1198    0.1917   -0.1009   -0.1009    0.2404   -0.1035   -0.1469
          32   -0.0670    0.3139   -0.0005    0.0094    0.2132    0.3614   -0.2899   -0.4094
          33   -0.1428    0.0588   -0.0941    0.0111    0.0753   -0.0321   -0.0008   -0.0152
          34   -0.0278    0.0017    0.2197   -0.1066    0.0276   -0.1740    0.0636   -0.0111
          35    0.0214    0.0017    0.2884    0.0823   -0.0216   -0.2285   -0.0495    0.0061
          36   -0.0002    0.0151   -0.2647   -0.0011    0.0004    0.2279    0.0009   -0.0049
          37   -0.0478   -0.0665   -0.0214   -0.2790    0.0461    0.0014    0.1520   -0.0005
          38   -0.0166   -0.0734   -0.0380   -0.1584    0.0242    0.0199    0.0924   -0.0024
          39    0.0497    0.1679    0.2573    0.3562   -0.0536   -0.1579   -0.2010   -0.0176
          40    0.0032   -0.0533   -0.0319    0.0775   -0.0108    0.0194   -0.0480    0.0133
          41    0.0505   -0.0840   -0.0330    0.3105   -0.0507    0.0077   -0.1707    0.0241
          42   -0.0496    0.1689    0.2595   -0.3543    0.0529   -0.1590    0.1994   -0.0388
          43    0.0053   -0.0526   -0.0081    0.0701    0.0290   -0.0146    0.0754   -0.0221
          44    0.0384    0.1523    0.0581   -0.1918   -0.0850    0.0268   -0.3747    0.0613
          45    0.3946   -0.1385    0.2080   -0.0261    0.4165    0.1292   -0.0555    0.1481
          46   -0.0358    0.1609    0.0573    0.2050    0.0903    0.0275    0.3837    0.0035
          47   -0.0154   -0.0099    0.0078   -0.0162   -0.0053   -0.0069    0.0274   -0.0184
          48   -0.3943   -0.1395    0.2086    0.0270   -0.4152    0.1316    0.0560   -0.1511


   Root No.      17        18        19        20        21        22        23        24

                17 A      18 A      19 A      20 A      21 A      22 A      23 A      24 A   

                1075.2    1100.3    1122.4    1125.7    1163.3    1240.9    1267.7    1283.7
  
           1   -0.1700   -0.0637    0.1088    0.0885    0.1697    0.1995    0.5373   -0.2329
           2   -0.2436   -0.0830   -0.0864    0.1097    0.2235   -0.1518   -0.4087   -0.3058
           3    0.0464   -0.0671    0.0004   -0.0095    0.3779    0.0003    0.0001    0.4023
           4    0.0254    0.0316   -0.1602   -0.1983   -0.0921    0.1305   -0.3236   -0.1175
           5    0.1240   -0.1203   -0.0436    0.1583    0.0776    0.1267   -0.0514   -0.2091
           6    0.0513    0.0697   -0.1300   -0.0645   -0.0991    0.0065    0.0303   -0.0769
           7    0.1050   -0.1232   -0.0125    0.2054    0.0996   -0.0881   -0.0371   -0.1700
           8    0.0599   -0.0019    0.1736   -0.1397   -0.0684   -0.1604    0.3258   -0.1690
           9    0.0796    0.0692    0.1333   -0.0574   -0.0993   -0.0065   -0.0303   -0.0768
          10    0.0898    0.0326   -0.0527   -0.0203   -0.0598   -0.0482   -0.1113    0.0567
          11    0.1284    0.0424    0.0407   -0.0234   -0.0787    0.0369    0.0848    0.0746
          12   -0.1754   -0.0596   -0.0044    0.1620   -0.2923   -0.0000    0.0000   -0.0448
          13   -0.1613    0.1228    0.0494   -0.1730   -0.0793   -0.0233    0.1039    0.1250
          14   -0.1098    0.1479    0.0521   -0.1300   -0.0781    0.2536    0.0145    0.1570
          15    0.0842   -0.0159    0.0248    0.0175   -0.0116   -0.0164   -0.0086   -0.0037
          16   -0.0670    0.1089   -0.0324   -0.0815   -0.0541   -0.2500    0.0138    0.1185
          17   -0.1849    0.1576   -0.0497   -0.2046   -0.0972   -0.0444   -0.1040    0.1627
          18   -0.0220   -0.0157   -0.0260    0.0161   -0.0112    0.0163    0.0086   -0.0037
          19   -0.1967   -0.1655    0.5793    0.3014   -0.1414   -0.1785   -0.2739    0.1788
          20   -0.2977   -0.2158   -0.4566    0.3633   -0.1843    0.1358    0.2080    0.2345
          21    0.1871    0.1347    0.0080   -0.2852    0.3226    0.0000    0.0001   -0.1515
          22   -0.0580   -0.2070   -0.0432   -0.0215    0.1803   -0.1864   -0.0425    0.2606
          23    0.0985   -0.2026   -0.1442    0.0990    0.1048   -0.2097    0.1283    0.0132
          24   -0.0492    0.0237    0.0420   -0.0314    0.0233    0.0478   -0.0522    0.0649
          25    0.3757   -0.1021   -0.2727   -0.0859   -0.2769   -0.2233   -0.0305    0.0459
          26    0.3441   -0.2042   -0.1451    0.1091   -0.0358   -0.2420    0.1137   -0.0218
          27    0.0012   -0.0166    0.0021    0.0220    0.0605   -0.0179    0.0455   -0.0305
          28    0.1597   -0.1685    0.0587    0.1320    0.0397    0.1730   -0.1177   -0.0337
          29    0.3121   -0.1528    0.3019   -0.0368   -0.2762    0.2799   -0.0011    0.0382
          30    0.0094   -0.0164   -0.0033    0.0220    0.0604    0.0176   -0.0454   -0.0307
          31    0.1819   -0.1394    0.1212    0.1084    0.0524    0.1519   -0.1349   -0.0574
          32    0.1395   -0.2533    0.0798    0.0109    0.2010    0.2364    0.0067    0.2542
          33   -0.0473    0.0236   -0.0400   -0.0337    0.0234   -0.0476    0.0522    0.0652
          34   -0.0002   -0.0093    0.0471   -0.0321    0.1790    0.0074    0.0423    0.1126
          35   -0.0041   -0.0118   -0.0336   -0.0451    0.2356   -0.0057   -0.0324    0.1482
          36   -0.0293   -0.0015   -0.0021    0.0758   -0.2629    0.0001    0.0003   -0.1170
          37    0.0505    0.0046    0.0766   -0.0069    0.0104    0.0414    0.0973    0.1291
          38    0.0443    0.0087    0.0339   -0.0048   -0.0130    0.0259    0.0587    0.0693
          39   -0.1408   -0.0378   -0.0902    0.0202    0.1196   -0.0633   -0.1189   -0.2313
          40    0.0262    0.0074   -0.0121   -0.0035   -0.0158   -0.0138   -0.0304    0.0324
          41    0.0558    0.0072   -0.0826   -0.0125    0.0061   -0.0469   -0.1094    0.1425
          42   -0.1368   -0.0384    0.0894    0.0252    0.1196    0.0627    0.1181   -0.2319
          43   -0.1017   -0.0918   -0.0298   -0.1780   -0.0523    0.1206   -0.0084    0.0334
          44    0.1441    0.4897    0.1565    0.3803    0.0679   -0.3644    0.1358    0.0703
          45   -0.0375   -0.0021   -0.0197   -0.0188    0.0009    0.0109   -0.0028   -0.0076
          46    0.1772    0.4952   -0.1810    0.4049    0.0796    0.3825   -0.1329    0.0581
          47   -0.0568    0.0424   -0.0090   -0.0706   -0.0322   -0.0186   -0.0282    0.0511
          48    0.0221   -0.0020    0.0206   -0.0176    0.0007   -0.0108    0.0027   -0.0076


   Root No.      25        26        27        28        29        30        31        32

                25 A      26 A      27 A      28 A      29 A      30 A      31 A      32 A   

                1371.6    1371.7    1405.6    1406.6    1410.2    1414.3    1420.4    1829.4
  
           1   -0.0948   -0.1597   -0.0191    0.0092    0.0853   -0.0666    0.2310    0.0167
           2   -0.0329   -0.2369   -0.0256    0.0107   -0.0641    0.0550    0.3027    0.0220
           3    0.0237    0.0804    0.0182   -0.0289   -0.0003   -0.0026   -0.2807   -0.0058
           4   -0.1706    0.3439    0.1447   -0.0013   -0.0229    0.0622   -0.1312    0.0193
           5   -0.0895    0.3575   -0.2744    0.0127    0.3106   -0.1913   -0.0916   -0.0537
           6    0.0002   -0.0314    0.0037    0.0025   -0.0065    0.0031    0.0445    0.0013
           7    0.1693    0.1908   -0.3050    0.0090   -0.3033    0.2015   -0.0560   -0.0569
           8    0.3885    0.2582    0.0646    0.0011   -0.0624   -0.0119   -0.1504    0.0043
           9   -0.0171   -0.0263    0.0038    0.0025    0.0066   -0.0023    0.0445    0.0013
          10   -0.0239   -0.0413   -0.0115   -0.1401   -0.1380   -0.1476   -0.2026   -0.0020
          11   -0.0089   -0.0604   -0.0131   -0.1841    0.1060    0.1082   -0.2691   -0.0027
          12    0.0432    0.1491    0.0239   -0.1119    0.0004    0.0029    0.4085    0.0036
          13    0.0851   -0.1408    0.0735   -0.0027   -0.0497    0.0169    0.0241   -0.4986
          14    0.2790   -0.2156    0.0593   -0.0056   -0.2579    0.1402    0.0157    0.4740
          15   -0.0081    0.0087   -0.0045   -0.0003    0.0083   -0.0056   -0.0037   -0.0031
          16   -0.2988   -0.0111    0.0394   -0.0017    0.2351   -0.1306    0.0104    0.5901
          17   -0.2358   -0.0787    0.0879   -0.0025    0.1163   -0.0537    0.0280   -0.3537
          18    0.0115    0.0031   -0.0046   -0.0004   -0.0083    0.0056   -0.0038   -0.0029
          19    0.0578    0.0189    0.0196   -0.0076   -0.0953    0.0427   -0.0904    0.0008
          20   -0.0238    0.0542    0.0265   -0.0088    0.0719   -0.0344   -0.1181    0.0010
          21   -0.0192   -0.0653   -0.0224    0.0002    0.0003    0.0009    0.0872    0.0044
          22    0.2162   -0.2278   -0.2108    0.0025    0.0854   -0.0942    0.0318   -0.0160
          23   -0.1165   -0.0758    0.2455   -0.0118   -0.1678    0.1291    0.0250   -0.0258
          24    0.1612   -0.0410   -0.2855    0.0099    0.1801   -0.1476    0.0086    0.0013
          25    0.2263   -0.2911   -0.2403    0.0089    0.0884   -0.1143    0.1289   -0.0157
          26   -0.1204   -0.0878    0.2586   -0.0153   -0.1833    0.1361    0.0351   -0.0241
          27   -0.1578    0.0639    0.2742   -0.0118   -0.1652    0.1439   -0.0290    0.0011
          28    0.1461   -0.1004    0.3142   -0.0150    0.1978   -0.1635    0.0018   -0.0191
          29   -0.3203   -0.1558   -0.1617    0.0049   -0.0341    0.0772    0.1321   -0.0216
          30    0.1680   -0.0310    0.2745   -0.0103    0.1627   -0.1459   -0.0267    0.0011
          31    0.1375   -0.1015    0.2934   -0.0102    0.1821   -0.1508    0.0178   -0.0207
          32   -0.2783   -0.1065   -0.1369   -0.0007   -0.0357    0.0576    0.0362   -0.0223
          33   -0.1586    0.0522   -0.2860    0.0081   -0.1777    0.1493    0.0063    0.0013
          34    0.1028    0.1177    0.0262   -0.1402    0.3388    0.4719    0.2105    0.0008
          35    0.0040    0.1924    0.0288   -0.1867   -0.2559   -0.3551    0.2860    0.0011
          36   -0.0349   -0.1203   -0.0181    0.1135    0.0002   -0.0003   -0.1817   -0.0003
          37    0.0437    0.1136    0.0468    0.6097    0.0963    0.1200    0.1302    0.0008
          38    0.0131    0.0393    0.0158    0.1667    0.0454    0.0435    0.0095   -0.0001
          39   -0.0098   -0.2665   -0.0361    0.1818    0.2224    0.3435   -0.2977   -0.0001
          40    0.0034    0.0068    0.0024   -0.0048   -0.0173   -0.0093   -0.0254   -0.0003
          41    0.0271    0.1245    0.0475    0.6315   -0.1117   -0.1245    0.1297    0.0007
          42   -0.1350   -0.2312   -0.0400    0.1801   -0.2237   -0.3473   -0.2922   -0.0001
          43    0.0920   -0.0496    0.0323   -0.0014   -0.0722    0.0382    0.0008   -0.1195
          44   -0.1488   -0.0433   -0.0048    0.0001    0.1217   -0.0730    0.0253   -0.0829
          45    0.0021    0.0024   -0.0003    0.0001   -0.0019    0.0015    0.0011    0.0054
          46    0.1260   -0.1141   -0.0142   -0.0012   -0.1362    0.0810    0.0230   -0.0480
          47   -0.0731   -0.0237    0.0302   -0.0008    0.0369   -0.0173    0.0077   -0.1373
          48   -0.0004    0.0031   -0.0003    0.0001    0.0019   -0.0015    0.0011    0.0054


   Root No.      33        34        35        36        37        38        39        40

                33 A      34 A      35 A      36 A      37 A      38 A      39 A      40 A   

                2904.1    2972.3    2973.6    3051.1    3052.0    3078.2    3083.2    3115.9
  
           1   -0.0914    0.0008   -0.0097   -0.0045    0.0007   -0.0033   -0.0014   -0.0004
           2   -0.1202   -0.0008   -0.0127    0.0034    0.0008   -0.0044    0.0010    0.0003
           3   -0.2280   -0.0003   -0.0251   -0.0001   -0.0032   -0.0082   -0.0001    0.0000
           4   -0.0039    0.0074   -0.0081   -0.0920    0.0974    0.0024    0.0007    0.0012
           5    0.0016   -0.0002    0.0005    0.1175   -0.1241   -0.0019    0.0016   -0.0005
           6    0.0241    0.2123   -0.2161    0.0115   -0.0122   -0.0019   -0.0025   -0.0003
           7    0.0026    0.0022    0.0027   -0.1434   -0.1402   -0.0025   -0.0014    0.0008
           8   -0.0033   -0.0073   -0.0076    0.0595    0.0584    0.0018   -0.0011   -0.0010
           9    0.0241   -0.2174   -0.2109   -0.0121   -0.0119   -0.0019    0.0025    0.0003
          10    0.0059   -0.0003    0.0002    0.0012    0.0024   -0.1370   -0.2364   -0.0005
          11    0.0077    0.0002    0.0002   -0.0008    0.0032   -0.1829    0.1782    0.0004
          12    0.0047    0.0000    0.0020    0.0001    0.0042   -0.1866   -0.0011    0.0000
          13    0.0010   -0.0001    0.0000    0.0048   -0.0070   -0.0003   -0.0003    0.1894
          14    0.0005   -0.0002    0.0004    0.0026   -0.0049   -0.0001   -0.0001    0.0549
          15   -0.0002   -0.0007   -0.0014   -0.0002    0.0002   -0.0000    0.0001   -0.0059
          16    0.0003    0.0002    0.0004   -0.0013   -0.0028   -0.0000    0.0001   -0.0023
          17    0.0011    0.0002    0.0001   -0.0056   -0.0078   -0.0004    0.0003   -0.1971
          18   -0.0002    0.0007   -0.0014    0.0002    0.0002   -0.0000   -0.0001    0.0059
          19    0.3168   -0.0051    0.0367   -0.0021    0.0055    0.0073   -0.0016   -0.0002
          20    0.4167    0.0048    0.0482    0.0018    0.0072    0.0096    0.0013    0.0002
          21    0.7990    0.0010    0.0824    0.0002    0.0126    0.0304    0.0002    0.0000
          22    0.0152    0.1666   -0.1695    0.1752   -0.1816   -0.0042    0.0002   -0.0010
          23   -0.0292   -0.2233    0.2269   -0.2371    0.2463    0.0055    0.0002    0.0051
          24   -0.0441   -0.3326    0.3370   -0.4182    0.4342    0.0097   -0.0000    0.0060
          25   -0.0153   -0.1962    0.2004    0.1539   -0.1589   -0.0003    0.0043   -0.0006
          26    0.0214    0.2236   -0.2285   -0.1723    0.1784    0.0016   -0.0018    0.0039
          27   -0.0394   -0.4078    0.4162    0.3782   -0.3918   -0.0063    0.0049   -0.0053
          28    0.0248   -0.2743   -0.2674    0.2150    0.2060    0.0017    0.0030   -0.0040
          29   -0.0090    0.1324    0.1289   -0.1061   -0.1013    0.0002   -0.0037   -0.0005
          30   -0.0395    0.4179    0.4066   -0.3929   -0.3767   -0.0064   -0.0050    0.0053
          31   -0.0322    0.2659    0.2576    0.2864    0.2753    0.0065   -0.0001   -0.0052
          32    0.0069   -0.1032   -0.1001   -0.1096   -0.1050   -0.0026   -0.0003   -0.0004
          33   -0.0441    0.3402    0.3287    0.4347    0.4178    0.0098    0.0002   -0.0060
          34   -0.0098    0.0008   -0.0023   -0.0005   -0.0056    0.2396   -0.0342   -0.0001
          35   -0.0129   -0.0007   -0.0030    0.0001   -0.0074    0.3173    0.0281    0.0001
          36   -0.0178   -0.0000   -0.0026   -0.0004   -0.0166    0.6836    0.0029   -0.0000
          37    0.0067    0.0020    0.0015   -0.0017    0.0021   -0.1393    0.1760    0.0003
          38   -0.0129   -0.0053   -0.0063    0.0038   -0.0032    0.3539   -0.6499   -0.0012
          39   -0.0041    0.0001   -0.0001    0.0003    0.0004   -0.0178   -0.0187   -0.0001
          40   -0.0143    0.0055   -0.0066   -0.0044   -0.0037    0.3732    0.6754    0.0013
          41    0.0030   -0.0004   -0.0002    0.0006    0.0012   -0.0388    0.0060    0.0000
          42   -0.0041   -0.0001   -0.0001   -0.0003    0.0004   -0.0172    0.0198    0.0001
          43    0.0028   -0.0003   -0.0005   -0.0081    0.0330    0.0016    0.0012   -0.6510
          44    0.0013   -0.0001   -0.0001   -0.0007    0.0071    0.0004    0.0003   -0.1920
          45   -0.0000    0.0006   -0.0021    0.0003   -0.0010   -0.0001   -0.0000    0.0204
          46    0.0005    0.0000    0.0000   -0.0016   -0.0019   -0.0000    0.0000    0.0110
          47    0.0031    0.0003   -0.0005    0.0094    0.0334    0.0017   -0.0012    0.6784
          48   -0.0000   -0.0007   -0.0021   -0.0003   -0.0010   -0.0001    0.0000   -0.0205


   Root No.      41        42

                41 A      42 A   

                3135.0    3178.7
  
           1    0.0034   -0.0018
           2    0.0044   -0.0023
           3    0.0006    0.0019
           4   -0.0066   -0.0002
           5    0.0101    0.0008
           6    0.0002   -0.0010
           7    0.0115    0.0009
           8   -0.0037    0.0000
           9    0.0002   -0.0010
          10    0.0002   -0.0604
          11    0.0002   -0.0791
          12    0.0004    0.1132
          13   -0.2185   -0.0000
          14   -0.0341    0.0000
          15    0.0059   -0.0000
          16    0.0255    0.0000
          17   -0.2197   -0.0000
          18    0.0060    0.0000
          19   -0.0012    0.0006
          20   -0.0015    0.0008
          21   -0.0031    0.0050
          22    0.0069    0.0004
          23   -0.0126   -0.0005
          24   -0.0194   -0.0012
          25    0.0062    0.0004
          26   -0.0098   -0.0025
          27    0.0183    0.0048
          28   -0.0111   -0.0025
          29    0.0034   -0.0002
          30    0.0184    0.0048
          31   -0.0141   -0.0006
          32    0.0033    0.0002
          33   -0.0194   -0.0012
          34   -0.0002   -0.1824
          35   -0.0003   -0.2415
          36   -0.0007   -0.4632
          37    0.0002   -0.1819
          38   -0.0007    0.5487
          39    0.0001    0.0297
          40   -0.0008    0.5782
          41    0.0000   -0.0270
          42    0.0001    0.0309
          43    0.6440    0.0001
          44    0.1857    0.0001
          45   -0.0200   -0.0000
          46    0.0069    0.0000
          47    0.6705    0.0001
          48   -0.0201   -0.0000


          DESCRIPTION OF VIBRATIONS


 VIBRATION          1    1A           ATOM PAIR      ENERGY CONTRIBUTION    RADIAL
 FREQUENCY            75.36         C  1 -- C  4         +11.0% (617.1%)      0.0%
 TRANSITION DIPOLE   0.0330         C  3 -- C  6         +10.0% (589.7%)      0.0%
 TRAVEL (Ang.)       0.0000         C  2 -- C  5         +10.0% (588.5%)      0.0%
 REDUCED MASS        0.8449         C  4 -- H 14          +8.1% (529.7%)     30.8%
 EFFECTIVE MASS    564.9020
 FORCE CONSTANT      0.0028

 VIBRATION          2    2A           ATOM PAIR      ENERGY CONTRIBUTION    RADIAL
 FREQUENCY           200.46         C  4 -- H 13         +31.4% (302.5%)      0.0%
 TRANSITION DIPOLE   0.0064         C  4 -- H 14         +31.4% (302.4%)      0.0%
 TRAVEL (Ang.)       0.0000         C  4 -- H 12         +30.6% (298.8%)      0.0%
 REDUCED MASS        0.3152         C  2 -- C  5          +0.8% ( 49.3%)      0.3%
 EFFECTIVE MASS      3.2320
 FORCE CONSTANT      0.0075

 VIBRATION          3    3A           ATOM PAIR      ENERGY CONTRIBUTION    RADIAL
 FREQUENCY           345.62         C  5 -- C  6         +15.0% (129.5%)      0.0%
 TRANSITION DIPOLE   0.0315         C  1 -- C  4         +13.5% (123.0%)      0.0%
 TRAVEL (Ang.)       0.4181         C  4 -- H 12          +8.4% ( 97.1%)      0.0%
 REDUCED MASS        1.1159         C  4 -- H 14          +7.6% ( 92.3%)     79.0%
 EFFECTIVE MASS     23.2377
 FORCE CONSTANT      0.0785

 VIBRATION          4    4A           ATOM PAIR      ENERGY CONTRIBUTION    RADIAL
 FREQUENCY           385.10         C  1 -- C  4         +12.8% (132.1%)      0.0%
 TRANSITION DIPOLE   0.0337         C  4 -- H 12          +8.5% (107.4%)      0.0%
 TRAVEL (Ang.)       0.5317         C  2 -- H  9          +7.5% (100.9%)     18.3%
 REDUCED MASS        0.6193         C  3 -- H 10          +7.5% (100.8%)     18.2%
 EFFECTIVE MASS     24.3702
 FORCE CONSTANT      0.0541

 VIBRATION          5    5A           ATOM PAIR      ENERGY CONTRIBUTION    RADIAL
 FREQUENCY           442.55         C  1 -- C  4         +15.1% (141.8%)      0.6%
 TRANSITION DIPOLE   0.1133         C  1 -- C  3         +12.6% (129.2%)      0.0%
 TRAVEL (Ang.)       0.3497         C  1 -- C  2         +12.5% (129.1%)      0.0%
 REDUCED MASS        1.2459         C  4 -- H 12         +11.4% (122.9%)     19.1%
 EFFECTIVE MASS     21.2893
 FORCE CONSTANT      0.1438

 VIBRATION          6    6A           ATOM PAIR      ENERGY CONTRIBUTION    RADIAL
 FREQUENCY           650.20         C  1 -- C  3         +13.7% (101.8%)      0.0%
 TRANSITION DIPOLE   0.2253         C  1 -- C  2         +13.7% (101.8%)      0.0%
 TRAVEL (Ang.)       0.2775         C  1 -- C  4         +10.8% ( 90.6%)     13.1%
 REDUCED MASS        1.3472         C  3 -- C  6          +7.3% ( 74.4%)      3.8%
 EFFECTIVE MASS     15.0821
 FORCE CONSTANT      0.3356

 VIBRATION          7    7A           ATOM PAIR      ENERGY CONTRIBUTION    RADIAL
[...]
 TRANSITION DIPOLE   0.0263         C  1 -- C  4         +14.2% ( 52.7%)     97.7%
 TRAVEL (Ang.)       0.1991         C  1 -- C  2         +13.3% ( 51.0%)      5.3%
 REDUCED MASS        1.3249         C  1 -- C  3         +13.3% ( 51.0%)      5.2%
 EFFECTIVE MASS      6.5704
 FORCE CONSTANT      1.2863

 VIBRATION         25   25A           ATOM PAIR      ENERGY CONTRIBUTION    RADIAL
 FREQUENCY          1371.59         C  3 -- C  6         +18.9% ( 54.6%)     85.5%
 TRANSITION DIPOLE   0.0639         C  3 -- H 10         +15.2% ( 49.0%)      0.0%
 TRAVEL (Ang.)       0.2475         C  3 -- H 11         +13.2% ( 45.6%)      0.1%
 REDUCED MASS        0.8024         C  5 -- C  6         +11.0% ( 41.7%)      0.0%
 EFFECTIVE MASS      5.8289
 FORCE CONSTANT      0.8894

 VIBRATION         26   26A           ATOM PAIR      ENERGY CONTRIBUTION    RADIAL
 FREQUENCY          1371.73         C  2 -- C  5         +14.6% ( 52.0%)     82.1%
 TRANSITION DIPOLE   0.0774         C  2 -- H  9         +13.6% ( 50.4%)      0.2%
 TRAVEL (Ang.)       0.2164         C  1 -- C  2         +13.1% ( 49.4%)     40.9%
 REDUCED MASS        1.0495         C  2 -- H  8         +11.6% ( 46.5%)      0.0%
 EFFECTIVE MASS      6.5082
 FORCE CONSTANT      1.1636

 VIBRATION         27   27A           ATOM PAIR      ENERGY CONTRIBUTION    RADIAL
 FREQUENCY          1405.61         C  3 -- H 10         +18.3% ( 45.8%)      4.9%
 TRANSITION DIPOLE   0.0501         C  2 -- H  9         +18.2% ( 45.7%)      4.9%
 TRAVEL (Ang.)       0.3564         C  3 -- H 11         +17.1% ( 44.2%)      5.8%
 REDUCED MASS        0.3776         C  2 -- H  8         +17.0% ( 44.1%)      5.8%
 EFFECTIVE MASS      3.1831
 FORCE CONSTANT      0.4395

 VIBRATION         28   28A           ATOM PAIR      ENERGY CONTRIBUTION    RADIAL
 FREQUENCY          1406.59         C  4 -- H 13         +43.1% ( 57.1%)      2.0%
 TRANSITION DIPOLE   0.0403         C  4 -- H 14         +43.0% ( 57.0%)      2.0%
 TRAVEL (Ang.)       0.3327         C  4 -- H 12          +8.0% ( 24.6%)     74.4%
 REDUCED MASS        0.4331         C  1 -- C  4          +5.4% ( 20.1%)     11.3%
 EFFECTIVE MASS      1.5887
 FORCE CONSTANT      0.5048

 VIBRATION         29   29A           ATOM PAIR      ENERGY CONTRIBUTION    RADIAL
 FREQUENCY          1410.16         C  2 -- C  5         +11.3% ( 40.4%)     95.3%
 TRANSITION DIPOLE   0.0586         C  3 -- C  6         +11.2% ( 40.2%)     95.4%
 TRAVEL (Ang.)       0.3414         C  4 -- H 12         +10.0% ( 38.0%)      0.0%
 REDUCED MASS        0.4102         C  2 -- H  9          +8.1% ( 34.1%)      5.9%
 EFFECTIVE MASS      4.9464
 FORCE CONSTANT      0.4806

 VIBRATION         30   30A           ATOM PAIR      ENERGY CONTRIBUTION    RADIAL
 FREQUENCY          1414.34         C  4 -- H 12         +25.8% ( 50.2%)      0.0%
 TRANSITION DIPOLE   0.0025         C  4 -- H 14         +10.2% ( 31.6%)     10.0%
 TRAVEL (Ang.)       0.4521         C  4 -- H 13         +10.0% ( 31.3%)      9.8%
 REDUCED MASS        0.2332         C  3 -- H 10          +6.8% ( 25.8%)      5.6%
 EFFECTIVE MASS      2.6141
 FORCE CONSTANT      0.2749

 VIBRATION         31   31A           ATOM PAIR      ENERGY CONTRIBUTION    RADIAL
 FREQUENCY          1420.36         C  1 -- C  4         +22.6% ( 66.3%)     98.1%
 TRANSITION DIPOLE   0.0334         C  4 -- H 12         +16.1% ( 55.8%)      3.4%
 TRAVEL (Ang.)       0.1716         C  4 -- H 13         +13.6% ( 51.3%)      4.2%
 REDUCED MASS        1.6128         C  4 -- H 14         +13.5% ( 51.1%)      4.1%
 EFFECTIVE MASS      6.8187
 FORCE CONSTANT      1.9171

 VIBRATION         32   32A           ATOM PAIR      ENERGY CONTRIBUTION    RADIAL
 FREQUENCY          1829.42         C  5 -- C  6         +45.8% (100.0%)    100.0%
 TRANSITION DIPOLE   0.0899         C  3 -- C  6         +13.9% ( 55.1%)     25.5%
 TRAVEL (Ang.)       0.0827         C  2 -- C  5         +13.9% ( 55.1%)     25.5%
 REDUCED MASS        5.3840         C  6 -- H 16         +13.0% ( 53.2%)      9.7%
 EFFECTIVE MASS     11.8694         C  5 -- H 15         +13.0% ( 53.2%)      9.7%
 FORCE CONSTANT     10.6165

 VIBRATION         33   33A           ATOM PAIR      ENERGY CONTRIBUTION    RADIAL
 FREQUENCY          2904.09         C  1 -- H  7         +95.4% ( 99.4%)    100.0%
 TRANSITION DIPOLE   0.0411         C  1 -- C  3          +1.1% ( 10.5%)      8.9%
 TRAVEL (Ang.)       0.1601         C  1 -- C  2          +1.1% ( 10.5%)      8.9%
 REDUCED MASS        0.9061         C  1 -- C  4          +1.1% ( 10.4%)      8.6%
 EFFECTIVE MASS      1.4536
 FORCE CONSTANT      4.5022

 VIBRATION         34   34A           ATOM PAIR      ENERGY CONTRIBUTION    RADIAL
 FREQUENCY          2972.33         C  3 -- H 10         +28.5% ( 55.4%)     97.4%
 TRANSITION DIPOLE   0.0169         C  2 -- H  9         +27.1% ( 54.1%)     97.4%
 TRAVEL (Ang.)       0.2933         C  3 -- H 11         +21.5% ( 48.2%)     95.7%
 REDUCED MASS        0.2637         C  2 -- H  8         +20.6% ( 47.1%)     95.7%
 EFFECTIVE MASS      1.5380
 FORCE CONSTANT      1.3725

 VIBRATION         35   35A           ATOM PAIR      ENERGY CONTRIBUTION    RADIAL
 FREQUENCY          2973.61         C  2 -- H  9         +28.3% ( 55.2%)     97.4%
 TRANSITION DIPOLE   0.0550         C  3 -- H 10         +27.0% ( 53.9%)     97.4%
 TRAVEL (Ang.)       0.2964         C  2 -- H  8         +21.2% ( 47.7%)     95.7%
 REDUCED MASS        0.2582         C  3 -- H 11         +20.2% ( 46.6%)     95.7%
 EFFECTIVE MASS      1.5334
 FORCE CONSTANT      1.3451

 VIBRATION         36   36A           ATOM PAIR      ENERGY CONTRIBUTION    RADIAL
 FREQUENCY          3051.09         C  3 -- H 11         +29.5% ( 53.6%)     98.4%
 TRANSITION DIPOLE   0.1073         C  2 -- H  8         +27.3% ( 51.5%)     98.4%
 TRAVEL (Ang.)       0.2991         C  3 -- H 10         +21.7% ( 46.0%)     96.5%
 REDUCED MASS        0.2470         C  2 -- H  9         +20.1% ( 44.3%)     96.5%
 EFFECTIVE MASS      1.2758
 FORCE CONSTANT      1.3548

 VIBRATION         37   37A           ATOM PAIR      ENERGY CONTRIBUTION    RADIAL
 FREQUENCY          3051.97         C  2 -- H  8         +29.4% ( 53.5%)     98.3%
 TRANSITION DIPOLE   0.0566         C  3 -- H 11         +27.3% ( 51.5%)     98.3%
 TRAVEL (Ang.)       0.2997         C  2 -- H  9         +21.6% ( 45.9%)     96.4%
 REDUCED MASS        0.2459         C  3 -- H 10         +20.0% ( 44.1%)     96.4%
 EFFECTIVE MASS      1.2910
 FORCE CONSTANT      1.3497

 VIBRATION         38   38A           ATOM PAIR      ENERGY CONTRIBUTION    RADIAL
 FREQUENCY          3078.21         C  4 -- H 12         +66.9% ( 84.4%)     98.9%
 TRANSITION DIPOLE   0.0122         C  4 -- H 13         +16.2% ( 41.5%)     84.0%
 TRAVEL (Ang.)       0.2040         C  4 -- H 14         +15.8% ( 41.0%)     83.6%
 REDUCED MASS        0.5264         C  1 -- C  4          +1.0% ( 10.3%)      0.0%
 EFFECTIVE MASS      1.5035
 FORCE CONSTANT      2.9388

 VIBRATION         39   39A           ATOM PAIR      ENERGY CONTRIBUTION    RADIAL
 FREQUENCY          3083.24         C  4 -- H 14         +49.2% ( 72.4%)     97.1%
 TRANSITION DIPOLE   0.0101         C  4 -- H 13         +48.8% ( 72.1%)     97.1%
 TRAVEL (Ang.)       0.2071         C  1 -- C  4          +1.0% ( 10.5%)      0.0%
 REDUCED MASS        0.5098         C  4 -- H 12          +1.0% ( 10.2%)      0.0%
 EFFECTIVE MASS      1.5079
 FORCE CONSTANT      2.8556

 VIBRATION         40   40A           ATOM PAIR      ENERGY CONTRIBUTION    RADIAL
 FREQUENCY          3115.90         C  5 -- H 15         +48.7% ( 70.9%)    100.0%
 TRANSITION DIPOLE   0.3720         C  6 -- H 16         +48.7% ( 70.9%)    100.0%
 TRAVEL (Ang.)       0.2158         C  5 -- C  6          +1.1% ( 10.7%)      0.0%
 REDUCED MASS        0.4647         C  2 -- C  5          +0.7% (  8.6%)     27.5%
 EFFECTIVE MASS      1.4620
 FORCE CONSTANT      2.6584

 VIBRATION         41   41A           ATOM PAIR      ENERGY CONTRIBUTION    RADIAL
 FREQUENCY          3135.02         C  6 -- H 16         +47.7% ( 70.4%)     99.9%
 TRANSITION DIPOLE   0.3385         C  5 -- H 15         +47.7% ( 70.3%)     99.9%
 TRAVEL (Ang.)       0.2150         C  5 -- C  6          +2.5% ( 16.0%)    100.0%
 REDUCED MASS        0.4654         C  3 -- C  6          +0.9% (  9.9%)     20.6%
 EFFECTIVE MASS      1.6513
 FORCE CONSTANT      2.6952

 VIBRATION         42   42A           ATOM PAIR      ENERGY CONTRIBUTION    RADIAL
 FREQUENCY          3178.74         C  4 -- H 14         +34.4% ( 56.4%)     97.3%
 TRANSITION DIPOLE   0.0240         C  4 -- H 13         +34.3% ( 56.3%)     97.3%
 TRAVEL (Ang.)       0.2545         C  4 -- H 12         +31.0% ( 53.6%)     96.7%
 REDUCED MASS        0.3276         C  1 -- C  4          +0.3% (  5.1%)     99.8%
 EFFECTIVE MASS      1.1358
 FORCE CONSTANT      1.9502

      SYMMETRY NUMBER FOR POINT-GROUP C1  =  1


          SYSTEM IS A GROUND STATE



 InChI=1S/C6H10/c1-6-4-2-3-5-6/h2-3,6H,4-5H2,1H3


          MOLECULE IS NOT LINEAR

          THERE ARE 42 GENUINE VIBRATIONS IN THIS SYSTEM
          THIS THERMODYNAMICS CALCULATION IS LIMITED TO
          MOLECULES WHICH HAVE NO INTERNAL ROTATIONS




                    CALCULATED THERMODYNAMIC PROPERTIES
                                          *
   TEMP. (K)   PARTITION FUNCTION   H.O.F.    ENTHALPY  HEAT CAPACITY ENTROPY
                                   KCAL/MOL   CAL/MOLE    CAL/K/MOL  CAL/K/MOL


 298.00  VIB.     0.1084D+02                  1989.9642    16.5830    11.4141
         ROT.     0.1199D+06                   888.2803     2.9808    26.2194
         INT.     0.1300D+07                  2878.2445    19.5638    37.6334
         TRA.     0.7198D+27                  1480.4672     4.9680    39.1295
         TOT.                       -3.088    4358.7117    24.5318    76.7629

 200.00  VIB.     0.3910D+01                   761.7209     8.8524     6.5185
         ROT.     0.6590D+05                   596.1613     2.9808    25.0307
         INT.     0.2577D+06                  1357.8822    11.8332    31.5492
         TRA.     0.3957D+27                   993.6021     4.9680    37.1484
         TOT.                       -5.095    2351.4843    16.8012    68.6975

 210.00  VIB.     0.4307D+01                   853.5848     9.5258     6.9666
         ROT.     0.7091D+05                   625.9693     2.9808    25.1761
         INT.     0.3054D+06                  1479.5541    12.5066    32.1427
         TRA.     0.4258D+27                  1043.2822     4.9680    37.3907
         TOT.                       -4.924    2522.8364    17.4746    69.5334

 220.00  VIB.     0.4752D+01                   952.3416    10.2308     7.4258
         ROT.     0.7603D+05                   655.7774     2.9808    25.3148
         INT.     0.3613D+06                  1608.1190    13.2116    32.7406
         TRA.     0.4566D+27                  1092.9623     4.9680    37.6219
         TOT.                       -4.746    2701.0813    18.1796    70.3625

 230.00  VIB.     0.5250D+01                  1058.3015    10.9661     7.8967
         ROT.     0.8127D+05                   685.5855     2.9808    25.4473
         INT.     0.4267D+06                  1743.8869    13.9469    33.3440
         TRA.     0.4880D+27                  1142.6424     4.9680    37.8427
         TOT.                       -4.560    2886.5294    18.9149    71.1867

 240.00  VIB.     0.5811D+01                  1171.7587    11.7299     8.3795
         ROT.     0.8663D+05                   715.3935     2.9808    25.5742
         INT.     0.5035D+06                  1887.1522    14.7107    33.9536
         TRA.     0.5202D+27                  1192.3226     4.9680    38.0541
         TOT.                       -4.367    3079.4748    19.6787    72.0078

 250.00  VIB.     0.6444D+01                  1292.9860    12.5197     8.8743
         ROT.     0.9210D+05                   745.2016     2.9808    25.6958
         INT.     0.5935D+06                  2038.1876    15.5005    34.5701
         TRA.     0.5531D+27                  1242.0027     4.9680    38.2569
         TOT.                       -4.167    3280.1902    20.4685    72.8270

 260.00  VIB.     0.7157D+01                  1422.2306    13.3329     9.3811
         ROT.     0.9768D+05                   775.0097     2.9808    25.8127
         INT.     0.6991D+06                  2197.2402    16.3137    35.1938
         TRA.     0.5866D+27                  1291.6828     4.9680    38.4518
         TOT.                       -3.958    3488.9230    21.2817    73.6456

 270.00  VIB.     0.7963D+01                  1559.7114    14.1664     9.8998
         ROT.     0.1034D+06                   804.8177     2.9808    25.9252
         INT.     0.8232D+06                  2364.5291    17.1472    35.8251
         TRA.     0.6208D+27                  1341.3629     4.9680    38.6393
         TOT.                       -3.741    3705.8920    22.1153    74.4643

 280.00  VIB.     0.8876D+01                  1705.6172    15.0174    10.4303
         ROT.     0.1092D+06                   834.6258     2.9808    26.0336
         INT.     0.9690D+06                  2540.2430    17.9982    36.4640
         TRA.     0.6556D+27                  1391.0430     4.9680    38.8200
         TOT.                       -3.515    3931.2860    22.9662    75.2839

 290.00  VIB.     0.9912D+01                  1860.1063    15.8826    10.9724
         ROT.     0.1151D+06                   864.4339     2.9808    26.1382
         INT.     0.1141D+07                  2724.5402    18.8634    37.1106
         TRA.     0.6910D+27                  1440.7231     4.9680    38.9943
         TOT.                       -3.281    4165.2633    23.8314    76.1049

 300.00  VIB.     0.1109D+02                  2023.3061    16.7590    11.5256
         ROT.     0.1211D+06                   894.2419     2.9808    26.2393
         INT.     0.1343D+07                  2917.5480    19.7398    37.7649
         TRA.     0.7270D+27                  1490.4032     4.9680    39.1627
         TOT.                       -3.039    4407.9512    24.7078    76.9276

 310.00  VIB.     0.1243D+02                  2195.3142    17.6437    12.0895
         ROT.     0.1272D+06                   924.0500     2.9808    26.3370
         INT.     0.1581D+07                  3119.3642    20.6246    38.4265
         TRA.     0.7637D+27                  1540.0833     4.9680    39.3256
         TOT.                       -2.787    4659.4475    25.5926    77.7522

 320.00  VIB.     0.1396D+02                  2376.1994    18.5340    12.6637
         ROT.     0.1334D+06                   953.8580     2.9808    26.4317
         INT.     0.1861D+07                  3330.0575    21.5148    39.0954
         TRA.     0.8009D+27                  1589.7634     4.9680    39.4834
         TOT.                       -2.527    4919.8209    26.4828    78.5787

 330.00  VIB.     0.1570D+02                  2566.0038    19.4271    13.2477
         ROT.     0.1397D+06                   983.6661     2.9808    26.5234
         INT.     0.2193D+07                  3549.6699    22.4080    39.7711
         TRA.     0.8388D+27                  1639.4435     4.9680    39.6362
         TOT.                       -2.258    5189.1134    27.3760    79.4073

 340.00  VIB.     0.1769D+02                  2764.7440    20.3208    13.8409
         ROT.     0.1461D+06                  1013.4742     2.9808    26.6124
         INT.     0.2584D+07                  3778.2182    23.3016    40.4533
         TRA.     0.8772D+27                  1689.1236     4.9680    39.7845
         TOT.                       -1.979    5467.3418    28.2696    80.2379

 350.00  VIB.     0.1997D+02                  2972.4138    21.2127    14.4429
         ROT.     0.1526D+06                  1043.2822     2.9808    26.6988
         INT.     0.3047D+07                  4015.6960    24.1935    41.1416
         TRA.     0.9162D+27                  1738.8037     4.9680    39.9285
         TOT.                       -1.692    5754.4997    29.1615    81.0702

 360.00  VIB.     0.2258D+02                  3188.9859    22.1009    15.0529
         ROT.     0.1592D+06                  1073.0903     2.9808    26.7828
         INT.     0.3594D+07                  4262.0762    25.0818    41.8357
         TRA.     0.9557D+27                  1788.4838     4.9680    40.0685
         TOT.                       -1.396    6050.5600    30.0498    81.9042

 370.00  VIB.     0.2558D+02                  3414.4144    22.9837    15.6705
         ROT.     0.1658D+06                  1102.8984     2.9808    26.8644
         INT.     0.4242D+07                  4517.3128    25.9645    42.5349
         TRA.     0.9958D+27                  1838.1639     4.9680    40.2046
         TOT.                       -1.091    6355.4767    30.9325    82.7395

 380.00  VIB.     0.2903D+02                  3648.6368    23.8595    16.2951
         ROT.     0.1726D+06                  1132.7064     2.9808    26.9439
         INT.     0.5010D+07                  4781.3432    26.8403    43.2390
         TRA.     0.1036D+28                  1887.8440     4.9680    40.3371
         TOT.                       -0.778    6669.1873    31.8083    83.5761

 390.00  VIB.     0.3299D+02                  3891.5759    24.7269    16.9261
         ROT.     0.1795D+06                  1162.5145     2.9808    27.0214
         INT.     0.5920D+07                  5054.0904    27.7077    43.9474
         TRA.     0.1078D+28                  1937.5242     4.9680    40.4662
         TOT.                       -0.455    6991.6145    32.6757    84.4136

 400.00  VIB.     0.3755D+02                  4143.1420    25.5847    17.5629
         ROT.     0.1864D+06                  1192.3226     2.9808    27.0968
         INT.     0.7000D+07                  5335.4646    28.5655    44.6598
         TRA.     0.1119D+28                  1987.2043     4.9680    40.5919
         TOT.                       -0.124    7322.6688    33.5335    85.2517

   *: NOTE: HEATS OF FORMATION ARE RELATIVE TO THE
            ELEMENTS IN THEIR STANDARD STATE AT 298K
              (=  Standard Enthalpy of Formation).

            Hvib:  Zero-point energy is not included.
                   frequencies of less than zero cm-1 are not included.
            Hrot = (3/2)RT
            Htra = (3/2)RT + pV = (5/2)RT

            Heat capacity is Cp, not Cv

          For more information, see: HTTP://OpenMOPAC.net/Manual/thermochemistry.html


           FORCE CONSTANT IN CARTESIAN COORDINATES (Millidynes/A)

    ATOM   CHEMICAL       X               Y               Z
   NUMBER   SYMBOL  FORCE CONSTANT  FORCE CONSTANT  FORCE CONSTANT

      1       C        7.784746        8.299506        8.545260
      2       C        7.674854        9.370253        8.129834
      3       C        9.617267        7.427342        8.129800
      4       C        8.414528        8.397471        8.188223
      5       C       14.564033       10.525848        2.330652
      6       C       11.916780       13.174686        2.331278
      7       H        1.146581        1.465946        3.475975
      8       H        1.273231        1.684335        3.434351
      9       H        1.350784        1.418623        3.642225
     10       H        1.760388        1.007363        3.643111
     11       H        2.054712        0.903435        3.433303
     12       H        1.143088        1.494584        4.137995
     13       H        1.093439        4.973430        0.708595
     14       H        5.379965        0.686555        0.709273
     15       H        4.991307        1.075698        0.352427
     16       H        0.712011        5.354415        0.352447

 **********************
 *                    *
 * JOB ENDED NORMALLY *
 *                    *
 **********************



 TOTAL JOB TIME:             1.04 SECONDS

 == MOPAC DONE ==
