 *******************************************************************************
 **                                                                           **
 **                              MOPAC v23.1.2                                **
 **                                                                           **
 *******************************************************************************
 **          Digital Object Identifier (DOI): 10.5281/zenodo.6511958          **
 **    Visit the DOI location for information on how to cite this program.    **
 *******************************************************************************

                              PM3 CALCULATION RESULTS

 *******************************************************************************
 *  CALCULATION DONE: (MAX THREADS = 1)              Tue Jun  3 16:33:51 2025  *
 *  PM3        - The PM3 Hamiltonian to be used
 *  PRECISE    - TIGHTER CRITERIA TO BE USED
 *  NOSYM      - POINT-GROUP SYMMETRY SET TO C1
 *  THREADS=1  - MULTI-THREADING NOT USED
 *  T=         - A TIME OF 172800.0 SECONDS REQUESTED
 *  DUMP=N     - RESTART FILE WRITTEN EVERY 7200.0 SECONDS REQUESTED
 *******************************************************************************
pm3  precise nosym THREADS=1
 InChI=1S/C10H10/c1-8-6-9-4-2-3-5-10(9)7-8/h2-4,6-7H,5H2,1H3

   ATOM   CHEMICAL          X               Y               Z
  NUMBER   SYMBOL      (ANGSTROMS)     (ANGSTROMS)     (ANGSTROMS)

     1       C         -1.65610000  *  -1.33890000  *   0.06890000  *
     2       C          3.30830000  *  -0.13570000  *  -0.25920000  *
     3       C         -0.34410000  *  -0.61910000  *  -0.02720000  *
     4       C          1.82220000  *  -0.00130000  *  -0.19810000  *
     5       C         -0.24090000  *   0.81670000  *   0.03490000  *
     6       C         -2.80780000  *  -0.35870000  *   0.22230000  *
     7       C          0.87260000  *  -1.12640000  *  -0.15870000  *
     8       C          1.16820000  *   1.15370000  *  -0.07000000  *
     9       C         -1.30080000  *   1.60440000  *   0.17930000  *
    10       C         -2.64050000  *   0.97940000  *   0.27330000  *
    11       H         -1.81230000  *  -1.94180000  *  -0.85030000  *
    12       H         -1.63870000  *  -2.01830000  *   0.94680000  *
    13       H          3.74560000  *   0.69800000  *  -0.84860000  *
    14       H          3.58280000  *  -1.09620000  *  -0.74340000  *
    15       H          3.72450000  *  -0.11520000  *   0.76950000  *
    16       H         -3.81030000  *  -0.76060000  *   0.29670000  *
    17       H          1.61050000  *   2.14090000  *  -0.03080000  *
    18       H         -1.19040000  *   2.68000000  *   0.22830000  *
    19       H          1.11400000  *  -2.17960000  *  -0.22020000  *
    20       H         -3.50670000  *   1.61850000  *   0.38650000  *



          CARTESIAN COORDINATES 

    NO.       ATOM           X           Y           Z

     1         C         -1.6561     -1.3389      0.0689
     2         C          3.3083     -0.1357     -0.2592
     3         C         -0.3441     -0.6191     -0.0272
     4         C          1.8222     -0.0013     -0.1981
     5         C         -0.2409      0.8167      0.0349
     6         C         -2.8078     -0.3587      0.2223
     7         C          0.8726     -1.1264     -0.1587
     8         C          1.1682      1.1537     -0.0700
     9         C         -1.3008      1.6044      0.1793
    10         C         -2.6405      0.9794      0.2733
    11         H         -1.8123     -1.9418     -0.8503
    12         H         -1.6387     -2.0183      0.9468
    13         H          3.7456      0.6980     -0.8486
    14         H          3.5828     -1.0962     -0.7434
    15         H          3.7245     -0.1152      0.7695
    16         H         -3.8103     -0.7606      0.2967
    17         H          1.6105      2.1409     -0.0308
    18         H         -1.1904      2.6800      0.2283
    19         H          1.1140     -2.1796     -0.2202
    20         H         -3.5067      1.6185      0.3865

  H: (PM3): J. J. P. STEWART, J. COMP. CHEM. 10, 209 (1989).
  C: (PM3): J. J. P. STEWART, J. COMP. CHEM. 10, 209 (1989).

           Empirical Formula: C10 H10  =    20 atoms



      MOLECULAR POINT GROUP   :   C1  


      RHF CALCULATION, NO. OF DOUBLY OCCUPIED LEVELS = 25


          Geometry optimization using EF

          DIAGONAL MATRIX USED AS START HESSIAN

 CYCLE:     1 TIME:   0.008 TIME LEFT:  2.00D  GRAD.:   149.249 HEAT:  60.39894
 CYCLE:     2 TIME:   0.008 TIME LEFT:  2.00D  GRAD.:   153.124 HEAT:  59.18507
 CYCLE:     3 TIME:   0.012 TIME LEFT:  2.00D  GRAD.:   123.478 HEAT:  58.38364
 CYCLE:     4 TIME:   0.004 TIME LEFT:  2.00D  GRAD.:   121.697 HEAT:  57.62248
 CYCLE:     5 TIME:   0.012 TIME LEFT:  2.00D  GRAD.:    53.352 HEAT:  55.35941
 CYCLE:     6 TIME:   0.012 TIME LEFT:  2.00D  GRAD.:    53.827 HEAT:  55.21748
 CYCLE:     7 TIME:   0.008 TIME LEFT:  2.00D  GRAD.:    44.557 HEAT:  55.00440
 CYCLE:     8 TIME:   0.012 TIME LEFT:  2.00D  GRAD.:    20.448 HEAT:  54.66122
 CYCLE:     9 TIME:   0.004 TIME LEFT:  2.00D  GRAD.:    24.858 HEAT:  54.61130
 CYCLE:    10 TIME:   0.008 TIME LEFT:  2.00D  GRAD.:    24.155 HEAT:  54.50344
 CYCLE:    11 TIME:   0.008 TIME LEFT:  2.00D  GRAD.:    21.225 HEAT:  54.37065
 CYCLE:    12 TIME:   0.004 TIME LEFT:  2.00D  GRAD.:    21.177 HEAT:  54.31829
 CYCLE:    13 TIME:   0.008 TIME LEFT:  2.00D  GRAD.:    18.158 HEAT:  54.20814
 CYCLE:    14 TIME:   0.016 TIME LEFT:  2.00D  GRAD.:     8.698 HEAT:  54.15052
 CYCLE:    15 TIME:   0.004 TIME LEFT:  2.00D  GRAD.:     7.454 HEAT:  54.12773
 CYCLE:    16 TIME:   0.008 TIME LEFT:  2.00D  GRAD.:     6.936 HEAT:  54.10374
 CYCLE:    17 TIME:   0.008 TIME LEFT:  2.00D  GRAD.:     9.007 HEAT:  54.10130
 CYCLE:    18 TIME:   0.012 TIME LEFT:  2.00D  GRAD.:     6.195 HEAT:  54.08231
 CYCLE:    19 TIME:   0.004 TIME LEFT:  2.00D  GRAD.:     6.610 HEAT:  54.07214
 CYCLE:    20 TIME:   0.008 TIME LEFT:  2.00D  GRAD.:     3.392 HEAT:  54.05610
 CYCLE:    21 TIME:   0.004 TIME LEFT:  2.00D  GRAD.:     4.980 HEAT:  54.04854
 CYCLE:    22 TIME:   0.008 TIME LEFT:  2.00D  GRAD.:     3.180 HEAT:  54.03540
 CYCLE:    23 TIME:   0.008 TIME LEFT:  2.00D  GRAD.:     2.621 HEAT:  54.02631
 CYCLE:    24 TIME:   0.004 TIME LEFT:  2.00D  GRAD.:     3.175 HEAT:  54.02145
 CYCLE:    25 TIME:   0.008 TIME LEFT:  2.00D  GRAD.:     2.934 HEAT:  54.01347
 CYCLE:    26 TIME:   0.008 TIME LEFT:  2.00D  GRAD.:     2.395 HEAT:  54.00648
 CYCLE:    27 TIME:   0.004 TIME LEFT:  2.00D  GRAD.:     2.291 HEAT:  54.00212
 CYCLE:    28 TIME:   0.008 TIME LEFT:  2.00D  GRAD.:     1.786 HEAT:  53.99970
 CYCLE:    29 TIME:   0.008 TIME LEFT:  2.00D  GRAD.:     1.791 HEAT:  53.99688
 CYCLE:    30 TIME:   0.004 TIME LEFT:  2.00D  GRAD.:     1.801 HEAT:  53.99256
 CYCLE:    31 TIME:   0.008 TIME LEFT:  2.00D  GRAD.:     1.761 HEAT:  53.99043
 CYCLE:    32 TIME:   0.008 TIME LEFT:  2.00D  GRAD.:     1.159 HEAT:  53.98917
 CYCLE:    33 TIME:   0.008 TIME LEFT:  2.00D  GRAD.:     1.135 HEAT:  53.98821
 CYCLE:    34 TIME:   0.004 TIME LEFT:  2.00D  GRAD.:     0.884 HEAT:  53.98706
 CYCLE:    35 TIME:   0.008 TIME LEFT:  2.00D  GRAD.:     1.366 HEAT:  53.98499
 CYCLE:    36 TIME:   0.004 TIME LEFT:  2.00D  GRAD.:     1.249 HEAT:  53.98369
 CYCLE:    37 TIME:   0.008 TIME LEFT:  2.00D  GRAD.:     0.903 HEAT:  53.98212
 CYCLE:    38 TIME:   0.008 TIME LEFT:  2.00D  GRAD.:     1.625 HEAT:  53.97893
 CYCLE:    39 TIME:   0.008 TIME LEFT:  2.00D  GRAD.:     1.681 HEAT:  53.97601
 CYCLE:    40 TIME:   0.004 TIME LEFT:  2.00D  GRAD.:     1.687 HEAT:  53.97159
 CYCLE:    41 TIME:   0.008 TIME LEFT:  2.00D  GRAD.:     4.208 HEAT:  53.96483
 CYCLE:    42 TIME:   0.008 TIME LEFT:  2.00D  GRAD.:     2.164 HEAT:  53.95956
 CYCLE:    43 TIME:   0.004 TIME LEFT:  2.00D  GRAD.:     1.399 HEAT:  53.95305
 CYCLE:    44 TIME:   0.008 TIME LEFT:  2.00D  GRAD.:     2.004 HEAT:  53.94438
 CYCLE:    45 TIME:   0.008 TIME LEFT:  2.00D  GRAD.:     4.325 HEAT:  53.93675
 CYCLE:    46 TIME:   0.008 TIME LEFT:  2.00D  GRAD.:     2.349 HEAT:  53.92678
 CYCLE:    47 TIME:   0.004 TIME LEFT:  2.00D  GRAD.:     1.831 HEAT:  53.91447
 CYCLE:    48 TIME:   0.008 TIME LEFT:  2.00D  GRAD.:     3.619 HEAT:  53.90232
 CYCLE:    49 TIME:   0.008 TIME LEFT:  2.00D  GRAD.:     1.893 HEAT:  53.89270
 CYCLE:    50 TIME:   0.008 TIME LEFT:  2.00D  GRAD.:     2.142 HEAT:  53.88457
 CYCLE:    51 TIME:   0.004 TIME LEFT:  2.00D  GRAD.:     2.007 HEAT:  53.87717
 CYCLE:    52 TIME:   0.008 TIME LEFT:  2.00D  GRAD.:     2.277 HEAT:  53.87073
 CYCLE:    53 TIME:   0.004 TIME LEFT:  2.00D  GRAD.:     2.029 HEAT:  53.86569
 CYCLE:    54 TIME:   0.008 TIME LEFT:  2.00D  GRAD.:     3.777 HEAT:  53.86405
 CYCLE:    55 TIME:   0.008 TIME LEFT:  2.00D  GRAD.:     1.182 HEAT:  53.85862
 CYCLE:    56 TIME:   0.008 TIME LEFT:  2.00D  GRAD.:     1.073 HEAT:  53.85594
 CYCLE:    57 TIME:   0.004 TIME LEFT:  2.00D  GRAD.:     1.181 HEAT:  53.85023
 CYCLE:    58 TIME:   0.008 TIME LEFT:  2.00D  GRAD.:     6.694 HEAT:  53.85939
 CYCLE:    59 TIME:   0.008 TIME LEFT:  2.00D  GRAD.:     1.098 HEAT:  53.84123
 CYCLE:    60 TIME:   0.008 TIME LEFT:  2.00D  GRAD.:     0.729 HEAT:  53.83807
 CYCLE:    61 TIME:   0.008 TIME LEFT:  2.00D  GRAD.:     3.994 HEAT:  53.83863
 CYCLE:    62 TIME:   0.008 TIME LEFT:  2.00D  GRAD.:     0.615 HEAT:  53.83345
 CYCLE:    63 TIME:   0.008 TIME LEFT:  2.00D  GRAD.:     0.847 HEAT:  53.83177
 CYCLE:    64 TIME:   0.008 TIME LEFT:  2.00D  GRAD.:     0.762 HEAT:  53.83071
 CYCLE:    65 TIME:   0.008 TIME LEFT:  2.00D  GRAD.:     2.854 HEAT:  53.83352
 CYCLE:    66 TIME:   0.004 TIME LEFT:  2.00D  GRAD.:     0.358 HEAT:  53.82813
 CYCLE:    67 TIME:   0.008 TIME LEFT:  2.00D  GRAD.:     0.439 HEAT:  53.82757
 CYCLE:    68 TIME:   0.008 TIME LEFT:  2.00D  GRAD.:     0.514 HEAT:  53.82692
 CYCLE:    69 TIME:   0.008 TIME LEFT:  2.00D  GRAD.:     0.812 HEAT:  53.82584
 CYCLE:    70 TIME:   0.004 TIME LEFT:  2.00D  GRAD.:     0.737 HEAT:  53.82517
 CYCLE:    71 TIME:   0.008 TIME LEFT:  2.00D  GRAD.:     0.541 HEAT:  53.82423
 CYCLE:    72 TIME:   0.008 TIME LEFT:  2.00D  GRAD.:     0.463 HEAT:  53.82367
 CYCLE:    73 TIME:   0.004 TIME LEFT:  2.00D  GRAD.:     0.411 HEAT:  53.82306
 CYCLE:    74 TIME:   0.008 TIME LEFT:  2.00D  GRAD.:     0.328 HEAT:  53.82275
 CYCLE:    75 TIME:   0.008 TIME LEFT:  2.00D  GRAD.:     0.812 HEAT:  53.82217
 CYCLE:    76 TIME:   0.008 TIME LEFT:  2.00D  GRAD.:     0.330 HEAT:  53.82178
 CYCLE:    77 TIME:   0.008 TIME LEFT:  2.00D  GRAD.:     0.158 HEAT:  53.82139
 CYCLE:    78 TIME:   0.004 TIME LEFT:  2.00D  GRAD.:     0.167 HEAT:  53.82115
 CYCLE:    79 TIME:   0.008 TIME LEFT:  2.00D  GRAD.:     0.182 HEAT:  53.82103
 CYCLE:    80 TIME:   0.008 TIME LEFT:  2.00D  GRAD.:     0.170 HEAT:  53.82094
 CYCLE:    81 TIME:   0.004 TIME LEFT:  2.00D  GRAD.:     0.127 HEAT:  53.82074
 CYCLE:    82 TIME:   0.008 TIME LEFT:  2.00D  GRAD.:     0.150 HEAT:  53.82068
 CYCLE:    83 TIME:   0.008 TIME LEFT:  2.00D  GRAD.:     0.090 HEAT:  53.82065
 CYCLE:    84 TIME:   0.008 TIME LEFT:  2.00D  GRAD.:     0.120 HEAT:  53.82061
 CYCLE:    85 TIME:   0.008 TIME LEFT:  2.00D  GRAD.:     0.056 HEAT:  53.82059
 CYCLE:    86 TIME:   0.004 TIME LEFT:  2.00D  GRAD.:     0.079 HEAT:  53.82058
 CYCLE:    87 TIME:   0.008 TIME LEFT:  2.00D  GRAD.:     0.052 HEAT:  53.82057
 CYCLE:    88 TIME:   0.008 TIME LEFT:  2.00D  GRAD.:     0.057 HEAT:  53.82056
 CYCLE:    89 TIME:   0.004 TIME LEFT:  2.00D  GRAD.:     0.035 HEAT:  53.82055

     GRADIENT =  0.03483 IS LESS THAN CUTOFF =  0.05000



 -------------------------------------------------------------------------------
 pm3  precise nosym THREADS=1
 InChI=1S/C10H10/c1-8-6-9-4-2-3-5-10(9)7-8/h2-4,6-7H,5H2,1H3



     GEOMETRY OPTIMISED USING EIGENVECTOR FOLLOWING (EF).     
     SCF FIELD WAS ACHIEVED                                   


                              PM3 CALCULATION
                                                       MOPAC v23.1.2 MacOS
                                                       Tue Jun  3 16:33:52 2025




          FINAL HEAT OF FORMATION =         53.82055 KCAL/MOL =     225.18518 KJ/MOL


          COSMO AREA              =        175.12 SQUARE ANGSTROMS
          COSMO VOLUME            =        173.44 CUBIC ANGSTROMS

          GRADIENT NORM           =          0.03483          =       0.00779 PER ATOM
          IONIZATION POTENTIAL    =          8.756837 EV
          HOMO LUMO ENERGIES (EV) =         -8.757 -0.875
          NO. OF FILLED LEVELS    =         25
          MOLECULAR WEIGHT        =        130.1890         POINT GROUP:  C1  

          MOLECULAR DIMENSIONS (Angstroms)

            Atom       Atom       Distance
            H    16    H    13     7.81169
            H    19    H    18     5.30035
            H    11    H    15     1.78941


          SCF CALCULATIONS        =         97

          WALL-CLOCK TIME         =      0.648 SECONDS
          COMPUTATION TIME        =      0.415 SECONDS




   ATOM   CHEMICAL          X               Y               Z
  NUMBER   SYMBOL      (ANGSTROMS)     (ANGSTROMS)     (ANGSTROMS)

     1       C         -1.65168556  *  -1.30699631  *   0.10945939  *
     2       C          3.31006946  *  -0.17382326  *  -0.28946683  *
     3       C         -0.34344760  *  -0.63341006  *   0.01090178  *
     4       C          1.85503232  *  -0.00024502  *  -0.16405054  *
     5       C         -0.26117745  *   0.84196781  *   0.03042361  *
     6       C         -2.79092753  *  -0.35694117  *   0.22639538  *
     7       C          0.91542792  *  -1.13173874  *  -0.10449226  *
     8       C          1.16058454  *   1.17045442  *  -0.08479484  *
     9       C         -1.35513106  *   1.61642993  *   0.13878328  *
    10       C         -2.65211778  *   0.97982535  *   0.23925685  *
    11       H         -1.81069225  *  -1.95210203  *  -0.77962914  *
    12       H         -1.65926710  *  -1.98869067  *   0.98529583  *
    13       H          3.83469654  *   0.78932078  *  -0.32581458  *
    14       H          3.55826341  *  -0.72845136  *  -1.20439503  *
    15       H          3.70811968  *  -0.74326345  *   0.56120853  *
    16       H         -3.78505993  *  -0.81219570  *   0.30427769  *
    17       H          1.55461602  *   2.18401252  *  -0.10061134  *
    18       H         -1.29706509  *   2.70926697  *   0.15381769  *
    19       H          1.22312015  *  -2.17393832  *  -0.14903300  *
    20       H         -3.52681198  *   1.63326671  *   0.32742625  *

                             CARTESIAN COORDINATES

   1    C       -1.651685563    -1.306996314     0.109459387
   2    C        3.310069455    -0.173823263    -0.289466835
   3    C       -0.343447599    -0.633410058     0.010901779
   4    C        1.855032324    -0.000245021    -0.164050540
   5    C       -0.261177453     0.841967811     0.030423607
   6    C       -2.790927530    -0.356941172     0.226395379
   7    C        0.915427924    -1.131738741    -0.104492259
   8    C        1.160584540     1.170454422    -0.084794841
   9    C       -1.355131055     1.616429935     0.138783278
  10    C       -2.652117776     0.979825352     0.239256845
  11    H       -1.810692252    -1.952102031    -0.779629138
  12    H       -1.659267104    -1.988690668     0.985295830
  13    H        3.834696544     0.789320784    -0.325814579
  14    H        3.558263408    -0.728451360    -1.204395032
  15    H        3.708119675    -0.743263449     0.561208533
  16    H       -3.785059931    -0.812195702     0.304277690
  17    H        1.554616019     2.184012524    -0.100611342
  18    H       -1.297065094     2.709266971     0.153817687
  19    H        1.223120149    -2.173938323    -0.149032999
  20    H       -3.526811985     1.633266715     0.327426254


           Empirical Formula: C10 H10  =    20 atoms



      MOLECULAR POINT GROUP   :   C1  


                  EIGENVALUES  
 -41.11714 -35.85147 -31.01246 -30.20340 -25.38581 -25.31448 -20.97276 -19.87843
 -18.79870 -17.50906 -16.04972 -15.85011 -15.19075 -14.76754 -14.70529 -14.26332
 -13.88303 -13.32294 -12.79106 -12.43551 -12.30539 -12.07353 -11.17303  -8.82424
  -8.75684  -0.87508   1.06333   1.93553   2.48206   3.05836   3.12643   3.25606
   3.51007   3.63306   3.68418   3.98096   4.13658   4.28594   4.33245   4.33990
   4.48527   4.62858   4.70723   4.81463   5.14858   5.51344   5.58679   6.21522
   6.35529   6.39648


              NET ATOMIC CHARGES AND DIPOLE CONTRIBUTIONS

  ATOM NO.   TYPE          CHARGE      No. of ELECS.   s-Pop       p-Pop       
    1          C          -0.001499        4.0015     1.12373     2.87777
    2          C          -0.048733        4.0487     1.11644     2.93229
    3          C          -0.109460        4.1095     1.19146     2.91800
    4          C          -0.079721        4.0797     1.19386     2.88586
    5          C          -0.067155        4.0672     1.18078     2.88637
    6          C          -0.103183        4.1032     1.19776     2.90542
    7          C          -0.125437        4.1254     1.18701     2.93842
    8          C          -0.138879        4.1389     1.18465     2.95423
    9          C          -0.009090        4.0091     1.17369     2.83540
   10          C          -0.136789        4.1368     1.18070     2.95609
   11          H           0.072675        0.9273     0.92733
   12          H           0.072626        0.9274     0.92737
   13          H           0.041655        0.9583     0.95835
   14          H           0.045688        0.9543     0.95431
   15          H           0.045748        0.9543     0.95425
   16          H           0.096750        0.9032     0.90325
   17          H           0.119928        0.8801     0.88007
   18          H           0.103870        0.8961     0.89613
   19          H           0.117105        0.8829     0.88289
   20          H           0.103900        0.8961     0.89610
 DIPOLE           X         Y         Z       TOTAL
 POINT-CHG.    -0.780    -0.241     0.063     0.819
 HYBRID        -0.097    -0.013     0.008     0.098
 SUM           -0.877    -0.254     0.072     0.916


          ATOMIC ORBITAL ELECTRON POPULATIONS

     Atom    s        px        py        pz   
    1  C   1.12373   0.91004   0.96097   1.00676
    2  C   1.11644   0.92172   1.00748   1.00309
    3  C   1.19146   0.94948   0.94274   1.02578
    4  C   1.19386   0.94852   0.94236   0.99498
    5  C   1.18078   0.94248   0.93686   1.00703
    6  C   1.19776   0.98047   0.95482   0.97013
    7  C   1.18701   0.92870   0.96784   1.04188
    8  C   1.18465   0.92319   0.96928   1.06177
    9  C   1.17369   0.92639   0.97447   0.93455
   10  C   1.18070   0.96776   0.95645   1.03187
   11  H   0.92733
   12  H   0.92737
   13  H   0.95835
   14  H   0.95431
   15  H   0.95425
   16  H   0.90325
   17  H   0.88007
   18  H   0.89613
   19  H   0.88289
   20  H   0.89610
 *******************************************************************************
 **                                                                           **
 **                              MOPAC v23.1.2                                **
 **                                                                           **
 *******************************************************************************
 **          Digital Object Identifier (DOI): 10.5281/zenodo.6511958          **
 **    Visit the DOI location for information on how to cite this program.    **
 *******************************************************************************

                              PM3 CALCULATION RESULTS

 *******************************************************************************
 *  CALCULATION DONE: (MAX THREADS = 1)              Tue Jun  3 16:33:52 2025  *
 *  PM3        - The PM3 Hamiltonian to be used
 *  OLDGEO     - PREVIOUS GEOMETRY TO BE USED
 *  PRECISE    - TIGHTER CRITERIA TO BE USED
 *  NOSYM      - POINT-GROUP SYMMETRY SET TO C1
 *  THREADS=1  - MULTI-THREADING NOT USED
 *  T=         - A TIME OF 172800.0 SECONDS REQUESTED
 *  DUMP=N     - RESTART FILE WRITTEN EVERY 7200.0 SECONDS REQUESTED
 *  THERMO     - THERMODYNAMIC QUANTITIES TO BE CALCULATED
 *******************************************************************************
oldgeo thermo nosym precise THREADS=1  pm3
 InChI=1S/C10H10/c1-8-6-9-4-2-3-5-10(9)7-8/h2-4,6-7H,5H2,1H3

   ATOM   CHEMICAL          X               Y               Z
  NUMBER   SYMBOL      (ANGSTROMS)     (ANGSTROMS)     (ANGSTROMS)

     1       C         -1.65168556  *  -1.30699631  *   0.10945939  *
     2       C          3.31006946  *  -0.17382326  *  -0.28946683  *
     3       C         -0.34344760  *  -0.63341006  *   0.01090178  *
     4       C          1.85503232  *  -0.00024502  *  -0.16405054  *
     5       C         -0.26117745  *   0.84196781  *   0.03042361  *
     6       C         -2.79092753  *  -0.35694117  *   0.22639538  *
     7       C          0.91542792  *  -1.13173874  *  -0.10449226  *
     8       C          1.16058454  *   1.17045442  *  -0.08479484  *
     9       C         -1.35513106  *   1.61642993  *   0.13878328  *
    10       C         -2.65211778  *   0.97982535  *   0.23925685  *
    11       H         -1.81069225  *  -1.95210203  *  -0.77962914  *
    12       H         -1.65926710  *  -1.98869067  *   0.98529583  *
    13       H          3.83469654  *   0.78932078  *  -0.32581458  *
    14       H          3.55826341  *  -0.72845136  *  -1.20439503  *
    15       H          3.70811968  *  -0.74326345  *   0.56120853  *
    16       H         -3.78505993  *  -0.81219570  *   0.30427769  *
    17       H          1.55461602  *   2.18401252  *  -0.10061134  *
    18       H         -1.29706509  *   2.70926697  *   0.15381769  *
    19       H          1.22312015  *  -2.17393832  *  -0.14903300  *
    20       H         -3.52681198  *   1.63326671  *   0.32742625  *



          CARTESIAN COORDINATES 

    NO.       ATOM           X           Y           Z

     1         C         -1.6517     -1.3070      0.1095
     2         C          3.3101     -0.1738     -0.2895
     3         C         -0.3434     -0.6334      0.0109
     4         C          1.8550     -0.0002     -0.1641
     5         C         -0.2612      0.8420      0.0304
     6         C         -2.7909     -0.3569      0.2264
     7         C          0.9154     -1.1317     -0.1045
     8         C          1.1606      1.1705     -0.0848
     9         C         -1.3551      1.6164      0.1388
    10         C         -2.6521      0.9798      0.2393
    11         H         -1.8107     -1.9521     -0.7796
    12         H         -1.6593     -1.9887      0.9853
    13         H          3.8347      0.7893     -0.3258
    14         H          3.5583     -0.7285     -1.2044
    15         H          3.7081     -0.7433      0.5612
    16         H         -3.7851     -0.8122      0.3043
    17         H          1.5546      2.1840     -0.1006
    18         H         -1.2971      2.7093      0.1538
    19         H          1.2231     -2.1739     -0.1490
    20         H         -3.5268      1.6333      0.3274

  H: (PM3): J. J. P. STEWART, J. COMP. CHEM. 10, 209 (1989).
  C: (PM3): J. J. P. STEWART, J. COMP. CHEM. 10, 209 (1989).

           Empirical Formula: C10 H10  =    20 atoms



      MOLECULAR POINT GROUP   :   C1  


      RHF CALCULATION, NO. OF DOUBLY OCCUPIED LEVELS = 25



          HEAT OF FORMATION =      53.820550 KCALS/MOLE


          CARTESIAN COORDINATE DERIVATIVES

   NUMBER  ATOM         X            Y            Z

     1       C     -0.000411     0.000780     0.001362
     2       C      0.003724    -0.004180     0.011699
     3       C      0.002045    -0.000991    -0.006111
     4       C      0.000892    -0.002897    -0.000334
     5       C     -0.000498     0.001890    -0.010159
     6       C      0.000050    -0.000367     0.003472
     7       C      0.000050    -0.000958     0.004019
     8       C      0.000453    -0.002262    -0.003652
     9       C     -0.000818     0.000729     0.001090
    10       C      0.000325     0.001321    -0.001617
    11       H     -0.000913     0.012939    -0.007110
    12       H      0.002652    -0.006608    -0.002075
    13       H      0.008950    -0.001865    -0.001182
    14       H      0.003157    -0.002280     0.010878
    15       H     -0.004842     0.009843    -0.010323
    16       H      0.002097     0.002368     0.005747
    17       H     -0.005971    -0.000093    -0.005209
    18       H     -0.001545    -0.003607     0.002279
    19       H     -0.004670    -0.001245     0.001943
    20       H     -0.004729    -0.002515     0.005285



          GRADIENT NORM =   0.03625

          MOLECULAR WEIGHT =  130.19



          ROTATIONAL CONSTANTS IN CM(-1)

          A =    0.11927537   B =    0.03244461   C =    0.02575311



           PRINCIPAL MOMENTS OF INERTIA IN UNITS OF 10**(-40)*GRAM-CM**2

          A =      234.6901   B =      862.7858   C =     1086.9660


          ORIENTATION OF MOLECULE IN FORCE CALCULATION

    NO.       ATOM         X         Y         Z

     1          C      -1.7730   -1.0236   -0.0011
     2          C       3.3322   -1.0236   -0.0011
     3          C      -0.3443   -0.6579   -0.0011
     4          C       1.9467   -0.5301   -0.0016
     5          C       0.0617    0.7630   -0.0007
     6          C      -2.6785    0.1572    0.0029
     7          C       0.7777   -1.4245   -0.0014
     8          C       1.5254    0.7667   -0.0017
     9          C      -0.8381    1.7624    0.0016
    10          C      -2.2478    1.4304    0.0038
    11          H      -2.0012   -1.6493   -0.8889
    12          H      -2.0001   -1.6551    0.8829
    13          H       4.0587   -0.2012   -0.0101
    14          H       3.5218   -1.6515   -0.8820
    15          H       3.5262   -1.6357    0.8900
    16          H      -3.7518   -0.0654    0.0048
    17          H       2.1346    1.6676   -0.0021
    18          H      -0.5403    2.8155    0.0022
    19          H       0.8489   -2.5098   -0.0015
    20          H      -2.9598    2.2628    0.0066


    FIRST DERIVATIVES WILL BE USED IN THE CALCULATION OF SECOND DERIVATIVES

          ESTIMATED TIME TO COMPLETE CALCULATION =        2.81 SECONDS

    FOR POINT-GROUP C1   THERE ARE   1 UNIQUE SYMMETRY FUNCTIONS.

 STEP:   1 TIME =     0.02 SECS, INTEGRAL =      0.02 TIME LEFT: 172799.97
 STEP:   2 TIME =     0.02 SECS, INTEGRAL =      0.04 TIME LEFT: 172799.95
 STEP:   3 TIME =     0.02 SECS, INTEGRAL =      0.06 TIME LEFT: 172799.93
 STEP:   4 TIME =     0.02 SECS, INTEGRAL =      0.08 TIME LEFT: 172799.91
 STEP:   5 TIME =     0.02 SECS, INTEGRAL =      0.10 TIME LEFT: 172799.89
 STEP:   6 TIME =     0.02 SECS, INTEGRAL =      0.12 TIME LEFT: 172799.87
 STEP:   7 TIME =     0.02 SECS, INTEGRAL =      0.14 TIME LEFT: 172799.85
 STEP:   8 TIME =     0.02 SECS, INTEGRAL =      0.16 TIME LEFT: 172799.82
 STEP:   9 TIME =     0.02 SECS, INTEGRAL =      0.19 TIME LEFT: 172799.80
 STEP:  10 TIME =     0.02 SECS, INTEGRAL =      0.21 TIME LEFT: 172799.78
 STEP:  11 TIME =     0.02 SECS, INTEGRAL =      0.23 TIME LEFT: 172799.75
 STEP:  12 TIME =     0.02 SECS, INTEGRAL =      0.26 TIME LEFT: 172799.73
 STEP:  13 TIME =     0.02 SECS, INTEGRAL =      0.28 TIME LEFT: 172799.71
 STEP:  14 TIME =     0.02 SECS, INTEGRAL =      0.30 TIME LEFT: 172799.68
 STEP:  15 TIME =     0.02 SECS, INTEGRAL =      0.33 TIME LEFT: 172799.66
 STEP:  16 TIME =     0.02 SECS, INTEGRAL =      0.35 TIME LEFT: 172799.64
 STEP:  17 TIME =     0.02 SECS, INTEGRAL =      0.37 TIME LEFT: 172799.62
 STEP:  18 TIME =     0.02 SECS, INTEGRAL =      0.39 TIME LEFT: 172799.60
 STEP:  19 TIME =     0.02 SECS, INTEGRAL =      0.41 TIME LEFT: 172799.57
 STEP:  20 TIME =     0.02 SECS, INTEGRAL =      0.43 TIME LEFT: 172799.55
 STEP:  21 TIME =     0.02 SECS, INTEGRAL =      0.45 TIME LEFT: 172799.54
 STEP:  22 TIME =     0.02 SECS, INTEGRAL =      0.47 TIME LEFT: 172799.52
 STEP:  23 TIME =     0.02 SECS, INTEGRAL =      0.49 TIME LEFT: 172799.50
 STEP:  24 TIME =     0.02 SECS, INTEGRAL =      0.52 TIME LEFT: 172799.47
 STEP:  25 TIME =     0.02 SECS, INTEGRAL =      0.54 TIME LEFT: 172799.45
 STEP:  26 TIME =     0.02 SECS, INTEGRAL =      0.56 TIME LEFT: 172799.43
 STEP:  27 TIME =     0.02 SECS, INTEGRAL =      0.58 TIME LEFT: 172799.41
 STEP:  28 TIME =     0.02 SECS, INTEGRAL =      0.61 TIME LEFT: 172799.38
 STEP:  29 TIME =     0.02 SECS, INTEGRAL =      0.62 TIME LEFT: 172799.36
 STEP:  30 TIME =     0.02 SECS, INTEGRAL =      0.65 TIME LEFT: 172799.34
 STEP:  31 TIME =     0.02 SECS, INTEGRAL =      0.67 TIME LEFT: 172799.32
 STEP:  32 TIME =     0.02 SECS, INTEGRAL =      0.69 TIME LEFT: 172799.30
 STEP:  33 TIME =     0.02 SECS, INTEGRAL =      0.71 TIME LEFT: 172799.28
 STEP:  34 TIME =     0.02 SECS, INTEGRAL =      0.73 TIME LEFT: 172799.25
 STEP:  35 TIME =     0.02 SECS, INTEGRAL =      0.75 TIME LEFT: 172799.23
 STEP:  36 TIME =     0.02 SECS, INTEGRAL =      0.77 TIME LEFT: 172799.21
 STEP:  37 TIME =     0.02 SECS, INTEGRAL =      0.79 TIME LEFT: 172799.20
 STEP:  38 TIME =     0.02 SECS, INTEGRAL =      0.81 TIME LEFT: 172799.18
 STEP:  39 TIME =     0.02 SECS, INTEGRAL =      0.84 TIME LEFT: 172799.15
 STEP:  40 TIME =     0.02 SECS, INTEGRAL =      0.86 TIME LEFT: 172799.13
 STEP:  41 TIME =     0.02 SECS, INTEGRAL =      0.88 TIME LEFT: 172799.11
 STEP:  42 TIME =     0.02 SECS, INTEGRAL =      0.90 TIME LEFT: 172799.09
 STEP:  43 TIME =     0.02 SECS, INTEGRAL =      0.92 TIME LEFT: 172799.07
 STEP:  44 TIME =     0.02 SECS, INTEGRAL =      0.94 TIME LEFT: 172799.05
 STEP:  45 TIME =     0.02 SECS, INTEGRAL =      0.96 TIME LEFT: 172799.03
 STEP:  46 TIME =     0.02 SECS, INTEGRAL =      0.98 TIME LEFT: 172799.01
 STEP:  47 TIME =     0.02 SECS, INTEGRAL =      1.00 TIME LEFT: 172798.99
 STEP:  48 TIME =     0.02 SECS, INTEGRAL =      1.02 TIME LEFT: 172798.97
 STEP:  49 TIME =     0.02 SECS, INTEGRAL =      1.04 TIME LEFT: 172798.95
 STEP:  50 TIME =     0.02 SECS, INTEGRAL =      1.05 TIME LEFT: 172798.93
 STEP:  51 TIME =     0.02 SECS, INTEGRAL =      1.08 TIME LEFT: 172798.91
 STEP:  52 TIME =     0.02 SECS, INTEGRAL =      1.10 TIME LEFT: 172798.89
 STEP:  53 TIME =     0.02 SECS, INTEGRAL =      1.12 TIME LEFT: 172798.87
 STEP:  54 TIME =     0.02 SECS, INTEGRAL =      1.14 TIME LEFT: 172798.85
 STEP:  55 TIME =     0.02 SECS, INTEGRAL =      1.16 TIME LEFT: 172798.83
 STEP:  56 TIME =     0.02 SECS, INTEGRAL =      1.18 TIME LEFT: 172798.81
 STEP:  57 TIME =     0.02 SECS, INTEGRAL =      1.20 TIME LEFT: 172798.79
 STEP:  58 TIME =     0.02 SECS, INTEGRAL =      1.22 TIME LEFT: 172798.77
 STEP:  59 TIME =     0.02 SECS, INTEGRAL =      1.24 TIME LEFT: 172798.75
 STEP:  60 TIME =     0.02 SECS, INTEGRAL =      1.26 TIME LEFT: 172798.73

(To convert to Hartree/Bohr^2, multiply by (10^(-21) x N x a0^2)/(4.184 x 627.51) =  0.0642)


           FORCE MATRIX IN MILLIDYNES/ANGSTROM


                  C  1       C  2       C  3       C  4       C  5       C  6
 ------------------------------------------------------------------------------
     C    1  15.103633
     C    2   0.008575  14.887432
     C    3   5.319629   0.051152  18.976448
     C    4   0.135310   5.532006   1.641953  18.539493
     C    5   0.619198   0.125450   4.613694   1.662026  19.475116
     C    6   4.855402   0.002805   0.770248   0.108248   0.326845  17.696995
     C    7   0.618250   0.545402   9.138630   4.747860   1.501659   0.107854
     C    8   0.089480   0.680358   1.155529   8.941410   4.953160   0.130198
     C    9   0.173218   0.017441   0.942078   0.249364   9.558328   1.253112
     C   10   0.846983   0.010403   0.185565   0.133435   1.359715   9.878217
     H   11   4.363430   0.000796   0.412801   0.012794   0.026607   0.416205
     H   12   4.364016   0.000804   0.413035   0.012768   0.026733   0.416551
     H   13   0.001688   4.751677   0.007722   0.470464   0.003607   0.000489
     H   14   0.000821   4.703850   0.004038   0.451228   0.018307   0.001120
     H   15   0.000823   4.702718   0.004055   0.450662   0.018405   0.001135
     H   16   0.420337   0.001115   0.056418   0.007654   0.014255   4.818464
     H   17   0.011914   0.047186   0.039781   0.453465   0.421056   0.001917
     H   18   0.007510   0.003091   0.120754   0.016991   0.454506   0.049294
     H   19   0.048393   0.007692   0.455141   0.424767   0.103010   0.002651
     H   20   0.121114   0.000654   0.005300   0.005785   0.050035   0.443748


                  C  7       C  8       C  9       C 10       H 11       H 12
 ------------------------------------------------------------------------------
     C    7  17.972708
     C    8   1.512818  17.961609
     C    9   0.208093   0.948478  18.079513
     C   10   0.126854   0.239517   5.524223  18.025939
     H   11   0.018104   0.007673   0.018607   0.042171   4.951723
     H   12   0.018108   0.007688   0.018593   0.042318   0.565211   4.952694
     H   13   0.044803   0.023175   0.001066   0.000240   0.000127   0.000126
     H   14   0.015225   0.030125   0.001358   0.001704   0.000207   0.000118
     H   15   0.015080   0.029676   0.001347   0.001714   0.000121   0.000209
     H   16   0.007508   0.012022   0.122867   0.441643   0.028457   0.028571
     H   17   0.089529   5.078183   0.014635   0.004771   0.002400   0.002401
     H   18   0.022171   0.069895   4.877176   0.435383   0.001589   0.001591
     H   19   5.081414   0.046087   0.009361   0.006724   0.007242   0.007233
     H   20   0.005316   0.010359   0.437936   4.842474   0.016309   0.016288


                  H 13       H 14       H 15       H 16       H 17       H 18
 ------------------------------------------------------------------------------
     H   13   5.453557
     H   14   0.558188   5.414166
     H   15   0.558515   0.573756   5.413224
     H   16   0.000157   0.000234   0.000237   5.187214
     H   17   0.010330   0.005838   0.005917   0.000553   5.486463
     H   18   0.000233   0.000490   0.000494   0.008560   0.007016   5.233763
     H   19   0.001680   0.003491   0.003324   0.000991   0.004828   0.007652
     H   20   0.000084   0.000143   0.000143   0.066841   0.000704   0.029964


                  H 19       H 20
 ------------------------------
     H   19   5.482768
     H   20   0.000351   5.204961


          HEAT OF FORMATION =      53.820550 KCALS/MOLE

          ZERO POINT ENERGY     105.069 KCAL/MOL


           NORMAL COORDINATE ANALYSIS (Total motion = 1 Angstrom)


   Root No.       1         2         3         4         5         6         7         8

                 1 A       2 A       3 A       4 A       5 A       6 A       7 A       8 A   

                  87.4      99.7     170.6     223.3     257.4     345.5     427.5     461.5
  
           1    0.0000   -0.0000   -0.0000   -0.0000   -0.0234    0.0001   -0.0000    0.0115
           2   -0.0000    0.0001    0.0001   -0.0001    0.0072    0.0001   -0.0001    0.0033
           3    0.0160   -0.0312   -0.0487    0.0171   -0.0001   -0.0093    0.0004    0.0000
           4   -0.0000   -0.0000    0.0000    0.0000    0.0279   -0.0000   -0.0000    0.0133
           5   -0.0000    0.0000    0.0000    0.0002    0.0699   -0.0000   -0.0000    0.0152
           6   -0.0118    0.0512   -0.0438    0.0166   -0.0000    0.0177   -0.0014    0.0000
           7    0.0000   -0.0000    0.0000   -0.0000   -0.0109    0.0001   -0.0000   -0.0057
           8    0.0000    0.0000   -0.0000   -0.0000   -0.0305   -0.0000   -0.0000    0.0503
           9    0.0092   -0.0261    0.0269   -0.0041    0.0000    0.0788    0.0169    0.0000
          10    0.0000   -0.0000    0.0000   -0.0000   -0.0066    0.0000   -0.0000   -0.0119
          11    0.0000    0.0000   -0.0000   -0.0000   -0.0249   -0.0000    0.0000   -0.0475
          12    0.0021   -0.0011    0.0237   -0.0177    0.0000   -0.0535    0.0097   -0.0000
          13    0.0000   -0.0000   -0.0000   -0.0000   -0.0071    0.0001   -0.0000    0.0257
          14    0.0000    0.0000    0.0000   -0.0000   -0.0321   -0.0000   -0.0000    0.0424
          15    0.0037   -0.0421    0.0021   -0.0128    0.0001    0.0611   -0.0020    0.0001
          16   -0.0000    0.0001   -0.0000   -0.0001   -0.0016   -0.0001   -0.0000   -0.0106
          17    0.0000   -0.0001   -0.0000    0.0001    0.0278    0.0000    0.0001   -0.0244
          18   -0.0037    0.0407   -0.0161   -0.0520    0.0001   -0.0064   -0.0483   -0.0000
          19    0.0000   -0.0000    0.0000   -0.0000   -0.0065    0.0001    0.0000   -0.0419
          20    0.0000    0.0000   -0.0000   -0.0000   -0.0305   -0.0000    0.0000    0.0000
          21    0.0063    0.0015    0.0783    0.0167   -0.0001   -0.0194   -0.0079    0.0000
          22    0.0000   -0.0000   -0.0000   -0.0001   -0.0133   -0.0000   -0.0000    0.0299
          23    0.0000    0.0000   -0.0000   -0.0000   -0.0282   -0.0000    0.0000   -0.0302
          24    0.0048   -0.0423   -0.0126   -0.0569    0.0001   -0.0344    0.0103   -0.0000
          25   -0.0000    0.0000   -0.0000    0.0002    0.0191   -0.0001   -0.0000   -0.0081
          26    0.0000   -0.0000   -0.0000   -0.0001   -0.0100    0.0000    0.0001    0.0164
          27   -0.0083   -0.0113    0.0048    0.0652   -0.0001   -0.0040   -0.0464   -0.0000
          28   -0.0000    0.0001   -0.0000    0.0001    0.0144   -0.0001    0.0002   -0.0058
          29    0.0000   -0.0001   -0.0001    0.0000    0.0225    0.0000   -0.0001   -0.0262
          30   -0.0146    0.0444    0.0121    0.0149   -0.0000   -0.0073    0.0679    0.0000
          31   -0.0007   -0.0079    0.0405    0.0007   -0.0410    0.0604    0.0158    0.0378
          32   -0.0164    0.0530    0.0639   -0.0680    0.0141    0.0669   -0.0804   -0.0069
          33    0.0278   -0.0669   -0.1049    0.0657   -0.0003   -0.0734    0.0551    0.0002
          34    0.0008    0.0077   -0.0405   -0.0007   -0.0412   -0.0602   -0.0157    0.0381
          35    0.0163   -0.0527   -0.0634    0.0676    0.0137   -0.0664    0.0800   -0.0066
          36    0.0280   -0.0673   -0.1054    0.0662   -0.0001   -0.0739    0.0558    0.0000
          37    0.0007    0.0004   -0.0004    0.0002   -0.0399    0.0006   -0.0001   -0.0462
          38    0.0021    0.0003    0.0001    0.0002    0.1314   -0.0002   -0.0000    0.0700
          39    0.2401    0.1192   -0.0674    0.0365    0.0002    0.0550   -0.0075    0.0001
          40    0.0633    0.0456   -0.0443    0.0256    0.0822    0.0601   -0.0105    0.0631
          41    0.2169    0.0330    0.0152   -0.0011    0.0881   -0.0153    0.0030    0.0322
          42   -0.1533    0.0375   -0.0646    0.0232   -0.0007    0.0423   -0.0059   -0.0006
          43   -0.0642   -0.0463    0.0448   -0.0257    0.0808   -0.0609    0.0105    0.0618
          44   -0.2195   -0.0334   -0.0154    0.0015    0.0881    0.0153   -0.0030    0.0325
          45   -0.1491    0.0383   -0.0646    0.0233    0.0004    0.0424   -0.0059    0.0005
          46   -0.0000    0.0002   -0.0000   -0.0003   -0.0054   -0.0001   -0.0002   -0.0081
          47    0.0000   -0.0001   -0.0001    0.0003    0.0458   -0.0001    0.0002   -0.0356
          48   -0.0085    0.0873   -0.0196   -0.1420    0.0002   -0.0151   -0.1073   -0.0000
          49    0.0000   -0.0000   -0.0000   -0.0001   -0.0159   -0.0000   -0.0001    0.0844
          50    0.0000    0.0000   -0.0000   -0.0000   -0.0261    0.0000    0.0001   -0.0668
          51    0.0069   -0.0581   -0.0581   -0.1033    0.0002   -0.0612    0.0286   -0.0001
          52   -0.0000   -0.0000   -0.0000    0.0003    0.0497   -0.0002   -0.0002   -0.0569
          53    0.0000   -0.0000   -0.0000   -0.0002   -0.0186    0.0001    0.0002    0.0302
          54   -0.0150   -0.0157    0.0003    0.1326   -0.0003   -0.0829   -0.1663   -0.0001
          55    0.0000   -0.0000    0.0000    0.0000   -0.0045    0.0001    0.0001   -0.1112
          56    0.0000    0.0000   -0.0000   -0.0000   -0.0302   -0.0000    0.0000   -0.0043
          57    0.0093    0.0254    0.1290    0.0510   -0.0002   -0.0907   -0.0468    0.0001
          58   -0.0001    0.0002    0.0000    0.0000    0.0298   -0.0001    0.0005   -0.0186
          59    0.0000   -0.0001   -0.0001    0.0000    0.0355    0.0000   -0.0003   -0.0366
          60   -0.0289    0.0948    0.0377    0.0020    0.0000   -0.0198    0.2099    0.0001


   Root No.       9        10        11        12        13        14        15        16

                 9 A      10 A      11 A      12 A      13 A      14 A      15 A      16 A   

                 484.2     552.2     591.3     646.8     660.1     746.9     839.5     855.3
  
           1    0.0137    0.0000    0.0712   -0.0003   -0.0262   -0.0000   -0.0001   -0.0175
           2   -0.0530   -0.0001    0.0237   -0.0004   -0.0489    0.0001   -0.0002   -0.0602
           3   -0.0001   -0.0003   -0.0000   -0.0285    0.0002   -0.0185   -0.0358    0.0002
           4   -0.0629    0.0000   -0.0095    0.0005    0.0649   -0.0000   -0.0000   -0.0112
           5    0.0244   -0.0000   -0.0052   -0.0002   -0.0252    0.0000    0.0000    0.0033
           6   -0.0000    0.0047   -0.0000   -0.0013    0.0001   -0.0004    0.0038   -0.0001
           7   -0.0138   -0.0000    0.0457   -0.0003   -0.0301    0.0000   -0.0001   -0.0188
           8   -0.0004    0.0000   -0.0077    0.0000    0.0032   -0.0000    0.0000   -0.0050
           9    0.0001    0.0025   -0.0002   -0.0553    0.0006    0.0320    0.0096    0.0000
          10   -0.0499   -0.0000   -0.0149    0.0003    0.0362   -0.0000   -0.0000   -0.0032
          11    0.0097    0.0000   -0.0283   -0.0000   -0.0069    0.0000    0.0000    0.0012
          12   -0.0001    0.0945   -0.0000   -0.0138   -0.0000   -0.0017    0.0005   -0.0000
          13   -0.0056   -0.0000   -0.0392   -0.0002   -0.0419    0.0000    0.0001    0.0287
          14    0.0062    0.0000    0.0120   -0.0000    0.0124   -0.0000   -0.0000   -0.0015
          15    0.0002    0.0210   -0.0000    0.0827   -0.0008   -0.0137   -0.0029   -0.0002
          16    0.0691    0.0001    0.0561    0.0002    0.0288   -0.0001    0.0003    0.0603
          17   -0.0197   -0.0000    0.0122    0.0000   -0.0017    0.0000    0.0001    0.0193
          18   -0.0001    0.0052   -0.0001    0.0028   -0.0001   -0.0203    0.0104   -0.0001
          19   -0.0274   -0.0000    0.0185   -0.0000   -0.0048    0.0000   -0.0001   -0.0145
          20   -0.0065    0.0000   -0.0481    0.0003    0.0324   -0.0000    0.0001    0.0177
          21    0.0001   -0.0354    0.0000    0.0183   -0.0001    0.0046    0.0258   -0.0001
          22   -0.0227   -0.0001   -0.0411   -0.0002   -0.0292    0.0000    0.0002    0.0615
          23    0.0143   -0.0000   -0.0298   -0.0002   -0.0239    0.0000    0.0001    0.0181
          24    0.0001   -0.0409    0.0000   -0.0061    0.0001    0.0001   -0.0340    0.0005
          25    0.0419    0.0000   -0.0435   -0.0001   -0.0054   -0.0000   -0.0001   -0.0279
          26    0.0403    0.0001    0.0275    0.0004    0.0555   -0.0001   -0.0003   -0.0462
          27    0.0000    0.0067    0.0001   -0.0062    0.0001   -0.0012    0.0188   -0.0002
          28    0.0626    0.0000   -0.0480   -0.0000    0.0039   -0.0001   -0.0002   -0.0547
          29   -0.0141    0.0000    0.0482    0.0001    0.0116    0.0001    0.0002    0.0600
          30   -0.0002   -0.0059    0.0002   -0.0076    0.0001   -0.0317    0.0093    0.0002
          31    0.0160   -0.0061    0.0752   -0.0682   -0.0395    0.0232   -0.0449   -0.0562
          32   -0.0562    0.0012    0.0251   -0.0880   -0.0489   -0.0788   -0.0815   -0.0608
          33    0.0010    0.0005   -0.0022    0.0538    0.0029    0.0338    0.0358    0.0082
          34    0.0160    0.0061    0.0754    0.0673   -0.0410   -0.0229    0.0445   -0.0573
          35   -0.0563   -0.0014    0.0255    0.0869   -0.0505    0.0786    0.0808   -0.0622
          36   -0.0013    0.0005    0.0025    0.0544   -0.0041    0.0344    0.0363   -0.0091
          37   -0.0725   -0.0009   -0.0282    0.0009    0.0768   -0.0000   -0.0003   -0.0350
          38    0.0326    0.0003    0.0111   -0.0004   -0.0349    0.0000    0.0001    0.0254
          39    0.0000   -0.0451   -0.0000    0.0150   -0.0000    0.0013   -0.0099    0.0002
          40   -0.0630   -0.0946    0.0036    0.0292    0.0729    0.0025   -0.0235    0.0045
          41    0.0269    0.0337   -0.0012   -0.0093   -0.0285   -0.0007    0.0083    0.0112
          42   -0.0014   -0.0413   -0.0001    0.0120    0.0031    0.0007   -0.0079   -0.0015
          43   -0.0635    0.0958    0.0032   -0.0284    0.0734   -0.0027    0.0238    0.0028
          44    0.0271   -0.0341   -0.0011    0.0089   -0.0288    0.0008   -0.0083    0.0118
          45    0.0015   -0.0412    0.0001    0.0119   -0.0033    0.0007   -0.0079    0.0019
          46    0.0628    0.0001    0.0712    0.0004    0.0223    0.0005    0.0004    0.0636
          47    0.0105   -0.0000   -0.0618    0.0001    0.0265   -0.0004   -0.0001    0.0037
          48    0.0002    0.0054   -0.0002    0.0987   -0.0007    0.2558    0.0324   -0.0007
          49   -0.0147   -0.0002   -0.0281   -0.0005   -0.0594    0.0001    0.0006    0.1263
          50    0.0087   -0.0001   -0.0391    0.0000   -0.0032   -0.0000   -0.0000   -0.0243
          51    0.0002   -0.2338    0.0000   -0.1204    0.0015    0.0053    0.2049   -0.0027
          52    0.0498   -0.0000   -0.0290   -0.0002   -0.0044    0.0003   -0.0001   -0.0014
          53    0.0372    0.0001    0.0239    0.0005    0.0553   -0.0002   -0.0002   -0.0542
          54    0.0000   -0.0239    0.0000   -0.0896    0.0011    0.1595   -0.0942    0.0009
          55   -0.0264   -0.0001    0.0012   -0.0001   -0.0239    0.0000   -0.0001   -0.0114
          56   -0.0062    0.0000   -0.0495    0.0003    0.0310   -0.0000    0.0001    0.0181
          57    0.0001   -0.2107    0.0003    0.1015   -0.0009   -0.0784   -0.1290    0.0004
          58    0.0361   -0.0001   -0.0888   -0.0002   -0.0330    0.0004   -0.0005   -0.0681
          59   -0.0369   -0.0000    0.0127   -0.0001   -0.0194   -0.0002    0.0004    0.0502
          60   -0.0002   -0.0330    0.0003    0.0407   -0.0002    0.1923   -0.1275    0.0007


   Root No.      17        18        19        20        21        22        23        24

                17 A      18 A      19 A      20 A      21 A      22 A      23 A      24 A   

                 868.6     891.3     918.0     945.9     967.1    1007.2    1008.1    1018.1
  
           1   -0.0000   -0.0285    0.0001   -0.0000   -0.0015   -0.0001   -0.0000   -0.0097
           2   -0.0001   -0.0175   -0.0000    0.0001   -0.0011    0.0002    0.0000    0.0355
           3    0.0157    0.0000    0.0297   -0.0266    0.0000   -0.0187   -0.0180    0.0002
           4   -0.0000   -0.0126    0.0000   -0.0000    0.0240    0.0000   -0.0000    0.0097
           5    0.0000    0.0047    0.0000   -0.0000    0.0527   -0.0000    0.0000   -0.0079
           6    0.0169   -0.0000   -0.0013    0.0135   -0.0000    0.0222   -0.0327   -0.0002
           7   -0.0000    0.0182   -0.0001    0.0000   -0.0007   -0.0000   -0.0000   -0.0037
           8   -0.0000   -0.0339    0.0001   -0.0000    0.0009   -0.0001    0.0000   -0.0075
           9   -0.0011   -0.0001   -0.0333    0.0171    0.0000    0.0179    0.0200   -0.0000
          10   -0.0000   -0.0042    0.0000   -0.0000    0.0053   -0.0001    0.0001   -0.0031
          11    0.0000   -0.0036    0.0000    0.0000    0.0026    0.0001   -0.0000    0.0073
          12    0.0116    0.0000   -0.0014   -0.0046    0.0000   -0.0276    0.0412    0.0003
          13    0.0001    0.0076    0.0000    0.0000    0.0049    0.0000   -0.0000    0.0063
          14   -0.0000    0.0367   -0.0001    0.0000    0.0031    0.0000   -0.0000    0.0006
          15    0.0164    0.0000    0.0245    0.0240   -0.0000   -0.0186   -0.0046    0.0001
          16    0.0001   -0.0219    0.0001    0.0001    0.0050    0.0003    0.0000    0.0445
          17    0.0001    0.0011   -0.0000   -0.0000   -0.0001   -0.0001   -0.0000   -0.0102
          18   -0.0129    0.0000    0.0020    0.0285   -0.0000    0.0272    0.0264   -0.0004
          19   -0.0001    0.0341   -0.0001    0.0000   -0.0205   -0.0001    0.0001   -0.0142
          20    0.0000   -0.0362    0.0001   -0.0000   -0.0266   -0.0002    0.0001   -0.0136
          21   -0.0342    0.0001    0.0371   -0.0128   -0.0000    0.0010   -0.0231   -0.0001
          22    0.0001    0.0235   -0.0000    0.0000    0.0030    0.0000   -0.0000    0.0031
          23    0.0001    0.0016   -0.0000    0.0000   -0.0099    0.0002   -0.0001    0.0186
          24   -0.0361   -0.0001   -0.0249   -0.0132    0.0000    0.0205   -0.0154   -0.0002
          25   -0.0000   -0.0038   -0.0000   -0.0001   -0.0011   -0.0000    0.0000   -0.0098
          26   -0.0001    0.0519   -0.0001    0.0001   -0.0006   -0.0001   -0.0000   -0.0104
          27    0.0121    0.0001   -0.0125   -0.0529   -0.0000    0.0259    0.0111   -0.0002
          28   -0.0001   -0.0035   -0.0001    0.0000   -0.0033   -0.0000   -0.0001    0.0119
          29    0.0001   -0.0046    0.0001   -0.0000    0.0017   -0.0001    0.0000   -0.0215
          30   -0.0127   -0.0000   -0.0232    0.0129    0.0000   -0.0333   -0.0246    0.0002
          31    0.0304   -0.0799   -0.0445   -0.0277   -0.0059   -0.0793   -0.0383   -0.1408
          32    0.0296   -0.0066    0.0895   -0.0541   -0.0003   -0.0156   -0.0283    0.0988
          33   -0.0141    0.0049   -0.0243    0.0204    0.0004    0.0136    0.0127   -0.0103
          34   -0.0305   -0.0798    0.0444    0.0275   -0.0059    0.0774    0.0384   -0.1408
          35   -0.0298   -0.0070   -0.0892    0.0540   -0.0002    0.0168    0.0281    0.0982
          36   -0.0143   -0.0050   -0.0250    0.0208   -0.0003    0.0137    0.0129    0.0109
          37   -0.0010   -0.0137    0.0001   -0.0006    0.2652   -0.0008    0.0012    0.0019
          38    0.0003    0.0052   -0.0001    0.0002   -0.1668    0.0002   -0.0003    0.0004
          39   -0.0331   -0.0000    0.0019   -0.0202   -0.0000   -0.0286    0.0421    0.0003
          40   -0.0894   -0.0202    0.0062   -0.0612   -0.1783   -0.0925    0.1365    0.0364
          41    0.0313    0.0048   -0.0020    0.0220   -0.0137    0.0339   -0.0501   -0.0056
          42   -0.0265   -0.0014    0.0014   -0.0166    0.0018   -0.0238    0.0352    0.0032
          43    0.0906   -0.0204   -0.0064    0.0621   -0.1737    0.0942   -0.1386    0.0341
          44   -0.0315    0.0049    0.0020   -0.0223   -0.0152   -0.0343    0.0507   -0.0049
          45   -0.0264    0.0015    0.0014   -0.0165   -0.0017   -0.0237    0.0350   -0.0027
          46    0.0002   -0.0314   -0.0001   -0.0003    0.0061    0.0001   -0.0002    0.0478
          47   -0.0001    0.0390    0.0000    0.0002   -0.0052   -0.0001    0.0001   -0.0285
          48    0.0572    0.0000   -0.0934   -0.1305   -0.0000   -0.1089   -0.0980    0.0009
          49    0.0004    0.1172   -0.0001    0.0001    0.0399   -0.0002    0.0001   -0.0397
          50   -0.0000   -0.0606    0.0001    0.0000   -0.0353    0.0003   -0.0002    0.0489
          51    0.1505    0.0005    0.1116    0.0344   -0.0001   -0.0711    0.0524    0.0005
          52   -0.0001   -0.0918    0.0003    0.0003   -0.0115   -0.0007    0.0002   -0.1006
          53   -0.0000    0.0790   -0.0003   -0.0002    0.0022    0.0002   -0.0000    0.0143
          54   -0.0536    0.0002    0.0595    0.2492    0.0001   -0.0897   -0.0233    0.0008
          55   -0.0000    0.1500   -0.0004    0.0002   -0.1055   -0.0002    0.0002   -0.0439
          56   -0.0000   -0.0312    0.0001   -0.0000   -0.0326   -0.0002    0.0001   -0.0158
          57    0.1801   -0.0006   -0.1595    0.0611    0.0002    0.0011    0.0782    0.0002
          58    0.0000   -0.0343    0.0004   -0.0001   -0.0109   -0.0002    0.0002   -0.0722
          59   -0.0000   -0.0293   -0.0002    0.0000   -0.0047   -0.0008   -0.0001   -0.0963
          60    0.0681    0.0003    0.1652   -0.0352   -0.0000    0.1210    0.0887   -0.0009


   Root No.      25        26        27        28        29        30        31        32

                25 A      26 A      27 A      28 A      29 A      30 A      31 A      32 A   

                1046.1    1047.6    1085.3    1140.1    1152.9    1155.6    1188.2    1294.6
  
           1   -0.0001   -0.0006   -0.0050   -0.0010    0.0079   -0.0018    0.0080    0.0037
           2   -0.0007    0.0216    0.0108    0.0137    0.0041    0.0101   -0.0096    0.0019
           3   -0.0044   -0.0001    0.0000    0.0001   -0.0000    0.0000   -0.0000   -0.0000
           4    0.0008   -0.0195    0.0041    0.0205    0.0112    0.0053    0.0065    0.0024
           5   -0.0006    0.0161   -0.0024   -0.0018   -0.0108   -0.0032    0.0015   -0.0007
           6    0.0026    0.0002   -0.0000   -0.0000   -0.0000   -0.0000   -0.0000    0.0000
           7    0.0005   -0.0135   -0.0082   -0.0293    0.0023   -0.0026    0.0143   -0.0174
           8   -0.0004    0.0095   -0.0106   -0.0044   -0.0098   -0.0009    0.0294   -0.0251
           9   -0.0298   -0.0009   -0.0000    0.0000   -0.0000    0.0000    0.0000   -0.0000
          10   -0.0004    0.0097   -0.0024   -0.0220   -0.0129   -0.0064   -0.0123    0.0164
          11    0.0007   -0.0165    0.0073    0.0040    0.0210    0.0076   -0.0094   -0.0015
          12   -0.0048   -0.0002    0.0000    0.0000    0.0000    0.0000    0.0000   -0.0000
          13    0.0004   -0.0105   -0.0034    0.0032   -0.0241   -0.0093    0.0082   -0.0291
          14    0.0005   -0.0121   -0.0084   -0.0004   -0.0004   -0.0104    0.0271   -0.0109
          15    0.0037    0.0001   -0.0000    0.0000    0.0000    0.0000    0.0000   -0.0000
          16   -0.0005    0.0189   -0.0155    0.0103    0.0021    0.0063    0.0060    0.0129
          17    0.0002   -0.0072   -0.0148    0.0025   -0.0067    0.0044   -0.0141   -0.0210
          18    0.0445    0.0012    0.0000   -0.0000   -0.0000   -0.0000   -0.0000   -0.0001
          19   -0.0009    0.0215   -0.0112   -0.0392    0.0012   -0.0053   -0.0077   -0.0140
          20   -0.0023    0.0590   -0.0099   -0.0118   -0.0022   -0.0036   -0.0135    0.0016
          21    0.0116    0.0004    0.0000    0.0000    0.0000    0.0000   -0.0000    0.0000
          22    0.0004   -0.0108    0.0198    0.0008   -0.0210   -0.0003   -0.0114    0.0491
          23    0.0019   -0.0484    0.0145    0.0121    0.0266    0.0119   -0.0022   -0.0008
          24   -0.0012    0.0000   -0.0000   -0.0000    0.0000   -0.0000   -0.0000   -0.0000
          25   -0.0000   -0.0004    0.0321    0.0003   -0.0124   -0.0071   -0.0187   -0.0152
          26    0.0003   -0.0093    0.0347   -0.0061   -0.0030   -0.0062   -0.0097    0.0262
          27    0.0080    0.0002   -0.0000   -0.0000    0.0000   -0.0000    0.0000    0.0001
          28   -0.0001    0.0047   -0.0283    0.0059    0.0102    0.0066   -0.0071   -0.0144
          29    0.0003   -0.0100    0.0064    0.0023   -0.0091   -0.0078   -0.0095   -0.0140
          30   -0.0201   -0.0006    0.0001   -0.0000   -0.0000   -0.0000    0.0000    0.0000
          31    0.2899   -0.0356   -0.0127    0.0895   -0.0264    0.0849   -0.0905    0.0540
          32   -0.1083    0.0469    0.0163   -0.0074    0.0247   -0.0064    0.0175    0.1116
          33   -0.0018   -0.0081   -0.0026   -0.0076   -0.0052   -0.0076    0.0055   -0.0774
          34   -0.2866   -0.0525   -0.0133    0.0899   -0.0265    0.0855   -0.0910    0.0543
          35    0.1051    0.0530    0.0164   -0.0076    0.0247   -0.0065    0.0176    0.1110
          36   -0.0012    0.0083    0.0028    0.0074    0.0054    0.0075   -0.0053    0.0780
          37    0.0003   -0.0104    0.0050    0.0690    0.0196    0.0137    0.0330   -0.0424
          38   -0.0002    0.0050   -0.0020   -0.0418   -0.0144   -0.0090   -0.0215    0.0357
          39   -0.0031   -0.0003    0.0000    0.0002    0.0002    0.0001    0.0001   -0.0003
          40   -0.0073   -0.0752    0.0167    0.0437    0.0629    0.0242    0.0100   -0.0524
          41    0.0034    0.0129   -0.0014   -0.0141   -0.0123   -0.0048   -0.0070    0.0199
          42   -0.0024   -0.0076    0.0016    0.0106    0.0097    0.0041    0.0052   -0.0212
          43    0.0134   -0.0730    0.0164    0.0436    0.0622    0.0240    0.0102   -0.0522
          44   -0.0044    0.0123   -0.0014   -0.0142   -0.0123   -0.0048   -0.0072    0.0202
          45   -0.0029    0.0073   -0.0016   -0.0106   -0.0096   -0.0041   -0.0052    0.0211
          46   -0.0011    0.0262    0.0243    0.0280    0.0079   -0.0434   -0.0194   -0.0080
          47    0.0020   -0.0436   -0.2265   -0.0778   -0.0320    0.2531    0.1107    0.0869
          48   -0.0942   -0.0027   -0.0004   -0.0002   -0.0000    0.0005    0.0002    0.0002
          49   -0.0038    0.0969    0.0254    0.0236    0.2428    0.0881   -0.0559   -0.0192
          50    0.0050   -0.1253    0.0125   -0.0025   -0.1510   -0.0473    0.0277    0.0480
          51    0.0067    0.0000   -0.0000   -0.0000   -0.0001   -0.0001    0.0000    0.0000
          52   -0.0017    0.0217    0.2917   -0.0744    0.0513    0.0636    0.1815    0.0397
          53    0.0008   -0.0170   -0.0380    0.0149   -0.0216   -0.0283   -0.0671    0.0125
          54   -0.0316   -0.0010   -0.0005    0.0001   -0.0001   -0.0001   -0.0004   -0.0001
          55   -0.0056    0.1428    0.0049    0.2577   -0.0941    0.0076    0.1264   -0.0033
          56   -0.0027    0.0692   -0.0093    0.0066   -0.0080   -0.0028   -0.0056    0.0019
          57   -0.0420   -0.0013   -0.0000   -0.0000    0.0000   -0.0000   -0.0000    0.0000
          58    0.0011   -0.0334   -0.1458    0.0311    0.1241   -0.1742    0.0649    0.0960
          59    0.0012   -0.0446   -0.0956    0.0234    0.0871   -0.1633    0.0516    0.0808
          60    0.0493    0.0013    0.0001   -0.0000   -0.0001    0.0001   -0.0001   -0.0001


   Root No.      33        34        35        36        37        38        39        40

                33 A      34 A      35 A      36 A      37 A      38 A      39 A      40 A   

                1341.5    1356.0    1370.4    1389.1    1392.2    1432.5    1476.3    1504.0
  
           1   -0.0286    0.0629    0.0317    0.0000   -0.0084    0.0163   -0.0429   -0.0613
           2    0.0372    0.0239   -0.0260   -0.0001    0.0035   -0.0442   -0.0048    0.0046
           3    0.0001    0.0000   -0.0001   -0.0000    0.0000   -0.0001    0.0000    0.0001
           4    0.0188   -0.0073    0.0323   -0.0002   -0.0245    0.0002   -0.0626    0.0446
           5   -0.0131    0.0056   -0.0248   -0.0009   -0.0276    0.0049    0.0111   -0.0080
           6    0.0001   -0.0000    0.0003   -0.0443    0.0007   -0.0000    0.0000   -0.0000
           7   -0.0016   -0.0047    0.0020    0.0000    0.0012    0.0213    0.0286    0.0349
           8    0.0013   -0.0020    0.0155    0.0001   -0.0043    0.0354    0.0788    0.0837
           9   -0.0000    0.0000    0.0000   -0.0001   -0.0000    0.0000    0.0000    0.0000
          10    0.0216   -0.0056    0.0131    0.0002   -0.0113   -0.0081    0.0857   -0.0750
          11    0.0058   -0.0015    0.0175    0.0001   -0.0067   -0.0189    0.0567   -0.0509
          12   -0.0000    0.0000   -0.0000   -0.0007    0.0000    0.0000    0.0000    0.0000
          13   -0.0104   -0.0356    0.0063    0.0000    0.0001   -0.0637   -0.0285   -0.0369
          14    0.0117   -0.0421   -0.0092    0.0000    0.0035   -0.0136   -0.0375   -0.0657
          15    0.0000   -0.0000   -0.0000   -0.0000    0.0000    0.0000   -0.0000    0.0000
          16    0.0190   -0.0134   -0.0181   -0.0000    0.0031   -0.0330    0.0150    0.0212
          17   -0.0001   -0.0082    0.0055    0.0000   -0.0000    0.0538   -0.0123   -0.0302
          18   -0.0000    0.0000    0.0000    0.0000   -0.0000    0.0002   -0.0000   -0.0001
          19   -0.0032   -0.0228   -0.0299   -0.0001    0.0130    0.0001   -0.0285    0.0576
          20   -0.0177    0.0123   -0.0127   -0.0001    0.0067   -0.0070   -0.0556   -0.0037
          21   -0.0000    0.0000    0.0000    0.0002    0.0000   -0.0000    0.0000   -0.0000
          22    0.0051    0.0391   -0.0240   -0.0001    0.0051    0.0498    0.0052    0.0117
          23    0.0030    0.0020    0.0073   -0.0000   -0.0033    0.0092   -0.0308    0.0468
          24   -0.0000   -0.0000    0.0000   -0.0003   -0.0000   -0.0000   -0.0000   -0.0000
          25   -0.0297    0.0138    0.0243    0.0000   -0.0055   -0.0651    0.0180    0.0414
          26   -0.0027    0.0196   -0.0060   -0.0001    0.0004   -0.0138    0.0024    0.0089
          27    0.0001   -0.0000   -0.0000    0.0000    0.0000    0.0001   -0.0000   -0.0001
          28    0.0170   -0.0116   -0.0060    0.0000    0.0023    0.0851   -0.0145   -0.0309
          29   -0.0112   -0.0029    0.0107    0.0000   -0.0017    0.0092   -0.0006    0.0020
          30   -0.0000    0.0000    0.0000    0.0000   -0.0000   -0.0002    0.0000    0.0001
          31    0.0201   -0.1171   -0.0447   -0.0001    0.0119   -0.0237    0.0101    0.0185
          32   -0.1196   -0.1146    0.0449    0.0001   -0.0039    0.0429    0.0070    0.0018
          33    0.0842    0.1244   -0.0259   -0.0001   -0.0000   -0.0436   -0.0184   -0.0162
          34    0.0202   -0.1174   -0.0449   -0.0000    0.0119   -0.0239    0.0100    0.0184
          35   -0.1189   -0.1135    0.0447    0.0002   -0.0039    0.0425    0.0068    0.0017
          36   -0.0849   -0.1249    0.0262    0.0001    0.0000    0.0438    0.0184    0.0161
          37   -0.0886    0.0355   -0.0834    0.0018    0.1453    0.0109    0.0095    0.0006
          38    0.0746   -0.0283    0.0730    0.0030   -0.1433   -0.0051   -0.0404    0.0221
          39   -0.0009    0.0004   -0.0019    0.4330   -0.0025    0.0000   -0.0000    0.0000
          40   -0.0911    0.0266   -0.0934   -0.1992    0.0728   -0.0080    0.0940   -0.0636
          41    0.0349    0.0013    0.0705   -0.1539    0.2471   -0.0044    0.0051   -0.0039
          42   -0.0470    0.0078   -0.0798    0.0523   -0.1640    0.0045    0.0288   -0.0201
          43   -0.0913    0.0269   -0.0945    0.1994    0.0704   -0.0078    0.0928   -0.0627
          44    0.0354    0.0013    0.0709    0.1614    0.2475   -0.0046    0.0045   -0.0035
          45    0.0467   -0.0079    0.0787    0.0534    0.1584   -0.0044   -0.0293    0.0203
          46    0.0275   -0.0310   -0.0206   -0.0000    0.0046    0.0063    0.0136    0.0113
          47   -0.0309    0.0765    0.0097   -0.0001   -0.0061   -0.1413   -0.0054    0.0128
          48   -0.0001    0.0002    0.0001   -0.0000   -0.0000   -0.0002   -0.0001   -0.0000
          49    0.0112    0.0106    0.0451    0.0002   -0.0184   -0.0004    0.0356    0.0300
          50    0.0007    0.0222   -0.0394   -0.0002    0.0119    0.0461   -0.0545    0.0371
          51    0.0000   -0.0000   -0.0000    0.0007   -0.0000    0.0000   -0.0000   -0.0000
          52    0.0551   -0.0505   -0.0473   -0.0001    0.0102    0.0196   -0.0427   -0.0724
          53   -0.0278    0.0393    0.0139   -0.0000   -0.0040   -0.0421    0.0188    0.0427
          54   -0.0001    0.0001    0.0001   -0.0001   -0.0000   -0.0001    0.0001    0.0002
          55    0.0055    0.0305    0.0475    0.0002   -0.0168    0.0361    0.0572    0.0157
          56   -0.0190    0.0177   -0.0077   -0.0001    0.0052   -0.0056   -0.0539   -0.0080
          57   -0.0000   -0.0000    0.0000    0.0002   -0.0000    0.0000   -0.0000   -0.0000
          58    0.0351    0.0115   -0.0409   -0.0001    0.0058   -0.0420    0.0133    0.0174
          59    0.0009    0.0183   -0.0171   -0.0001    0.0008   -0.1060    0.0239    0.0467
          60   -0.0001    0.0000    0.0001    0.0000   -0.0000   -0.0001   -0.0000    0.0000


   Root No.      41        42        43        44        45        46        47        48

                41 A      42 A      43 A      44 A      45 A      46 A      47 A      48 A   

                1777.0    1820.1    1833.4    1901.4    2926.2    3005.7    3045.5    3062.0
  
           1   -0.0262    0.0029   -0.0549    0.0035   -0.0001   -0.0139   -0.0010   -0.0007
           2   -0.0086   -0.0165    0.0093    0.0139    0.0001   -0.0379   -0.0023   -0.0018
           3    0.0000   -0.0000    0.0000    0.0000   -0.0610   -0.0000    0.0000   -0.0000
           4    0.0363   -0.0283   -0.0092   -0.0131    0.0000    0.0000    0.0000   -0.0000
           5   -0.0148    0.0141    0.0078    0.0060    0.0000    0.0000    0.0000   -0.0000
           6   -0.0000    0.0000    0.0000   -0.0000    0.0000   -0.0000   -0.0000    0.0000
           7    0.0910    0.0209    0.1723   -0.0274   -0.0000   -0.0007    0.0004    0.0001
           8   -0.0254   -0.0120   -0.0672   -0.0162    0.0000    0.0001   -0.0002    0.0000
           9   -0.0000   -0.0000   -0.0000   -0.0000   -0.0001   -0.0000   -0.0000   -0.0000
          10   -0.0841    0.0697    0.0279    0.0341   -0.0000   -0.0001   -0.0000    0.0001
          11    0.0940   -0.1004   -0.0558   -0.0403   -0.0000   -0.0001   -0.0000   -0.0000
          12   -0.0000    0.0000    0.0000    0.0000   -0.0000    0.0000    0.0000    0.0000
          13   -0.0458   -0.0203    0.0038   -0.1480   -0.0000    0.0004   -0.0001   -0.0011
          14    0.0376    0.0099   -0.0157    0.1521   -0.0000    0.0000   -0.0001    0.0014
          15    0.0001    0.0000   -0.0000    0.0003   -0.0002    0.0000   -0.0000    0.0000
          16    0.0155    0.0231   -0.0123   -0.0072   -0.0000    0.0051   -0.0383   -0.0234
          17    0.0686    0.1265   -0.0763   -0.0621   -0.0000    0.0003   -0.0085   -0.0080
          18    0.0001    0.0001   -0.0001   -0.0001   -0.0001   -0.0000    0.0001    0.0000
          19   -0.0346   -0.0290   -0.1211    0.0162    0.0000    0.0003   -0.0000    0.0000
          20    0.0292    0.0129    0.0754   -0.0165   -0.0000    0.0000    0.0000    0.0000
          21    0.0000    0.0000    0.0000   -0.0000   -0.0001   -0.0000   -0.0000   -0.0000
          22    0.0433   -0.0334   -0.0251    0.0231    0.0000   -0.0001   -0.0000    0.0000
          23   -0.0891    0.0828    0.0375    0.0235   -0.0000    0.0000    0.0000   -0.0001
          24   -0.0000    0.0000    0.0000   -0.0000   -0.0000    0.0000    0.0000   -0.0000
          25    0.0441    0.0355   -0.0159    0.1214   -0.0000   -0.0003    0.0011   -0.0052
          26   -0.0232   -0.0003    0.0076   -0.1124   -0.0000    0.0000    0.0050   -0.0245
          27   -0.0001   -0.0001    0.0000   -0.0003    0.0001    0.0000    0.0000   -0.0000
          28   -0.0392   -0.0647    0.0342    0.0108    0.0000    0.0003    0.0196   -0.0164
          29   -0.0634   -0.1152    0.0654    0.0555    0.0000    0.0003   -0.0212    0.0239
          30   -0.0000   -0.0000    0.0000    0.0001   -0.0003    0.0000   -0.0001    0.0001
          31    0.0145    0.0109    0.0114   -0.0006    0.0968    0.0817    0.0033    0.0024
          32   -0.0143   -0.0137   -0.0066    0.0065    0.2701    0.2263    0.0159    0.0101
          33   -0.0017    0.0006   -0.0047    0.0049    0.3707    0.3730    0.0241    0.0154
          34    0.0147    0.0110    0.0116   -0.0006   -0.0960    0.0816    0.0033    0.0024
          35   -0.0144   -0.0138   -0.0066    0.0066   -0.2715    0.2299    0.0161    0.0102
          36    0.0016   -0.0007    0.0047   -0.0049    0.3674   -0.3729   -0.0241   -0.0154
          37   -0.0118    0.0154    0.0142    0.0030   -0.0000   -0.0000   -0.0000    0.0002
          38    0.0262   -0.0231   -0.0114   -0.0078   -0.0000   -0.0000   -0.0000    0.0002
          39   -0.0001    0.0000   -0.0000    0.0000    0.0000    0.0000    0.0000   -0.0000
          40    0.0031   -0.0065   -0.0050   -0.0027    0.0000    0.0000    0.0000   -0.0000
          41   -0.0094    0.0078    0.0038    0.0028   -0.0000   -0.0001   -0.0001    0.0001
          42   -0.0059    0.0048    0.0018    0.0030   -0.0000   -0.0001   -0.0001    0.0002
          43    0.0029   -0.0062   -0.0048   -0.0026   -0.0000    0.0000    0.0000   -0.0000
          44   -0.0091    0.0075    0.0037    0.0027    0.0000   -0.0001   -0.0001    0.0001
          45    0.0061   -0.0049   -0.0018   -0.0031   -0.0000    0.0001    0.0001   -0.0002
          46    0.0416    0.0719   -0.0425   -0.0334    0.0000   -0.0540    0.4522    0.2664
          47   -0.0126   -0.0164    0.0019    0.0202    0.0000   -0.0143    0.0888    0.0556
          48   -0.0001   -0.0002    0.0001    0.0001   -0.0015    0.0001   -0.0008   -0.0005
          49   -0.0707    0.0600    0.0239    0.0146    0.0000    0.0003   -0.0001    0.0007
          50   -0.0319    0.0404    0.0109    0.0460    0.0000    0.0005    0.0000    0.0007
          51    0.0000   -0.0000   -0.0000    0.0000   -0.0000    0.0000    0.0000   -0.0000
          52   -0.0040    0.0219   -0.0185   -0.0780   -0.0000    0.0001   -0.0139    0.0768
          53   -0.0175    0.0007    0.0127   -0.0887    0.0000    0.0003   -0.0559    0.2768
          54   -0.0000   -0.0000    0.0001    0.0000    0.0000   -0.0000   -0.0000    0.0002
          55   -0.0223    0.0392    0.0443    0.0048    0.0000   -0.0001   -0.0000    0.0000
          56    0.0433    0.0179    0.1139   -0.0288   -0.0000   -0.0024    0.0004   -0.0007
          57    0.0000    0.0000    0.0000    0.0000    0.0002   -0.0000   -0.0000   -0.0000
          58    0.0274    0.0623   -0.0329   -0.0645   -0.0000   -0.0015   -0.2272    0.2048
          59   -0.0199   -0.0301    0.0223   -0.0002    0.0000    0.0027    0.2610   -0.2435
          60   -0.0001   -0.0002    0.0001    0.0001   -0.0007    0.0000    0.0009   -0.0008


   Root No.      49        50        51        52        53        54

                49 A      50 A      51 A      52 A      53 A      54 A   

                3067.7    3073.0    3078.6    3144.8    3149.2    3166.7
  
           1    0.0000    0.0004   -0.0000    0.0001    0.0002    0.0000
           2   -0.0000    0.0012   -0.0000   -0.0002   -0.0002    0.0000
           3   -0.0000    0.0000   -0.0000   -0.0000   -0.0000    0.0000
           4    0.0001   -0.0001   -0.0170   -0.0000    0.0001   -0.0237
           5    0.0001   -0.0004   -0.0479    0.0000   -0.0005    0.0068
           6   -0.0578   -0.0000   -0.0001   -0.0000    0.0000    0.0000
           7   -0.0000   -0.0004    0.0000   -0.0027   -0.0033   -0.0001
           8    0.0000    0.0004    0.0000    0.0019    0.0007    0.0000
           9   -0.0000    0.0000   -0.0000    0.0000    0.0000    0.0000
          10   -0.0000    0.0002    0.0002   -0.0006    0.0024   -0.0002
          11    0.0000    0.0000   -0.0004    0.0024   -0.0027    0.0001
          12   -0.0001    0.0000   -0.0000   -0.0000   -0.0000    0.0000
          13   -0.0000   -0.0028    0.0001    0.0004   -0.0014   -0.0001
          14   -0.0000    0.0024   -0.0000    0.0005    0.0014    0.0000
          15   -0.0001    0.0000   -0.0000   -0.0000    0.0000   -0.0000
          16   -0.0000    0.0135   -0.0001    0.0001    0.0000    0.0000
          17   -0.0000    0.0054   -0.0000    0.0001    0.0000    0.0000
          18   -0.0000   -0.0000    0.0000    0.0000    0.0000   -0.0000
          19    0.0000   -0.0000    0.0003    0.0052    0.0036    0.0002
          20   -0.0000   -0.0001    0.0001   -0.0432   -0.0372   -0.0005
          21   -0.0000   -0.0000    0.0000   -0.0000   -0.0000   -0.0000
          22    0.0000    0.0002   -0.0007   -0.0195    0.0229    0.0005
          23    0.0000   -0.0002   -0.0001   -0.0311    0.0370    0.0005
          24   -0.0002   -0.0000   -0.0000    0.0000   -0.0000   -0.0000
          25    0.0000   -0.0093    0.0001    0.0000    0.0004    0.0000
          26    0.0000   -0.0395    0.0003   -0.0001   -0.0004   -0.0001
          27    0.0000   -0.0000    0.0000    0.0000   -0.0000   -0.0000
          28   -0.0000    0.0154   -0.0001   -0.0001   -0.0000    0.0000
          29    0.0000   -0.0203    0.0001   -0.0000   -0.0000   -0.0000
          30    0.0000   -0.0001    0.0000    0.0000   -0.0000   -0.0000
          31    0.0000   -0.0014    0.0000    0.0002    0.0003   -0.0000
          32    0.0000   -0.0058    0.0001    0.0005    0.0008   -0.0000
          33    0.0000   -0.0089    0.0002    0.0008    0.0011   -0.0001
          34   -0.0000   -0.0014    0.0000    0.0002    0.0003   -0.0000
          35   -0.0000   -0.0059    0.0001    0.0005    0.0008   -0.0000
          36    0.0000    0.0089   -0.0002   -0.0007   -0.0011    0.0001
          37   -0.0036    0.0021    0.2930   -0.0004   -0.0022    0.2088
          38   -0.0042    0.0024    0.3358   -0.0008   -0.0020    0.2639
          39   -0.0290   -0.0000   -0.0040    0.0000    0.0000   -0.0029
          40   -0.0699   -0.0004   -0.0460    0.0003   -0.0015    0.0360
          41    0.2700    0.0012    0.1225   -0.0012    0.0050   -0.1747
          42    0.3562    0.0019    0.2103   -0.0016    0.0076   -0.2553
          43    0.0729   -0.0004   -0.0457    0.0003   -0.0016    0.0372
          44   -0.2669    0.0010    0.1136   -0.0012    0.0049   -0.1698
          45    0.3663   -0.0018   -0.2053    0.0016   -0.0077    0.2578
          46    0.0000   -0.1463    0.0011   -0.0003    0.0001   -0.0002
          47    0.0000   -0.0309    0.0002   -0.0001    0.0000   -0.0000
          48    0.0000    0.0003   -0.0000    0.0000    0.0000    0.0000
          49   -0.0000    0.0011    0.0023    0.2335   -0.2668   -0.0051
          50   -0.0001    0.0010    0.0047    0.3456   -0.3943   -0.0068
          51    0.0004   -0.0000    0.0000   -0.0002    0.0002    0.0000
          52   -0.0000    0.1257   -0.0011   -0.0003    0.0008    0.0001
          53   -0.0001    0.4362   -0.0038   -0.0004    0.0017    0.0004
          54   -0.0000    0.0002   -0.0000   -0.0000    0.0000    0.0000
          55    0.0000    0.0001    0.0004   -0.0310   -0.0257   -0.0005
          56    0.0001   -0.0009   -0.0018    0.4871    0.4054    0.0053
          57   -0.0002   -0.0000   -0.0000    0.0001    0.0000    0.0000
          58    0.0000   -0.1825    0.0012    0.0001    0.0002   -0.0001
          59   -0.0000    0.2097   -0.0014   -0.0001   -0.0002    0.0001
          60   -0.0000    0.0007   -0.0000   -0.0000   -0.0000    0.0000


           MASS-WEIGHTED COORDINATE ANALYSIS (NORMAL COORDINATES)


   Root No.       1         2         3         4         5         6         7         8

                 1 A       2 A       3 A       4 A       5 A       6 A       7 A       8 A   

                  87.4      99.7     170.6     223.3     257.4     345.5     427.5     461.5
  
           1    0.0002   -0.0003   -0.0001   -0.0002   -0.1743    0.0004   -0.0001    0.0868
           2   -0.0003    0.0005    0.0008   -0.0005    0.0538    0.0008   -0.0005    0.0249
           3    0.1179   -0.2426   -0.3590    0.1278   -0.0004   -0.0659    0.0032    0.0001
           4   -0.0001   -0.0004    0.0002    0.0002    0.2077   -0.0001   -0.0002    0.1001
           5   -0.0003    0.0001    0.0000    0.0011    0.5206   -0.0003   -0.0001    0.1147
           6   -0.0870    0.3980   -0.3233    0.1245   -0.0001    0.1255   -0.0102    0.0000
           7    0.0001   -0.0002    0.0001   -0.0002   -0.0812    0.0007   -0.0001   -0.0432
           8    0.0000    0.0001   -0.0001   -0.0003   -0.2270   -0.0003   -0.0003    0.3796
           9    0.0675   -0.2032    0.1981   -0.0306    0.0002    0.5576    0.1237    0.0002
          10    0.0001   -0.0002    0.0000   -0.0002   -0.0492    0.0002   -0.0001   -0.0898
          11    0.0002    0.0001   -0.0000   -0.0001   -0.1852   -0.0000    0.0004   -0.3582
          12    0.0153   -0.0082    0.1751   -0.1322    0.0002   -0.3784    0.0714   -0.0003
          13    0.0000   -0.0002   -0.0000   -0.0001   -0.0530    0.0004   -0.0002    0.1936
          14    0.0001    0.0002    0.0000   -0.0004   -0.2392   -0.0002   -0.0002    0.3197
          15    0.0276   -0.3271    0.0158   -0.0961    0.0004    0.4320   -0.0146    0.0004
          16   -0.0001    0.0007   -0.0002   -0.0007   -0.0118   -0.0005   -0.0003   -0.0803
          17    0.0000   -0.0006   -0.0002    0.0009    0.2074    0.0000    0.0006   -0.1840
          18   -0.0276    0.3162   -0.1186   -0.3893    0.0006   -0.0455   -0.3546   -0.0002
          19    0.0002   -0.0002    0.0001   -0.0000   -0.0484    0.0005    0.0001   -0.3160
          20    0.0001    0.0001   -0.0001   -0.0003   -0.2273   -0.0003    0.0001    0.0001
          21    0.0461    0.0115    0.5771    0.1253   -0.0006   -0.1375   -0.0581    0.0001
          22    0.0000   -0.0002   -0.0001   -0.0004   -0.0988   -0.0000   -0.0002    0.2256
          23    0.0002    0.0001   -0.0001   -0.0002   -0.2099   -0.0000    0.0003   -0.2279
          24    0.0351   -0.3286   -0.0929   -0.4261    0.0010   -0.2432    0.0758   -0.0003
          25   -0.0002    0.0001   -0.0001    0.0011    0.1426   -0.0006   -0.0003   -0.0609
          26    0.0001   -0.0001   -0.0001   -0.0006   -0.0744    0.0000    0.0004    0.1235
          27   -0.0613   -0.0875    0.0353    0.4877   -0.0008   -0.0284   -0.3409   -0.0003
          28   -0.0002    0.0009   -0.0000    0.0004    0.1074   -0.0007    0.0013   -0.0440
          29    0.0001   -0.0006   -0.0004    0.0001    0.1678    0.0001   -0.0006   -0.1976
          30   -0.1072    0.3449    0.0890    0.1117   -0.0001   -0.0515    0.4984    0.0001
          31   -0.0015   -0.0178    0.0866    0.0016   -0.0884    0.1237    0.0337    0.0826
          32   -0.0350    0.1194    0.1365   -0.1474    0.0303    0.1371   -0.1710   -0.0151
          33    0.0593   -0.1507   -0.2241    0.1424   -0.0006   -0.1504    0.1172    0.0005
          34    0.0017    0.0173   -0.0866   -0.0016   -0.0889   -0.1233   -0.0334    0.0832
          35    0.0347   -0.1187   -0.1355    0.1466    0.0295   -0.1361    0.1701   -0.0144
          36    0.0596   -0.1517   -0.2251    0.1435   -0.0003   -0.1514    0.1186    0.0001
          37    0.0015    0.0010   -0.0009    0.0004   -0.0861    0.0013   -0.0002   -0.1010
          38    0.0045    0.0008    0.0003    0.0005    0.2835   -0.0004   -0.0001    0.1530
          39    0.5116    0.2684   -0.1440    0.0792    0.0004    0.1127   -0.0159    0.0002
          40    0.1348    0.1027   -0.0946    0.0555    0.1773    0.1231   -0.0224    0.1378
          41    0.4621    0.0744    0.0325   -0.0024    0.1900   -0.0313    0.0063    0.0704
          42   -0.3266    0.0844   -0.1381    0.0503   -0.0014    0.0867   -0.0126   -0.0013
          43   -0.1368   -0.1042    0.0958   -0.0557    0.1744   -0.1248    0.0223    0.1351
          44   -0.4677   -0.0752   -0.0329    0.0032    0.1901    0.0314   -0.0065    0.0711
          45   -0.3176    0.0862   -0.1379    0.0505    0.0008    0.0868   -0.0126    0.0012
          46   -0.0000    0.0004   -0.0001   -0.0006   -0.0117   -0.0001   -0.0004   -0.0178
          47    0.0000   -0.0003   -0.0001    0.0006    0.0988   -0.0001    0.0005   -0.0777
          48   -0.0181    0.1966   -0.0419   -0.3078    0.0005   -0.0310   -0.2282   -0.0001
          49    0.0000   -0.0001   -0.0001   -0.0002   -0.0343   -0.0001   -0.0001    0.1845
          50    0.0001    0.0000   -0.0000   -0.0001   -0.0562    0.0000    0.0001   -0.1460
          51    0.0146   -0.1309   -0.1241   -0.2239    0.0005   -0.1255    0.0608   -0.0003
          52   -0.0001   -0.0000   -0.0001    0.0007    0.1071   -0.0005   -0.0004   -0.1242
          53    0.0001   -0.0000   -0.0000   -0.0004   -0.0401    0.0002    0.0004    0.0660
          54   -0.0319   -0.0353    0.0006    0.2875   -0.0006   -0.1699   -0.3535   -0.0002
          55    0.0000   -0.0001    0.0000    0.0000   -0.0097    0.0002    0.0002   -0.2430
[...]
 EFFECTIVE MASS      1.5803
 FORCE CONSTANT      0.4868

 VIBRATION         37   37A           ATOM PAIR      ENERGY CONTRIBUTION    RADIAL
 FREQUENCY          1392.18         C  2 -- H 14         +34.6% ( 53.4%)      0.7%
 TRANSITION DIPOLE   0.1291         C  2 -- H 15         +34.0% ( 52.9%)      0.8%
 TRAVEL (Ang.)       0.3702         C  2 -- H 13         +15.5% ( 35.8%)     24.4%
 REDUCED MASS        0.3534         C  2 -- C  4          +4.8% ( 19.9%)      4.9%
 EFFECTIVE MASS      1.8419
 FORCE CONSTANT      0.4035

 VIBRATION         38   38A           ATOM PAIR      ENERGY CONTRIBUTION    RADIAL
 FREQUENCY          1432.49         C  9 -- C 10         +16.4% ( 64.9%)     99.4%
 TRANSITION DIPOLE   0.2039         C  6 -- C 10          +9.7% ( 49.9%)      0.1%
 TRAVEL (Ang.)       0.1754         C  5 -- C  8          +9.3% ( 48.8%)     96.2%
 REDUCED MASS        1.5298         C  1 -- C  6          +7.8% ( 44.9%)     96.5%
 EFFECTIVE MASS     10.7103
 FORCE CONSTANT      1.8495

 VIBRATION         39   39A           ATOM PAIR      ENERGY CONTRIBUTION    RADIAL
 FREQUENCY          1476.32         C  4 -- C  7         +12.9% ( 62.2%)     98.5%
 TRANSITION DIPOLE   0.7038         C  2 -- C  4         +11.9% ( 59.7%)     64.3%
 TRAVEL (Ang.)       0.1495         C  3 -- C  4         +11.0% ( 57.5%)     83.0%
 REDUCED MASS        2.0440         C  4 -- C  8          +8.6% ( 50.6%)     24.1%
 EFFECTIVE MASS     11.1656
 FORCE CONSTANT      2.6248

 VIBRATION         40   40A           ATOM PAIR      ENERGY CONTRIBUTION    RADIAL
 FREQUENCY          1503.97         C  3 -- C  5         +10.6% ( 55.8%)     97.1%
 TRANSITION DIPOLE   1.7982         C  3 -- C  4          +9.3% ( 52.2%)     45.5%
 TRAVEL (Ang.)       0.1678         C  4 -- C  7          +8.2% ( 49.2%)     90.6%
 REDUCED MASS        1.5924         C  1 -- C  3          +8.0% ( 48.7%)     82.1%
 EFFECTIVE MASS     11.5438
 FORCE CONSTANT      2.1221

 VIBRATION         41   41A           ATOM PAIR      ENERGY CONTRIBUTION    RADIAL
 FREQUENCY          1776.97         C  4 -- C  8         +15.5% ( 67.5%)     91.6%
 TRANSITION DIPOLE   1.8863         C  3 -- C  4         +10.8% ( 56.3%)     63.0%
 TRAVEL (Ang.)       0.1410         C  2 -- C  4          +8.2% ( 49.1%)     85.4%
 REDUCED MASS        1.9090         C  4 -- C  5          +7.5% ( 47.0%)     86.7%
 EFFECTIVE MASS     11.9274
 FORCE CONSTANT      3.5515

 VIBRATION         42   42A           ATOM PAIR      ENERGY CONTRIBUTION    RADIAL
 FREQUENCY          1820.12         C  6 -- C 10         +21.5% ( 73.7%)     99.9%
 TRANSITION DIPOLE   1.2640         C  4 -- C  8         +13.9% ( 59.2%)     96.1%
 TRAVEL (Ang.)       0.1190         C  9 -- C 10          +7.8% ( 44.3%)     66.0%
 REDUCED MASS        2.6158         C  2 -- C  4          +7.2% ( 42.7%)     75.3%
 EFFECTIVE MASS     11.8795
 FORCE CONSTANT      5.1058

 VIBRATION         43   43A           ATOM PAIR      ENERGY CONTRIBUTION    RADIAL
 FREQUENCY          1833.40         C  3 -- C  7         +25.5% ( 83.5%)     97.9%
 TRANSITION DIPOLE   0.5574         C  1 -- C  3         +13.0% ( 59.5%)     70.4%
 TRAVEL (Ang.)       0.1046         C  3 -- C  4         +11.8% ( 56.8%)     98.2%
 REDUCED MASS        3.3646         C  3 -- C  5         +10.8% ( 54.2%)      0.0%
 EFFECTIVE MASS     11.9296
 FORCE CONSTANT      6.6634

 VIBRATION         44   44A           ATOM PAIR      ENERGY CONTRIBUTION    RADIAL
 FREQUENCY          1901.40         C  5 -- C  9         +27.8% ( 90.2%)     99.6%
 TRANSITION DIPOLE   1.7070         C  4 -- C  5         +13.0% ( 61.6%)     95.6%
 TRAVEL (Ang.)       0.0894         C  5 -- C  8         +12.4% ( 60.3%)     63.6%
 REDUCED MASS        4.4352         C  3 -- C  5         +12.2% ( 59.7%)     38.7%
 EFFECTIVE MASS     11.8859         C  5 -- C  7         +12.1% ( 59.5%)     80.6%
 FORCE CONSTANT      9.4472

 VIBRATION         45   45A           ATOM PAIR      ENERGY CONTRIBUTION    RADIAL
 FREQUENCY          2926.15         C  1 -- H 11         +49.1% ( 72.7%)     96.6%
 TRANSITION DIPOLE   0.1145         C  1 -- H 12         +48.7% ( 72.4%)     96.6%
 TRAVEL (Ang.)       0.2111         C  1 -- C  6          +1.1% ( 10.7%)      0.0%
 REDUCED MASS        0.5172         C  1 -- C  3          +1.1% ( 10.7%)      0.0%
 EFFECTIVE MASS      1.5327
 FORCE CONSTANT      2.6093

 VIBRATION         46   46A           ATOM PAIR      ENERGY CONTRIBUTION    RADIAL
 FREQUENCY          3005.65         C  1 -- H 12         +49.1% ( 69.1%)     97.8%
 TRANSITION DIPOLE   0.1927         C  1 -- H 11         +48.7% ( 68.8%)     97.7%
 TRAVEL (Ang.)       0.2170         C  6 -- H 16          +0.9% (  9.2%)    100.0%
 REDUCED MASS        0.4763         C  1 -- C  6          +0.7% (  8.1%)     19.4%
 EFFECTIVE MASS      1.2806
 FORCE CONSTANT      2.5351

 VIBRATION         47   47A           ATOM PAIR      ENERGY CONTRIBUTION    RADIAL
 FREQUENCY          3045.50         C  6 -- H 16         +61.4% ( 79.6%)    100.0%
 TRANSITION DIPOLE   0.2709         C 10 -- H 20         +34.7% ( 59.8%)    100.0%
 TRAVEL (Ang.)       0.2133         C  6 -- C 10          +1.1% ( 10.8%)      1.2%
 REDUCED MASS        0.4869         C  9 -- H 18          +1.0% ( 10.0%)     99.9%
 EFFECTIVE MASS      1.4679
 FORCE CONSTANT      2.6606

 VIBRATION         48   48A           ATOM PAIR      ENERGY CONTRIBUTION    RADIAL
 FREQUENCY          3062.00         C 10 -- H 20         +37.9% ( 62.6%)     99.9%
 TRANSITION DIPOLE   0.2927         C  9 -- H 18         +30.9% ( 56.5%)    100.0%
 TRAVEL (Ang.)       0.2647         C  6 -- H 16         +27.6% ( 53.4%)     99.9%
 REDUCED MASS        0.3142         C  6 -- C 10          +1.3% ( 11.7%)     98.8%
 EFFECTIVE MASS      1.5521
 FORCE CONSTANT      1.7359

 VIBRATION         49   49A           ATOM PAIR      ENERGY CONTRIBUTION    RADIAL
 FREQUENCY          3067.73         C  2 -- H 15         +49.7% ( 72.8%)     97.1%
 TRANSITION DIPOLE   0.0306         C  2 -- H 14         +48.4% ( 71.7%)     96.9%
 TRAVEL (Ang.)       0.2076         C  2 -- C  4          +1.0% ( 10.2%)      0.0%
 REDUCED MASS        0.5098         C  2 -- H 13          +0.9% (  9.9%)      0.2%
 EFFECTIVE MASS      1.5030
 FORCE CONSTANT      2.8266

 VIBRATION         50   50A           ATOM PAIR      ENERGY CONTRIBUTION    RADIAL
 FREQUENCY          3073.00         C  9 -- H 18         +65.1% ( 81.8%)    100.0%
 TRANSITION DIPOLE   0.4524         C 10 -- H 20         +24.3% ( 50.0%)    100.0%
 TRAVEL (Ang.)       0.2127         C  6 -- H 16          +7.1% ( 27.0%)     99.8%
 REDUCED MASS        0.4848         C  9 -- C 10          +1.4% ( 12.2%)     82.6%
 EFFECTIVE MASS      1.5649
 FORCE CONSTANT      2.6976

 VIBRATION         51   51A           ATOM PAIR      ENERGY CONTRIBUTION    RADIAL
 FREQUENCY          3078.57         C  2 -- H 13         +61.6% ( 81.0%)     98.8%
 TRANSITION DIPOLE   0.0531         C  2 -- H 14         +19.3% ( 45.3%)     86.2%
 TRAVEL (Ang.)       0.2134         C  2 -- H 15         +18.0% ( 43.8%)     85.0%
 REDUCED MASS        0.4811         C  2 -- C  4          +1.0% ( 10.5%)      0.0%
 EFFECTIVE MASS      1.5134
 FORCE CONSTANT      2.6863

 VIBRATION         52   52A           ATOM PAIR      ENERGY CONTRIBUTION    RADIAL
 FREQUENCY          3144.79         C  7 -- H 19         +55.3% ( 76.1%)    100.0%
 TRANSITION DIPOLE   0.5215         C  8 -- H 17         +40.3% ( 64.9%)    100.0%
 TRAVEL (Ang.)       0.2121         C  3 -- C  7          +1.0% ( 10.4%)     48.6%
 REDUCED MASS        0.4764         C  4 -- C  7          +1.0% ( 10.1%)     25.4%
 EFFECTIVE MASS      1.5373
 FORCE CONSTANT      2.7760

 VIBRATION         53   53A           ATOM PAIR      ENERGY CONTRIBUTION    RADIAL
 FREQUENCY          3149.21         C  8 -- H 17         +55.3% ( 75.9%)    100.0%
 TRANSITION DIPOLE   0.2682         C  7 -- H 19         +40.3% ( 64.8%)    100.0%
 TRAVEL (Ang.)       0.2120         C  4 -- C  8          +1.1% ( 10.6%)     49.5%
 REDUCED MASS        0.4764         C  5 -- C  8          +1.0% ( 10.3%)     32.0%
 EFFECTIVE MASS      1.5896
 FORCE CONSTANT      2.7839

 VIBRATION         54   54A           ATOM PAIR      ENERGY CONTRIBUTION    RADIAL
 FREQUENCY          3166.69         C  2 -- H 13         +37.1% ( 58.7%)     97.6%
 TRANSITION DIPOLE   0.0912         C  2 -- H 14         +31.3% ( 53.9%)     96.8%
 TRAVEL (Ang.)       0.2545         C  2 -- H 15         +31.2% ( 53.8%)     96.8%
 REDUCED MASS        0.3286         C  2 -- C  4          +0.3% (  5.5%)     99.6%
 EFFECTIVE MASS      1.1398
 FORCE CONSTANT      1.9417

      SYMMETRY NUMBER FOR POINT-GROUP C1  =  1


          SYSTEM IS A GROUND STATE



 InChI=1S/C10H10/c1-8-6-9-4-2-3-5-10(9)7-8/h2-4,6-7H,5H2,1H3


          MOLECULE IS NOT LINEAR

          THERE ARE 54 GENUINE VIBRATIONS IN THIS SYSTEM
          THIS THERMODYNAMICS CALCULATION IS LIMITED TO
          MOLECULES WHICH HAVE NO INTERNAL ROTATIONS




                    CALCULATED THERMODYNAMIC PROPERTIES
                                          *
   TEMP. (K)   PARTITION FUNCTION   H.O.F.    ENTHALPY  HEAT CAPACITY ENTROPY
                                   KCAL/MOL   CAL/MOLE    CAL/K/MOL  CAL/K/MOL


 298.00  VIB.     0.7597D+02                  3567.4417    27.3076    20.5766
         ROT.     0.5292D+06                   888.2803     2.9808    29.1705
         INT.     0.4021D+08                  4455.7220    30.2884    49.7471
         TRA.     0.1436D+28                  1480.4672     4.9680    40.5022
         TOT.                       53.821    5936.1892    35.2564    90.2493

 200.00  VIB.     0.1156D+02                  1442.4337    16.2686    12.0758
         ROT.     0.2910D+06                   596.1613     2.9808    27.9819
         INT.     0.3364D+07                  2038.5949    19.2494    40.0577
         TRA.     0.7896D+27                   993.6021     4.9680    38.5210
         TOT.                       50.917    3032.1971    24.2175    78.5787

 210.00  VIB.     0.1388D+02                  1610.3664    17.3220    12.8950
         ROT.     0.3131D+06                   625.9693     2.9808    28.1273
         INT.     0.4344D+07                  2236.3358    20.3028    41.0223
         TRA.     0.8496D+27                  1043.2822     4.9680    38.7634
         TOT.                       51.164    3279.6180    25.2708    79.7857

 220.00  VIB.     0.1669D+02                  1788.9510    18.3987    13.7256
         ROT.     0.3357D+06                   655.7774     2.9808    28.2660
         INT.     0.5604D+07                  2444.7284    21.3795    41.9915
         TRA.     0.9110D+27                  1092.9623     4.9680    38.9945
         TOT.                       51.422    3537.6907    26.3475    80.9861

 230.00  VIB.     0.2013D+02                  1978.4100    19.4965    14.5676
         ROT.     0.3589D+06                   685.5855     2.9808    28.3985
         INT.     0.7223D+07                  2663.9955    22.4773    42.9660
         TRA.     0.9738D+27                  1142.6424     4.9680    39.2154
         TOT.                       51.691    3806.6379    27.4453    82.1814

 240.00  VIB.     0.2432D+02                  2178.9424    20.6129    15.4209
         ROT.     0.3825D+06                   715.3935     2.9808    28.5253
         INT.     0.9303D+07                  2894.3359    23.5937    43.9462
         TRA.     0.1038D+28                  1192.3226     4.9680    39.4268
         TOT.                       51.971    4086.6584    28.5617    83.3730

 250.00  VIB.     0.2945D+02                  2390.7202    21.7451    16.2852
         ROT.     0.4067D+06                   745.2016     2.9808    28.6470
         INT.     0.1198D+08                  3135.9218    24.7259    44.9322
         TRA.     0.1103D+28                  1242.0027     4.9680    39.6296
         TOT.                       52.262    4377.9245    29.6939    84.5618

 260.00  VIB.     0.3574D+02                  2613.8871    22.8902    17.1603
         ROT.     0.4313D+06                   775.0097     2.9808    28.7639
         INT.     0.1542D+08                  3388.8968    25.8710    45.9243
         TRA.     0.1170D+28                  1291.6828     4.9680    39.8245
         TOT.                       52.565    4680.5796    30.8390    85.7487

 270.00  VIB.     0.4347D+02                  2848.5574    24.0453    18.0459
         ROT.     0.4564D+06                   804.8177     2.9808    28.8764
         INT.     0.1984D+08                  3653.3751    27.0261    46.9223
         TRA.     0.1239D+28                  1341.3629     4.9680    40.0120
         TOT.                       52.879    4994.7380    31.9941    86.9342

 280.00  VIB.     0.5296D+02                  3094.8155    25.2073    18.9413
         ROT.     0.4820D+06                   834.6258     2.9808    28.9848
         INT.     0.2553D+08                  3929.4413    28.1881    47.9261
         TRA.     0.1308D+28                  1391.0430     4.9680    40.1926
         TOT.                       53.205    5320.4843    33.1561    88.1188

 290.00  VIB.     0.6467D+02                  3352.7173    26.3735    19.8462
         ROT.     0.5081D+06                   864.4339     2.9808    29.0894
         INT.     0.3285D+08                  4217.1512    29.3543    48.9356
         TRA.     0.1379D+28                  1440.7231     4.9680    40.3670
         TOT.                       53.542    5657.8743    34.3223    89.3026

 300.00  VIB.     0.7911D+02                  3622.2905    27.5411    20.7600
         ROT.     0.5346D+06                   894.2419     2.9808    29.1905
         INT.     0.4229D+08                  4516.5324    30.5219    49.9505
         TRA.     0.1451D+28                  1490.4032     4.9680    40.5354
         TOT.                       53.891    6006.9356    35.4899    90.4859

 310.00  VIB.     0.9696D+02                  3903.5361    28.7076    21.6821
         ROT.     0.5615D+06                   924.0500     2.9808    29.2882
         INT.     0.5444D+08                  4827.5860    31.6884    50.9703
         TRA.     0.1524D+28                  1540.0833     4.9680    40.6983
         TOT.                       54.252    6367.6693    36.6564    91.6686

 320.00  VIB.     0.1191D+03                  4196.4305    29.8705    22.6119
         ROT.     0.5889D+06                   953.8580     2.9808    29.3829
         INT.     0.7011D+08                  5150.2885    32.8513    51.9947
         TRA.     0.1598D+28                  1589.7634     4.9680    40.8560
         TOT.                       54.624    6740.0519    37.8193    92.8508

 330.00  VIB.     0.1465D+03                  4500.9272    31.0277    23.5488
         ROT.     0.6167D+06                   983.6661     2.9808    29.4746
         INT.     0.9032D+08                  5484.5933    34.0085    53.0234
         TRA.     0.1674D+28                  1639.4435     4.9680    41.0089
         TOT.                       55.008    7124.0368    38.9765    94.0323

 340.00  VIB.     0.1805D+03                  4816.9587    32.1772    24.4921
         ROT.     0.6450D+06                  1013.4742     2.9808    29.5636
         INT.     0.1164D+09                  5830.4328    35.1580    54.0557
         TRA.     0.1750D+28                  1689.1236     4.9680    41.1572
         TOT.                       55.404    7519.5565    40.1260    95.2129

 350.00  VIB.     0.2228D+03                  5144.4386    33.3171    25.4414
         ROT.     0.6736D+06                  1043.2822     2.9808    29.6500
         INT.     0.1501D+09                  6187.7209    36.2979    55.0913
         TRA.     0.1828D+28                  1738.8037     4.9680    41.3012
         TOT.                       55.811    7926.5246    41.2659    96.3925

 360.00  VIB.     0.2754D+03                  5483.2640    34.4460    26.3958
         ROT.     0.7027D+06                  1073.0903     2.9808    29.7339
         INT.     0.1935D+09                  6556.3543    37.4268    56.1297
         TRA.     0.1907D+28                  1788.4838     4.9680    41.4412
         TOT.                       56.229    8344.8381    42.3948    97.5709

 370.00  VIB.     0.3410D+03                  5833.3169    35.5624    27.3548
         ROT.     0.7322D+06                  1102.8984     2.9808    29.8156
         INT.     0.2497D+09                  6936.2153    38.5432    57.1704
         TRA.     0.1987D+28                  1838.1639     4.9680    41.5773
         TOT.                       56.659    8774.3792    43.5112    98.7477

 380.00  VIB.     0.4228D+03                  6194.4667    36.6652    28.3179
         ROT.     0.7621D+06                  1132.7064     2.9808    29.8951
         INT.     0.3222D+09                  7327.1731    39.6460    58.2130
         TRA.     0.2068D+28                  1887.8440     4.9680    41.7098
         TOT.                       57.099    9215.0171    44.6140    99.9228

 390.00  VIB.     0.5251D+03                  6566.5717    37.7533    29.2844
         ROT.     0.7924D+06                  1162.5145     2.9808    29.9725
         INT.     0.4161D+09                  7729.0862    40.7341    59.2569
         TRA.     0.2150D+28                  1937.5242     4.9680    41.8388
         TOT.                       57.551    9666.6103    45.7021   101.0957

 400.00  VIB.     0.6529D+03                  6949.4810    38.8259    30.2538
         ROT.     0.8230D+06                  1192.3226     2.9808    30.0480
         INT.     0.5374D+09                  8141.8036    41.8067    60.3018
         TRA.     0.2233D+28                  1987.2043     4.9680    41.9646
         TOT.                       58.013   10129.0078    46.7747   102.2664

   *: NOTE: HEATS OF FORMATION ARE RELATIVE TO THE
            ELEMENTS IN THEIR STANDARD STATE AT 298K
              (=  Standard Enthalpy of Formation).

            Hvib:  Zero-point energy is not included.
                   frequencies of less than zero cm-1 are not included.
            Hrot = (3/2)RT
            Htra = (3/2)RT + pV = (5/2)RT

            Heat capacity is Cp, not Cv

          For more information, see: HTTP://OpenMOPAC.net/Manual/thermochemistry.html


           FORCE CONSTANT IN CARTESIAN COORDINATES (Millidynes/A)

    ATOM   CHEMICAL       X               Y               Z
   NUMBER   SYMBOL  FORCE CONSTANT  FORCE CONSTANT  FORCE CONSTANT

      1       C        9.612775        8.852633        7.572656
      2       C        9.300287        8.474276        7.951704
      3       C       15.583433       10.376778        2.480080
      4       C       12.795547       12.614249        2.557322
      5       C       13.203441       12.949759        2.270313
      6       C       10.293882       13.953851        2.428500
      7       C       11.040991       13.629476        2.116198
      8       C       10.143909       14.640657        2.103212
      9       C       11.943111       13.086242        2.257135
     10       C       10.772709       14.199413        2.230664
     11       H        0.805084        1.869939        3.441148
     12       H        0.804145        1.895262        3.417498
     13       H        2.649254        3.425004        0.652998
     14       H        0.762155        2.149754        3.721752
     15       H        0.766828        2.073188        3.791799
     16       H        4.948703        0.940710        0.345035
     17       H        2.178434        3.943890        0.322801
     18       H        1.063602        4.837278        0.348916
     19       H        0.704136        5.410836        0.329566
     20       H        2.620395        3.279778        0.342551

 **********************
 *                    *
 * JOB ENDED NORMALLY *
 *                    *
 **********************



 TOTAL JOB TIME:             2.66 SECONDS

 == MOPAC DONE ==
