 *******************************************************************************
 **                                                                           **
 **                              MOPAC v23.1.2                                **
 **                                                                           **
 *******************************************************************************
 **          Digital Object Identifier (DOI): 10.5281/zenodo.6511958          **
 **    Visit the DOI location for information on how to cite this program.    **
 *******************************************************************************

                              PM3 CALCULATION RESULTS

 *******************************************************************************
 *  CALCULATION DONE: (MAX THREADS = 1)              Tue Jun  3 16:31:59 2025  *
 *  PM3        - The PM3 Hamiltonian to be used
 *  PRECISE    - TIGHTER CRITERIA TO BE USED
 *  NOSYM      - POINT-GROUP SYMMETRY SET TO C1
 *  THREADS=1  - MULTI-THREADING NOT USED
 *  T=         - A TIME OF 172800.0 SECONDS REQUESTED
 *  DUMP=N     - RESTART FILE WRITTEN EVERY 7200.0 SECONDS REQUESTED
 *******************************************************************************
pm3  precise nosym THREADS=1
 InChI=1S/C10H8/c1-3-9-7-5-6-8-10(9)4-2/h1,4-8H,2H2

   ATOM   CHEMICAL          X               Y               Z
  NUMBER   SYMBOL      (ANGSTROMS)     (ANGSTROMS)     (ANGSTROMS)

     1       C         -0.21520000  *   0.36570000  *   0.07420000  *
     2       C          0.12470000  *  -0.99420000  *  -0.13280000  *
     3       C          0.82360000  *   1.30070000  *   0.26790000  *
     4       C          1.47150000  *  -1.38370000  *  -0.16460000  *
     5       C         -1.64110000  *   0.78880000  *   0.12730000  *
     6       C          2.48400000  *  -0.44090000  *   0.01600000  *
     7       C          2.16060000  *   0.89750000  *   0.23440000  *
     8       C         -2.05790000  *   2.01730000  *  -0.18140000  *
     9       C         -0.88580000  *  -2.00550000  *  -0.33880000  *
    10       C         -1.72830000  *  -2.85060000  *  -0.51110000  *
    11       H          1.73920000  *  -2.42070000  *  -0.33060000  *
    12       H          0.60940000  *   2.34120000  *   0.47090000  *
    13       H         -2.39520000  *   0.05830000  *   0.39290000  *
    14       H          3.52120000  *  -0.74950000  *  -0.00840000  *
    15       H          2.94800000  *   1.62460000  *   0.38590000  *
    16       H         -1.37750000  *   2.78950000  *  -0.51270000  *
    17       H         -3.11300000  *   2.25360000  *  -0.13440000  *
    18       H         -2.46810000  *  -3.59200000  *  -0.66230000  *



          CARTESIAN COORDINATES 

    NO.       ATOM           X           Y           Z

     1         C         -0.2152      0.3657      0.0742
     2         C          0.1247     -0.9942     -0.1328
     3         C          0.8236      1.3007      0.2679
     4         C          1.4715     -1.3837     -0.1646
     5         C         -1.6411      0.7888      0.1273
     6         C          2.4840     -0.4409      0.0160
     7         C          2.1606      0.8975      0.2344
     8         C         -2.0579      2.0173     -0.1814
     9         C         -0.8858     -2.0055     -0.3388
    10         C         -1.7283     -2.8506     -0.5111
    11         H          1.7392     -2.4207     -0.3306
    12         H          0.6094      2.3412      0.4709
    13         H         -2.3952      0.0583      0.3929
    14         H          3.5212     -0.7495     -0.0084
    15         H          2.9480      1.6246      0.3859
    16         H         -1.3775      2.7895     -0.5127
    17         H         -3.1130      2.2536     -0.1344
    18         H         -2.4681     -3.5920     -0.6623

  H: (PM3): J. J. P. STEWART, J. COMP. CHEM. 10, 209 (1989).
  C: (PM3): J. J. P. STEWART, J. COMP. CHEM. 10, 209 (1989).

           Empirical Formula: C10 H8  =    18 atoms



      MOLECULAR POINT GROUP   :   C1  


      RHF CALCULATION, NO. OF DOUBLY OCCUPIED LEVELS = 24


          Geometry optimization using EF

          DIAGONAL MATRIX USED AS START HESSIAN

 CYCLE:     1 TIME:   0.004 TIME LEFT:  2.00D  GRAD.:    72.741 HEAT:  94.13651
 CYCLE:     2 TIME:   0.016 TIME LEFT:  2.00D  GRAD.:    54.381 HEAT:  93.12416
 CYCLE:     3 TIME:   0.012 TIME LEFT:  2.00D  GRAD.:    46.363 HEAT:  92.80695
 CYCLE:     4 TIME:   0.004 TIME LEFT:  2.00D  GRAD.:    28.459 HEAT:  92.48764
 CYCLE:     5 TIME:   0.008 TIME LEFT:  2.00D  GRAD.:    45.102 HEAT:  92.39687
 CYCLE:     6 TIME:   0.008 TIME LEFT:  2.00D  GRAD.:    46.142 HEAT:  92.31003
 CYCLE:     7 TIME:   0.008 TIME LEFT:  2.00D  GRAD.:    38.550 HEAT:  92.13898
 CYCLE:     8 TIME:   0.008 TIME LEFT:  2.00D  GRAD.:    21.953 HEAT:  91.94162
 CYCLE:     9 TIME:   0.012 TIME LEFT:  2.00D  GRAD.:    11.325 HEAT:  91.85273
 CYCLE:    10 TIME:   0.012 TIME LEFT:  2.00D  GRAD.:     9.969 HEAT:  91.80831
 CYCLE:    11 TIME:   0.008 TIME LEFT:  2.00D  GRAD.:    12.529 HEAT:  91.78136
 CYCLE:    12 TIME:   0.004 TIME LEFT:  2.00D  GRAD.:     6.785 HEAT:  91.75446
 CYCLE:    13 TIME:   0.004 TIME LEFT:  2.00D  GRAD.:     7.892 HEAT:  91.74407
 CYCLE:    14 TIME:   0.008 TIME LEFT:  2.00D  GRAD.:     7.783 HEAT:  91.74057
 CYCLE:    15 TIME:   0.004 TIME LEFT:  2.00D  GRAD.:     6.493 HEAT:  91.73218
 CYCLE:    16 TIME:   0.008 TIME LEFT:  2.00D  GRAD.:     4.550 HEAT:  91.72764
 CYCLE:    17 TIME:   0.004 TIME LEFT:  2.00D  GRAD.:     1.790 HEAT:  91.72213
 CYCLE:    18 TIME:   0.008 TIME LEFT:  2.00D  GRAD.:     1.462 HEAT:  91.72087
 CYCLE:    19 TIME:   0.004 TIME LEFT:  2.00D  GRAD.:     1.185 HEAT:  91.72012
 CYCLE:    20 TIME:   0.008 TIME LEFT:  2.00D  GRAD.:     1.043 HEAT:  91.71917
 CYCLE:    21 TIME:   0.004 TIME LEFT:  2.00D  GRAD.:     0.676 HEAT:  91.71870
 CYCLE:    22 TIME:   0.008 TIME LEFT:  2.00D  GRAD.:     0.622 HEAT:  91.71831
 CYCLE:    23 TIME:   0.008 TIME LEFT:  2.00D  GRAD.:     0.560 HEAT:  91.71793
 CYCLE:    24 TIME:   0.004 TIME LEFT:  2.00D  GRAD.:     0.558 HEAT:  91.71764
 CYCLE:    25 TIME:   0.008 TIME LEFT:  2.00D  GRAD.:     0.382 HEAT:  91.71738
 CYCLE:    26 TIME:   0.004 TIME LEFT:  2.00D  GRAD.:     0.482 HEAT:  91.71703
 CYCLE:    27 TIME:   0.008 TIME LEFT:  2.00D  GRAD.:     0.539 HEAT:  91.71660
 CYCLE:    28 TIME:   0.008 TIME LEFT:  2.00D  GRAD.:     0.574 HEAT:  91.71611
 CYCLE:    29 TIME:   0.004 TIME LEFT:  2.00D  GRAD.:     0.495 HEAT:  91.71565
 CYCLE:    30 TIME:   0.008 TIME LEFT:  2.00D  GRAD.:     0.616 HEAT:  91.71503
 CYCLE:    31 TIME:   0.004 TIME LEFT:  2.00D  GRAD.:     0.702 HEAT:  91.71426
 CYCLE:    32 TIME:   0.008 TIME LEFT:  2.00D  GRAD.:     0.844 HEAT:  91.71346
 CYCLE:    33 TIME:   0.008 TIME LEFT:  2.00D  GRAD.:     0.590 HEAT:  91.71268
 CYCLE:    34 TIME:   0.008 TIME LEFT:  2.00D  GRAD.:     0.537 HEAT:  91.71198
 CYCLE:    35 TIME:   0.008 TIME LEFT:  2.00D  GRAD.:     0.626 HEAT:  91.71148
 CYCLE:    36 TIME:   0.004 TIME LEFT:  2.00D  GRAD.:     0.563 HEAT:  91.71083
 CYCLE:    37 TIME:   0.008 TIME LEFT:  2.00D  GRAD.:     0.728 HEAT:  91.71023
 CYCLE:    38 TIME:   0.008 TIME LEFT:  2.00D  GRAD.:     0.809 HEAT:  91.70931
 CYCLE:    39 TIME:   0.008 TIME LEFT:  2.00D  GRAD.:     1.946 HEAT:  91.70507
 CYCLE:    40 TIME:   0.008 TIME LEFT:  2.00D  GRAD.:     3.535 HEAT:  91.69712
 CYCLE:    41 TIME:   0.004 TIME LEFT:  2.00D  GRAD.:     5.554 HEAT:  91.68683
 CYCLE:    42 TIME:   0.008 TIME LEFT:  2.00D  GRAD.:     7.517 HEAT:  91.67213
 CYCLE:    43 TIME:   0.012 TIME LEFT:  2.00D  GRAD.:     8.092 HEAT:  91.63149
 CYCLE:    44 TIME:   0.008 TIME LEFT:  2.00D  GRAD.:     3.612 HEAT:  91.58174
 CYCLE:    45 TIME:   0.008 TIME LEFT:  2.00D  GRAD.:     2.731 HEAT:  91.53335
 CYCLE:    46 TIME:   0.008 TIME LEFT:  2.00D  GRAD.:     3.506 HEAT:  91.46768
 CYCLE:    47 TIME:   0.004 TIME LEFT:  2.00D  GRAD.:     5.894 HEAT:  91.41163
 CYCLE:    48 TIME:   0.012 TIME LEFT:  2.00D  GRAD.:     5.667 HEAT:  91.39878
 CYCLE:    49 TIME:   0.008 TIME LEFT:  2.00D  GRAD.:     4.999 HEAT:  91.37083
 CYCLE:    50 TIME:   0.004 TIME LEFT:  2.00D  GRAD.:     4.773 HEAT:  91.34946
 CYCLE:    51 TIME:   0.008 TIME LEFT:  2.00D  GRAD.:     2.640 HEAT:  91.33701
 CYCLE:    52 TIME:   0.008 TIME LEFT:  2.00D  GRAD.:     2.128 HEAT:  91.32917
 CYCLE:    53 TIME:   0.004 TIME LEFT:  2.00D  GRAD.:     1.504 HEAT:  91.32400
 CYCLE:    54 TIME:   0.008 TIME LEFT:  2.00D  GRAD.:     1.324 HEAT:  91.31788
 CYCLE:    55 TIME:   0.008 TIME LEFT:  2.00D  GRAD.:     0.876 HEAT:  91.31515
 CYCLE:    56 TIME:   0.004 TIME LEFT:  2.00D  GRAD.:     0.800 HEAT:  91.31260
 CYCLE:    57 TIME:   0.012 TIME LEFT:  2.00D  GRAD.:     1.024 HEAT:  91.30911
 CYCLE:    58 TIME:   0.008 TIME LEFT:  2.00D  GRAD.:     1.257 HEAT:  91.30372
 CYCLE:    59 TIME:   0.008 TIME LEFT:  2.00D  GRAD.:     1.165 HEAT:  91.29911
 CYCLE:    60 TIME:   0.008 TIME LEFT:  2.00D  GRAD.:     0.851 HEAT:  91.29675
 CYCLE:    61 TIME:   0.008 TIME LEFT:  2.00D  GRAD.:     0.579 HEAT:  91.29550
 CYCLE:    62 TIME:   0.012 TIME LEFT:  2.00D  GRAD.:     0.422 HEAT:  91.29483
 CYCLE:    63 TIME:   0.004 TIME LEFT:  2.00D  GRAD.:     0.338 HEAT:  91.29445
 CYCLE:    64 TIME:   0.008 TIME LEFT:  2.00D  GRAD.:     0.243 HEAT:  91.29420
 CYCLE:    65 TIME:   0.008 TIME LEFT:  2.00D  GRAD.:     0.241 HEAT:  91.29408
 CYCLE:    66 TIME:   0.008 TIME LEFT:  2.00D  GRAD.:     0.245 HEAT:  91.29389
 CYCLE:    67 TIME:   0.008 TIME LEFT:  2.00D  GRAD.:     0.395 HEAT:  91.29371
 CYCLE:    68 TIME:   0.008 TIME LEFT:  2.00D  GRAD.:     0.352 HEAT:  91.29361
 CYCLE:    69 TIME:   0.008 TIME LEFT:  2.00D  GRAD.:     0.218 HEAT:  91.29343
 CYCLE:    70 TIME:   0.008 TIME LEFT:  2.00D  GRAD.:     0.208 HEAT:  91.29335
 CYCLE:    71 TIME:   0.008 TIME LEFT:  2.00D  GRAD.:     0.144 HEAT:  91.29327
 CYCLE:    72 TIME:   0.008 TIME LEFT:  2.00D  GRAD.:     0.114 HEAT:  91.29319
 CYCLE:    73 TIME:   0.004 TIME LEFT:  2.00D  GRAD.:     0.065 HEAT:  91.29318
 CYCLE:    74 TIME:   0.008 TIME LEFT:  2.00D  GRAD.:     0.161 HEAT:  91.29320
 CYCLE:    75 TIME:   0.008 TIME LEFT:  2.00D  GRAD.:     0.049 HEAT:  91.29316

     GRADIENT =  0.04948 IS LESS THAN CUTOFF =  0.05000



 -------------------------------------------------------------------------------
 pm3  precise nosym THREADS=1
 InChI=1S/C10H8/c1-3-9-7-5-6-8-10(9)4-2/h1,4-8H,2H2



     GEOMETRY OPTIMISED USING EIGENVECTOR FOLLOWING (EF).     
     SCF FIELD WAS ACHIEVED                                   


                              PM3 CALCULATION
                                                       MOPAC v23.1.2 MacOS
                                                       Tue Jun  3 16:31:59 2025




          FINAL HEAT OF FORMATION =         91.29316 KCAL/MOL =     381.97060 KJ/MOL


          COSMO AREA              =        177.60 SQUARE ANGSTROMS
          COSMO VOLUME            =        175.26 CUBIC ANGSTROMS

          GRADIENT NORM           =          0.04948          =       0.01166 PER ATOM
          IONIZATION POTENTIAL    =          9.049088 EV
          HOMO LUMO ENERGIES (EV) =         -9.049 -0.349
          NO. OF FILLED LEVELS    =         24
          MOLECULAR WEIGHT        =        128.1732         POINT GROUP:  C1  

          MOLECULAR DIMENSIONS (Angstroms)

            Atom       Atom       Distance
            H    18    H    15     7.55875
            H    17    H    14     6.82243
            H    13    H    16     0.01008


          SCF CALCULATIONS        =         84

          WALL-CLOCK TIME         =      0.563 SECONDS
          COMPUTATION TIME        =      0.331 SECONDS




   ATOM   CHEMICAL          X               Y               Z
  NUMBER   SYMBOL      (ANGSTROMS)     (ANGSTROMS)     (ANGSTROMS)

     1       C         -0.23070332  *   0.35125402  *  -0.02488538  *
     2       C          0.11666202  *  -1.00651855  *  -0.14419617  *
     3       C          0.78834474  *   1.29515758  *   0.14267259  *
     4       C          1.46086813  *  -1.39292062  *  -0.09491671  *
     5       C         -1.62805846  *   0.77686858  *  -0.07415760  *
     6       C          2.45634819  *  -0.43894672  *   0.07214813  *
     7       C          2.11950763  *   0.90616129  *   0.19108731  *
     8       C         -2.00224931  *   2.05076546  *   0.03018799  *
     9       C         -0.87215993  *  -2.00910300  *  -0.31562414  *
    10       C         -1.69243060  *  -2.86292635  *  -0.46014994  *
    11       H          1.72542627  *  -2.45179468  *  -0.18877830  *
    12       H          0.50706695  *   2.35609048  *   0.23511212  *
    13       H         -2.37042624  *  -0.02207777  *  -0.20447646  *
    14       H          3.50647866  *  -0.74637413  *   0.11015024  *
    15       H          2.90405231  *   1.65835008  *   0.32283053  *
    16       H         -1.27684236  *   2.85585783  *   0.16001857  *
    17       H         -3.03897689  *   2.36756669  *  -0.00639504  *
    18       H         -2.42383751  *  -3.62525219  *  -0.58919622  *

                             CARTESIAN COORDINATES

   1    C       -0.230703324     0.351254015    -0.024885385
   2    C        0.116662021    -1.006518546    -0.144196169
   3    C        0.788344736     1.295157578     0.142672587
   4    C        1.460868127    -1.392920615    -0.094916711
   5    C       -1.628058459     0.776868585    -0.074157602
   6    C        2.456348187    -0.438946725     0.072148128
   7    C        2.119507635     0.906161287     0.191087305
   8    C       -2.002249308     2.050765463     0.030187992
   9    C       -0.872159934    -2.009103003    -0.315624141
  10    C       -1.692430596    -2.862926348    -0.460149937
  11    H        1.725426273    -2.451794682    -0.188778302
  12    H        0.507066954     2.356090478     0.235112120
  13    H       -2.370426242    -0.022077766    -0.204476456
  14    H        3.506478661    -0.746374134     0.110150242
  15    H        2.904052306     1.658350083     0.322830534
  16    H       -1.276842358     2.855857829     0.160018574
  17    H       -3.038976890     2.367566692    -0.006395036
  18    H       -2.423837510    -3.625252186    -0.589196222


           Empirical Formula: C10 H8  =    18 atoms



      MOLECULAR POINT GROUP   :   C1  


                  EIGENVALUES  
 -40.35126 -33.88495 -32.64403 -28.49414 -27.75843 -22.75717 -22.17838 -19.68205
 -18.83754 -17.68222 -17.04098 -16.02941 -15.47907 -14.83854 -14.77915 -13.92784
 -13.21914 -12.76631 -12.15263 -11.94915 -11.27788 -11.26136  -9.59581  -9.04909
  -0.34891   0.10240   1.49424   1.75658   2.08120   2.53190   3.04701   3.18434
   3.25834   3.40275   3.51184   3.71709   3.87129   4.01423   4.07933   4.72706
   4.82529   4.98682   5.04232   5.51528   5.65910   6.00407   6.29330   6.70195


              NET ATOMIC CHARGES AND DIPOLE CONTRIBUTIONS

  ATOM NO.   TYPE          CHARGE      No. of ELECS.   s-Pop       p-Pop       
    1          C          -0.029493        4.0295     1.16602     2.86348
    2          C           0.064083        3.9359     1.12707     2.80884
    3          C          -0.103787        4.1038     1.18094     2.92285
    4          C          -0.088539        4.0885     1.17878     2.90976
    5          C          -0.095666        4.0957     1.17967     2.91599
    6          C          -0.102370        4.1024     1.17917     2.92320
    7          C          -0.094256        4.0943     1.17802     2.91624
    8          C          -0.154757        4.1548     1.18483     2.96992
    9          C          -0.130908        4.1309     1.18457     2.94634
   10          C          -0.170425        4.1704     1.21112     2.95931
   11          H           0.110135        0.8899     0.88987
   12          H           0.113002        0.8870     0.88700
   13          H           0.109513        0.8905     0.89049
   14          H           0.104611        0.8954     0.89539
   15          H           0.103804        0.8962     0.89620
   16          H           0.084258        0.9157     0.91574
   17          H           0.084269        0.9157     0.91573
   18          H           0.196527        0.8035     0.80347
 DIPOLE           X         Y         Z       TOTAL
 POINT-CHG.     0.173     0.232     0.036     0.292
 HYBRID        -0.103    -0.108    -0.019     0.150
 SUM            0.071     0.124     0.017     0.144


          ATOMIC ORBITAL ELECTRON POPULATIONS

     Atom    s        px        py        pz   
    1  C   1.16602   0.93965   0.92938   0.99444
    2  C   1.12707   0.90660   0.89751   1.00474
    3  C   1.18094   0.93743   0.98537   1.00005
    4  C   1.17878   0.92932   0.98505   0.99539
    5  C   1.17967   0.94370   0.97385   0.99844
    6  C   1.17917   0.97960   0.94346   1.00014
    7  C   1.17802   0.95990   0.96044   0.99590
    8  C   1.18483   1.00624   0.96412   0.99957
    9  C   1.18457   0.97141   0.96925   1.00569
   10  C   1.21112   0.98185   0.97900   0.99846
   11  H   0.88987
   12  H   0.88700
   13  H   0.89049
   14  H   0.89539
   15  H   0.89620
   16  H   0.91574
   17  H   0.91573
   18  H   0.80347
 *******************************************************************************
 **                                                                           **
 **                              MOPAC v23.1.2                                **
 **                                                                           **
 *******************************************************************************
 **          Digital Object Identifier (DOI): 10.5281/zenodo.6511958          **
 **    Visit the DOI location for information on how to cite this program.    **
 *******************************************************************************

                              PM3 CALCULATION RESULTS

 *******************************************************************************
 *  CALCULATION DONE: (MAX THREADS = 1)              Tue Jun  3 16:31:59 2025  *
 *  PM3        - The PM3 Hamiltonian to be used
 *  OLDGEO     - PREVIOUS GEOMETRY TO BE USED
 *  PRECISE    - TIGHTER CRITERIA TO BE USED
 *  NOSYM      - POINT-GROUP SYMMETRY SET TO C1
 *  THREADS=1  - MULTI-THREADING NOT USED
 *  T=         - A TIME OF 172800.0 SECONDS REQUESTED
 *  DUMP=N     - RESTART FILE WRITTEN EVERY 7200.0 SECONDS REQUESTED
 *  THERMO     - THERMODYNAMIC QUANTITIES TO BE CALCULATED
 *******************************************************************************
oldgeo thermo nosym precise THREADS=1  pm3
 InChI=1S/C10H8/c1-3-9-7-5-6-8-10(9)4-2/h1,4-8H,2H2

   ATOM   CHEMICAL          X               Y               Z
  NUMBER   SYMBOL      (ANGSTROMS)     (ANGSTROMS)     (ANGSTROMS)

     1       C         -0.23070332  *   0.35125402  *  -0.02488538  *
     2       C          0.11666202  *  -1.00651855  *  -0.14419617  *
     3       C          0.78834474  *   1.29515758  *   0.14267259  *
     4       C          1.46086813  *  -1.39292062  *  -0.09491671  *
     5       C         -1.62805846  *   0.77686858  *  -0.07415760  *
     6       C          2.45634819  *  -0.43894672  *   0.07214813  *
     7       C          2.11950763  *   0.90616129  *   0.19108731  *
     8       C         -2.00224931  *   2.05076546  *   0.03018799  *
     9       C         -0.87215993  *  -2.00910300  *  -0.31562414  *
    10       C         -1.69243060  *  -2.86292635  *  -0.46014994  *
    11       H          1.72542627  *  -2.45179468  *  -0.18877830  *
    12       H          0.50706695  *   2.35609048  *   0.23511212  *
    13       H         -2.37042624  *  -0.02207777  *  -0.20447646  *
    14       H          3.50647866  *  -0.74637413  *   0.11015024  *
    15       H          2.90405231  *   1.65835008  *   0.32283053  *
    16       H         -1.27684236  *   2.85585783  *   0.16001857  *
    17       H         -3.03897689  *   2.36756669  *  -0.00639504  *
    18       H         -2.42383751  *  -3.62525219  *  -0.58919622  *



          CARTESIAN COORDINATES 

    NO.       ATOM           X           Y           Z

     1         C         -0.2307      0.3513     -0.0249
     2         C          0.1167     -1.0065     -0.1442
     3         C          0.7883      1.2952      0.1427
     4         C          1.4609     -1.3929     -0.0949
     5         C         -1.6281      0.7769     -0.0742
     6         C          2.4563     -0.4389      0.0721
     7         C          2.1195      0.9062      0.1911
     8         C         -2.0022      2.0508      0.0302
     9         C         -0.8722     -2.0091     -0.3156
    10         C         -1.6924     -2.8629     -0.4601
    11         H          1.7254     -2.4518     -0.1888
    12         H          0.5071      2.3561      0.2351
    13         H         -2.3704     -0.0221     -0.2045
    14         H          3.5065     -0.7464      0.1102
    15         H          2.9041      1.6584      0.3228
    16         H         -1.2768      2.8559      0.1600
    17         H         -3.0390      2.3676     -0.0064
    18         H         -2.4238     -3.6253     -0.5892

  H: (PM3): J. J. P. STEWART, J. COMP. CHEM. 10, 209 (1989).
  C: (PM3): J. J. P. STEWART, J. COMP. CHEM. 10, 209 (1989).

           Empirical Formula: C10 H8  =    18 atoms



      MOLECULAR POINT GROUP   :   C1  


      RHF CALCULATION, NO. OF DOUBLY OCCUPIED LEVELS = 24



          HEAT OF FORMATION =      91.293163 KCALS/MOLE


          CARTESIAN COORDINATE DERIVATIVES

   NUMBER  ATOM         X            Y            Z

     1       C      0.000862     0.002847     0.000460
     2       C      0.001547     0.002960     0.002850
     3       C     -0.006021    -0.006780     0.004088
     4       C     -0.001346     0.002957    -0.002074
     5       C      0.004124    -0.005167     0.007224
     6       C     -0.000996     0.001480     0.001275
     7       C     -0.003023     0.007299    -0.000298
     8       C      0.007872     0.012453    -0.010610
     9       C      0.001882    -0.008044     0.003896
    10       C      0.001432     0.003018     0.004427
    11       H      0.001167    -0.004847    -0.009021
    12       H      0.000660    -0.018949     0.005709
    13       H     -0.012169    -0.007693     0.000291
    14       H      0.001532     0.006798    -0.000059
    15       H     -0.005708    -0.002539     0.000045
    16       H      0.014939     0.000889    -0.006380
    17       H      0.002076     0.011785     0.001351
    18       H     -0.008833     0.001534    -0.003173



          GRADIENT NORM =   0.04519

          MOLECULAR WEIGHT =  128.17



          ROTATIONAL CONSTANTS IN CM(-1)

          A =    0.05452268   B =    0.05000935   C =    0.02608430



           PRINCIPAL MOMENTS OF INERTIA IN UNITS OF 10**(-40)*GRAM-CM**2

          A =      513.4148   B =      559.7504   C =     1073.1646


          ORIENTATION OF MOLECULE IN FORCE CALCULATION

    NO.       ATOM         X         Y         Z

     1          C      -0.6031   -0.1308    0.0005
     2          C       0.8035   -0.1308    0.0005
     3          C      -1.2768    1.0954    0.0005
     4          C       1.5043    1.0806    0.0002
     5          C      -1.3548   -1.3842    0.0003
     6          C       0.8151    2.2864    0.0002
     7          C      -0.5767    2.2936    0.0004
     8          C      -2.6858   -1.4315   -0.0040
     9          C       1.5416   -1.3422    0.0008
    10          C       2.1755   -2.3526    0.0010
    11          H       2.5997    1.0744   -0.0002
    12          H      -2.3782    1.0858    0.0004
    13          H      -0.7559   -2.3049    0.0038
    14          H       1.3679    3.2315   -0.0000
    15          H      -1.1202    3.2439    0.0005
    16          H      -3.2948   -0.5258   -0.0074
    17          H      -3.2445   -2.3612   -0.0042
    18          H       2.7417   -3.2538    0.0011


    FIRST DERIVATIVES WILL BE USED IN THE CALCULATION OF SECOND DERIVATIVES

          ESTIMATED TIME TO COMPLETE CALCULATION =        1.69 SECONDS

    FOR POINT-GROUP C1   THERE ARE   1 UNIQUE SYMMETRY FUNCTIONS.

 STEP:   1 TIME =     0.02 SECS, INTEGRAL =      0.02 TIME LEFT: 172799.97
 STEP:   2 TIME =     0.02 SECS, INTEGRAL =      0.04 TIME LEFT: 172799.95
 STEP:   3 TIME =     0.02 SECS, INTEGRAL =      0.06 TIME LEFT: 172799.93
 STEP:   4 TIME =     0.02 SECS, INTEGRAL =      0.08 TIME LEFT: 172799.91
 STEP:   5 TIME =     0.02 SECS, INTEGRAL =      0.10 TIME LEFT: 172799.89
 STEP:   6 TIME =     0.02 SECS, INTEGRAL =      0.12 TIME LEFT: 172799.87
 STEP:   7 TIME =     0.02 SECS, INTEGRAL =      0.14 TIME LEFT: 172799.86
 STEP:   8 TIME =     0.02 SECS, INTEGRAL =      0.16 TIME LEFT: 172799.83
 STEP:   9 TIME =     0.02 SECS, INTEGRAL =      0.18 TIME LEFT: 172799.81
 STEP:  10 TIME =     0.02 SECS, INTEGRAL =      0.20 TIME LEFT: 172799.79
 STEP:  11 TIME =     0.02 SECS, INTEGRAL =      0.22 TIME LEFT: 172799.77
 STEP:  12 TIME =     0.02 SECS, INTEGRAL =      0.24 TIME LEFT: 172799.75
 STEP:  13 TIME =     0.02 SECS, INTEGRAL =      0.26 TIME LEFT: 172799.73
 STEP:  14 TIME =     0.02 SECS, INTEGRAL =      0.27 TIME LEFT: 172799.72
 STEP:  15 TIME =     0.02 SECS, INTEGRAL =      0.29 TIME LEFT: 172799.70
 STEP:  16 TIME =     0.02 SECS, INTEGRAL =      0.31 TIME LEFT: 172799.68
 STEP:  17 TIME =     0.02 SECS, INTEGRAL =      0.33 TIME LEFT: 172799.66
 STEP:  18 TIME =     0.02 SECS, INTEGRAL =      0.35 TIME LEFT: 172799.64
 STEP:  19 TIME =     0.02 SECS, INTEGRAL =      0.38 TIME LEFT: 172799.62
 STEP:  20 TIME =     0.02 SECS, INTEGRAL =      0.39 TIME LEFT: 172799.60
 STEP:  21 TIME =     0.02 SECS, INTEGRAL =      0.41 TIME LEFT: 172799.58
 STEP:  22 TIME =     0.02 SECS, INTEGRAL =      0.43 TIME LEFT: 172799.56
 STEP:  23 TIME =     0.02 SECS, INTEGRAL =      0.45 TIME LEFT: 172799.54
 STEP:  24 TIME =     0.02 SECS, INTEGRAL =      0.47 TIME LEFT: 172799.52
 STEP:  25 TIME =     0.02 SECS, INTEGRAL =      0.49 TIME LEFT: 172799.50
 STEP:  26 TIME =     0.02 SECS, INTEGRAL =      0.51 TIME LEFT: 172799.48
 STEP:  27 TIME =     0.02 SECS, INTEGRAL =      0.53 TIME LEFT: 172799.46
 STEP:  28 TIME =     0.02 SECS, INTEGRAL =      0.55 TIME LEFT: 172799.44
 STEP:  29 TIME =     0.02 SECS, INTEGRAL =      0.57 TIME LEFT: 172799.43
 STEP:  30 TIME =     0.02 SECS, INTEGRAL =      0.59 TIME LEFT: 172799.41
 STEP:  31 TIME =     0.02 SECS, INTEGRAL =      0.60 TIME LEFT: 172799.39
 STEP:  32 TIME =     0.02 SECS, INTEGRAL =      0.62 TIME LEFT: 172799.37
 STEP:  33 TIME =     0.02 SECS, INTEGRAL =      0.64 TIME LEFT: 172799.35
 STEP:  34 TIME =     0.02 SECS, INTEGRAL =      0.66 TIME LEFT: 172799.33
 STEP:  35 TIME =     0.02 SECS, INTEGRAL =      0.68 TIME LEFT: 172799.31
 STEP:  36 TIME =     0.02 SECS, INTEGRAL =      0.70 TIME LEFT: 172799.29
 STEP:  37 TIME =     0.02 SECS, INTEGRAL =      0.71 TIME LEFT: 172799.28
 STEP:  38 TIME =     0.02 SECS, INTEGRAL =      0.73 TIME LEFT: 172799.26
 STEP:  39 TIME =     0.02 SECS, INTEGRAL =      0.75 TIME LEFT: 172799.25
 STEP:  40 TIME =     0.02 SECS, INTEGRAL =      0.77 TIME LEFT: 172799.23
 STEP:  41 TIME =     0.02 SECS, INTEGRAL =      0.78 TIME LEFT: 172799.21
 STEP:  42 TIME =     0.02 SECS, INTEGRAL =      0.80 TIME LEFT: 172799.19
 STEP:  43 TIME =     0.02 SECS, INTEGRAL =      0.82 TIME LEFT: 172799.17
 STEP:  44 TIME =     0.02 SECS, INTEGRAL =      0.84 TIME LEFT: 172799.16
 STEP:  45 TIME =     0.02 SECS, INTEGRAL =      0.86 TIME LEFT: 172799.14
 STEP:  46 TIME =     0.02 SECS, INTEGRAL =      0.87 TIME LEFT: 172799.12
 STEP:  47 TIME =     0.02 SECS, INTEGRAL =      0.89 TIME LEFT: 172799.10
 STEP:  48 TIME =     0.02 SECS, INTEGRAL =      0.91 TIME LEFT: 172799.08
 STEP:  49 TIME =     0.02 SECS, INTEGRAL =      0.93 TIME LEFT: 172799.07
 STEP:  50 TIME =     0.02 SECS, INTEGRAL =      0.94 TIME LEFT: 172799.05
 STEP:  51 TIME =     0.02 SECS, INTEGRAL =      0.96 TIME LEFT: 172799.03
 STEP:  52 TIME =     0.02 SECS, INTEGRAL =      0.98 TIME LEFT: 172799.01
 STEP:  53 TIME =     0.02 SECS, INTEGRAL =      1.00 TIME LEFT: 172798.99
 STEP:  54 TIME =     0.02 SECS, INTEGRAL =      1.02 TIME LEFT: 172798.97

(To convert to Hartree/Bohr^2, multiply by (10^(-21) x N x a0^2)/(4.184 x 627.51) =  0.0642)


           FORCE MATRIX IN MILLIDYNES/ANGSTROM


                  C  1       C  2       C  3       C  4       C  5       C  6
 ------------------------------------------------------------------------------
     C    1  17.930168
     C    2   6.283782  18.517742
     C    3   6.583349   2.325635  17.234136
     C    4   2.315458   6.548766   1.839339  17.243303
     C    5   5.273988   0.841853   0.836289   0.107566  18.386261
     C    6   1.770768   2.444162   2.551271   7.040110   0.023865  17.236831
     C    7   2.406878   1.790292   7.082121   2.551773   0.107163   6.931905
     C    8   1.032175   0.085805   0.128204   0.025687  10.738730   0.009352
     C    9   0.882588   6.742280   0.106741   0.999439   0.077865   0.128704
     C   10   0.078153   0.713143   0.015986   0.074051   0.024733   0.025949
     H   11   0.082259   0.452837   0.010879   4.857132   0.007750   0.436176
     H   12   0.451785   0.082125   4.643890   0.010763   0.055106   0.088955
     H   13   0.446483   0.049775   0.042646   0.002679   4.748133   0.001382
     H   14   0.008300   0.089445   0.087092   0.438188   0.009149   4.864706
     H   15   0.090682   0.007388   0.437527   0.087651   0.008753   0.439184
     H   16   0.103365   0.005381   0.096657   0.003779   0.493901   0.000787
     H   17   0.139403   0.007979   0.010627   0.006788   0.459052   0.000948
     H   18   0.007849   0.070216   0.002447   0.007549   0.001095   0.002680


                  C  7       C  8       C  9       C 10       H 11       H 12
 ------------------------------------------------------------------------------
     C    7  17.261849
     C    8   0.015941  17.809297
     C    9   0.027142   0.014219  25.372786
     C   10   0.010628   0.004169  17.243196  23.735783
     H   11   0.089709   0.001659   0.053232   0.006420   5.221845
     H   12   0.435801   0.103973   0.009306   0.001834   0.007174   5.042381
     H   13   0.008605   0.449072   0.049333   0.017500   0.000737   0.002142
     H   14   0.439015   0.000827   0.009559   0.001547   0.042636   0.006902
     H   15   4.864674   0.000947   0.010606   0.001328   0.007134   0.041611
     H   16   0.004658   4.906371   0.003521   0.000818   0.000290   0.065544
     H   17   0.003107   5.141951   0.003325   0.001057   0.000524   0.004954
     H   18   0.000953   0.001528   0.341061   5.877930   0.001886   0.000669


                  H 13       H 14       H 15       H 16       H 17       H 18
 ------------------------------------------------------------------------------
     H   13   5.108227
     H   14   0.000467   5.228373
     H   15   0.001371   0.040740   5.227779
     H   16   0.118288   0.000377   0.000475   5.301002
     H   17   0.078418   0.000452   0.000544   0.392754   5.505931
     H   18   0.003256   0.000726   0.000840   0.000565   0.000675   6.053077


          HEAT OF FORMATION =      91.293163 KCALS/MOLE

          ZERO POINT ENERGY      89.672 KCAL/MOL


           NORMAL COORDINATE ANALYSIS (Total motion = 1 Angstrom)


   Root No.       1         2         3         4         5         6         7         8

                 1 A       2 A       3 A       4 A       5 A       6 A       7 A       8 A   

                  78.9     113.6     149.8     203.8     291.1     351.8     430.5     449.4
  
           1    0.0000   -0.0000   -0.0199    0.0000    0.0327    0.0001   -0.0001    0.0033
           2   -0.0000   -0.0001   -0.0124   -0.0000   -0.0264   -0.0000    0.0002    0.0406
           3   -0.0401   -0.0122    0.0002    0.0379   -0.0001   -0.0090    0.0650   -0.0008
           4    0.0000   -0.0000   -0.0209    0.0001    0.0335    0.0001   -0.0001   -0.0046
           5   -0.0000   -0.0000   -0.0288    0.0000   -0.0009    0.0000   -0.0001   -0.0302
           6   -0.0039   -0.0337    0.0002    0.0503   -0.0001    0.0448    0.0068   -0.0001
           7    0.0000    0.0000   -0.0021   -0.0000    0.0057    0.0000   -0.0002   -0.0327
           8   -0.0000   -0.0001   -0.0009   -0.0001   -0.0409   -0.0001    0.0001    0.0251
           9   -0.0462    0.0441   -0.0000    0.0398   -0.0001   -0.0595   -0.0160    0.0000
          10    0.0000   -0.0000   -0.0081   -0.0000   -0.0042   -0.0000   -0.0001   -0.0235
          11    0.0000   -0.0000   -0.0340    0.0001    0.0230    0.0000   -0.0002   -0.0248
          12    0.0349   -0.0555    0.0001    0.0173    0.0001   -0.0614   -0.0363    0.0004
          13    0.0001   -0.0000   -0.0510    0.0001   -0.0050   -0.0000    0.0004    0.0628
          14   -0.0001   -0.0000    0.0061   -0.0001   -0.0041    0.0000   -0.0000    0.0233
          15   -0.0577   -0.0509    0.0002   -0.0406    0.0002   -0.0042    0.0088   -0.0001
          16    0.0000   -0.0000    0.0101   -0.0001   -0.0348   -0.0001   -0.0002   -0.0371
          17    0.0000   -0.0000   -0.0254    0.0000    0.0071    0.0000   -0.0002   -0.0283
          18    0.0294   -0.0160   -0.0001   -0.0497    0.0001    0.0016    0.0420   -0.0004
          19    0.0000   -0.0000    0.0103   -0.0001   -0.0338   -0.0000   -0.0002   -0.0380
          20   -0.0000   -0.0000   -0.0091   -0.0000   -0.0227   -0.0000    0.0001    0.0231
          21   -0.0145    0.0504   -0.0002   -0.0239   -0.0001    0.0527   -0.0260    0.0003
          22   -0.0004   -0.0002   -0.0532    0.0000   -0.0102   -0.0001    0.0005    0.0676
          23    0.0001    0.0002    0.0432    0.0002    0.0787    0.0001    0.0004    0.0448
          24    0.0826   -0.0029   -0.0002   -0.0083    0.0000    0.0035   -0.0062    0.0002
          25    0.0001    0.0001    0.0135    0.0000    0.0426    0.0001   -0.0003   -0.0431
          26    0.0000    0.0000   -0.0081    0.0000    0.0031    0.0000   -0.0003   -0.0645
          27   -0.0002    0.0022    0.0001    0.0313   -0.0001    0.0897   -0.0232    0.0003
          28    0.0001    0.0002    0.1164   -0.0001   -0.0053   -0.0000    0.0001    0.0273
          29    0.0001    0.0001    0.0564   -0.0001   -0.0276   -0.0001   -0.0000   -0.0234
          30    0.0032    0.0669   -0.0002   -0.0288    0.0001   -0.0334    0.0068   -0.0001
          31    0.0000   -0.0000   -0.0079   -0.0000   -0.0041   -0.0001   -0.0002   -0.0239
          32    0.0000   -0.0000   -0.0473    0.0001    0.0568    0.0001   -0.0001   -0.0050
          33    0.0695   -0.0951    0.0002    0.0247    0.0002   -0.1612   -0.1221    0.0014
          34    0.0000   -0.0000   -0.0024   -0.0000    0.0049    0.0000   -0.0002   -0.0326
          35    0.0000   -0.0000    0.0165   -0.0001   -0.0524   -0.0001    0.0001    0.0102
          36   -0.0655    0.0817   -0.0000    0.0660    0.0000   -0.1451   -0.0762    0.0007
          37    0.0005    0.0001   -0.0716    0.0003   -0.0467   -0.0001    0.0006    0.0713
          38   -0.0003   -0.0002   -0.0067   -0.0004   -0.0296   -0.0000   -0.0003    0.0290
          39   -0.1819   -0.1259    0.0005   -0.1448    0.0006    0.0027   -0.0877    0.0007
          40    0.0000   -0.0000    0.0227   -0.0001   -0.0585   -0.0001   -0.0001   -0.0211
          41    0.0000   -0.0000   -0.0328    0.0000    0.0210    0.0000   -0.0002   -0.0373
          42    0.0595   -0.0303   -0.0002   -0.1168    0.0002    0.0065    0.1155   -0.0012
          43    0.0000   -0.0000    0.0213   -0.0001   -0.0615   -0.0001   -0.0001   -0.0166
          44   -0.0000   -0.0001   -0.0029   -0.0001   -0.0387   -0.0001    0.0001    0.0351
          45   -0.0211    0.1013   -0.0004   -0.0584   -0.0002    0.1480   -0.0889    0.0012
          46   -0.0009   -0.0003   -0.0298   -0.0002    0.0355   -0.0000    0.0004    0.0826
          47    0.0002    0.0004    0.0591    0.0004    0.1110    0.0001    0.0008    0.0559
          48    0.2023    0.0719   -0.0005    0.0950   -0.0005   -0.0057    0.0972   -0.0006
          49   -0.0003   -0.0002   -0.0795    0.0001   -0.0709   -0.0002    0.0005    0.0502
          50   -0.0000    0.0002    0.0590    0.0002    0.1156    0.0001    0.0004    0.0569
          51    0.0807   -0.0350   -0.0002   -0.0838    0.0003    0.0161   -0.1358    0.0015
          52    0.0002    0.0003    0.2057   -0.0002   -0.0500   -0.0001    0.0005    0.1049
          53    0.0001    0.0002    0.1125   -0.0002   -0.0558   -0.0002    0.0002    0.0246
          54    0.0066    0.1239   -0.0004   -0.0826    0.0003   -0.1548    0.0395   -0.0005


   Root No.       9        10        11        12        13        14        15        16

                 9 A      10 A      11 A      12 A      13 A      14 A      15 A      16 A   

                 492.5     535.3     591.3     606.3     628.4     768.5     786.4     838.0
  
           1    0.0149    0.0000   -0.0004   -0.0372   -0.0002   -0.0000   -0.0000    0.0403
           2    0.0254    0.0000   -0.0368   -0.0014   -0.0000    0.0000    0.0000   -0.0216
           3    0.0003   -0.0254   -0.0001   -0.0002    0.0118    0.0723    0.0190    0.0000
           4    0.0274    0.0000   -0.0079   -0.0398   -0.0002    0.0000    0.0000    0.0106
           5   -0.0303    0.0000   -0.0149   -0.0230   -0.0001   -0.0000    0.0000   -0.0097
           6    0.0001   -0.0420   -0.0001   -0.0004    0.0511   -0.0670    0.0235    0.0000
           7    0.0101   -0.0000    0.0693   -0.0090   -0.0000   -0.0000   -0.0000    0.0904
           8    0.0273    0.0000    0.0074    0.0281    0.0002    0.0000    0.0000   -0.0017
           9    0.0001    0.0440    0.0000   -0.0001    0.0171    0.0022   -0.0117    0.0000
          10   -0.0249    0.0000   -0.0603   -0.0431   -0.0003    0.0000   -0.0000    0.0087
          11    0.0026   -0.0000    0.0267   -0.0328   -0.0002   -0.0000   -0.0000   -0.0412
          12   -0.0001   -0.0279    0.0000    0.0001   -0.0106   -0.0026   -0.0169   -0.0000
          13   -0.0355    0.0000    0.0009    0.0207    0.0003    0.0000    0.0000   -0.0034
          14    0.0569    0.0001   -0.0561   -0.0359   -0.0003   -0.0000    0.0000    0.0039
          15   -0.0001   -0.0081    0.0001    0.0004   -0.0500   -0.0197   -0.0072   -0.0000
          16   -0.0243    0.0000    0.0066    0.0057    0.0000   -0.0000    0.0000   -0.0472
          17    0.0108   -0.0000    0.0737   -0.0128   -0.0000   -0.0000    0.0000   -0.0783
          18    0.0001    0.0403   -0.0000   -0.0001    0.0161   -0.0130   -0.0278    0.0000
          19   -0.0217   -0.0000    0.0111    0.0074    0.0000   -0.0000    0.0000   -0.0415
          20    0.0462   -0.0000    0.0517    0.0247    0.0002    0.0000    0.0000    0.0699
          21   -0.0001   -0.0461   -0.0000    0.0001   -0.0084    0.0155   -0.0275    0.0000
          22   -0.0337   -0.0000   -0.0011    0.0223    0.0001   -0.0000   -0.0000   -0.0034
          23   -0.0386   -0.0000   -0.0078    0.0098    0.0000   -0.0000   -0.0000   -0.0008
          24   -0.0001   -0.0003   -0.0000    0.0000    0.0038   -0.0013   -0.0020   -0.0000
          25    0.0673   -0.0000   -0.0340    0.0777    0.0003   -0.0000    0.0000   -0.0246
          26   -0.0294   -0.0000   -0.0407    0.0473    0.0002    0.0000   -0.0000    0.0384
          27   -0.0001    0.0689    0.0001    0.0002   -0.0270    0.0193   -0.0082   -0.0000
          28    0.0313    0.0000    0.0100   -0.0029   -0.0000    0.0000    0.0000   -0.0301
          29   -0.0589    0.0000   -0.0160   -0.0032    0.0000   -0.0000   -0.0000    0.0545
          30    0.0000   -0.0112   -0.0000   -0.0000    0.0026    0.0063   -0.0045   -0.0000
          31   -0.0243    0.0000   -0.0603   -0.0429   -0.0003    0.0001    0.0000    0.0089
          32    0.0377    0.0000    0.0216   -0.0670   -0.0004    0.0001    0.0000   -0.0120
          33   -0.0005   -0.0171    0.0002    0.0012   -0.1429    0.1809    0.1211    0.0001
          34    0.0099   -0.0000    0.0689   -0.0091   -0.0000    0.0000   -0.0000    0.0924
          35   -0.0066   -0.0001    0.0155    0.0587    0.0003    0.0000   -0.0000   -0.0850
          36   -0.0002    0.1576    0.0001    0.0004   -0.0283   -0.1973    0.1091    0.0000
          37   -0.0192   -0.0000   -0.0122    0.0377    0.0001    0.0000   -0.0000   -0.0307
          38    0.0656    0.0001   -0.0644   -0.0240   -0.0001   -0.0002   -0.0000   -0.0144
          39   -0.0003    0.0187    0.0000   -0.0001    0.0304   -0.0635   -0.0187    0.0001
          40   -0.0046    0.0000    0.0379    0.0520    0.0003   -0.0000    0.0001    0.0248
          41   -0.0002   -0.0000    0.0557   -0.0403   -0.0002   -0.0000    0.0000   -0.1227
          42    0.0002    0.1656    0.0000    0.0000   -0.0052   -0.0083    0.2412    0.0001
          43   -0.0226   -0.0000   -0.0385    0.0345    0.0002    0.0000    0.0000   -0.0421
          44    0.0455   -0.0000    0.0237    0.0403    0.0003    0.0000    0.0000    0.0693
          45   -0.0004   -0.1344    0.0001    0.0007   -0.0935   -0.0086    0.2282    0.0000
          46   -0.1152    0.0000    0.0633    0.0860    0.0010    0.0001    0.0000   -0.0277
          47   -0.0964   -0.0001    0.0371    0.0549   -0.0000   -0.0003   -0.0001   -0.0187
          48    0.0001   -0.0285    0.0002    0.0011   -0.1699   -0.0931   -0.0295    0.0001
          49    0.0630   -0.0001   -0.0700   -0.0456   -0.0011   -0.0003   -0.0001    0.0283
          50   -0.0986   -0.0000    0.0344    0.0525    0.0007    0.0001    0.0000   -0.0208
          51   -0.0003    0.0474   -0.0003   -0.0018    0.2777    0.1390    0.0541   -0.0001
          52   -0.0157    0.0001    0.0796   -0.1333   -0.0006    0.0000    0.0000   -0.0515
          53   -0.0902    0.0000    0.0270   -0.0852   -0.0004   -0.0000    0.0000    0.0458
          54    0.0002   -0.1165   -0.0001   -0.0005    0.0535   -0.0899    0.0497    0.0000


   Root No.      17        18        19        20        21        22        23        24

                17 A      18 A      19 A      20 A      21 A      22 A      23 A      24 A   

                 844.7     851.3     861.8     904.1     942.5     968.3    1010.6    1028.6
  
           1   -0.0089    0.0000   -0.0008   -0.0000    0.0000   -0.0000    0.0000   -0.0147
           2    0.0116   -0.0000   -0.0037    0.0000    0.0000   -0.0000    0.0000   -0.0201
           3   -0.0000   -0.0002   -0.0000   -0.0260    0.0293    0.0164   -0.0144   -0.0001
           4    0.0218   -0.0000   -0.0075   -0.0000   -0.0000   -0.0000    0.0000   -0.0047
           5    0.0190   -0.0000   -0.0064    0.0000   -0.0000    0.0000   -0.0000    0.0080
           6    0.0000   -0.0139    0.0000    0.0315   -0.0190    0.0167    0.0156    0.0001
           7   -0.0231    0.0000    0.0035   -0.0000   -0.0000   -0.0000    0.0000   -0.0152
           8    0.0308   -0.0000   -0.0044   -0.0000    0.0000    0.0000   -0.0000    0.0131
           9    0.0000    0.0095   -0.0000    0.0267   -0.0021   -0.0453    0.0361    0.0001
          10    0.0597   -0.0000   -0.0206   -0.0000   -0.0000    0.0000   -0.0001    0.0213
          11    0.0129   -0.0000   -0.0101   -0.0000    0.0000    0.0000   -0.0000    0.0107
          12   -0.0000   -0.0116    0.0000   -0.0313    0.0127   -0.0474   -0.0341   -0.0001
          13   -0.0108    0.0000    0.0025    0.0000    0.0002    0.0000    0.0000    0.0061
          14   -0.0482    0.0000    0.0116   -0.0000   -0.0001   -0.0000    0.0001   -0.0470
          15    0.0000    0.0013    0.0000   -0.0068   -0.0548   -0.0038   -0.0078    0.0001
          16   -0.0140    0.0000    0.0026   -0.0000    0.0000    0.0000    0.0000    0.0005
          17   -0.0235    0.0000   -0.0039    0.0000    0.0000    0.0000    0.0000   -0.0024
          18    0.0000    0.0009    0.0000   -0.0215    0.0046    0.0330    0.0478    0.0001
          19   -0.0188    0.0000    0.0048    0.0000    0.0000   -0.0000    0.0000   -0.0066
          20    0.0359   -0.0000   -0.0064   -0.0000   -0.0000    0.0000   -0.0000    0.0208
          21    0.0000    0.0127   -0.0000    0.0241   -0.0148    0.0211   -0.0493   -0.0001
          22   -0.0192    0.0000    0.0046    0.0000    0.0000    0.0000   -0.0001    0.0032
          23   -0.0294    0.0000    0.0082   -0.0000   -0.0000   -0.0000   -0.0000    0.0460
          24   -0.0000    0.0009    0.0000    0.0037   -0.0148   -0.0111    0.0210   -0.0000
          25    0.0089    0.0000    0.0549    0.0000    0.0000    0.0000   -0.0000    0.0035
          26   -0.0103    0.0000    0.0408   -0.0000    0.0000   -0.0000    0.0000   -0.0055
          27    0.0000    0.0554   -0.0000   -0.0140    0.0070   -0.0067   -0.0037   -0.0000
          28    0.0013   -0.0000   -0.0883   -0.0000   -0.0000    0.0000   -0.0000    0.0059
          29   -0.0212   -0.0000   -0.0463   -0.0000   -0.0000   -0.0000    0.0000   -0.0092
          30   -0.0000   -0.0920    0.0001    0.0085   -0.0038    0.0027    0.0013    0.0000
          31    0.0613   -0.0000   -0.0210    0.0000   -0.0000    0.0001   -0.0000    0.0224
          32    0.0664   -0.0000   -0.0298    0.0000   -0.0000    0.0000   -0.0000    0.0318
          33   -0.0000    0.0771   -0.0000    0.1493   -0.0477    0.2097    0.1138    0.0001
          34   -0.0238    0.0000    0.0037    0.0000   -0.0000   -0.0000    0.0000   -0.0152
          35    0.0408   -0.0000   -0.0039    0.0001    0.0001   -0.0000   -0.0001    0.0405
          36    0.0000   -0.0725    0.0001   -0.1392   -0.0101    0.2186   -0.1264   -0.0004
          37   -0.0019    0.0000    0.0074   -0.0001   -0.0010   -0.0001    0.0002   -0.1101
          38   -0.0418    0.0000    0.0142    0.0003    0.0007   -0.0000    0.0003   -0.1243
          39    0.0000   -0.0089   -0.0001    0.0951    0.3708    0.0167    0.0217    0.0001
          40   -0.0344    0.0000    0.0223    0.0000    0.0000   -0.0000   -0.0000   -0.0059
          41   -0.0106    0.0000   -0.0161    0.0000   -0.0000   -0.0000   -0.0000    0.0025
          42    0.0000   -0.0090   -0.0000    0.1344   -0.0297   -0.1466   -0.1668   -0.0002
          43    0.0361   -0.0000    0.0042   -0.0000    0.0001    0.0000   -0.0001    0.0611
          44    0.0693   -0.0001   -0.0073   -0.0000    0.0000    0.0000   -0.0001    0.0614
          45   -0.0000   -0.0806    0.0000   -0.1466    0.0834   -0.0991    0.1742    0.0003
          46    0.1002   -0.0000   -0.0257   -0.0000   -0.0008   -0.0002    0.0006   -0.1744
          47    0.0564   -0.0000   -0.0135    0.0002    0.0004    0.0000    0.0000   -0.0823
          48    0.0002   -0.0063   -0.0001    0.0543    0.2503    0.0421   -0.0733   -0.0005
          49   -0.1736    0.0001    0.0449    0.0000   -0.0002   -0.0001   -0.0001    0.2233
          50    0.0643   -0.0000   -0.0162    0.0000    0.0001    0.0000    0.0000   -0.0900
          51   -0.0006   -0.0033    0.0002   -0.0535    0.0309    0.0565   -0.0899    0.0007
          52    0.0726    0.0002    0.4913    0.0000    0.0001    0.0000   -0.0000    0.0058
          53    0.0221    0.0002    0.3183    0.0000    0.0000   -0.0000    0.0000   -0.0105
          54    0.0002    0.5439   -0.0003   -0.0335    0.0141   -0.0067   -0.0026   -0.0000


   Root No.      25        26        27        28        29        30        31        32

                25 A      26 A      27 A      28 A      29 A      30 A      31 A      32 A   

                1035.6    1109.0    1122.6    1157.8    1203.8    1227.7    1300.5    1343.3
  
           1   -0.0000    0.0142    0.0252   -0.0241   -0.0297    0.0048   -0.0283   -0.0437
           2    0.0000   -0.0034    0.0069    0.0016   -0.0146   -0.0175   -0.0243    0.0161
           3   -0.0232    0.0000   -0.0000    0.0000    0.0000    0.0000   -0.0000   -0.0000
           4    0.0000    0.0179    0.0191   -0.0006   -0.0139    0.0198   -0.0468   -0.0168
           5   -0.0000   -0.0096    0.0083    0.0035    0.0158    0.0212    0.0187    0.0516
           6    0.0090    0.0000   -0.0000    0.0000   -0.0000   -0.0000   -0.0000   -0.0000
           7    0.0000   -0.0062   -0.0418    0.0056    0.0099    0.0049    0.0208    0.0329
           8   -0.0000   -0.0064   -0.0111    0.0006   -0.0183   -0.0179   -0.0081   -0.0232
           9    0.0226   -0.0000    0.0000   -0.0000   -0.0000   -0.0000   -0.0000    0.0000
          10    0.0000   -0.0437   -0.0105    0.0091    0.0157   -0.0030    0.0221    0.0010
          11   -0.0000    0.0077    0.0077   -0.0050    0.0051    0.0144    0.0245   -0.0003
          12   -0.0076    0.0000    0.0000    0.0000   -0.0000   -0.0000   -0.0000    0.0000
          13   -0.0001   -0.0006    0.0025   -0.0017   -0.0055   -0.0064   -0.0142    0.0229
          14    0.0001    0.0061   -0.0061   -0.0049   -0.0171    0.0035    0.0376    0.0184
          15    0.0461    0.0000    0.0001   -0.0000    0.0000   -0.0000   -0.0001    0.0000
          16   -0.0000   -0.0138    0.0181   -0.0004   -0.0038   -0.0279    0.0002   -0.0401
          17   -0.0000   -0.0187    0.0192   -0.0072    0.0043    0.0012   -0.0046   -0.0069
          18    0.0105    0.0000   -0.0000    0.0000    0.0000    0.0000   -0.0000    0.0000
          19    0.0000    0.0254   -0.0185    0.0072   -0.0035   -0.0108   -0.0181    0.0251
          20   -0.0000   -0.0226    0.0129   -0.0008    0.0119   -0.0081   -0.0045   -0.0062
          21   -0.0162   -0.0000    0.0000   -0.0000    0.0000   -0.0000    0.0000   -0.0000
          22    0.0002   -0.0008   -0.0032   -0.0011   -0.0152   -0.0066    0.0148    0.0251
          23   -0.0001   -0.0061   -0.0031    0.0060    0.0233   -0.0005   -0.0108   -0.0025
          24   -0.0650   -0.0000   -0.0000   -0.0000   -0.0001   -0.0000    0.0001    0.0001
          25   -0.0000   -0.0080   -0.0040    0.0014    0.0014   -0.0035    0.0062    0.0050
          26    0.0000    0.0032   -0.0010   -0.0009   -0.0056   -0.0043   -0.0053   -0.0067
          27   -0.0022   -0.0000   -0.0000    0.0000    0.0000    0.0000    0.0000    0.0000
          28   -0.0000   -0.0061   -0.0005    0.0017    0.0071    0.0033    0.0116    0.0147
          29    0.0000    0.0118    0.0029   -0.0030   -0.0112   -0.0029   -0.0199   -0.0233
          30    0.0008   -0.0000   -0.0000    0.0000    0.0000    0.0000    0.0000    0.0000
          31    0.0000   -0.0455   -0.0095    0.0112    0.0169   -0.0037    0.0238   -0.0001
          32    0.0000    0.3138   -0.0898    0.2334    0.0216   -0.1820    0.0272   -0.0262
          33    0.0185   -0.0000    0.0000   -0.0000   -0.0000    0.0000   -0.0000   -0.0000
          34    0.0000   -0.0046   -0.0450    0.0049    0.0100    0.0061    0.0218    0.0368
          35    0.0001    0.0508   -0.1787    0.1201   -0.1650    0.3026   -0.0732   -0.0205
          36   -0.0954    0.0000   -0.0001    0.0000    0.0000    0.0001   -0.0001    0.0000
          37    0.0004   -0.0145   -0.0631    0.0506    0.3263    0.0703   -0.1093   -0.0951
          38   -0.0001   -0.0026   -0.0481    0.0285    0.1940    0.0526   -0.0192   -0.0558
          39   -0.1208   -0.0001   -0.0002    0.0001    0.0006    0.0001   -0.0002   -0.0001
          40   -0.0001    0.0495    0.3297    0.1662    0.0303    0.0929    0.0540    0.0246
          41    0.0000   -0.0556   -0.1612   -0.1054   -0.0144   -0.0715   -0.0358   -0.0487
          42   -0.0299   -0.0000   -0.0001   -0.0000   -0.0000   -0.0000   -0.0000   -0.0000
          43   -0.0001    0.2869    0.0147   -0.2313    0.0880    0.0681    0.0533    0.0333
          44   -0.0001    0.1240    0.0319   -0.1383    0.0644    0.0375    0.0359   -0.0052
          45    0.0520   -0.0000   -0.0000    0.0000   -0.0000   -0.0000   -0.0000   -0.0000
          46   -0.0007    0.0150   -0.0194   -0.0043   -0.0644    0.0286    0.2041   -0.1606
          47    0.0004    0.0049   -0.0123    0.0026   -0.0078    0.0213    0.1126   -0.1232
          48    0.2373    0.0001    0.0001   -0.0001   -0.0002    0.0000    0.0005   -0.0004
          49   -0.0009   -0.0194   -0.0434    0.0350    0.0302    0.0380    0.1155   -0.1678
          50    0.0004    0.0050    0.0195   -0.0151   -0.0029   -0.0261   -0.0627    0.1069
          51    0.2414   -0.0001   -0.0001    0.0001    0.0001    0.0002    0.0005   -0.0007
          52   -0.0000   -0.0097   -0.0020    0.0021    0.0068    0.0025    0.0139    0.0178
          53    0.0000    0.0114    0.0024   -0.0033   -0.0138   -0.0043   -0.0231   -0.0272
          54   -0.0015   -0.0000   -0.0000    0.0000    0.0000    0.0000    0.0000    0.0000


   Root No.      33        34        35        36        37        38        39        40

                33 A      34 A      35 A      36 A      37 A      38 A      39 A      40 A   

                1349.4    1397.8    1566.3    1625.8    1770.9    1796.1    1846.5    2328.9
  
           1    0.0470    0.0190   -0.0195    0.0630   -0.1221    0.0338   -0.0551   -0.0030
           2   -0.0367    0.0488    0.0870    0.0739    0.0233   -0.1004   -0.0303   -0.0013
           3    0.0000    0.0000   -0.0000    0.0000   -0.0000    0.0000   -0.0000    0.0000
           4   -0.0686    0.0046   -0.0155   -0.0640    0.1273    0.0166    0.0202    0.0408
           5   -0.0237    0.0418   -0.0865    0.0690    0.0275    0.0926   -0.0126   -0.0653
           6    0.0000   -0.0000    0.0000   -0.0000   -0.0000   -0.0000    0.0000    0.0000
           7    0.0160    0.0227    0.0554    0.0168    0.0512    0.0023    0.0076   -0.0013
           8    0.0582    0.0477    0.0153   -0.0624    0.0142    0.1459    0.0033    0.0020
           9    0.0000   -0.0000   -0.0000   -0.0000   -0.0000   -0.0000    0.0000    0.0000
          10    0.0034   -0.0409    0.0561   -0.0135   -0.0492    0.0065   -0.0024    0.0013
          11    0.0742    0.0366   -0.0064   -0.0647   -0.0060   -0.1427    0.0149    0.0002
          12   -0.0000    0.0000   -0.0000    0.0000    0.0000    0.0000    0.0000   -0.0000
          13    0.0144   -0.0093    0.0017    0.0112   -0.0231    0.0055    0.2153    0.0003
          14    0.0102   -0.0419   -0.0308   -0.0257   -0.0024    0.0156    0.0519    0.0001
          15    0.0000    0.0000    0.0000    0.0001   -0.0001    0.0000    0.0006   -0.0000
          16    0.0472   -0.0212   -0.0520    0.0541    0.1116   -0.0463    0.0118   -0.0013
          17   -0.0369   -0.0477    0.0680    0.0096   -0.0314    0.0772   -0.0083    0.0026
          18   -0.0000    0.0000    0.0000   -0.0000   -0.0000    0.0000   -0.0000   -0.0000
          19   -0.0585    0.0323   -0.0382   -0.0577   -0.1189   -0.0330   -0.0098    0.0003
          20   -0.0384   -0.0398   -0.0697    0.0048   -0.0432   -0.0736   -0.0011   -0.0003
          21    0.0000   -0.0000    0.0000    0.0000    0.0000    0.0000    0.0000   -0.0000
          22    0.0087   -0.0263   -0.0098   -0.0332    0.0327   -0.0019   -0.1820    0.0003
          23   -0.0016    0.0053    0.0036   -0.0010    0.0038   -0.0023   -0.0097    0.0001
          24    0.0000   -0.0001   -0.0000   -0.0001    0.0001   -0.0000   -0.0006    0.0000
          25    0.0015   -0.0008    0.0064    0.0024   -0.0030   -0.0040   -0.0002   -0.1607
          26   -0.0016   -0.0054    0.0051    0.0024   -0.0044    0.0015   -0.0019    0.2583
          27    0.0000    0.0000   -0.0000   -0.0000    0.0000    0.0000   -0.0000   -0.0001
          28    0.0037    0.0095   -0.0135    0.0160   -0.0045    0.0089   -0.0029    0.1055
          29   -0.0080   -0.0138    0.0189   -0.0266    0.0102   -0.0127    0.0048   -0.1682
          30    0.0000    0.0000   -0.0000    0.0000   -0.0000    0.0000   -0.0000    0.0000
          31    0.0029   -0.0480    0.0668   -0.0167   -0.0570    0.0095   -0.0022    0.0071
          32    0.0147   -0.0792   -0.0099    0.0964   -0.0039    0.0594   -0.0094   -0.0078
          33    0.0000    0.0000   -0.0000   -0.0000    0.0000   -0.0000   -0.0000    0.0000
          34    0.0190    0.0273    0.0661    0.0211    0.0592    0.0056    0.0084   -0.0034
          35    0.0737   -0.1043   -0.0001    0.1089   -0.0096   -0.0643   -0.0159   -0.0004
          36    0.0000   -0.0000    0.0000    0.0000    0.0000   -0.0000   -0.0000    0.0000
          37    0.0531    0.0264   -0.0084    0.0092   -0.0314    0.0136   -0.0016    0.0023
          38    0.0324   -0.0219   -0.0399   -0.0322    0.0002    0.0185   -0.1271   -0.0015
          39    0.0001    0.0001    0.0001    0.0001   -0.0000    0.0000    0.0003    0.0000
          40    0.0356   -0.0132    0.1166   -0.0171   -0.0202    0.0533   -0.0031    0.0016
          41   -0.0314   -0.0625   -0.0239    0.0590    0.0519    0.0283    0.0002    0.0031
          42    0.0000    0.0000   -0.0000   -0.0000    0.0000   -0.0000   -0.0000   -0.0000
          43    0.0018   -0.0283    0.1121    0.0247    0.0304    0.0502    0.0006    0.0003
          44   -0.0050   -0.0840    0.0075    0.0591    0.0467   -0.0364    0.0060   -0.0004
          45    0.0000    0.0000   -0.0000   -0.0000   -0.0000   -0.0000   -0.0000   -0.0000
          46   -0.1509    0.0546   -0.0110    0.0014   -0.0049    0.0009   -0.0041   -0.0001
          47   -0.1055    0.0579    0.0029    0.0241   -0.0254   -0.0005    0.1444   -0.0001
          48   -0.0004    0.0001   -0.0001   -0.0000   -0.0000    0.0000   -0.0002    0.0000
          49   -0.1423    0.0945    0.0192    0.0147    0.0046   -0.0084   -0.0256    0.0004
          50    0.0827   -0.0662   -0.0153   -0.0344    0.0263    0.0011   -0.1357    0.0004
          51   -0.0006    0.0004    0.0001    0.0001    0.0000   -0.0001    0.0001    0.0000
          52    0.0032    0.0109   -0.0168    0.0209   -0.0058    0.0126   -0.0042    0.2065
          53   -0.0102   -0.0170    0.0243   -0.0344    0.0142   -0.0175    0.0068   -0.3286
          54    0.0000    0.0000   -0.0000    0.0000   -0.0000    0.0000    0.0000    0.0001


   Root No.      41        42        43        44        45        46        47        48

                41 A      42 A      43 A      44 A      45 A      46 A      47 A      48 A   

                3000.2    3026.1    3056.1    3064.0    3076.7    3085.8    3151.5    3356.9
  
           1    0.0008    0.0006   -0.0002    0.0003    0.0002    0.0005    0.0008    0.0003
           2   -0.0019    0.0002   -0.0004   -0.0003    0.0005   -0.0005    0.0003   -0.0001
           3   -0.0000    0.0000   -0.0000   -0.0000    0.0000    0.0000    0.0000    0.0000
           4    0.0005   -0.0004   -0.0004    0.0005    0.0002    0.0001   -0.0002    0.0010
           5   -0.0006   -0.0004   -0.0007    0.0013    0.0012   -0.0001   -0.0000   -0.0016
           6   -0.0000    0.0000    0.0000   -0.0000   -0.0000    0.0000   -0.0000    0.0000
           7   -0.0609    0.0022   -0.0018   -0.0037    0.0032   -0.0101   -0.0003   -0.0001
           8   -0.0006    0.0008   -0.0005   -0.0014    0.0011   -0.0002    0.0001    0.0001
           9   -0.0000    0.0000   -0.0000   -0.0000    0.0000   -0.0000    0.0000   -0.0000
          10   -0.0003   -0.0000    0.0273   -0.0322   -0.0201    0.0013    0.0000    0.0000
          11    0.0002   -0.0000    0.0008    0.0004    0.0015   -0.0002   -0.0000   -0.0003
          12    0.0000    0.0000   -0.0000    0.0000    0.0000   -0.0000    0.0000    0.0000
          13    0.0016    0.0419    0.0001    0.0001   -0.0004   -0.0052    0.0083   -0.0000
          14   -0.0011   -0.0574    0.0001    0.0001   -0.0001    0.0001   -0.0041   -0.0000
          15    0.0000    0.0002   -0.0000    0.0000   -0.0000   -0.0000    0.0000    0.0000
          16    0.0002   -0.0001   -0.0162   -0.0019   -0.0160    0.0015    0.0000   -0.0000
          17   -0.0002   -0.0001   -0.0270   -0.0082   -0.0271    0.0022    0.0001    0.0001
          18   -0.0000    0.0000    0.0000    0.0000    0.0000   -0.0000    0.0000   -0.0000
          19    0.0046   -0.0003   -0.0079   -0.0166    0.0136   -0.0021   -0.0000   -0.0000
          20   -0.0033    0.0002    0.0159    0.0303   -0.0216    0.0042    0.0001    0.0000
          21   -0.0000    0.0000    0.0000    0.0000   -0.0000    0.0000   -0.0000   -0.0000
          22   -0.0062   -0.0021   -0.0005   -0.0014    0.0024    0.0366   -0.0376   -0.0000
          23    0.0077    0.0037    0.0006    0.0016   -0.0029   -0.0410   -0.0607   -0.0000
          24   -0.0000   -0.0000   -0.0000   -0.0000    0.0000    0.0002   -0.0000   -0.0000
          25   -0.0001   -0.0003    0.0001   -0.0000    0.0000   -0.0000    0.0000   -0.0148
          26    0.0001    0.0002    0.0002   -0.0004   -0.0003    0.0001   -0.0000    0.0237
          27   -0.0000    0.0000   -0.0000    0.0000    0.0000    0.0000    0.0000   -0.0000
          28   -0.0000   -0.0000    0.0000   -0.0000    0.0000    0.0000   -0.0000    0.0524
          29   -0.0000   -0.0002    0.0000    0.0000   -0.0000   -0.0000    0.0000   -0.0835
          30    0.0000    0.0000    0.0000   -0.0000   -0.0000    0.0000    0.0000    0.0000
          31    0.0038    0.0004   -0.3156    0.3667    0.2172   -0.0132   -0.0004   -0.0010
          32   -0.0001    0.0000   -0.0012   -0.0017   -0.0026    0.0002    0.0000   -0.0002
          33   -0.0000   -0.0000    0.0001   -0.0001   -0.0001    0.0000    0.0000    0.0000
          34    0.6916   -0.0234    0.0190    0.0347   -0.0254    0.1138    0.0051    0.0005
          35   -0.0024    0.0006    0.0011    0.0021   -0.0013    0.0020    0.0016    0.0001
          36    0.0000   -0.0000    0.0000    0.0000    0.0000    0.0000    0.0000   -0.0000
          37   -0.0112   -0.4353    0.0005    0.0008   -0.0000    0.0013   -0.0344   -0.0001
          38    0.0194    0.6817   -0.0007   -0.0010   -0.0004   -0.0070    0.0463    0.0004
          39   -0.0001   -0.0025    0.0000    0.0000    0.0000    0.0000   -0.0002   -0.0000
          40    0.0034    0.0006    0.1862    0.0428    0.1743   -0.0140   -0.0004   -0.0004
          41    0.0048    0.0010    0.3169    0.0818    0.2971   -0.0236   -0.0007   -0.0005
          42   -0.0000   -0.0000   -0.0001   -0.0000   -0.0001    0.0000    0.0000    0.0000
          43   -0.0410    0.0026    0.0999    0.1954   -0.1394    0.0240    0.0004    0.0003
          44    0.0634   -0.0042   -0.1792   -0.3427    0.2400   -0.0431   -0.0008   -0.0006
          45    0.0000   -0.0000   -0.0000   -0.0000    0.0000   -0.0000   -0.0000   -0.0000
          46    0.0655   -0.0110    0.0056    0.0139   -0.0252   -0.3677   -0.0370    0.0002
          47   -0.0934    0.0111   -0.0081   -0.0204    0.0370    0.5440    0.0263   -0.0003
          48    0.0004   -0.0001    0.0000    0.0001   -0.0001   -0.0021   -0.0002    0.0000
          49   -0.0008   -0.0292    0.0002    0.0004   -0.0005   -0.0146    0.4123    0.0003
          50    0.0040   -0.0581    0.0007    0.0017   -0.0026   -0.0505    0.6932    0.0006
          51   -0.0000    0.0000   -0.0000   -0.0000    0.0000    0.0000    0.0002    0.0000
          52    0.0003    0.0007    0.0001   -0.0001   -0.0004   -0.0001    0.0004   -0.4608
          53   -0.0004   -0.0004   -0.0003    0.0004    0.0008    0.0001   -0.0005    0.7337
          54    0.0000   -0.0000   -0.0000    0.0000    0.0000    0.0000   -0.0000   -0.0001


           MASS-WEIGHTED COORDINATE ANALYSIS (NORMAL COORDINATES)


   Root No.       1         2         3         4         5         6         7         8

                 1 A       2 A       3 A       4 A       5 A       6 A       7 A       8 A   

                  78.9     113.6     149.8     203.8     291.1     351.8     430.5     449.4
  
           1    0.0001   -0.0000   -0.1067    0.0003    0.2222    0.0004   -0.0004    0.0187
           2   -0.0002   -0.0004   -0.0666   -0.0003   -0.1794   -0.0003    0.0012    0.2301
           3   -0.2586   -0.0833    0.0009    0.2828   -0.0005   -0.0529    0.5201   -0.0045
           4    0.0002   -0.0000   -0.1119    0.0004    0.2273    0.0004   -0.0008   -0.0263
           5   -0.0000   -0.0003   -0.1542    0.0002   -0.0062    0.0001   -0.0011   -0.1712
           6   -0.0252   -0.2296    0.0010    0.3752   -0.0009    0.2620    0.0547   -0.0007
           7    0.0002    0.0000   -0.0111   -0.0000    0.0389    0.0002   -0.0015   -0.1854
           8   -0.0002   -0.0003   -0.0049   -0.0005   -0.2776   -0.0004    0.0008    0.1421
           9   -0.2981    0.2999   -0.0000    0.2973   -0.0004   -0.3484   -0.1281    0.0002
          10    0.0002   -0.0001   -0.0436   -0.0001   -0.0287   -0.0001   -0.0012   -0.1332
          11    0.0000   -0.0003   -0.1822    0.0004    0.1560    0.0002   -0.0012   -0.1404
          12    0.2247   -0.3779    0.0007    0.1295    0.0005   -0.3596   -0.2902    0.0022
          13    0.0004   -0.0001   -0.2729    0.0009   -0.0342   -0.0002    0.0032    0.3553
          14   -0.0004   -0.0003    0.0326   -0.0006   -0.0280    0.0000   -0.0002    0.1318
          15   -0.3715   -0.3464    0.0010   -0.3033    0.0013   -0.0248    0.0701   -0.0004
          16    0.0002   -0.0001    0.0541   -0.0006   -0.2361   -0.0003   -0.0012   -0.2099
          17    0.0000   -0.0003   -0.1359    0.0001    0.0482    0.0001   -0.0012   -0.1601
          18    0.1895   -0.1088   -0.0005   -0.3709    0.0006    0.0091    0.3359   -0.0025
          19    0.0001   -0.0000    0.0552   -0.0005   -0.2296   -0.0002   -0.0013   -0.2149
          20   -0.0001   -0.0003   -0.0486   -0.0003   -0.1542   -0.0002    0.0006    0.1310
          21   -0.0937    0.3427   -0.0009   -0.1786   -0.0008    0.3082   -0.2083    0.0018
          22   -0.0025   -0.0012   -0.2846    0.0001   -0.0695   -0.0004    0.0037    0.3828
          23    0.0003    0.0013    0.2310    0.0014    0.5344    0.0005    0.0030    0.2536
          24    0.5324   -0.0195   -0.0010   -0.0620    0.0001    0.0207   -0.0493    0.0013
          25    0.0005    0.0005    0.0722    0.0003    0.2891    0.0007   -0.0022   -0.2439
          26    0.0002    0.0000   -0.0435    0.0001    0.0213    0.0002   -0.0022   -0.3649
          27   -0.0015    0.0149    0.0004    0.2336   -0.0009    0.5251   -0.1858    0.0016
          28    0.0009    0.0013    0.6230   -0.0007   -0.0363   -0.0000    0.0008    0.1547
          29    0.0004    0.0006    0.3016   -0.0006   -0.1872   -0.0004   -0.0003   -0.1323
          30    0.0209    0.4551   -0.0011   -0.2152    0.0005   -0.1953    0.0544   -0.0004
          31    0.0001   -0.0001   -0.0122   -0.0000   -0.0081   -0.0001   -0.0004   -0.0392
          32    0.0000   -0.0001   -0.0734    0.0002    0.1117    0.0001   -0.0003   -0.0083
          33    0.1298   -0.1875    0.0003    0.0534    0.0004   -0.2732   -0.2829    0.0022
          34    0.0000   -0.0000   -0.0038   -0.0000    0.0095    0.0001   -0.0004   -0.0534
          35    0.0000   -0.0001    0.0256   -0.0002   -0.1031   -0.0001    0.0003    0.0167
          36   -0.1223    0.1611   -0.0001    0.1427    0.0000   -0.2460   -0.1766    0.0011
          37    0.0009    0.0002   -0.1110    0.0006   -0.0919   -0.0002    0.0014    0.1169
          38   -0.0005   -0.0005   -0.0103   -0.0008   -0.0582   -0.0000   -0.0006    0.0476
          39   -0.3396   -0.2482    0.0008   -0.3131    0.0012    0.0045   -0.2032    0.0012
          40    0.0001   -0.0001    0.0352   -0.0003   -0.1150   -0.0002   -0.0001   -0.0345
          41    0.0000   -0.0001   -0.0509    0.0001    0.0412    0.0001   -0.0004   -0.0612
          42    0.1111   -0.0596   -0.0003   -0.2525    0.0005    0.0110    0.2677   -0.0020
          43    0.0000   -0.0000    0.0330   -0.0003   -0.1209   -0.0001   -0.0002   -0.0272
          44   -0.0000   -0.0001   -0.0044   -0.0001   -0.0760   -0.0001    0.0003    0.0576
          45   -0.0394    0.1997   -0.0006   -0.1263   -0.0004    0.2508   -0.2059    0.0019
          46   -0.0017   -0.0006   -0.0462   -0.0005    0.0699   -0.0001    0.0009    0.1354
          47    0.0003    0.0007    0.0916    0.0009    0.2182    0.0001    0.0017    0.0916
          48    0.3777    0.1417   -0.0008    0.2055   -0.0010   -0.0097    0.2253   -0.0010
          49   -0.0005   -0.0004   -0.1233    0.0002   -0.1395   -0.0003    0.0012    0.0823
          50   -0.0000    0.0004    0.0915    0.0003    0.2272    0.0002    0.0009    0.0932
          51    0.1507   -0.0690   -0.0003   -0.1813    0.0007    0.0273   -0.3146    0.0024
          52    0.0004    0.0006    0.3189   -0.0005   -0.0984   -0.0002    0.0012    0.1720
          53    0.0002    0.0003    0.1743   -0.0004   -0.1098   -0.0003    0.0005    0.0403
          54    0.0124    0.2442   -0.0007   -0.1786    0.0005   -0.2623    0.0916   -0.0007


   Root No.       9        10        11        12        13        14        15        16

                 9 A      10 A      11 A      12 A      13 A      14 A      15 A      16 A   

                 492.5     535.3     591.3     606.3     628.4     768.5     786.4     838.0
  
           1    0.0876    0.0001   -0.0026   -0.2414   -0.0014   -0.0000   -0.0000    0.2090
           2    0.1499    0.0003   -0.2171   -0.0089   -0.0000    0.0001    0.0001   -0.1123
           3    0.0015   -0.1744   -0.0004   -0.0014    0.0868    0.5068    0.1550    0.0000
           4    0.1613    0.0001   -0.0464   -0.2583   -0.0017    0.0001    0.0000    0.0552
           5   -0.1784    0.0000   -0.0877   -0.1496   -0.0009   -0.0001    0.0001   -0.0503
           6    0.0006   -0.2885   -0.0006   -0.0027    0.3762   -0.4702    0.1914    0.0001
           7    0.0593   -0.0002    0.4088   -0.0585   -0.0002   -0.0001   -0.0001    0.4693
           8    0.1606    0.0000    0.0437    0.1821    0.0013    0.0001    0.0000   -0.0089
           9    0.0004    0.3025    0.0000   -0.0007    0.1257    0.0154   -0.0957    0.0000
          10   -0.1469    0.0003   -0.3561   -0.2799   -0.0021    0.0001   -0.0000    0.0450
          11    0.0151   -0.0001    0.1576   -0.2126   -0.0014   -0.0000   -0.0000   -0.2140
          12   -0.0005   -0.1920    0.0001    0.0007   -0.0781   -0.0186   -0.1380   -0.0001
          13   -0.2091    0.0001    0.0056    0.1345    0.0020    0.0003    0.0001   -0.0174
          14    0.3351    0.0004   -0.3308   -0.2331   -0.0019   -0.0001    0.0000    0.0202
          15   -0.0005   -0.0556    0.0004    0.0024   -0.3678   -0.1383   -0.0588   -0.0001
          16   -0.1434    0.0000    0.0391    0.0373    0.0003   -0.0001    0.0000   -0.2449
          17    0.0635   -0.0002    0.4350   -0.0828   -0.0004   -0.0001    0.0001   -0.4064
          18    0.0007    0.2772   -0.0001   -0.0008    0.1184   -0.0913   -0.2266    0.0000
          19   -0.1279   -0.0001    0.0656    0.0477    0.0003   -0.0001    0.0000   -0.2156
          20    0.2722   -0.0001    0.3051    0.1604    0.0014    0.0002    0.0000    0.3629
          21   -0.0005   -0.3170   -0.0000    0.0004   -0.0617    0.1084   -0.2243    0.0000
          22   -0.1982   -0.0000   -0.0063    0.1445    0.0008   -0.0002   -0.0001   -0.0176
          23   -0.2271   -0.0002   -0.0460    0.0635    0.0002   -0.0000   -0.0001   -0.0043
          24   -0.0006   -0.0023   -0.0000    0.0001    0.0283   -0.0092   -0.0167   -0.0000
          25    0.3965   -0.0003   -0.2006    0.5041    0.0024   -0.0000    0.0000   -0.1277
          26   -0.1731   -0.0001   -0.2400    0.3072    0.0016    0.0000   -0.0001    0.1993
          27   -0.0007    0.4736    0.0005    0.0016   -0.1987    0.1354   -0.0667   -0.0001
          28    0.1843    0.0000    0.0589   -0.0188   -0.0001    0.0000    0.0000   -0.1563
          29   -0.3470    0.0000   -0.0944   -0.0206    0.0000   -0.0000   -0.0001    0.2829
          30    0.0002   -0.0770   -0.0000   -0.0002    0.0191    0.0445   -0.0363   -0.0001
          31   -0.0415    0.0001   -0.1031   -0.0806   -0.0007    0.0002    0.0001    0.0134
          32    0.0644    0.0000    0.0370   -0.1260   -0.0009    0.0001    0.0000   -0.0180
          33   -0.0008   -0.0341    0.0003    0.0022   -0.3047    0.3675    0.2860    0.0001
          34    0.0170   -0.0001    0.1177   -0.0171   -0.0001    0.0000   -0.0000    0.1389
          35   -0.0113   -0.0001    0.0266    0.1103    0.0007    0.0001   -0.0001   -0.1278
          36   -0.0003    0.3138    0.0003    0.0007   -0.0604   -0.4008    0.2576    0.0000
          37   -0.0328   -0.0000   -0.0208    0.0709    0.0002    0.0001   -0.0000   -0.0461
          38    0.1120    0.0003   -0.1100   -0.0451   -0.0001   -0.0004   -0.0001   -0.0217
          39   -0.0005    0.0372    0.0001   -0.0003    0.0648   -0.1291   -0.0441    0.0002
          40   -0.0078    0.0000    0.0648    0.0977    0.0007   -0.0000    0.0002    0.0372
          41   -0.0004   -0.0000    0.0951   -0.0757   -0.0005   -0.0000    0.0001   -0.1846
          42    0.0004    0.3297    0.0000    0.0000   -0.0110   -0.0169    0.5696    0.0002
          43   -0.0385   -0.0000   -0.0658    0.0648    0.0004    0.0000    0.0001   -0.0633
          44    0.0777   -0.0000    0.0404    0.0758    0.0006    0.0001    0.0000    0.1042
          45   -0.0007   -0.2676    0.0001    0.0013   -0.1993   -0.0176    0.5390    0.0000
          46   -0.1966    0.0001    0.1081    0.1617    0.0022    0.0002    0.0001   -0.0417
          47   -0.1645   -0.0003    0.0634    0.1032   -0.0000   -0.0005   -0.0002   -0.0281
          48    0.0002   -0.0568    0.0003    0.0021   -0.3622   -0.1892   -0.0697    0.0002
          49    0.1075   -0.0001   -0.1196   -0.0857   -0.0024   -0.0007   -0.0003    0.0425
          50   -0.1682   -0.0000    0.0587    0.0986    0.0015    0.0003    0.0001   -0.0313
          51   -0.0005    0.0943   -0.0005   -0.0033    0.5920    0.2824    0.1279   -0.0001
          52   -0.0267    0.0001    0.1360   -0.2507   -0.0013    0.0000    0.0000   -0.0774
          53   -0.1538    0.0000    0.0462   -0.1602   -0.0008   -0.0000    0.0000    0.0689
          54    0.0004   -0.2320   -0.0002   -0.0009    0.1141   -0.1826    0.1173    0.0001


   Root No.      17        18        19        20        21        22        23        24

                17 A      18 A      19 A      20 A      21 A      22 A      23 A      24 A   

                 844.7     851.3     861.8     904.1     942.5     968.3    1010.6    1028.6
  
           1   -0.0646    0.0000   -0.0037   -0.0000    0.0000   -0.0000    0.0002   -0.1096
           2    0.0837   -0.0000   -0.0173    0.0001    0.0001   -0.0001    0.0003   -0.1502
           3   -0.0000   -0.0012   -0.0000   -0.2290    0.1947    0.1248   -0.1117   -0.0010
           4    0.1580   -0.0001   -0.0356   -0.0000   -0.0001   -0.0000    0.0001   -0.0353
           5    0.1377   -0.0001   -0.0305    0.0001   -0.0001    0.0001   -0.0001    0.0595
           6    0.0001   -0.0708    0.0000    0.2773   -0.1261    0.1266    0.1210    0.0004
           7   -0.1670    0.0000    0.0165   -0.0000   -0.0002   -0.0001    0.0002   -0.1133
           8    0.2229   -0.0001   -0.0208   -0.0001    0.0001    0.0001   -0.0002    0.0975
           9    0.0000    0.0486   -0.0000    0.2352   -0.0137   -0.3440    0.2802    0.0009
          10    0.4320   -0.0002   -0.0971   -0.0002   -0.0001    0.0000   -0.0004    0.1590
          11    0.0937   -0.0001   -0.0478   -0.0001    0.0000    0.0000   -0.0002    0.0802
          12   -0.0001   -0.0590    0.0001   -0.2753    0.0845   -0.3603   -0.2641   -0.0005
          13   -0.0780    0.0000    0.0117    0.0003    0.0011    0.0001    0.0001    0.0457
          14   -0.3489    0.0002    0.0549   -0.0001   -0.0007   -0.0001    0.0005   -0.3512
          15    0.0004    0.0069    0.0000   -0.0601   -0.3640   -0.0290   -0.0606    0.0006
          16   -0.1015    0.0001    0.0123   -0.0000    0.0001    0.0001    0.0001    0.0037
          17   -0.1701    0.0001   -0.0185    0.0001    0.0000    0.0000    0.0001   -0.0179
          18    0.0000    0.0045    0.0000   -0.1895    0.0307    0.2504    0.3707    0.0005
          19   -0.1363    0.0001    0.0228    0.0001    0.0000   -0.0000    0.0000   -0.0494
          20    0.2603   -0.0002   -0.0301   -0.0002   -0.0001    0.0001   -0.0003    0.1552
          21    0.0000    0.0648   -0.0000    0.2124   -0.0983    0.1602   -0.3824   -0.0007
          22   -0.1392    0.0001    0.0216    0.0000    0.0002    0.0002   -0.0005    0.0240
          23   -0.2129    0.0001    0.0387   -0.0000   -0.0002   -0.0000   -0.0004    0.3436
          24   -0.0001    0.0045    0.0000    0.0328   -0.0981   -0.0839    0.1625   -0.0003
          25    0.0647    0.0001    0.2595    0.0000    0.0001    0.0000   -0.0001    0.0264
          26   -0.0748    0.0002    0.1927   -0.0000    0.0001   -0.0001    0.0001   -0.0408
          27    0.0001    0.2825   -0.0002   -0.1233    0.0467   -0.0507   -0.0289   -0.0001
          28    0.0096   -0.0002   -0.4169   -0.0000   -0.0001    0.0000   -0.0001    0.0443
          29   -0.1538   -0.0001   -0.2187   -0.0000   -0.0001   -0.0001    0.0001   -0.0687
          30   -0.0002   -0.4692    0.0002    0.0750   -0.0254    0.0203    0.0104    0.0001
          31    0.1285   -0.0000   -0.0287    0.0001   -0.0001    0.0002   -0.0000    0.0484
          32    0.1394   -0.0000   -0.0408    0.0000   -0.0000    0.0001   -0.0001    0.0688
          33   -0.0001    0.1139   -0.0000    0.3810   -0.0917    0.4612    0.2557    0.0003
          34   -0.0499    0.0000    0.0050    0.0000   -0.0001   -0.0001    0.0001   -0.0329
          35    0.0857   -0.0000   -0.0053    0.0001    0.0002   -0.0000   -0.0001    0.0876
          36    0.0000   -0.1072    0.0001   -0.3553   -0.0195    0.4808   -0.2839   -0.0009
          37   -0.0040    0.0000    0.0101   -0.0004   -0.0020   -0.0003    0.0004   -0.2383
          38   -0.0877    0.0000    0.0194    0.0006    0.0014   -0.0001    0.0006   -0.2689
          39    0.0000   -0.0131   -0.0001    0.2427    0.7136    0.0366    0.0487    0.0001
          40   -0.0721    0.0000    0.0305    0.0001    0.0000   -0.0001   -0.0000   -0.0129
          41   -0.0222    0.0000   -0.0220    0.0001   -0.0000   -0.0000   -0.0001    0.0053
          42    0.0000   -0.0133   -0.0000    0.3429   -0.0572   -0.3225   -0.3747   -0.0004
          43    0.0758   -0.0000    0.0057   -0.0001    0.0001    0.0000   -0.0001    0.1323
          44    0.1453   -0.0001   -0.0100   -0.0001    0.0000    0.0001   -0.0002    0.1330
          45   -0.0000   -0.1191    0.0000   -0.3742    0.1605   -0.2179    0.3914    0.0006
          46    0.2103   -0.0001   -0.0351   -0.0001   -0.0015   -0.0005    0.0013   -0.3774
          47    0.1182   -0.0001   -0.0185    0.0004    0.0008    0.0000    0.0001   -0.1781
          48    0.0004   -0.0093   -0.0002    0.1385    0.4816    0.0927   -0.1647   -0.0010
          49   -0.3641    0.0002    0.0614    0.0001   -0.0004   -0.0001   -0.0003    0.4832
          50    0.1348   -0.0001   -0.0221    0.0000    0.0002    0.0000    0.0001   -0.1949
          51   -0.0013   -0.0049    0.0002   -0.1366    0.0594    0.1243   -0.2019    0.0016
          52    0.1524    0.0003    0.6722    0.0001    0.0001    0.0000   -0.0000    0.0125
          53    0.0464    0.0003    0.4355    0.0000    0.0001   -0.0000    0.0000   -0.0227
          54    0.0004    0.8036   -0.0005   -0.0854    0.0271   -0.0146   -0.0059   -0.0000


   Root No.      25        26        27        28        29        30        31        32

                25 A      26 A      27 A      28 A      29 A      30 A      31 A      32 A   

                1035.6    1109.0    1122.6    1157.8    1203.8    1227.7    1300.5    1343.3
  
           1   -0.0001    0.0953    0.1775   -0.1876   -0.2112    0.0377   -0.2178   -0.3104
           2    0.0000   -0.0228    0.0487    0.0123   -0.1042   -0.1390   -0.1869    0.1143
           3   -0.1649    0.0000   -0.0001    0.0000    0.0003    0.0001   -0.0000   -0.0001
           4    0.0000    0.1206    0.1346   -0.0047   -0.0988    0.1573   -0.3610   -0.1191
           5   -0.0000   -0.0644    0.0586    0.0275    0.1127    0.1682    0.1441    0.3666
           6    0.0639    0.0000   -0.0000    0.0000   -0.0000   -0.0001   -0.0000   -0.0001
[...]
 REDUCED MASS        0.3518         C  1 -- C  2          +6.6% ( 30.0%)     13.2%
 EFFECTIVE MASS      2.4864
 FORCE CONSTANT      0.3125

 VIBRATION         31   31A           ATOM PAIR      ENERGY CONTRIBUTION    RADIAL
 FREQUENCY          1300.53         C  2 -- C  4         +13.1% ( 48.9%)     32.6%
 TRANSITION DIPOLE   0.1109         C  8 -- H 16         +11.8% ( 46.3%)      3.3%
 TRAVEL (Ang.)       0.2856         C  1 -- C  5         +11.7% ( 46.1%)     90.3%
 REDUCED MASS        0.6357         C  2 -- C  9         +10.7% ( 44.2%)     68.2%
 EFFECTIVE MASS      6.9320
 FORCE CONSTANT      0.6335

 VIBRATION         32   32A           ATOM PAIR      ENERGY CONTRIBUTION    RADIAL
 FREQUENCY          1343.27         C  1 -- C  3         +12.1% ( 49.8%)     68.7%
 TRANSITION DIPOLE   0.0713         C  1 -- C  2         +10.2% ( 45.7%)     36.5%
 TRAVEL (Ang.)       0.2675         C  2 -- C  9          +9.3% ( 43.6%)     96.4%
 REDUCED MASS        0.7016         C  8 -- H 16          +8.5% ( 41.8%)      2.5%
 EFFECTIVE MASS      7.4514
 FORCE CONSTANT      0.7459

 VIBRATION         33   33A           ATOM PAIR      ENERGY CONTRIBUTION    RADIAL
 FREQUENCY          1349.37         C  2 -- C  4         +13.3% ( 61.3%)     98.8%
 TRANSITION DIPOLE   0.1562         C  3 -- C  7         +12.1% ( 58.4%)     98.4%
 TRAVEL (Ang.)       0.1931         C  4 -- C  6         +12.1% ( 58.4%)     98.0%
 REDUCED MASS        1.3408         C  1 -- C  2         +11.3% ( 56.5%)     98.8%
 EFFECTIVE MASS      9.9255         C  6 -- C  7         +10.3% ( 54.0%)    100.0%
 FORCE CONSTANT      1.4384

 VIBRATION         34   34A           ATOM PAIR      ENERGY CONTRIBUTION    RADIAL
 FREQUENCY          1397.82         C  4 -- C  6         +12.8% ( 54.4%)     91.9%
 TRANSITION DIPOLE   0.3280         C  3 -- C  7         +11.6% ( 51.7%)     64.5%
 TRAVEL (Ang.)       0.2148         C  1 -- C  5         +10.3% ( 48.7%)     94.5%
 REDUCED MASS        1.0456         C  6 -- C  7          +9.7% ( 47.3%)     97.7%
 EFFECTIVE MASS     10.5866
 FORCE CONSTANT      1.2037

 VIBRATION         35   35A           ATOM PAIR      ENERGY CONTRIBUTION    RADIAL
 FREQUENCY          1566.29         C  1 -- C  2         +14.4% ( 56.7%)      0.1%
 TRANSITION DIPOLE   0.5413         C  4 -- C  6         +10.9% ( 49.4%)     81.2%
 TRAVEL (Ang.)       0.1578         C  6 -- C  7         +10.8% ( 49.1%)      1.1%
 REDUCED MASS        1.7281         C  2 -- C  4         +10.5% ( 48.5%)     95.8%
 EFFECTIVE MASS     11.4311         C  3 -- C  7         +10.5% ( 48.4%)     91.0%
 FORCE CONSTANT      2.4978         C  1 -- C  3         +10.0% ( 47.4%)     91.0%

 VIBRATION         36   36A           ATOM PAIR      ENERGY CONTRIBUTION    RADIAL
 FREQUENCY          1625.81         C  1 -- C  2         +17.9% ( 62.7%)     99.8%
 TRANSITION DIPOLE   0.5682         C  2 -- C  4         +13.1% ( 53.6%)     40.0%
 TRAVEL (Ang.)       0.1519         C  1 -- C  3         +13.1% ( 53.5%)     45.6%
 REDUCED MASS        1.7976         C  1 -- C  5          +9.1% ( 44.5%)     99.6%
 EFFECTIVE MASS     11.2586
 FORCE CONSTANT      2.7996

 VIBRATION         37   37A           ATOM PAIR      ENERGY CONTRIBUTION    RADIAL
 FREQUENCY          1770.86         C  1 -- C  2         +18.7% ( 60.3%)    100.0%
 TRANSITION DIPOLE   0.1222         C  6 -- C  7         +16.6% ( 56.8%)     99.7%
 TRAVEL (Ang.)       0.1264         C  3 -- C  7          +9.5% ( 43.0%)     56.9%
 REDUCED MASS        2.3834         C  2 -- C  4          +9.4% ( 42.7%)     42.7%
 EFFECTIVE MASS     11.9096
 FORCE CONSTANT      4.4037

 VIBRATION         38   38A           ATOM PAIR      ENERGY CONTRIBUTION    RADIAL
 FREQUENCY          1796.11         C  1 -- C  3         +16.0% ( 55.8%)     86.6%
 TRANSITION DIPOLE   0.1193         C  2 -- C  4         +14.2% ( 52.6%)     78.5%
 TRAVEL (Ang.)       0.1273         C  4 -- C  6         +13.9% ( 52.0%)     92.2%
 REDUCED MASS        2.3167         C  3 -- C  7         +13.5% ( 51.2%)     87.0%
 EFFECTIVE MASS     11.8538
 FORCE CONSTANT      4.4033

 VIBRATION         39   39A           ATOM PAIR      ENERGY CONTRIBUTION    RADIAL
 FREQUENCY          1846.51         C  5 -- C  8         +42.9% ( 96.8%)     98.6%
 TRANSITION DIPOLE   0.1170         C  1 -- C  5         +18.3% ( 63.2%)     55.0%
 TRAVEL (Ang.)       0.0856         C  5 -- H 13         +15.5% ( 58.1%)      3.4%
 REDUCED MASS        4.9852         C  8 -- H 16         +10.1% ( 47.0%)      9.6%
 EFFECTIVE MASS     11.8105
 FORCE CONSTANT     10.0146

 VIBRATION         40   40A           ATOM PAIR      ENERGY CONTRIBUTION    RADIAL
 FREQUENCY          2328.86         C  9 -- C 10         +58.2% ( 96.2%)    100.0%
 TRANSITION DIPOLE   0.7678         C  2 -- C  9         +29.7% ( 68.7%)    100.0%
 TRAVEL (Ang.)       0.0733         C 10 -- H 18         +10.3% ( 40.4%)    100.0%
 REDUCED MASS        5.3873         C  1 -- C  2          +0.9% ( 12.1%)     31.9%
 EFFECTIVE MASS     11.5311
 FORCE CONSTANT     17.2152

 VIBRATION         41   41A           ATOM PAIR      ENERGY CONTRIBUTION    RADIAL
 FREQUENCY          3000.24         C  3 -- H 12         +93.1% ( 98.1%)    100.0%
 TRANSITION DIPOLE   0.3700         C  8 -- H 16          +2.7% ( 16.6%)     99.9%
 TRAVEL (Ang.)       0.1616         C  1 -- C  3          +1.5% ( 12.4%)     25.1%
 REDUCED MASS        0.8610         C  3 -- C  7          +1.5% ( 12.4%)     21.9%
 EFFECTIVE MASS      1.5226
 FORCE CONSTANT      4.5662

 VIBRATION         42   42A           ATOM PAIR      ENERGY CONTRIBUTION    RADIAL
 FREQUENCY          3026.07         C  5 -- H 13         +96.3% ( 99.6%)    100.0%
 TRANSITION DIPOLE   0.2850         C  5 -- C  8          +1.5% ( 12.4%)     30.9%
 TRAVEL (Ang.)       0.1559         C  1 -- C  5          +1.4% ( 12.2%)     15.7%
 REDUCED MASS        0.9168         C  8 -- H 17          +0.6% (  7.9%)     94.4%
 EFFECTIVE MASS      1.5171
 FORCE CONSTANT      4.9462

 VIBRATION         43   43A           ATOM PAIR      ENERGY CONTRIBUTION    RADIAL
 FREQUENCY          3056.14         C  6 -- H 14         +47.4% ( 70.0%)    100.0%
 TRANSITION DIPOLE   0.0741         C  4 -- H 11         +34.9% ( 60.1%)    100.0%
 TRAVEL (Ang.)       0.2468         C  7 -- H 15         +14.8% ( 39.1%)    100.0%
 REDUCED MASS        0.3621         C  4 -- C  6          +1.1% ( 10.7%)      0.2%
 EFFECTIVE MASS      1.4940
 FORCE CONSTANT      1.9926

 VIBRATION         44   44A           ATOM PAIR      ENERGY CONTRIBUTION    RADIAL
 FREQUENCY          3064.01         C  7 -- H 15         +50.2% ( 72.0%)    100.0%
 TRANSITION DIPOLE   0.4720         C  4 -- H 11         +43.3% ( 66.9%)    100.0%
 TRAVEL (Ang.)       0.2246         C  6 -- H 14          +2.8% ( 16.9%)     98.9%
 REDUCED MASS        0.4363         C  6 -- C  7          +0.8% (  9.2%)     12.9%
 EFFECTIVE MASS      1.5193
 FORCE CONSTANT      2.4135

 VIBRATION         45   45A           ATOM PAIR      ENERGY CONTRIBUTION    RADIAL
 FREQUENCY          3076.67         C  6 -- H 14         +46.6% ( 69.2%)    100.0%
 TRANSITION DIPOLE   0.4938         C  7 -- H 15         +30.3% ( 55.8%)    100.0%
 TRAVEL (Ang.)       0.2525         C  4 -- H 11         +18.6% ( 43.7%)    100.0%
 REDUCED MASS        0.3436         C  6 -- C  7          +1.4% ( 12.0%)     96.5%
 EFFECTIVE MASS      1.5832
 FORCE CONSTANT      1.9165

 VIBRATION         46   46A           ATOM PAIR      ENERGY CONTRIBUTION    RADIAL
 FREQUENCY          3085.77         C  8 -- H 16         +93.7% ( 97.7%)     99.9%
 TRANSITION DIPOLE   0.1739         C  3 -- H 12          +2.7% ( 16.6%)    100.0%
 TRAVEL (Ang.)       0.1601         C  8 -- H 17          +1.4% ( 11.8%)      0.1%
 REDUCED MASS        0.8523         C  5 -- C  8          +1.4% ( 11.8%)     47.3%
 EFFECTIVE MASS      1.4805
 FORCE CONSTANT      4.7817

 VIBRATION         47   47A           ATOM PAIR      ENERGY CONTRIBUTION    RADIAL
 FREQUENCY          3151.46         C  8 -- H 17         +96.2% ( 99.5%)    100.0%
 TRANSITION DIPOLE   0.3068         C  8 -- H 16          +1.8% ( 13.6%)     32.3%
 TRAVEL (Ang.)       0.1530         C  5 -- C  8          +1.5% ( 12.4%)     43.0%
 REDUCED MASS        0.9141         C  5 -- H 13          +0.5% (  7.2%)     94.8%
 EFFECTIVE MASS      1.5266
 FORCE CONSTANT      5.3491

 VIBRATION         48   48A           ATOM PAIR      ENERGY CONTRIBUTION    RADIAL
 FREQUENCY          3356.88         C 10 -- H 18         +94.0% ( 99.1%)    100.0%
 TRANSITION DIPOLE   1.0334         C  9 -- C 10          +5.6% ( 24.2%)    100.0%
 TRAVEL (Ang.)       0.1453         C  2 -- C  9          +0.3% (  5.9%)    100.0%
 REDUCED MASS        0.9516
 EFFECTIVE MASS      2.0707
 FORCE CONSTANT      6.3181

      SYMMETRY NUMBER FOR POINT-GROUP C1  =  1


          SYSTEM IS A GROUND STATE



 InChI=1S/C10H8/c1-3-9-7-5-6-8-10(9)4-2/h1,4-8H,2H2


          MOLECULE IS NOT LINEAR

          THERE ARE 48 GENUINE VIBRATIONS IN THIS SYSTEM
          THIS THERMODYNAMICS CALCULATION IS LIMITED TO
          MOLECULES WHICH HAVE NO INTERNAL ROTATIONS




                    CALCULATED THERMODYNAMIC PROPERTIES
                                          *
   TEMP. (K)   PARTITION FUNCTION   H.O.F.    ENTHALPY  HEAT CAPACITY ENTROPY
                                   KCAL/MOL   CAL/MOLE    CAL/K/MOL  CAL/K/MOL


 298.00  VIB.     0.8276D+02                  3594.0391    27.0593    20.8360
         ROT.     0.6265D+06                   888.2803     2.9808    29.5057
         INT.     0.5185D+08                  4482.3194    30.0401    50.3417
         TRA.     0.1403D+28                  1480.4672     4.9680    40.4556
         TOT.                       91.293    5962.7866    35.0081    90.7974

 200.00  VIB.     0.1232D+02                  1463.1871    16.4794    12.3056
         ROT.     0.3444D+06                   596.1613     2.9808    28.3171
         INT.     0.4242D+07                  2059.3484    19.4602    40.6227
         TRA.     0.7713D+27                   993.6021     4.9680    38.4745
         TOT.                       88.383    3052.9505    24.4282    79.0972

 210.00  VIB.     0.1482D+02                  1633.2184    17.5294    13.1350
         ROT.     0.3706D+06                   625.9693     2.9808    28.4625
         INT.     0.5493D+07                  2259.1878    20.5102    41.5975
         TRA.     0.8299D+27                  1043.2822     4.9680    38.7169
         TOT.                       88.633    3302.4700    25.4782    80.3144

 220.00  VIB.     0.1788D+02                  1813.8210    18.5932    13.9749
         ROT.     0.3974D+06                   655.7774     2.9808    28.6012
         INT.     0.7105D+07                  2469.5984    21.5740    42.5761
         TRA.     0.8899D+27                  1092.9623     4.9680    38.9480
         TOT.                       88.893    3562.5608    26.5420    81.5241

 230.00  VIB.     0.2161D+02                  2005.1198    19.6681    14.8251
         ROT.     0.4248D+06                   685.5855     2.9808    28.7337
         INT.     0.9181D+07                  2690.7052    22.6490    43.5588
         TRA.     0.9512D+27                  1142.6424     4.9680    39.1689
         TOT.                       89.164    3833.3477    27.6170    82.7276

 240.00  VIB.     0.2618D+02                  2207.2114    20.7513    15.6850
         ROT.     0.4528D+06                   715.3935     2.9808    28.8605
         INT.     0.1185D+08                  2922.6049    23.7321    44.5456
         TRA.     0.1014D+28                  1192.3226     4.9680    39.3803
         TOT.                       89.445    4114.9275    28.7001    83.9259

 250.00  VIB.     0.3178D+02                  2420.1644    21.8400    16.5542
         ROT.     0.4814D+06                   745.2016     2.9808    28.9822
         INT.     0.1530D+08                  3165.3660    24.8208    45.5364
         TRA.     0.1078D+28                  1242.0027     4.9680    39.5831
         TOT.                       89.738    4407.3686    29.7888    85.1195

 260.00  VIB.     0.3866D+02                  2644.0195    22.9313    17.4320
         ROT.     0.5106D+06                   775.0097     2.9808    29.0991
         INT.     0.1974D+08                  3419.0291    25.9121    46.5312
         TRA.     0.1143D+28                  1291.6828     4.9680    39.7779
         TOT.                       90.041    4710.7119    30.8801    86.3091

 270.00  VIB.     0.4711D+02                  2878.7907    24.0228    18.3179
         ROT.     0.5403D+06                   804.8177     2.9808    29.2116
         INT.     0.2545D+08                  3683.6084    27.0036    47.5296
         TRA.     0.1210D+28                  1341.3629     4.9680    39.9654
         TOT.                       90.355    5024.9713    31.9716    87.4950

 280.00  VIB.     0.5752D+02                  3124.4668    25.1119    19.2113
         ROT.     0.5706D+06                   834.6258     2.9808    29.3200
         INT.     0.3282D+08                  3959.0926    28.0927    48.5313
         TRA.     0.1278D+28                  1391.0430     4.9680    40.1461
         TOT.                       90.681    5350.1356    33.0607    88.6774

 290.00  VIB.     0.7036D+02                  3381.0130    26.1964    20.1114
         ROT.     0.6014D+06                   864.4339     2.9808    29.4246
         INT.     0.4231D+08                  4245.4468    29.1772    49.5361
         TRA.     0.1347D+28                  1440.7231     4.9680    40.3205
         TOT.                       91.017    5686.1699    34.1452    89.8565

 300.00  VIB.     0.8621D+02                  3648.3728    27.2743    21.0177
         ROT.     0.6328D+06                   894.2419     2.9808    29.5257
         INT.     0.5455D+08                  4542.6147    30.2551    50.5434
         TRA.     0.1417D+28                  1490.4032     4.9680    40.4889
         TOT.                       91.363    6033.0179    35.2231    91.0323

 310.00  VIB.     0.1058D+03                  3926.4699    28.3436    21.9295
         ROT.     0.6647D+06                   924.0500     2.9808    29.6234
         INT.     0.7033D+08                  4850.5199    31.3244    51.5529
         TRA.     0.1488D+28                  1540.0833     4.9680    40.6518
         TOT.                       91.721    6390.6032    36.2924    92.2047

 320.00  VIB.     0.1301D+03                  4215.2106    29.4027    22.8461
         ROT.     0.6971D+06                   953.8580     2.9808    29.7181
         INT.     0.9066D+08                  5169.0687    32.3835    52.5642
         TRA.     0.1561D+28                  1589.7634     4.9680    40.8095
         TOT.                       92.089    6758.8321    37.3515    93.3737

 330.00  VIB.     0.1601D+03                  4514.4853    30.4502    23.7670
         ROT.     0.7300D+06                   983.6661     2.9808    29.8098
         INT.     0.1169D+09                  5498.1514    33.4310    53.5767
         TRA.     0.1635D+28                  1639.4435     4.9680    40.9624
         TOT.                       92.468    7137.5950    38.3990    94.5391

 340.00  VIB.     0.1974D+03                  4824.1709    31.4847    24.6914
         ROT.     0.7635D+06                  1013.4742     2.9808    29.8988
         INT.     0.1507D+09                  5837.6451    34.4655    54.5902
         TRA.     0.1710D+28                  1689.1236     4.9680    41.1107
         TOT.                       92.857    7526.7687    39.4335    95.7009

 350.00  VIB.     0.2437D+03                  5144.1325    32.5052    25.6188
         ROT.     0.7974D+06                  1043.2822     2.9808    29.9852
         INT.     0.1943D+09                  6187.4147    35.4860    55.6040
         TRA.     0.1786D+28                  1738.8037     4.9680    41.2547
         TOT.                       93.257    7926.2185    40.4540    96.8587

 360.00  VIB.     0.3012D+03                  5474.2252    33.5108    26.5486
         ROT.     0.8318D+06                  1073.0903     2.9808    30.0691
         INT.     0.2505D+09                  6547.3155    36.4916    56.6178
         TRA.     0.1863D+28                  1788.4838     4.9680    41.3947
         TOT.                       93.666    8335.7993    41.4596    98.0124

 370.00  VIB.     0.3727D+03                  5814.2958    34.5007    27.4803
         ROT.     0.8667D+06                  1102.8984     2.9808    30.1508
         INT.     0.3231D+09                  6917.1942    37.4815    57.6312
         TRA.     0.1941D+28                  1838.1639     4.9680    41.5308
         TOT.                       94.086    8755.3581    42.4495    99.1619

 380.00  VIB.     0.4618D+03                  6164.1845    35.4743    28.4134
         ROT.     0.9021D+06                  1132.7064     2.9808    30.2303
         INT.     0.4166D+09                  7296.8909    38.4551    58.6437
         TRA.     0.2020D+28                  1887.8440     4.9680    41.6633
         TOT.                       94.515    9184.7349    43.4231   100.3070

 390.00  VIB.     0.5728D+03                  6523.7260    36.4312    29.3472
         ROT.     0.9379D+06                  1162.5145     2.9808    30.3077
         INT.     0.5372D+09                  7686.2405    39.4120    59.6550
         TRA.     0.2100D+28                  1937.5242     4.9680    41.7923
         TOT.                       94.954    9623.7646    44.3800   101.4473

 400.00  VIB.     0.7111D+03                  6892.7511    37.3710    30.2815
         ROT.     0.9743D+06                  1192.3226     2.9808    30.3832
         INT.     0.6928D+09                  8085.0737    40.3518    60.6647
         TRA.     0.2182D+28                  1987.2043     4.9680    41.9181
         TOT.                       95.403   10072.2779    45.3198   102.5828

   *: NOTE: HEATS OF FORMATION ARE RELATIVE TO THE
            ELEMENTS IN THEIR STANDARD STATE AT 298K
              (=  Standard Enthalpy of Formation).

            Hvib:  Zero-point energy is not included.
                   frequencies of less than zero cm-1 are not included.
            Hrot = (3/2)RT
            Htra = (3/2)RT + pV = (5/2)RT

            Heat capacity is Cp, not Cv

          For more information, see: HTTP://OpenMOPAC.net/Manual/thermochemistry.html


           FORCE CONSTANT IN CARTESIAN COORDINATES (Millidynes/A)

    ATOM   CHEMICAL       X               Y               Z
   NUMBER   SYMBOL  FORCE CONSTANT  FORCE CONSTANT  FORCE CONSTANT

      1       C       12.476261       12.612673        2.587108
      2       C       12.455546       13.406228        2.573680
      3       C       11.809042       12.320932        2.316275
      4       C       11.968977       12.190179        2.309189
      5       C       15.415368        9.761132        2.233280
      6       C       12.033888       12.122475        2.310716
      7       C       12.036801       12.154193        2.315506
      8       C       15.128215        9.157314        1.935218
      9       C        8.566219       18.807564        1.501020
     10       C        7.604410       17.349133        1.263088
     11       H        5.152913        0.768000        0.353550
     12       H        4.955229        0.854504        0.375551
     13       H        2.034113        3.808272        0.354507
     14       H        1.881645        4.037785        0.351645
     15       H        1.843757        4.073834        0.352563
     16       H        2.185044        3.815336        0.357589
     17       H        1.932918        4.201287        0.330879
     18       H        1.940185        4.420164        0.318247

 **********************
 *                    *
 * JOB ENDED NORMALLY *
 *                    *
 **********************



 TOTAL JOB TIME:             2.27 SECONDS

 == MOPAC DONE ==
