 *******************************************************************************
 **                                                                           **
 **                              MOPAC v23.1.2                                **
 **                                                                           **
 *******************************************************************************
 **          Digital Object Identifier (DOI): 10.5281/zenodo.6511958          **
 **    Visit the DOI location for information on how to cite this program.    **
 *******************************************************************************

                              PM3 CALCULATION RESULTS

 *******************************************************************************
 *  CALCULATION DONE: (MAX THREADS = 1)              Tue Jun  3 16:34:22 2025  *
 *  PM3        - The PM3 Hamiltonian to be used
 *  PRECISE    - TIGHTER CRITERIA TO BE USED
 *  NOSYM      - POINT-GROUP SYMMETRY SET TO C1
 *  THREADS=1  - MULTI-THREADING NOT USED
 *  T=         - A TIME OF 172800.0 SECONDS REQUESTED
 *  DUMP=N     - RESTART FILE WRITTEN EVERY 7200.0 SECONDS REQUESTED
 *******************************************************************************
pm3  precise nosym THREADS=1
 InChI=1S/C4H4/c1-4-2-3-4/h2-3H,1H2

   ATOM   CHEMICAL          X               Y               Z
  NUMBER   SYMBOL      (ANGSTROMS)     (ANGSTROMS)     (ANGSTROMS)

     1       C          0.11920000  *   0.02630000  *  -0.03370000  *
     2       C         -0.82890000  *  -0.78150000  *   0.65100000  *
     3       C         -1.27190000  *   0.31710000  *  -0.05670000  *
     4       C          1.36490000  *   0.30170000  *  -0.38610000  *
     5       H         -1.04500000  *  -1.63770000  *   1.27500000  *
     6       H         -2.08680000  *   0.94540000  *  -0.38900000  *
     7       H          1.57360000  *   1.15980000  *  -1.01040000  *
     8       H          2.17490000  *  -0.33110000  *  -0.05000000  *



          CARTESIAN COORDINATES 

    NO.       ATOM           X           Y           Z

     1         C          0.1192      0.0263     -0.0337
     2         C         -0.8289     -0.7815      0.6510
     3         C         -1.2719      0.3171     -0.0567
     4         C          1.3649      0.3017     -0.3861
     5         H         -1.0450     -1.6377      1.2750
     6         H         -2.0868      0.9454     -0.3890
     7         H          1.5736      1.1598     -1.0104
     8         H          2.1749     -0.3311     -0.0500

  H: (PM3): J. J. P. STEWART, J. COMP. CHEM. 10, 209 (1989).
  C: (PM3): J. J. P. STEWART, J. COMP. CHEM. 10, 209 (1989).

           Empirical Formula: C4 H4  =     8 atoms



      MOLECULAR POINT GROUP   :   C1  


      RHF CALCULATION, NO. OF DOUBLY OCCUPIED LEVELS = 10


          Geometry optimization using EF

          DIAGONAL MATRIX USED AS START HESSIAN

 CYCLE:     1 TIME:   0.004 TIME LEFT:  2.00D  GRAD.:   100.282 HEAT:  94.92972
 CYCLE:     2 TIME:   0.004 TIME LEFT:  2.00D  GRAD.:    82.657 HEAT:  93.70390
 CYCLE:     3 TIME:   0.004 TIME LEFT:  2.00D  GRAD.:    40.061 HEAT:  92.86851
 CYCLE:     4 TIME:   0.004 TIME LEFT:  2.00D  GRAD.:    37.301 HEAT:  92.79623
 CYCLE:     5 TIME:   0.004 TIME LEFT:  2.00D  GRAD.:    11.097 HEAT:  92.61222
 CYCLE:     6 TIME:   0.004 TIME LEFT:  2.00D  GRAD.:    11.711 HEAT:  92.57037
 CYCLE:     7 TIME:   0.004 TIME LEFT:  2.00D  GRAD.:     8.203 HEAT:  92.51957
 CYCLE:     8 TIME:   0.000 TIME LEFT:  2.00D  GRAD.:     4.282 HEAT:  92.47816
 CYCLE:     9 TIME:   0.004 TIME LEFT:  2.00D  GRAD.:     2.722 HEAT:  92.46781
 CYCLE:    10 TIME:   0.004 TIME LEFT:  2.00D  GRAD.:     3.803 HEAT:  92.46762
 CYCLE:    11 TIME:   0.004 TIME LEFT:  2.00D  GRAD.:     1.978 HEAT:  92.46395
 CYCLE:    12 TIME:   0.004 TIME LEFT:  2.00D  GRAD.:     0.802 HEAT:  92.46234
 CYCLE:    13 TIME:   0.004 TIME LEFT:  2.00D  GRAD.:     0.735 HEAT:  92.46113
 CYCLE:    14 TIME:   0.000 TIME LEFT:  2.00D  GRAD.:     0.409 HEAT:  92.46054
 CYCLE:    15 TIME:   0.004 TIME LEFT:  2.00D  GRAD.:     0.196 HEAT:  92.46042
 CYCLE:    16 TIME:   0.004 TIME LEFT:  2.00D  GRAD.:     0.161 HEAT:  92.46034
 CYCLE:    17 TIME:   0.004 TIME LEFT:  2.00D  GRAD.:     0.148 HEAT:  92.46029
 CYCLE:    18 TIME:   0.004 TIME LEFT:  2.00D  GRAD.:     0.111 HEAT:  92.46025
 CYCLE:    19 TIME:   0.000 TIME LEFT:  2.00D  GRAD.:     0.083 HEAT:  92.46022
 CYCLE:    20 TIME:   0.004 TIME LEFT:  2.00D  GRAD.:     0.058 HEAT:  92.46022
 CYCLE:    21 TIME:   0.000 TIME LEFT:  2.00D  GRAD.:     0.058 HEAT:  92.46021
 CYCLE:    22 TIME:   0.004 TIME LEFT:  2.00D  GRAD.:     0.069 HEAT:  92.46020
 CYCLE:    23 TIME:   0.004 TIME LEFT:  2.00D  GRAD.:     0.083 HEAT:  92.46019
 CYCLE:    24 TIME:   0.004 TIME LEFT:  2.00D  GRAD.:     0.040 HEAT:  92.46018

     GRADIENT =  0.03981 IS LESS THAN CUTOFF =  0.05000



 -------------------------------------------------------------------------------
 pm3  precise nosym THREADS=1
 InChI=1S/C4H4/c1-4-2-3-4/h2-3H,1H2



     GEOMETRY OPTIMISED USING EIGENVECTOR FOLLOWING (EF).     
     SCF FIELD WAS ACHIEVED                                   


                              PM3 CALCULATION
                                                       MOPAC v23.1.2 MacOS
                                                       Tue Jun  3 16:34:22 2025




          FINAL HEAT OF FORMATION =         92.46018 KCAL/MOL =     386.85340 KJ/MOL


          COSMO AREA              =         99.52 SQUARE ANGSTROMS
          COSMO VOLUME            =         81.87 CUBIC ANGSTROMS

          GRADIENT NORM           =          0.03981          =       0.01407 PER ATOM
          IONIZATION POTENTIAL    =          8.875437 EV
          HOMO LUMO ENERGIES (EV) =         -8.875  0.516
          NO. OF FILLED LEVELS    =         10
          MOLECULAR WEIGHT        =         52.0756         POINT GROUP:  C1  

          MOLECULAR DIMENSIONS (Angstroms)

            Atom       Atom       Distance
            H     8    H     6     4.46879
            H     7    H     5     4.16186
            H     6    H     7     0.00030


          SCF CALCULATIONS        =         30

          WALL-CLOCK TIME         =      0.094 SECONDS
          COMPUTATION TIME        =      0.031 SECONDS




   ATOM   CHEMICAL          X               Y               Z
  NUMBER   SYMBOL      (ANGSTROMS)     (ANGSTROMS)     (ANGSTROMS)

     1       C          0.13092417  *   0.02884672  *  -0.03703507  *
     2       C         -0.85454956  *  -0.76588845  *   0.64350415  *
     3       C         -1.28177321  *   0.29368980  *  -0.03909415  *
     4       C          1.36631659  *   0.30199903  *  -0.38653258  *
     5       H         -1.04895009  *  -1.62099056  *   1.26403148  *
     6       H         -2.07768961  *   0.92984667  *  -0.37949849  *
     7       H          1.61561779  *   1.15293034  *  -1.01086291  *
     8       H          2.20498641  *  -0.30828865  *  -0.06996436  *

                             CARTESIAN COORDINATES

   1    C        0.130924166     0.028846722    -0.037035069
   2    C       -0.854549561    -0.765888450     0.643504150
   3    C       -1.281773211     0.293689800    -0.039094152
   4    C        1.366316590     0.301999032    -0.386532584
   5    H       -1.048950089    -1.620990559     1.264031478
   6    H       -2.077689609     0.929846671    -0.379498493
   7    H        1.615617793     1.152930336    -1.010862907
   8    H        2.204986413    -0.308288653    -0.069964358


           Empirical Formula: C4 H4  =     8 atoms



      MOLECULAR POINT GROUP   :   C1  


                  EIGENVALUES  
 -37.79514 -28.46615 -20.65066 -19.18649 -16.86871 -14.82018 -13.80901 -13.31939
 -11.20776  -8.87544   0.51642   1.68064   2.48639   2.59499   3.31610   3.74747
   4.51940   5.18344   5.59962   6.13918


              NET ATOMIC CHARGES AND DIPOLE CONTRIBUTIONS

  ATOM NO.   TYPE          CHARGE      No. of ELECS.   s-Pop       p-Pop       
    1          C          -0.101170        4.1012     1.16199     2.93919
    2          C          -0.103616        4.1036     1.21046     2.89316
    3          C          -0.103625        4.1036     1.21046     2.89316
    4          C          -0.201393        4.2014     1.15407     3.04732
    5          H           0.161900        0.8381     0.83810
    6          H           0.161896        0.8381     0.83810
    7          H           0.093001        0.9070     0.90700
    8          H           0.093007        0.9070     0.90699
 DIPOLE           X         Y         Z       TOTAL
 POINT-CHG.    -1.047    -0.231     0.296     1.112
 HYBRID        -0.200    -0.044     0.057     0.213
 SUM           -1.247    -0.276     0.353     1.325


          ATOMIC ORBITAL ELECTRON POPULATIONS

     Atom    s        px        py        pz   
    1  C   1.16199   0.92579   1.01002   1.00337
    2  C   1.21046   0.99915   0.95142   0.94258
    3  C   1.21046   0.96835   0.96830   0.95651
    4  C   1.15407   0.92749   1.04376   1.07607
    5  H   0.83810
    6  H   0.83810
    7  H   0.90700
    8  H   0.90699
 *******************************************************************************
 **                                                                           **
 **                              MOPAC v23.1.2                                **
 **                                                                           **
 *******************************************************************************
 **          Digital Object Identifier (DOI): 10.5281/zenodo.6511958          **
 **    Visit the DOI location for information on how to cite this program.    **
 *******************************************************************************

                              PM3 CALCULATION RESULTS

 *******************************************************************************
 *  CALCULATION DONE: (MAX THREADS = 1)              Tue Jun  3 16:34:22 2025  *
 *  PM3        - The PM3 Hamiltonian to be used
 *  OLDGEO     - PREVIOUS GEOMETRY TO BE USED
 *  PRECISE    - TIGHTER CRITERIA TO BE USED
 *  NOSYM      - POINT-GROUP SYMMETRY SET TO C1
 *  THREADS=1  - MULTI-THREADING NOT USED
 *  T=         - A TIME OF 172800.0 SECONDS REQUESTED
 *  DUMP=N     - RESTART FILE WRITTEN EVERY 7200.0 SECONDS REQUESTED
 *  THERMO     - THERMODYNAMIC QUANTITIES TO BE CALCULATED
 *******************************************************************************
oldgeo thermo nosym precise THREADS=1  pm3
 InChI=1S/C4H4/c1-4-2-3-4/h2-3H,1H2

   ATOM   CHEMICAL          X               Y               Z
  NUMBER   SYMBOL      (ANGSTROMS)     (ANGSTROMS)     (ANGSTROMS)

     1       C          0.13092417  *   0.02884672  *  -0.03703507  *
     2       C         -0.85454956  *  -0.76588845  *   0.64350415  *
     3       C         -1.28177321  *   0.29368980  *  -0.03909415  *
     4       C          1.36631659  *   0.30199903  *  -0.38653258  *
     5       H         -1.04895009  *  -1.62099056  *   1.26403148  *
     6       H         -2.07768961  *   0.92984667  *  -0.37949849  *
     7       H          1.61561779  *   1.15293034  *  -1.01086291  *
     8       H          2.20498641  *  -0.30828865  *  -0.06996436  *



          CARTESIAN COORDINATES 

    NO.       ATOM           X           Y           Z

     1         C          0.1309      0.0288     -0.0370
     2         C         -0.8545     -0.7659      0.6435
     3         C         -1.2818      0.2937     -0.0391
     4         C          1.3663      0.3020     -0.3865
     5         H         -1.0490     -1.6210      1.2640
     6         H         -2.0777      0.9298     -0.3795
     7         H          1.6156      1.1529     -1.0109
     8         H          2.2050     -0.3083     -0.0700

  H: (PM3): J. J. P. STEWART, J. COMP. CHEM. 10, 209 (1989).
  C: (PM3): J. J. P. STEWART, J. COMP. CHEM. 10, 209 (1989).

           Empirical Formula: C4 H4  =     8 atoms



      MOLECULAR POINT GROUP   :   C1  


      RHF CALCULATION, NO. OF DOUBLY OCCUPIED LEVELS = 10



          HEAT OF FORMATION =      92.460182 KCALS/MOLE


          CARTESIAN COORDINATE DERIVATIVES

   NUMBER  ATOM         X            Y            Z

     1       C      0.004077    -0.004664     0.009665
     2       C      0.011304     0.008711     0.001712
     3       C     -0.024595    -0.009360    -0.014081
     4       C      0.007999     0.010751     0.002950
     5       H     -0.000898    -0.003550    -0.003696
     6       H      0.007949     0.003472     0.008890
     7       H     -0.002547     0.004029    -0.007980
     8       H     -0.003289    -0.009388     0.002542



          GRADIENT NORM =   0.04232

          MOLECULAR WEIGHT =   52.08



          ROTATIONAL CONSTANTS IN CM(-1)

          A =    0.96287319   B =    0.24326724   C =    0.19420251



           PRINCIPAL MOMENTS OF INERTIA IN UNITS OF 10**(-40)*GRAM-CM**2

          A =       29.0721   B =      115.0700   C =      144.1421


          ORIENTATION OF MOLECULE IN FORCE CALCULATION

    NO.       ATOM         X         Y         Z

     1          C      -0.2494   -0.1303    0.0000
     2          C       1.1879   -0.1303    0.0000
     3          C       0.5717    1.0493    0.0000
     4          C      -1.4130   -0.7379   -0.0001
     5          H       2.0878   -0.7170   -0.0000
     6          H       0.6045    2.1231    0.0002
     7          H      -2.3500   -0.1920   -0.0003
     8          H      -1.5007   -1.8188   -0.0000


    FIRST DERIVATIVES WILL BE USED IN THE CALCULATION OF SECOND DERIVATIVES

          ESTIMATED TIME TO COMPLETE CALCULATION =        0.00 SECONDS

    FOR POINT-GROUP C1   THERE ARE   1 UNIQUE SYMMETRY FUNCTIONS.

 STEP:   1 TIME =     0.00 SECS, INTEGRAL =      0.00 TIME LEFT: 172800.00
 STEP:   2 TIME =     0.00 SECS, INTEGRAL =      0.01 TIME LEFT: 172799.99
 STEP:   3 TIME =     0.00 SECS, INTEGRAL =      0.01 TIME LEFT: 172799.99
 STEP:   4 TIME =     0.00 SECS, INTEGRAL =      0.02 TIME LEFT: 172799.98
 STEP:   5 TIME =     0.00 SECS, INTEGRAL =      0.02 TIME LEFT: 172799.98
 STEP:   6 TIME =     0.00 SECS, INTEGRAL =      0.02 TIME LEFT: 172799.98
 STEP:   7 TIME =     0.00 SECS, INTEGRAL =      0.03 TIME LEFT: 172799.97
 STEP:   8 TIME =     0.00 SECS, INTEGRAL =      0.03 TIME LEFT: 172799.97
 STEP:   9 TIME =     0.00 SECS, INTEGRAL =      0.04 TIME LEFT: 172799.96
 STEP:  10 TIME =     0.00 SECS, INTEGRAL =      0.04 TIME LEFT: 172799.96
 STEP:  11 TIME =     0.00 SECS, INTEGRAL =      0.04 TIME LEFT: 172799.96
 STEP:  12 TIME =     0.00 SECS, INTEGRAL =      0.05 TIME LEFT: 172799.95
 STEP:  13 TIME =     0.00 SECS, INTEGRAL =      0.05 TIME LEFT: 172799.95
 STEP:  14 TIME =     0.00 SECS, INTEGRAL =      0.05 TIME LEFT: 172799.95
 STEP:  15 TIME =     0.00 SECS, INTEGRAL =      0.06 TIME LEFT: 172799.94
 STEP:  16 TIME =     0.00 SECS, INTEGRAL =      0.06 TIME LEFT: 172799.94
 STEP:  17 TIME =     0.00 SECS, INTEGRAL =      0.07 TIME LEFT: 172799.93
 STEP:  18 TIME =     0.00 SECS, INTEGRAL =      0.07 TIME LEFT: 172799.93
 STEP:  19 TIME =     0.00 SECS, INTEGRAL =      0.07 TIME LEFT: 172799.93
 STEP:  20 TIME =     0.00 SECS, INTEGRAL =      0.08 TIME LEFT: 172799.92
 STEP:  21 TIME =     0.00 SECS, INTEGRAL =      0.08 TIME LEFT: 172799.92
 STEP:  22 TIME =     0.00 SECS, INTEGRAL =      0.09 TIME LEFT: 172799.91
 STEP:  23 TIME =     0.00 SECS, INTEGRAL =      0.09 TIME LEFT: 172799.91
 STEP:  24 TIME =     0.00 SECS, INTEGRAL =      0.09 TIME LEFT: 172799.91

(To convert to Hartree/Bohr^2, multiply by (10^(-21) x N x a0^2)/(4.184 x 627.51) =  0.0642)


           FORCE MATRIX IN MILLIDYNES/ANGSTROM


                  C  1       C  2       C  3       C  4       H  5       H  6
 ------------------------------------------------------------------------------
     C    1  23.017879
     C    2   6.995423  20.775957
     C    3   6.995440  11.719882  20.766991
     C    4  11.139088   0.589805   0.590599  17.989178
     H    5   0.310750   5.532727   0.375829   0.021646   5.874243
     H    6   0.310392   0.376130   5.532452   0.021495   0.028754   5.874076
     H    7   0.479881   0.127338   0.086903   5.118002   0.012084   0.013468
     H    8   0.479253   0.086698   0.127190   5.118250   0.013462   0.012060


                  H  7       H  8
 ------------------------------
     H    7   5.496062
     H    8   0.400980   5.496109


          HEAT OF FORMATION =      92.460182 KCALS/MOLE

          ZERO POINT ENERGY      39.094 KCAL/MOL


           NORMAL COORDINATE ANALYSIS (Total motion = 1 Angstrom)


   Root No.       1         2         3         4         5         6         7         8

                 1 A       2 A       3 A       4 A       5 A       6 A       7 A       8 A   

                 359.1     415.4     609.9     800.1     894.3     903.8     945.5     951.3
  
           1   -0.0441   -0.0000   -0.0000   -0.0000   -0.0023   -0.0232   -0.0000   -0.0000
           2    0.0845   -0.0000   -0.0000    0.0000    0.0040   -0.0120   -0.0000   -0.0000
           3    0.0000    0.1820    0.0000    0.0405    0.0000    0.0000    0.0000    0.0331
           4   -0.0455   -0.0000   -0.0000   -0.0000    0.0333    0.0121    0.0000    0.0000
           5   -0.0290    0.0000   -0.0000    0.0000   -0.0150    0.0174    0.0000    0.0000
           6   -0.0000   -0.0314    0.0267   -0.0503   -0.0000   -0.0000    0.0824   -0.0028
           7    0.0499   -0.0000    0.0000   -0.0000   -0.0065    0.0215    0.0000    0.0000
           8    0.0208   -0.0000    0.0000    0.0000   -0.0359    0.0006   -0.0000   -0.0000
           9    0.0000   -0.0314   -0.0268   -0.0502    0.0000    0.0000   -0.0824   -0.0027
          10    0.0237    0.0000    0.0000    0.0000   -0.0291   -0.0449   -0.0000    0.0000
          11   -0.0454    0.0000   -0.0000   -0.0000    0.0551   -0.0241    0.0000    0.0000
          12   -0.0000   -0.0609   -0.0000    0.0016    0.0000   -0.0000   -0.0000   -0.0999
          13   -0.1030   -0.0000   -0.0000    0.0000    0.1184    0.1961    0.0001    0.0000
          14   -0.1164    0.0000   -0.0000   -0.0000    0.1127    0.2991    0.0001    0.0000
          15   -0.0000   -0.1776    0.0881    0.3884    0.0001    0.0001   -0.3953    0.0204
          16    0.1542   -0.0000    0.0000    0.0000   -0.1548    0.3590    0.0001   -0.0000
          17    0.0180    0.0000    0.0000   -0.0001   -0.0329   -0.0095   -0.0001   -0.0000
          18    0.0000   -0.1775   -0.0882    0.3884   -0.0000   -0.0001    0.3954    0.0201
          19   -0.0679    0.0000   -0.0001    0.0000   -0.1757   -0.0627   -0.0001   -0.0001
          20   -0.2066    0.0000    0.0001    0.0000   -0.2047   -0.0487   -0.0000   -0.0000
          21   -0.0000   -0.1697    0.3852   -0.0403   -0.0000   -0.0000    0.0224    0.4103
          22    0.2082   -0.0000    0.0001   -0.0000    0.2673   -0.0808    0.0000   -0.0000
          23   -0.0623    0.0000   -0.0000   -0.0000    0.0269   -0.0242   -0.0000    0.0000
          24   -0.0000   -0.1695   -0.3850   -0.0403   -0.0000   -0.0000   -0.0220    0.4106


   Root No.       9        10        11        12        13        14        15        16

                 9 A      10 A      11 A      12 A      13 A      14 A      15 A      16 A   

                1052.9    1077.7    1224.5    1323.8    1765.4    2167.2    3144.1    3152.4
  
           1    0.0285   -0.0168   -0.0648   -0.0359   -0.0777    0.1922    0.0063    0.0002
           2   -0.0545   -0.0092    0.1241   -0.0187   -0.0406    0.1004    0.0033   -0.0004
           3    0.0000    0.0000   -0.0000    0.0000   -0.0000    0.0000    0.0000   -0.0000
           4    0.0167    0.0598    0.1382    0.0197   -0.0691   -0.0775   -0.0002   -0.0001
           5    0.0409    0.0490    0.0193    0.0307    0.1406    0.0532    0.0006   -0.0002
           6    0.0000   -0.0000    0.0000    0.0000    0.0000    0.0000   -0.0000    0.0000
           7   -0.0436    0.0740   -0.0948    0.0364    0.0759   -0.0006    0.0003    0.0002
           8    0.0095    0.0212   -0.1024   -0.0014   -0.1371   -0.0940   -0.0005   -0.0000
           9   -0.0000   -0.0000    0.0000   -0.0000    0.0000   -0.0000    0.0000   -0.0000
          10   -0.0153   -0.0681    0.0125   -0.0629    0.0854   -0.0964   -0.0417    0.0301
          11    0.0299   -0.0353   -0.0240   -0.0328    0.0446   -0.0503   -0.0217   -0.0576
          12   -0.0000   -0.0000    0.0000   -0.0000    0.0000   -0.0000   -0.0000    0.0000
          13   -0.1604   -0.0727    0.0248   -0.0135   -0.1568   -0.1318   -0.0033   -0.0015
          14   -0.2291   -0.1591   -0.1635   -0.0207    0.0889    0.0835    0.0017    0.0009
          15    0.0000    0.0000   -0.0000   -0.0000    0.0000    0.0000   -0.0000    0.0000
          16    0.2825   -0.1696    0.1198   -0.0246   -0.0166   -0.0068   -0.0005    0.0002
          17    0.0004    0.0314   -0.1138    0.0007   -0.1794   -0.1559   -0.0038    0.0017
          18    0.0000    0.0000   -0.0000   -0.0000   -0.0000   -0.0000   -0.0000    0.0000
          19   -0.0847   -0.1419    0.0718    0.1681    0.0338   -0.0716    0.3982   -0.4049
          20   -0.0937   -0.1438    0.0849    0.3444   -0.0626    0.0496   -0.2474    0.2288
          21   -0.0000   -0.0000    0.0000    0.0000    0.0000   -0.0000    0.0001   -0.0001
          22    0.1266   -0.1975   -0.1115    0.3787   -0.0321   -0.0002    0.0244    0.0437
          23    0.0161   -0.0339   -0.0104   -0.0589    0.0636   -0.0872    0.4677    0.4635
          24    0.0000   -0.0000   -0.0000    0.0001   -0.0000    0.0000   -0.0000   -0.0000


   Root No.      17        18

                17 A      18 A   

                3262.0    3297.5
  
           1   -0.0004    0.0077
           2    0.0008    0.0040
           3   -0.0000    0.0000
           4    0.0332   -0.0407
           5   -0.0211    0.0307
           6   -0.0000    0.0000
           7   -0.0017    0.0019
           8   -0.0394   -0.0509
           9   -0.0000   -0.0000
          10   -0.0002   -0.0012
          11    0.0003   -0.0007
          12   -0.0000   -0.0000
          13   -0.3831    0.3714
          14    0.2511   -0.2418
          15    0.0000   -0.0000
          16    0.0130    0.0138
          17    0.4589    0.4420
          18    0.0001    0.0001
          19    0.0012    0.0010
          20   -0.0008   -0.0009
          21    0.0000    0.0000
          22   -0.0000   -0.0002
          23   -0.0014    0.0013
          24   -0.0000   -0.0000


           MASS-WEIGHTED COORDINATE ANALYSIS (NORMAL COORDINATES)


   Root No.       1         2         3         4         5         6         7         8

                 1 A       2 A       3 A       4 A       5 A       6 A       7 A       8 A   

                 359.1     415.4     609.9     800.1     894.3     903.8     945.5     951.3
  
           1   -0.2568   -0.0000   -0.0000   -0.0000   -0.0152   -0.1415   -0.0000   -0.0000
           2    0.4916   -0.0000   -0.0000    0.0000    0.0266   -0.0732   -0.0000   -0.0000
           3    0.0001    0.8228    0.0002    0.2252    0.0000    0.0000    0.0001    0.1669
           4   -0.2650   -0.0000   -0.0000   -0.0000    0.2195    0.0737    0.0001    0.0000
           5   -0.1690    0.0000   -0.0000    0.0000   -0.0984    0.1059    0.0000    0.0000
           6   -0.0000   -0.1422    0.1609   -0.2797   -0.0001   -0.0001    0.4127   -0.0141
           7    0.2904   -0.0000    0.0000   -0.0000   -0.0431    0.1309    0.0000    0.0000
           8    0.1209   -0.0000    0.0000    0.0000   -0.2366    0.0034   -0.0000   -0.0000
           9    0.0000   -0.1421   -0.1610   -0.2796    0.0000    0.0001   -0.4127   -0.0137
          10    0.1379    0.0000    0.0000    0.0000   -0.1917   -0.2738   -0.0001    0.0000
          11   -0.2641    0.0000   -0.0000   -0.0000    0.3626   -0.1471    0.0000    0.0000
          12   -0.0000   -0.2752   -0.0002    0.0090    0.0000   -0.0000   -0.0002   -0.5031
          13   -0.1736   -0.0000   -0.0000    0.0000    0.2257    0.3465    0.0001    0.0000
          14   -0.1962    0.0000   -0.0000   -0.0000    0.2149    0.5286    0.0002    0.0000
          15   -0.0000   -0.2325    0.1536    0.6263    0.0001    0.0001   -0.5732    0.0297
          16    0.2599   -0.0000    0.0000    0.0000   -0.2951    0.6345    0.0001   -0.0000
          17    0.0304    0.0000    0.0000   -0.0001   -0.0628   -0.0167   -0.0001   -0.0000
          18    0.0000   -0.2324   -0.1537    0.6262   -0.0001   -0.0002    0.5734    0.0293
          19   -0.1145    0.0001   -0.0001    0.0000   -0.3350   -0.1108   -0.0001   -0.0002
          20   -0.3483    0.0000    0.0001    0.0000   -0.3903   -0.0860   -0.0001   -0.0000
          21   -0.0000   -0.2223    0.6713   -0.0650   -0.0001   -0.0000    0.0325    0.5985
          22    0.3511   -0.0000    0.0001   -0.0000    0.5097   -0.1428    0.0000   -0.0000
          23   -0.1050    0.0000   -0.0001   -0.0000    0.0513   -0.0427   -0.0000    0.0001
          24   -0.0000   -0.2220   -0.6711   -0.0650   -0.0000   -0.0000   -0.0320    0.5989


   Root No.       9        10        11        12        13        14        15        16

                 9 A      10 A      11 A      12 A      13 A      14 A      15 A      16 A   

                1052.9    1077.7    1224.5    1323.8    1765.4    2167.2    3144.1    3152.4
  
           1    0.1811   -0.0972   -0.2523   -0.1946   -0.2888    0.6716    0.0321    0.0011
           2   -0.3462   -0.0533    0.4832   -0.1014   -0.1509    0.3508    0.0167   -0.0020
           3    0.0000    0.0000   -0.0000    0.0000   -0.0000    0.0000    0.0000   -0.0000
           4    0.1059    0.3451    0.5383    0.1069   -0.2571   -0.2709   -0.0009   -0.0006
           5    0.2593    0.2829    0.0752    0.1661    0.5227    0.1860    0.0028   -0.0011
           6    0.0000   -0.0000    0.0000    0.0000    0.0000    0.0000   -0.0000    0.0000
           7   -0.2769    0.4270   -0.3690    0.1970    0.2821   -0.0021    0.0017    0.0012
           8    0.0602    0.1222   -0.3987   -0.0077   -0.5096   -0.3286   -0.0023   -0.0001
           9   -0.0000   -0.0000    0.0000   -0.0000    0.0000   -0.0000    0.0000   -0.0000
          10   -0.0974   -0.3931    0.0487   -0.3406    0.3174   -0.3369   -0.2106    0.1493
          11    0.1897   -0.2038   -0.0934   -0.1777    0.1657   -0.1759   -0.1098   -0.2862
          12   -0.0000   -0.0000    0.0000   -0.0000    0.0000   -0.0000   -0.0000    0.0001
          13   -0.2950   -0.1215    0.0280   -0.0211   -0.1689   -0.1334   -0.0048   -0.0021
          14   -0.4211   -0.2661   -0.1845   -0.0324    0.0957    0.0846    0.0025    0.0013
          15    0.0000    0.0000   -0.0000   -0.0000    0.0000    0.0000   -0.0000    0.0000
          16    0.5194   -0.2836    0.1351   -0.0386   -0.0179   -0.0069   -0.0007    0.0002
          17    0.0008    0.0524   -0.1284    0.0011   -0.1932   -0.1578   -0.0055    0.0025
          18    0.0000    0.0000   -0.0000   -0.0000   -0.0000   -0.0000   -0.0000    0.0000
          19   -0.1557   -0.2373    0.0810    0.2637    0.0364   -0.0725    0.5833   -0.5824
          20   -0.1723   -0.2406    0.0958    0.5404   -0.0674    0.0502   -0.3624    0.3290
          21   -0.0000   -0.0000    0.0000    0.0000    0.0000   -0.0000    0.0002   -0.0002
          22    0.2328   -0.3303   -0.1258    0.5944   -0.0346   -0.0002    0.0358    0.0629
          23    0.0297   -0.0568   -0.0117   -0.0924    0.0685   -0.0882    0.6851    0.6666
          24    0.0000   -0.0001   -0.0000    0.0001   -0.0000    0.0000   -0.0001   -0.0000


   Root No.      17        18

                17 A      18 A   

                3262.0    3297.5
  
           1   -0.0020    0.0394
           2    0.0041    0.0206
           3   -0.0000    0.0000
           4    0.1695   -0.2085
           5   -0.1076    0.1570
           6   -0.0000    0.0000
           7   -0.0086    0.0097
           8   -0.2011   -0.2604
           9   -0.0000   -0.0000
          10   -0.0008   -0.0064
          11    0.0015   -0.0033
          12   -0.0000   -0.0000
          13   -0.5664    0.5508
          14    0.3712   -0.3586
          15    0.0000   -0.0000
          16    0.0192    0.0204
          17    0.6784    0.6554
          18    0.0001    0.0001
          19    0.0018    0.0014
          20   -0.0012   -0.0013
          21    0.0000    0.0000
          22   -0.0000   -0.0002
          23   -0.0020    0.0019
          24   -0.0000   -0.0000


          DESCRIPTION OF VIBRATIONS


 VIBRATION          1    1A          ATOM PAIR     ENERGY CONTRIBUTION    RADIAL
 FREQUENCY           359.06         C 1 -- C 4         +24.7% (170.0%)      0.0%
 TRANSITION DIPOLE   0.0971         C 2 -- C 3         +13.9% (127.4%)      0.0%
 TRAVEL (Ang.)       0.3524         C 1 -- C 2         +13.3% (124.6%)      0.0%
 REDUCED MASS        1.5122         C 1 -- C 3         +13.3% (124.6%)      0.0%
 EFFECTIVE MASS     22.4731         C 4 -- H 7         +11.1% (114.1%)     43.6%
 FORCE CONSTANT      0.1149         C 4 -- H 8         +11.1% (114.1%)     43.7%

 VIBRATION          2    2A          ATOM PAIR     ENERGY CONTRIBUTION    RADIAL
 FREQUENCY           415.39         C 1 -- C 4         +36.3% (104.4%)      0.0%
 TRANSITION DIPOLE   0.4058         C 1 -- C 2         +26.5% ( 89.2%)      0.0%
 TRAVEL (Ang.)       0.1703         C 1 -- C 3         +26.5% ( 89.2%)      0.0%
 REDUCED MASS        5.5956         C 2 -- H 5          +2.8% ( 28.9%)      0.0%
 EFFECTIVE MASS     12.7779
 FORCE CONSTANT      0.5689

 VIBRATION          3    3A          ATOM PAIR     ENERGY CONTRIBUTION    RADIAL
 FREQUENCY           609.95         C 4 -- H 7         +46.4% ( 78.2%)      0.0%
 TRANSITION DIPOLE   0.0002         C 4 -- H 8         +46.4% ( 78.2%)      0.0%
 TRAVEL (Ang.)       0.5092         C 2 -- C 3          +3.4% ( 21.2%)      0.0%
 REDUCED MASS        0.4263         C 1 -- C 3          +1.1% ( 12.2%)      0.0%
 EFFECTIVE MASS      1.5291
 FORCE CONSTANT      0.0935

 VIBRATION          4    4A          ATOM PAIR     ENERGY CONTRIBUTION    RADIAL
 FREQUENCY           800.06         C 2 -- H 5         +43.9% ( 73.6%)      0.0%
 TRANSITION DIPOLE   0.7421         C 3 -- H 6         +43.8% ( 73.5%)      0.0%
 TRAVEL (Ang.)       0.4156         C 1 -- C 2          +4.2% ( 22.9%)      0.0%
 REDUCED MASS        0.4879         C 1 -- C 3          +4.2% ( 22.9%)      0.0%
 EFFECTIVE MASS      2.4177
 FORCE CONSTANT      0.1840

 VIBRATION          5    5A          ATOM PAIR     ENERGY CONTRIBUTION    RADIAL
 FREQUENCY           894.27         C 4 -- H 7         +23.8% ( 77.7%)     11.1%
 TRANSITION DIPOLE   0.0537         C 4 -- H 8         +23.7% ( 77.6%)     10.9%
 TRAVEL (Ang.)       0.3612         C 1 -- C 4         +10.1% ( 50.7%)      0.0%
 REDUCED MASS        0.5780         C 2 -- C 3          +9.0% ( 47.7%)      0.0%
 EFFECTIVE MASS      5.4858
 FORCE CONSTANT      0.2723

 VIBRATION          6    6A          ATOM PAIR     ENERGY CONTRIBUTION    RADIAL
 FREQUENCY           903.85         C 3 -- H 6         +21.4% ( 60.3%)      0.0%
 TRANSITION DIPOLE   0.0818         C 2 -- H 5         +21.2% ( 60.1%)      0.0%
 TRAVEL (Ang.)       0.4063         C 4 -- H 8         +14.2% ( 49.1%)     46.8%
 REDUCED MASS        0.4520         C 4 -- H 7         +14.2% ( 49.1%)     40.0%
 EFFECTIVE MASS      3.4381         C 1 -- C 4         +10.0% ( 41.2%)     99.9%
 FORCE CONSTANT      0.2176

 VIBRATION          7    7A          ATOM PAIR     ENERGY CONTRIBUTION    RADIAL
 FREQUENCY           945.52         C 3 -- H 6         +40.0% ( 64.2%)      0.0%
 TRANSITION DIPOLE   0.0004         C 2 -- H 5         +40.0% ( 64.2%)      0.0%
 TRAVEL (Ang.)       0.2793         C 2 -- C 3         +11.9% ( 35.0%)      0.0%
 REDUCED MASS        0.9145         C 1 -- C 3          +4.0% ( 20.2%)      0.0%
 EFFECTIVE MASS      3.4315
 FORCE CONSTANT      0.4817

 VIBRATION          8    8A          ATOM PAIR     ENERGY CONTRIBUTION    RADIAL
 FREQUENCY           951.31         C 4 -- H 8         +44.6% ( 66.5%)      0.0%
 TRANSITION DIPOLE   0.8021         C 4 -- H 7         +44.6% ( 66.5%)      0.0%
 TRAVEL (Ang.)       0.2613         C 1 -- C 4          +9.5% ( 30.7%)      0.0%
 REDUCED MASS        1.0378         C 1 -- C 2          +0.6% (  7.6%)      0.0%
 EFFECTIVE MASS      2.9744
 FORCE CONSTANT      0.5534

 VIBRATION          9    9A          ATOM PAIR     ENERGY CONTRIBUTION    RADIAL
 FREQUENCY          1052.94         C 3 -- H 6         +24.9% ( 59.5%)      0.2%
 TRANSITION DIPOLE   0.1969         C 2 -- H 5         +24.4% ( 58.9%)      0.2%
 TRAVEL (Ang.)       0.3251         C 1 -- C 4         +11.8% ( 41.1%)      0.0%
 REDUCED MASS        0.6059         C 1 -- C 3         +10.3% ( 38.3%)      1.4%
 EFFECTIVE MASS      4.0290         C 1 -- C 2         +10.3% ( 38.2%)      1.5%
 FORCE CONSTANT      0.3958

 VIBRATION         10   10A          ATOM PAIR     ENERGY CONTRIBUTION    RADIAL
 FREQUENCY          1077.69         C 4 -- H 7         +16.4% ( 62.3%)     91.5%
 TRANSITION DIPOLE   0.4905         C 4 -- H 8         +16.4% ( 62.3%)     89.9%
 TRAVEL (Ang.)       0.2079         C 2 -- C 3         +12.7% ( 54.8%)    100.0%
 REDUCED MASS        1.4475         C 1 -- C 4         +11.5% ( 52.3%)    100.0%
 EFFECTIVE MASS      8.4350         C 2 -- H 5         +11.4% ( 52.0%)      1.6%
 FORCE CONSTANT      0.9905         C 3 -- H 6         +11.2% ( 51.6%)      1.6%
                            C 1 -- C 2         +10.2% ( 49.1%)     63.4%
                            C 1 -- C 3         +10.1% ( 49.0%)     64.4%

 VIBRATION         11   11A          ATOM PAIR     ENERGY CONTRIBUTION    RADIAL
 FREQUENCY          1224.47         C 1 -- C 2         +23.6% ( 78.4%)     79.0%
 TRANSITION DIPOLE   0.3879         C 1 -- C 3         +23.6% ( 78.4%)     79.0%
 TRAVEL (Ang.)       0.1320         C 2 -- C 3         +23.0% ( 77.3%)      0.0%
 REDUCED MASS        3.1589         C 2 -- H 5         +11.2% ( 54.0%)     24.9%
 EFFECTIVE MASS     11.7633         C 3 -- H 6         +11.2% ( 53.9%)     24.9%
 FORCE CONSTANT      2.7905

 VIBRATION         12   12A          ATOM PAIR     ENERGY CONTRIBUTION    RADIAL
 FREQUENCY          1323.84         C 4 -- H 8         +32.8% ( 67.1%)      2.9%
 TRANSITION DIPOLE   0.1145         C 4 -- H 7         +32.8% ( 67.0%)      2.9%
 TRAVEL (Ang.)       0.2939         C 1 -- C 2          +9.2% ( 35.6%)     55.9%
 REDUCED MASS        0.5896         C 1 -- C 3          +9.2% ( 35.6%)     55.8%
 EFFECTIVE MASS      3.7334
 FORCE CONSTANT      0.6088

 VIBRATION         13   13A          ATOM PAIR     ENERGY CONTRIBUTION    RADIAL
 FREQUENCY          1765.36         C 2 -- C 3         +36.3% ( 94.8%)    100.0%
 TRANSITION DIPOLE   1.4363         C 1 -- C 2         +13.0% ( 56.6%)      0.2%
 TRAVEL (Ang.)       0.1110         C 1 -- C 3         +12.9% ( 56.6%)      0.2%
 REDUCED MASS        3.1010         C 1 -- C 4         +12.7% ( 56.2%)    100.0%
 EFFECTIVE MASS     12.1355
 FORCE CONSTANT      5.6940

 VIBRATION         14   14A          ATOM PAIR     ENERGY CONTRIBUTION    RADIAL
 FREQUENCY          2167.22         C 1 -- C 4         +30.0% ( 80.5%)    100.0%
 TRANSITION DIPOLE   1.6329         C 1 -- C 2         +24.9% ( 73.3%)     97.0%
 TRAVEL (Ang.)       0.0832         C 1 -- C 3         +24.9% ( 73.3%)     97.0%
 REDUCED MASS        4.4905         C 2 -- C 3          +8.8% ( 43.6%)    100.0%
 EFFECTIVE MASS     11.7169
 FORCE CONSTANT     12.4267

 VIBRATION         15   15A          ATOM PAIR     ENERGY CONTRIBUTION    RADIAL
 FREQUENCY          3144.06         C 4 -- H 7         +49.2% ( 70.2%)     95.3%
 TRANSITION DIPOLE   0.4082         C 4 -- H 8         +49.1% ( 70.1%)     95.3%
 TRAVEL (Ang.)       0.2102         C 1 -- C 4          +1.6% ( 12.5%)    100.0%
 REDUCED MASS        0.4856
 EFFECTIVE MASS      1.3886
 FORCE CONSTANT      2.8283

 VIBRATION         16   16A          ATOM PAIR     ENERGY CONTRIBUTION    RADIAL
 FREQUENCY          3152.43         C 4 -- H 8         +49.4% ( 72.0%)     97.1%
 TRANSITION DIPOLE   0.2298         C 4 -- H 7         +49.3% ( 71.9%)     97.1%
 TRAVEL (Ang.)       0.2000         C 1 -- C 4          +1.2% ( 11.4%)      0.0%
 REDUCED MASS        0.5348
 EFFECTIVE MASS      1.6021
 FORCE CONSTANT      3.1313

 VIBRATION         17   17A          ATOM PAIR     ENERGY CONTRIBUTION    RADIAL
 FREQUENCY          3261.99         C 3 -- H 6         +48.5% ( 71.1%)    100.0%
 TRANSITION DIPOLE   0.8097         C 2 -- H 5         +48.3% ( 70.9%)    100.0%
 TRAVEL (Ang.)       0.2108         C 2 -- C 3          +1.1% ( 10.6%)      0.0%
 REDUCED MASS        0.4650         C 1 -- C 3          +1.0% ( 10.3%)     70.3%
 EFFECTIVE MASS      1.4761
 FORCE CONSTANT      2.9151

 VIBRATION         18   18A          ATOM PAIR     ENERGY CONTRIBUTION    RADIAL
 FREQUENCY          3297.51         C 2 -- H 5         +45.8% ( 70.2%)    100.0%
 TRANSITION DIPOLE   0.5772         C 3 -- H 6         +45.6% ( 70.0%)    100.0%
 TRAVEL (Ang.)       0.2052         C 2 -- C 3          +4.9% ( 22.9%)    100.0%
 REDUCED MASS        0.4856         C 1 -- C 2          +1.8% ( 14.1%)     76.8%
 EFFECTIVE MASS      2.0331
 FORCE CONSTANT      3.1109

      SYMMETRY NUMBER FOR POINT-GROUP C1  =  1


          SYSTEM IS A GROUND STATE



 InChI=1S/C4H4/c1-4-2-3-4/h2-3H,1H2


          MOLECULE IS NOT LINEAR

          THERE ARE 18 GENUINE VIBRATIONS IN THIS SYSTEM
          THIS THERMODYNAMICS CALCULATION IS LIMITED TO
          MOLECULES WHICH HAVE NO INTERNAL ROTATIONS




                    CALCULATED THERMODYNAMIC PROPERTIES
                                          *
   TEMP. (K)   PARTITION FUNCTION   H.O.F.    ENTHALPY  HEAT CAPACITY ENTROPY
                                   KCAL/MOL   CAL/MOLE    CAL/K/MOL  CAL/K/MOL


 298.00  VIB.     0.1612D+01                   727.8519     7.5096     3.3912
         ROT.     0.2477D+05                   888.2803     2.9808    23.0863
         INT.     0.3993D+05                  1616.1322    10.4904    26.4774
         TRA.     0.3633D+27                  1480.4672     4.9680    37.7709
         TOT.                       92.460    3096.5994    15.4584    64.2483

 200.00  VIB.     0.1165D+01                   193.6951     3.4686     1.2713
         ROT.     0.1362D+05                   596.1613     2.9808    21.8976
         INT.     0.1586D+05                   789.8564     6.4494    23.1688
         TRA.     0.1998D+27                   993.6021     4.9680    35.7897
         TOT.                       91.147    1783.4585    11.4174    58.9586

 210.00  VIB.     0.1194D+01                   230.2800     3.8504     1.4497
         ROT.     0.1465D+05                   625.9693     2.9808    22.0430
         INT.     0.1750D+05                   856.2493     6.8312    23.4927
         TRA.     0.2149D+27                  1043.2822     4.9680    36.0321
         TOT.                       91.263    1899.5315    11.7992    59.5248

 220.00  VIB.     0.1227D+01                   270.7408     4.2435     1.6378
         ROT.     0.1571D+05                   655.7774     2.9808    22.1817
         INT.     0.1929D+05                   926.5182     7.2243    23.8195
         TRA.     0.2305D+27                  1092.9623     4.9680    36.2632
         TOT.                       91.383    2019.4805    12.1923    60.0828

 230.00  VIB.     0.1264D+01                   315.1817     4.6462     1.8353
         ROT.     0.1680D+05                   685.5855     2.9808    22.3142
         INT.     0.2122D+05                  1000.7672     7.6270    24.1495
         TRA.     0.2463D+27                  1142.6424     4.9680    36.4841
         TOT.                       91.507    2143.4096    12.5950    60.6336

 240.00  VIB.     0.1303D+01                   363.6903     5.0567     2.0417
         ROT.     0.1790D+05                   715.3935     2.9808    22.4410
         INT.     0.2333D+05                  1079.0839     8.0375    24.4828
         TRA.     0.2626D+27                  1192.3226     4.9680    36.6955
         TOT.                       91.635    2271.4064    13.0056    61.1783

 250.00  VIB.     0.1347D+01                   416.3372     5.4735     2.2566
         ROT.     0.1903D+05                   745.2016     2.9808    22.5627
         INT.     0.2563D+05                  1161.5388     8.4543    24.8193
         TRA.     0.2792D+27                  1242.0027     4.9680    36.8983
         TOT.                       91.767    2403.5414    13.4223    61.7176

 260.00  VIB.     0.1394D+01                   473.1756     5.8948     2.4794
         ROT.     0.2019D+05                   775.0097     2.9808    22.6796
         INT.     0.2813D+05                  1248.1852     8.8756    25.1591
         TRA.     0.2961D+27                  1291.6828     4.9680    37.0932
         TOT.                       91.903    2539.8680    13.8436    62.2522

 270.00  VIB.     0.1445D+01                   534.2425     6.3190     2.7099
         ROT.     0.2136D+05                   804.8177     2.9808    22.7921
         INT.     0.3087D+05                  1339.0602     9.2998    25.5020
         TRA.     0.3133D+27                  1341.3629     4.9680    37.2807
         TOT.                       92.044    2680.4231    14.2678    62.7826

 280.00  VIB.     0.1500D+01                   599.5593     6.7445     2.9473
         ROT.     0.2256D+05                   834.6258     2.9808    22.9005
         INT.     0.3385D+05                  1434.1851     9.7253    25.8479
         TRA.     0.3309D+27                  1391.0430     4.9680    37.4613
         TOT.                       92.189    2825.2280    14.6933    63.3092

 290.00  VIB.     0.1560D+01                   669.1326     7.1700     3.1914
         ROT.     0.2378D+05                   864.4339     2.9808    23.0051
         INT.     0.3711D+05                  1533.5664    10.1508    26.1966
         TRA.     0.3488D+27                  1440.7231     4.9680    37.6357
         TOT.                       92.338    2974.2895    15.1189    63.8323

 300.00  VIB.     0.1625D+01                   742.9559     7.5943     3.4417
         ROT.     0.2502D+05                   894.2419     2.9808    23.1062
         INT.     0.4067D+05                  1637.1978    10.5751    26.5479
         TRA.     0.3670D+27                  1490.4032     4.9680    37.8041
         TOT.                       92.491    3127.6010    15.5431    64.3520

 310.00  VIB.     0.1695D+01                   821.0107     8.0162     3.6976
         ROT.     0.2628D+05                   924.0500     2.9808    23.2039
         INT.     0.4456D+05                  1745.0607    10.9970    26.9015
         TRA.     0.3855D+27                  1540.0833     4.9680    37.9670
         TOT.                       92.649    3285.1440    15.9650    64.8685

 320.00  VIB.     0.1771D+01                   903.2681     8.4347     3.9587
         ROT.     0.2756D+05                   953.8580     2.9808    23.2986
         INT.     0.4882D+05                  1857.1262    11.4155    27.2573
         TRA.     0.4043D+27                  1589.7634     4.9680    38.1247
         TOT.                       92.810    3446.8896    16.3835    65.3820

 330.00  VIB.     0.1853D+01                   989.6897     8.8489     4.2246
         ROT.     0.2887D+05                   983.6661     2.9808    23.3903
         INT.     0.5349D+05                  1973.3558    11.8297    27.6149
         TRA.     0.4234D+27                  1639.4435     4.9680    38.2776
         TOT.                       92.976    3612.7993    16.7977    65.8925

 340.00  VIB.     0.1941D+01                  1080.2293     9.2582     4.4949
         ROT.     0.3019D+05                  1013.4742     2.9808    23.4793
         INT.     0.5859D+05                  2093.7035    12.2390    27.9741
         TRA.     0.4428D+27                  1689.1236     4.9680    38.4259
         TOT.                       93.146    3782.8271    17.2070    66.4001

 350.00  VIB.     0.2036D+01                  1174.8341     9.6618     4.7691
         ROT.     0.3153D+05                  1043.2822     2.9808    23.5657
         INT.     0.6418D+05                  2218.1164    12.6426    28.3348
         TRA.     0.4624D+27                  1738.8037     4.9680    38.5699
         TOT.                       93.321    3956.9201    17.6106    66.9047

 360.00  VIB.     0.2137D+01                  1273.4456    10.0594     5.0468
         ROT.     0.3289D+05                  1073.0903     2.9808    23.6497
         INT.     0.7030D+05                  2346.5359    13.0402    28.6965
         TRA.     0.4824D+27                  1788.4838     4.9680    38.7099
         TOT.                       93.499    4135.0197    18.0082    67.4064

 370.00  VIB.     0.2247D+01                  1376.0006    10.4505     5.3278
         ROT.     0.3427D+05                  1102.8984     2.9808    23.7313
         INT.     0.7701D+05                  2478.8990    13.4313    29.0591
         TRA.     0.5026D+27                  1838.1639     4.9680    38.8460
         TOT.                       93.681    4317.0629    18.3993    67.9051

 380.00  VIB.     0.2365D+01                  1482.4328    10.8348     5.6116
         ROT.     0.3567D+05                  1132.7064     2.9808    23.8108
         INT.     0.8436D+05                  2615.1392    13.8156    29.4224
         TRA.     0.5232D+27                  1887.8440     4.9680    38.9785
         TOT.                       93.867    4502.9833    18.7836    68.4009

 390.00  VIB.     0.2492D+01                  1592.6727    11.2120     5.8979
         ROT.     0.3709D+05                  1162.5145     2.9808    23.8883
         INT.     0.9241D+05                  2755.1872    14.1928    29.7862
         TRA.     0.5439D+27                  1937.5242     4.9680    39.1075
         TOT.                       94.056    4692.7113    19.1608    68.8937

 400.00  VIB.     0.2628D+01                  1706.6490    11.5820     6.1865
         ROT.     0.3852D+05                  1192.3226     2.9808    23.9637
         INT.     0.1012D+06                  2898.9715    14.5628    30.1502
         TRA.     0.5650D+27                  1987.2043     4.9680    39.2333
         TOT.                       94.250    4886.1758    19.5309    69.3835

   *: NOTE: HEATS OF FORMATION ARE RELATIVE TO THE
            ELEMENTS IN THEIR STANDARD STATE AT 298K
              (=  Standard Enthalpy of Formation).

            Hvib:  Zero-point energy is not included.
                   frequencies of less than zero cm-1 are not included.
            Hrot = (3/2)RT
            Htra = (3/2)RT + pV = (5/2)RT

            Heat capacity is Cp, not Cv

          For more information, see: HTTP://OpenMOPAC.net/Manual/thermochemistry.html


           FORCE CONSTANT IN CARTESIAN COORDINATES (Millidynes/A)

    ATOM   CHEMICAL       X               Y               Z
   NUMBER   SYMBOL  FORCE CONSTANT  FORCE CONSTANT  FORCE CONSTANT

      1       C       18.679308        8.471200        1.236032
      2       C       14.058914       11.683465        1.519180
      3       C        5.978642       19.747016        1.518803
      4       C       14.134124       10.276193        1.710489
      5       H        4.241809        2.095367        0.335128
      6       H        0.498537        5.839063        0.335172
      7       H        4.209099        1.882337        0.299822
      8       H        0.668490        5.423030        0.300031

 **********************
 *                    *
 * JOB ENDED NORMALLY *
 *                    *
 **********************



 TOTAL JOB TIME:             0.34 SECONDS

 == MOPAC DONE ==
