 *******************************************************************************
 **                                                                           **
 **                              MOPAC v23.1.2                                **
 **                                                                           **
 *******************************************************************************
 **          Digital Object Identifier (DOI): 10.5281/zenodo.6511958          **
 **    Visit the DOI location for information on how to cite this program.    **
 *******************************************************************************

                              PM3 CALCULATION RESULTS

 *******************************************************************************
 *  CALCULATION DONE: (MAX THREADS = 1)              Tue Jun  3 16:27:21 2025  *
 *  PM3        - The PM3 Hamiltonian to be used
 *  PRECISE    - TIGHTER CRITERIA TO BE USED
 *  NOSYM      - POINT-GROUP SYMMETRY SET TO C1
 *  THREADS=1  - MULTI-THREADING NOT USED
 *  T=         - A TIME OF 172800.0 SECONDS REQUESTED
 *  DUMP=N     - RESTART FILE WRITTEN EVERY 7200.0 SECONDS REQUESTED
 *******************************************************************************
pm3  precise nosym THREADS=1
 InChI=1S/C10H12/c1-8-6-7-9-4-2-3-5-10(8)9/h3-5,10H,1-2,6-7H2

   ATOM   CHEMICAL          X               Y               Z
  NUMBER   SYMBOL      (ANGSTROMS)     (ANGSTROMS)     (ANGSTROMS)

     1       C          0.02250000  *   0.46290000  *   0.59780000  *
     2       C         -1.04490000  *  -1.66670000  *  -0.16800000  *
     3       C         -2.13090000  *  -0.58650000  *  -0.10940000  *
     4       C          2.61580000  *  -0.43460000  *  -0.18580000  *
     5       C          0.22840000  *  -0.94670000  *   0.14020000  *
     6       C         -1.43280000  *   0.66490000  *   0.33550000  *
     7       C          1.44450000  *  -1.38900000  *  -0.22600000  *
     8       C          0.93360000  *   1.39280000  *  -0.17640000  *
     9       C          2.16350000  *   0.97120000  *  -0.52800000  *
    10       C         -2.07870000  *   1.81370000  *   0.56810000  *
    11       H          0.23800000  *   0.54390000  *   1.68510000  *
    12       H         -1.22400000  *  -2.45920000  *   0.58990000  *
    13       H         -1.00550000  *  -2.11620000  *  -1.18450000  *
    14       H         -2.92210000  *  -0.86750000  *   0.61920000  *
    15       H         -2.58230000  *  -0.43010000  *  -1.11320000  *
    16       H          3.40120000  *  -0.76580000  *  -0.89730000  *
    17       H          3.04100000  *  -0.43270000  *   0.84010000  *
    18       H          0.62580000  *   2.40910000  *  -0.40310000  *
    19       H          2.83520000  *   1.64020000  *  -1.05670000  *
    20       H          1.56490000  *  -2.37720000  *  -0.66000000  *
    21       H         -1.54550000  *   2.68420000  *   0.93710000  *
    22       H         -3.14770000  *   1.88940000  *   0.39530000  *



          CARTESIAN COORDINATES 

    NO.       ATOM           X           Y           Z

     1         C          0.0225      0.4629      0.5978
     2         C         -1.0449     -1.6667     -0.1680
     3         C         -2.1309     -0.5865     -0.1094
     4         C          2.6158     -0.4346     -0.1858
     5         C          0.2284     -0.9467      0.1402
     6         C         -1.4328      0.6649      0.3355
     7         C          1.4445     -1.3890     -0.2260
     8         C          0.9336      1.3928     -0.1764
     9         C          2.1635      0.9712     -0.5280
    10         C         -2.0787      1.8137      0.5681
    11         H          0.2380      0.5439      1.6851
    12         H         -1.2240     -2.4592      0.5899
    13         H         -1.0055     -2.1162     -1.1845
    14         H         -2.9221     -0.8675      0.6192
    15         H         -2.5823     -0.4301     -1.1132
    16         H          3.4012     -0.7658     -0.8973
    17         H          3.0410     -0.4327      0.8401
    18         H          0.6258      2.4091     -0.4031
    19         H          2.8352      1.6402     -1.0567
    20         H          1.5649     -2.3772     -0.6600
    21         H         -1.5455      2.6842      0.9371
    22         H         -3.1477      1.8894      0.3953

  H: (PM3): J. J. P. STEWART, J. COMP. CHEM. 10, 209 (1989).
  C: (PM3): J. J. P. STEWART, J. COMP. CHEM. 10, 209 (1989).

           Empirical Formula: C10 H12  =    22 atoms



      MOLECULAR POINT GROUP   :   C1  


      RHF CALCULATION, NO. OF DOUBLY OCCUPIED LEVELS = 26


          Geometry optimization using EF

          DIAGONAL MATRIX USED AS START HESSIAN

 CYCLE:     1 TIME:   0.008 TIME LEFT:  2.00D  GRAD.:    79.240 HEAT:  36.64051
 CYCLE:     2 TIME:   0.016 TIME LEFT:  2.00D  GRAD.:    76.661 HEAT:  35.59847
 CYCLE:     3 TIME:   0.008 TIME LEFT:  2.00D  GRAD.:    49.772 HEAT:  34.61677
 CYCLE:     4 TIME:   0.012 TIME LEFT:  2.00D  GRAD.:    39.740 HEAT:  34.14569
 CYCLE:     5 TIME:   0.008 TIME LEFT:  2.00D  GRAD.:    45.724 HEAT:  33.96637
 CYCLE:     6 TIME:   0.012 TIME LEFT:  2.00D  GRAD.:    29.952 HEAT:  33.60927
 CYCLE:     7 TIME:   0.012 TIME LEFT:  2.00D  GRAD.:    27.708 HEAT:  33.43633
 CYCLE:     8 TIME:   0.008 TIME LEFT:  2.00D  GRAD.:    18.599 HEAT:  33.21950
 CYCLE:     9 TIME:   0.004 TIME LEFT:  2.00D  GRAD.:    26.162 HEAT:  33.14685
 CYCLE:    10 TIME:   0.012 TIME LEFT:  2.00D  GRAD.:    28.045 HEAT:  33.01811
 CYCLE:    11 TIME:   0.008 TIME LEFT:  2.00D  GRAD.:    20.489 HEAT:  32.91514
 CYCLE:    12 TIME:   0.012 TIME LEFT:  2.00D  GRAD.:    13.608 HEAT:  32.83327
 CYCLE:    13 TIME:   0.008 TIME LEFT:  2.00D  GRAD.:    10.875 HEAT:  32.79045
 CYCLE:    14 TIME:   0.012 TIME LEFT:  2.00D  GRAD.:    11.074 HEAT:  32.75814
 CYCLE:    15 TIME:   0.008 TIME LEFT:  2.00D  GRAD.:     8.413 HEAT:  32.71606
 CYCLE:    16 TIME:   0.008 TIME LEFT:  2.00D  GRAD.:    12.153 HEAT:  32.68767
 CYCLE:    17 TIME:   0.008 TIME LEFT:  2.00D  GRAD.:     8.496 HEAT:  32.63311
 CYCLE:    18 TIME:   0.008 TIME LEFT:  2.00D  GRAD.:    14.829 HEAT:  32.60173
 CYCLE:    19 TIME:   0.012 TIME LEFT:  2.00D  GRAD.:    11.466 HEAT:  32.53816
 CYCLE:    20 TIME:   0.012 TIME LEFT:  2.00D  GRAD.:    14.315 HEAT:  32.52559
 CYCLE:    21 TIME:   0.008 TIME LEFT:  2.00D  GRAD.:    15.551 HEAT:  32.51688
 CYCLE:    22 TIME:   0.008 TIME LEFT:  2.00D  GRAD.:    12.556 HEAT:  32.47243
 CYCLE:    23 TIME:   0.008 TIME LEFT:  2.00D  GRAD.:     8.441 HEAT:  32.44546
 CYCLE:    24 TIME:   0.008 TIME LEFT:  2.00D  GRAD.:    11.220 HEAT:  32.43230
 CYCLE:    25 TIME:   0.008 TIME LEFT:  2.00D  GRAD.:     4.954 HEAT:  32.39689
 CYCLE:    26 TIME:   0.004 TIME LEFT:  2.00D  GRAD.:     8.009 HEAT:  32.37803
 CYCLE:    27 TIME:   0.008 TIME LEFT:  2.00D  GRAD.:     5.726 HEAT:  32.34243
 CYCLE:    28 TIME:   0.008 TIME LEFT:  2.00D  GRAD.:     4.501 HEAT:  32.30965
 CYCLE:    29 TIME:   0.012 TIME LEFT:  2.00D  GRAD.:     6.724 HEAT:  32.27927
 CYCLE:    30 TIME:   0.008 TIME LEFT:  2.00D  GRAD.:     5.309 HEAT:  32.25479
 CYCLE:    31 TIME:   0.008 TIME LEFT:  2.00D  GRAD.:     3.682 HEAT:  32.22207
 CYCLE:    32 TIME:   0.004 TIME LEFT:  2.00D  GRAD.:     4.961 HEAT:  32.16515
 CYCLE:    33 TIME:   0.008 TIME LEFT:  2.00D  GRAD.:     5.910 HEAT:  32.14205
 CYCLE:    34 TIME:   0.008 TIME LEFT:  2.00D  GRAD.:     4.325 HEAT:  32.11533
 CYCLE:    35 TIME:   0.008 TIME LEFT:  2.00D  GRAD.:     4.714 HEAT:  32.09345
 CYCLE:    36 TIME:   0.008 TIME LEFT:  2.00D  GRAD.:     3.426 HEAT:  32.07716
 CYCLE:    37 TIME:   0.008 TIME LEFT:  2.00D  GRAD.:     3.055 HEAT:  32.06127
 CYCLE:    38 TIME:   0.008 TIME LEFT:  2.00D  GRAD.:     3.081 HEAT:  32.04426
 CYCLE:    39 TIME:   0.008 TIME LEFT:  2.00D  GRAD.:     3.153 HEAT:  32.03321
 CYCLE:    40 TIME:   0.008 TIME LEFT:  2.00D  GRAD.:     2.922 HEAT:  32.02448
 CYCLE:    41 TIME:   0.004 TIME LEFT:  2.00D  GRAD.:     2.482 HEAT:  32.01229
 CYCLE:    42 TIME:   0.008 TIME LEFT:  2.00D  GRAD.:     2.240 HEAT:  31.99869
 CYCLE:    43 TIME:   0.012 TIME LEFT:  2.00D  GRAD.:     2.134 HEAT:  31.99099
 CYCLE:    44 TIME:   0.004 TIME LEFT:  2.00D  GRAD.:     1.779 HEAT:  31.98483
 CYCLE:    45 TIME:   0.008 TIME LEFT:  2.00D  GRAD.:     1.839 HEAT:  31.97773
 CYCLE:    46 TIME:   0.008 TIME LEFT:  2.00D  GRAD.:     1.576 HEAT:  31.97194
 CYCLE:    47 TIME:   0.004 TIME LEFT:  2.00D  GRAD.:     1.451 HEAT:  31.96863
 CYCLE:    48 TIME:   0.008 TIME LEFT:  2.00D  GRAD.:     1.008 HEAT:  31.96587
 CYCLE:    49 TIME:   0.004 TIME LEFT:  2.00D  GRAD.:     0.855 HEAT:  31.96373
 CYCLE:    50 TIME:   0.008 TIME LEFT:  2.00D  GRAD.:     0.660 HEAT:  31.96234
 CYCLE:    51 TIME:   0.008 TIME LEFT:  2.00D  GRAD.:     0.594 HEAT:  31.96130
 CYCLE:    52 TIME:   0.008 TIME LEFT:  2.00D  GRAD.:     0.541 HEAT:  31.96051
 CYCLE:    53 TIME:   0.008 TIME LEFT:  2.00D  GRAD.:     0.419 HEAT:  31.95998
 CYCLE:    54 TIME:   0.004 TIME LEFT:  2.00D  GRAD.:     0.314 HEAT:  31.95970
 CYCLE:    55 TIME:   0.008 TIME LEFT:  2.00D  GRAD.:     0.258 HEAT:  31.95954
 CYCLE:    56 TIME:   0.004 TIME LEFT:  2.00D  GRAD.:     0.231 HEAT:  31.95942
 CYCLE:    57 TIME:   0.008 TIME LEFT:  2.00D  GRAD.:     0.179 HEAT:  31.95932
 CYCLE:    58 TIME:   0.008 TIME LEFT:  2.00D  GRAD.:     0.126 HEAT:  31.95927
 CYCLE:    59 TIME:   0.004 TIME LEFT:  2.00D  GRAD.:     0.092 HEAT:  31.95925
 CYCLE:    60 TIME:   0.008 TIME LEFT:  2.00D  GRAD.:     0.083 HEAT:  31.95924
 CYCLE:    61 TIME:   0.008 TIME LEFT:  2.00D  GRAD.:     0.057 HEAT:  31.95923
 CYCLE:    62 TIME:   0.008 TIME LEFT:  2.00D  GRAD.:     0.036 HEAT:  31.95923

     GRADIENT =  0.03551 IS LESS THAN CUTOFF =  0.05000



 -------------------------------------------------------------------------------
 pm3  precise nosym THREADS=1
 InChI=1S/C10H12/c1-8-6-7-9-4-2-3-5-10(8)9/h3-5,10H,1-2,6-7H2



     GEOMETRY OPTIMISED USING EIGENVECTOR FOLLOWING (EF).     
     SCF FIELD WAS ACHIEVED                                   


                              PM3 CALCULATION
                                                       MOPAC v23.1.2 MacOS
                                                       Tue Jun  3 16:27:21 2025




          FINAL HEAT OF FORMATION =         31.95923 KCAL/MOL =     133.71740 KJ/MOL


          COSMO AREA              =        177.13 SQUARE ANGSTROMS
          COSMO VOLUME            =        180.46 CUBIC ANGSTROMS

          GRADIENT NORM           =          0.03551          =       0.00757 PER ATOM
          IONIZATION POTENTIAL    =          9.280206 EV
          HOMO LUMO ENERGIES (EV) =         -9.280  0.931
          NO. OF FILLED LEVELS    =         26
          MOLECULAR WEIGHT        =        132.2048         POINT GROUP:  C1  

          MOLECULAR DIMENSIONS (Angstroms)

            Atom       Atom       Distance
            H    22    H    16     7.06098
            H    19    H    12     5.45335
            H    11    H    15     3.45627


          SCF CALCULATIONS        =         70

          WALL-CLOCK TIME         =      0.516 SECONDS
          COMPUTATION TIME        =      0.323 SECONDS




   ATOM   CHEMICAL          X               Y               Z
  NUMBER   SYMBOL      (ANGSTROMS)     (ANGSTROMS)     (ANGSTROMS)

     1       C         -0.00270641  *   0.42733846  *   0.58988270  *
     2       C         -1.05106379  *  -1.69652821  *  -0.04337084  *
     3       C         -2.13268982  *  -0.60801610  *  -0.06052317  *
     4       C          2.60292350  *  -0.42877681  *  -0.32322095  *
     5       C          0.24090533  *  -0.95946617  *   0.06087560  *
     6       C         -1.45780760  *   0.68047666  *   0.30850474  *
     7       C          1.44476967  *  -1.36577857  *  -0.34648788  *
     8       C          0.96906248  *   1.40194592  *   0.01662053  *
     9       C          2.17932272  *   1.00018282  *  -0.38007398  *
    10       C         -2.07434101  *   1.85438130  *   0.38938388  *
    11       H          0.14392489  *   0.42450316  *   1.70031111  *
    12       H         -1.17371878  *  -2.37971387  *   0.81825630  *
    13       H         -1.08773558  *  -2.33227964  *  -0.94661283  *
    14       H         -2.95466741  *  -0.83628418  *   0.64277762  *
    15       H         -2.59992647  *  -0.52089154  *  -1.05933107  *
    16       H          3.27838018  *  -0.65259498  *  -1.17204402  *
    17       H          3.19989013  *  -0.59650910  *   0.59701210  *
    18       H          0.65203826  *   2.44848805  *  -0.04512437  *
    19       H          2.91340827  *   1.71329571  *  -0.76918238  *
    20       H          1.61218703  *  -2.37437346  *  -0.73653921  *
    21       H         -1.56088890  *   2.77233893  *   0.66010722  *
    22       H         -3.13483014  *   1.97010193  *   0.18795761  *

                             CARTESIAN COORDINATES

   1    C       -0.002706407     0.427338457     0.589882695
   2    C       -1.051063785    -1.696528214    -0.043370840
   3    C       -2.132689818    -0.608016100    -0.060523175
   4    C        2.602923502    -0.428776811    -0.323220952
   5    C        0.240905327    -0.959466166     0.060875602
   6    C       -1.457807605     0.680476661     0.308504744
   7    C        1.444769668    -1.365778568    -0.346487885
   8    C        0.969062479     1.401945924     0.016620534
   9    C        2.179322720     1.000182815    -0.380073982
  10    C       -2.074341014     1.854381295     0.389383880
  11    H        0.143924889     0.424503163     1.700311110
  12    H       -1.173718785    -2.379713870     0.818256298
  13    H       -1.087735585    -2.332279641    -0.946612831
  14    H       -2.954667407    -0.836284183     0.642777621
  15    H       -2.599926465    -0.520891540    -1.059331065
  16    H        3.278380182    -0.652594975    -1.172044017
  17    H        3.199890135    -0.596509099     0.597012104
  18    H        0.652038256     2.448488052    -0.045124373
  19    H        2.913408269     1.713295708    -0.769182378
  20    H        1.612187032    -2.374373460    -0.736539215
  21    H       -1.560888901     2.772338926     0.660107224
  22    H       -3.134830143     1.970101932     0.187957610


           Empirical Formula: C10 H12  =    22 atoms



      MOLECULAR POINT GROUP   :   C1  


                  EIGENVALUES  
 -41.73632 -35.68883 -32.05491 -28.56777 -27.57555 -23.81651 -21.77709 -20.05600
 -18.78263 -16.89563 -16.66087 -16.31741 -15.84117 -15.16754 -14.76154 -14.35979
 -14.03315 -13.44628 -13.20415 -12.94766 -12.50289 -12.06010 -11.69249 -10.09282
  -9.81926  -9.28021   0.93057   1.14589   1.16933   3.22208   3.32332   3.43638
   3.49734   3.57321   3.61106   3.91359   3.94390   4.04633   4.10668   4.20978
   4.40416   4.47301   4.53997   4.63224   4.75038   4.86824   5.35983   5.46224
   5.52539   5.97045   6.05747   6.20149


              NET ATOMIC CHARGES AND DIPOLE CONTRIBUTIONS

  ATOM NO.   TYPE          CHARGE      No. of ELECS.   s-Pop       p-Pop       
    1          C           0.037567        3.9624     1.13817     2.82426
    2          C          -0.046922        4.0469     1.14765     2.89927
    3          C          -0.057547        4.0575     1.15201     2.90554
    4          C          -0.017937        4.0179     1.13244     2.88550
    5          C          -0.125587        4.1256     1.20327     2.92232
    6          C          -0.102065        4.1021     1.20311     2.89896
    7          C          -0.147116        4.1471     1.18900     2.95811
    8          C          -0.136729        4.1367     1.19391     2.94282
    9          C          -0.148751        4.1488     1.19520     2.95355
   10          C          -0.175666        4.1757     1.17637     2.99929
   11          H           0.084442        0.9156     0.91556
   12          H           0.057259        0.9427     0.94274
   13          H           0.057508        0.9425     0.94249
   14          H           0.057668        0.9423     0.94233
   15          H           0.059731        0.9403     0.94027
   16          H           0.056154        0.9438     0.94385
   17          H           0.063091        0.9369     0.93691
   18          H           0.107646        0.8924     0.89235
   19          H           0.100117        0.8999     0.89988
   20          H           0.105427        0.8946     0.89457
   21          H           0.086562        0.9134     0.91344
   22          H           0.085149        0.9149     0.91485
 DIPOLE           X         Y         Z       TOTAL
 POINT-CHG.     0.055    -0.344     0.127     0.371
 HYBRID        -0.021     0.031    -0.037     0.053
 SUM            0.034    -0.312     0.090     0.327


          ATOMIC ORBITAL ELECTRON POPULATIONS

     Atom    s        px        py        pz   
    1  C   1.13817   0.91347   0.92162   0.98917
    2  C   1.14765   0.92518   0.96118   1.01291
    3  C   1.15201   0.96580   0.92891   1.01082
    4  C   1.13244   0.95669   0.92179   1.00702
    5  C   1.20327   0.95472   0.96268   1.00492
    6  C   1.20311   0.95374   0.95830   0.98692
    7  C   1.18900   0.95084   0.98855   1.01873
    8  C   1.19391   0.95483   0.98381   1.00417
    9  C   1.19520   0.97374   0.96949   1.01032
   10  C   1.17637   0.99965   0.96285   1.03680
   11  H   0.91556
   12  H   0.94274
   13  H   0.94249
   14  H   0.94233
   15  H   0.94027
   16  H   0.94385
   17  H   0.93691
   18  H   0.89235
   19  H   0.89988
   20  H   0.89457
   21  H   0.91344
   22  H   0.91485
 *******************************************************************************
 **                                                                           **
 **                              MOPAC v23.1.2                                **
 **                                                                           **
 *******************************************************************************
 **          Digital Object Identifier (DOI): 10.5281/zenodo.6511958          **
 **    Visit the DOI location for information on how to cite this program.    **
 *******************************************************************************

                              PM3 CALCULATION RESULTS

 *******************************************************************************
 *  CALCULATION DONE: (MAX THREADS = 1)              Tue Jun  3 16:27:21 2025  *
 *  PM3        - The PM3 Hamiltonian to be used
 *  OLDGEO     - PREVIOUS GEOMETRY TO BE USED
 *  PRECISE    - TIGHTER CRITERIA TO BE USED
 *  NOSYM      - POINT-GROUP SYMMETRY SET TO C1
 *  THREADS=1  - MULTI-THREADING NOT USED
 *  T=         - A TIME OF 172800.0 SECONDS REQUESTED
 *  DUMP=N     - RESTART FILE WRITTEN EVERY 7200.0 SECONDS REQUESTED
 *  THERMO     - THERMODYNAMIC QUANTITIES TO BE CALCULATED
 *******************************************************************************
oldgeo thermo nosym precise THREADS=1  pm3
 InChI=1S/C10H12/c1-8-6-7-9-4-2-3-5-10(8)9/h3-5,10H,1-2,6-7H2

   ATOM   CHEMICAL          X               Y               Z
  NUMBER   SYMBOL      (ANGSTROMS)     (ANGSTROMS)     (ANGSTROMS)

     1       C         -0.00270641  *   0.42733846  *   0.58988270  *
     2       C         -1.05106379  *  -1.69652821  *  -0.04337084  *
     3       C         -2.13268982  *  -0.60801610  *  -0.06052317  *
     4       C          2.60292350  *  -0.42877681  *  -0.32322095  *
     5       C          0.24090533  *  -0.95946617  *   0.06087560  *
     6       C         -1.45780760  *   0.68047666  *   0.30850474  *
     7       C          1.44476967  *  -1.36577857  *  -0.34648788  *
     8       C          0.96906248  *   1.40194592  *   0.01662053  *
     9       C          2.17932272  *   1.00018282  *  -0.38007398  *
    10       C         -2.07434101  *   1.85438130  *   0.38938388  *
    11       H          0.14392489  *   0.42450316  *   1.70031111  *
    12       H         -1.17371878  *  -2.37971387  *   0.81825630  *
    13       H         -1.08773558  *  -2.33227964  *  -0.94661283  *
    14       H         -2.95466741  *  -0.83628418  *   0.64277762  *
    15       H         -2.59992647  *  -0.52089154  *  -1.05933107  *
    16       H          3.27838018  *  -0.65259498  *  -1.17204402  *
    17       H          3.19989013  *  -0.59650910  *   0.59701210  *
    18       H          0.65203826  *   2.44848805  *  -0.04512437  *
    19       H          2.91340827  *   1.71329571  *  -0.76918238  *
    20       H          1.61218703  *  -2.37437346  *  -0.73653921  *
    21       H         -1.56088890  *   2.77233893  *   0.66010722  *
    22       H         -3.13483014  *   1.97010193  *   0.18795761  *



          CARTESIAN COORDINATES 

    NO.       ATOM           X           Y           Z

     1         C         -0.0027      0.4273      0.5899
     2         C         -1.0511     -1.6965     -0.0434
     3         C         -2.1327     -0.6080     -0.0605
     4         C          2.6029     -0.4288     -0.3232
     5         C          0.2409     -0.9595      0.0609
     6         C         -1.4578      0.6805      0.3085
     7         C          1.4448     -1.3658     -0.3465
     8         C          0.9691      1.4019      0.0166
     9         C          2.1793      1.0002     -0.3801
    10         C         -2.0743      1.8544      0.3894
    11         H          0.1439      0.4245      1.7003
    12         H         -1.1737     -2.3797      0.8183
    13         H         -1.0877     -2.3323     -0.9466
    14         H         -2.9547     -0.8363      0.6428
    15         H         -2.5999     -0.5209     -1.0593
    16         H          3.2784     -0.6526     -1.1720
    17         H          3.1999     -0.5965      0.5970
    18         H          0.6520      2.4485     -0.0451
    19         H          2.9134      1.7133     -0.7692
    20         H          1.6122     -2.3744     -0.7365
    21         H         -1.5609      2.7723      0.6601
    22         H         -3.1348      1.9701      0.1880

  H: (PM3): J. J. P. STEWART, J. COMP. CHEM. 10, 209 (1989).
  C: (PM3): J. J. P. STEWART, J. COMP. CHEM. 10, 209 (1989).

           Empirical Formula: C10 H12  =    22 atoms



      MOLECULAR POINT GROUP   :   C1  


      RHF CALCULATION, NO. OF DOUBLY OCCUPIED LEVELS = 26



          HEAT OF FORMATION =      31.959226 KCALS/MOLE


          CARTESIAN COORDINATE DERIVATIVES

   NUMBER  ATOM         X            Y            Z

     1       C     -0.002238    -0.007406    -0.000435
     2       C      0.005697    -0.003572     0.000995
     3       C     -0.000111    -0.001313     0.003082
     4       C      0.006177     0.010034    -0.002430
     5       C      0.003439     0.001490    -0.000100
     6       C     -0.000072     0.000157    -0.000890
     7       C     -0.002755     0.008615     0.002416
     8       C      0.002576     0.001301    -0.006875
     9       C      0.000498     0.000401     0.000158
    10       C      0.000199     0.003950     0.000557
    11       H     -0.002337    -0.009016    -0.003763
    12       H     -0.001232     0.004675     0.000587
    13       H     -0.002170    -0.005040    -0.001267
    14       H     -0.008750    -0.006670     0.003290
    15       H     -0.004145    -0.008159     0.002747
    16       H      0.006326     0.004518     0.003732
    17       H     -0.000473     0.008445    -0.004375
    18       H      0.007240     0.010905    -0.001408
    19       H     -0.004908    -0.005138     0.001969
    20       H     -0.001299    -0.001527    -0.001863
    21       H      0.000603    -0.004756     0.002372
    22       H     -0.002263    -0.001896     0.001501



          GRADIENT NORM =   0.03544

          MOLECULAR WEIGHT =  132.20



          ROTATIONAL CONSTANTS IN CM(-1)

          A =    0.07973722   B =    0.04157764   C =    0.02859076



           PRINCIPAL MOMENTS OF INERTIA IN UNITS OF 10**(-40)*GRAM-CM**2

          A =      351.0626   B =      673.2646   C =      979.0840


          ORIENTATION OF MOLECULE IN FORCE CALCULATION

    NO.       ATOM         X         Y         Z

     1          C      -0.4694    0.1867   -0.4871
     2          C       1.9823    0.1867   -0.4871
     3          C       1.5063    1.6456   -0.4871
     4          C      -0.6061   -2.4177    0.7597
     5          C       0.7644   -0.6198   -0.1878
     6          C       0.0062    1.6128   -0.4647
     7          C       0.7068   -1.8295    0.3723
     8          C      -1.5812   -0.1626    0.4428
     9          C      -1.6482   -1.3769    0.9948
    10          C      -0.7680    2.6922   -0.4486
    11          H      -0.8165   -0.0505   -1.5253
    12          H       2.4040   -0.1047   -1.4677
    13          H       2.7820    0.0111    0.2552
    14          H       1.8738    2.1963   -1.3725
    15          H       1.8886    2.1935    0.3945
    16          H      -0.4818   -3.0349    1.6709
    17          H      -0.9538   -3.1097   -0.0351
    18          H      -2.3363    0.6076    0.6330
    19          H      -2.4793   -1.6556    1.6508
    20          H       1.6097   -2.4070    0.5932
    21          H      -1.8527    2.6393   -0.4335
    22          H      -0.3628    3.6994   -0.4486


    FIRST DERIVATIVES WILL BE USED IN THE CALCULATION OF SECOND DERIVATIVES

          ESTIMATED TIME TO COMPLETE CALCULATION =        2.06 SECONDS

    FOR POINT-GROUP C1   THERE ARE   1 UNIQUE SYMMETRY FUNCTIONS.

 STEP:   1 TIME =     0.02 SECS, INTEGRAL =      0.02 TIME LEFT: 172799.97
 STEP:   2 TIME =     0.02 SECS, INTEGRAL =      0.04 TIME LEFT: 172799.95
 STEP:   3 TIME =     0.02 SECS, INTEGRAL =      0.07 TIME LEFT: 172799.93
 STEP:   4 TIME =     0.02 SECS, INTEGRAL =      0.09 TIME LEFT: 172799.90
 STEP:   5 TIME =     0.02 SECS, INTEGRAL =      0.11 TIME LEFT: 172799.88
 STEP:   6 TIME =     0.02 SECS, INTEGRAL =      0.14 TIME LEFT: 172799.86
 STEP:   7 TIME =     0.02 SECS, INTEGRAL =      0.16 TIME LEFT: 172799.84
 STEP:   8 TIME =     0.02 SECS, INTEGRAL =      0.18 TIME LEFT: 172799.82
 STEP:   9 TIME =     0.02 SECS, INTEGRAL =      0.20 TIME LEFT: 172799.79
 STEP:  10 TIME =     0.02 SECS, INTEGRAL =      0.22 TIME LEFT: 172799.77
 STEP:  11 TIME =     0.02 SECS, INTEGRAL =      0.24 TIME LEFT: 172799.75
 STEP:  12 TIME =     0.02 SECS, INTEGRAL =      0.26 TIME LEFT: 172799.73
 STEP:  13 TIME =     0.02 SECS, INTEGRAL =      0.28 TIME LEFT: 172799.71
 STEP:  14 TIME =     0.02 SECS, INTEGRAL =      0.30 TIME LEFT: 172799.69
 STEP:  15 TIME =     0.04 SECS, INTEGRAL =      0.35 TIME LEFT: 172799.64
 STEP:  16 TIME =     0.02 SECS, INTEGRAL =      0.37 TIME LEFT: 172799.62
 STEP:  17 TIME =     0.02 SECS, INTEGRAL =      0.39 TIME LEFT: 172799.60
 STEP:  18 TIME =     0.02 SECS, INTEGRAL =      0.42 TIME LEFT: 172799.57
 STEP:  19 TIME =     0.02 SECS, INTEGRAL =      0.44 TIME LEFT: 172799.55
 STEP:  20 TIME =     0.02 SECS, INTEGRAL =      0.46 TIME LEFT: 172799.53
 STEP:  21 TIME =     0.02 SECS, INTEGRAL =      0.49 TIME LEFT: 172799.50
 STEP:  22 TIME =     0.02 SECS, INTEGRAL =      0.51 TIME LEFT: 172799.48
 STEP:  23 TIME =     0.02 SECS, INTEGRAL =      0.54 TIME LEFT: 172799.46
 STEP:  24 TIME =     0.02 SECS, INTEGRAL =      0.56 TIME LEFT: 172799.43
 STEP:  25 TIME =     0.02 SECS, INTEGRAL =      0.58 TIME LEFT: 172799.41
 STEP:  26 TIME =     0.02 SECS, INTEGRAL =      0.61 TIME LEFT: 172799.39
 STEP:  27 TIME =     0.02 SECS, INTEGRAL =      0.63 TIME LEFT: 172799.36
 STEP:  28 TIME =     0.02 SECS, INTEGRAL =      0.65 TIME LEFT: 172799.34
 STEP:  29 TIME =     0.02 SECS, INTEGRAL =      0.67 TIME LEFT: 172799.32
 STEP:  30 TIME =     0.02 SECS, INTEGRAL =      0.70 TIME LEFT: 172799.30
 STEP:  31 TIME =     0.02 SECS, INTEGRAL =      0.72 TIME LEFT: 172799.27
 STEP:  32 TIME =     0.02 SECS, INTEGRAL =      0.74 TIME LEFT: 172799.25
 STEP:  33 TIME =     0.02 SECS, INTEGRAL =      0.76 TIME LEFT: 172799.23
 STEP:  34 TIME =     0.02 SECS, INTEGRAL =      0.79 TIME LEFT: 172799.21
 STEP:  35 TIME =     0.02 SECS, INTEGRAL =      0.81 TIME LEFT: 172799.18
 STEP:  36 TIME =     0.02 SECS, INTEGRAL =      0.83 TIME LEFT: 172799.16
 STEP:  37 TIME =     0.02 SECS, INTEGRAL =      0.86 TIME LEFT: 172799.14
 STEP:  38 TIME =     0.02 SECS, INTEGRAL =      0.88 TIME LEFT: 172799.11
 STEP:  39 TIME =     0.02 SECS, INTEGRAL =      0.90 TIME LEFT: 172799.09
 STEP:  40 TIME =     0.02 SECS, INTEGRAL =      0.92 TIME LEFT: 172799.07
 STEP:  41 TIME =     0.02 SECS, INTEGRAL =      0.94 TIME LEFT: 172799.05
 STEP:  42 TIME =     0.02 SECS, INTEGRAL =      0.96 TIME LEFT: 172799.03
 STEP:  43 TIME =     0.02 SECS, INTEGRAL =      0.99 TIME LEFT: 172799.00
 STEP:  44 TIME =     0.02 SECS, INTEGRAL =      1.01 TIME LEFT: 172798.98
 STEP:  45 TIME =     0.02 SECS, INTEGRAL =      1.04 TIME LEFT: 172798.96
 STEP:  46 TIME =     0.02 SECS, INTEGRAL =      1.06 TIME LEFT: 172798.93
 STEP:  47 TIME =     0.02 SECS, INTEGRAL =      1.08 TIME LEFT: 172798.91
 STEP:  48 TIME =     0.02 SECS, INTEGRAL =      1.10 TIME LEFT: 172798.89
 STEP:  49 TIME =     0.02 SECS, INTEGRAL =      1.12 TIME LEFT: 172798.88
 STEP:  50 TIME =     0.02 SECS, INTEGRAL =      1.14 TIME LEFT: 172798.85
 STEP:  51 TIME =     0.02 SECS, INTEGRAL =      1.16 TIME LEFT: 172798.83
 STEP:  52 TIME =     0.02 SECS, INTEGRAL =      1.18 TIME LEFT: 172798.81
 STEP:  53 TIME =     0.02 SECS, INTEGRAL =      1.21 TIME LEFT: 172798.79
 STEP:  54 TIME =     0.02 SECS, INTEGRAL =      1.23 TIME LEFT: 172798.77
 STEP:  55 TIME =     0.02 SECS, INTEGRAL =      1.25 TIME LEFT: 172798.74
 STEP:  56 TIME =     0.02 SECS, INTEGRAL =      1.27 TIME LEFT: 172798.72
 STEP:  57 TIME =     0.02 SECS, INTEGRAL =      1.30 TIME LEFT: 172798.70
 STEP:  58 TIME =     0.02 SECS, INTEGRAL =      1.32 TIME LEFT: 172798.68
 STEP:  59 TIME =     0.02 SECS, INTEGRAL =      1.34 TIME LEFT: 172798.65
 STEP:  60 TIME =     0.02 SECS, INTEGRAL =      1.36 TIME LEFT: 172798.63
 STEP:  61 TIME =     0.02 SECS, INTEGRAL =      1.38 TIME LEFT: 172798.61
 STEP:  62 TIME =     0.03 SECS, INTEGRAL =      1.41 TIME LEFT: 172798.58
 STEP:  63 TIME =     0.02 SECS, INTEGRAL =      1.43 TIME LEFT: 172798.56
 STEP:  64 TIME =     0.02 SECS, INTEGRAL =      1.45 TIME LEFT: 172798.54
 STEP:  65 TIME =     0.02 SECS, INTEGRAL =      1.47 TIME LEFT: 172798.52
 STEP:  66 TIME =     0.02 SECS, INTEGRAL =      1.50 TIME LEFT: 172798.50

(To convert to Hartree/Bohr^2, multiply by (10^(-21) x N x a0^2)/(4.184 x 627.51) =  0.0642)


           FORCE MATRIX IN MILLIDYNES/ANGSTROM


                  C  1       C  2       C  3       C  4       C  5       C  6
 ------------------------------------------------------------------------------
     C    1  15.503245
     C    2   0.755936  14.706991
     C    3   0.751649   3.803845  14.574207
     C    4   0.197037   0.129694   0.011720  14.964110
     C    5   4.346933   4.799572   0.890193   0.913705  19.214506
     C    6   4.370051   0.803367   4.503655   0.010690   0.958404  18.920111
     C    7   0.789338   0.689890   0.047912   4.857589  10.524329   0.050224
     C    8   4.785086   0.045363   0.037660   0.857312   0.742426   0.597148
     C    9   0.897165   0.005039   0.007445   4.809157   0.095404   0.051438
     C   10   0.703856   0.052659   0.745406   0.001532   0.053472  10.893091
     H   11   4.099154   0.015297   0.020127   0.017862   0.414292   0.407803
     H   12   0.017379   4.494806   0.444047   0.017313   0.425964   0.020327
     H   13   0.037180   4.543750   0.435009   0.008406   0.447579   0.033848
     H   14   0.025553   0.434990   4.524948   0.001353   0.036499   0.434127
     H   15   0.027752   0.440915   4.513837   0.000920   0.018608   0.432948
     H   16   0.013191   0.014050   0.002060   4.463321   0.046938   0.001843
     H   17   0.019298   0.018780   0.001758   4.364722   0.027054   0.002314
     H   18   0.437320   0.006159   0.002518   0.121521   0.040666   0.020224
     H   19   0.119299   0.001663   0.001867   0.428626   0.006140   0.012709
     H   20   0.113690   0.071050   0.004837   0.429350   0.461978   0.011754
     H   21   0.090277   0.006595   0.126576   0.000826   0.004639   0.479874
     H   22   0.128340   0.001946   0.089822   0.000610   0.009632   0.478896


                  C  7       C  8       C  9       C 10       H 11       H 12
 ------------------------------------------------------------------------------
     C    7  18.224597
     C    8   0.080451  18.160359
     C    9   0.752028  10.586911  18.081530
     C   10   0.010988   0.052155   0.005146  18.083101
     H   11   0.025656   0.398592   0.029958   0.022391   4.542941
     H   12   0.024363   0.001193   0.000927   0.003195   0.002051   5.093554
     H   13   0.020711   0.006060   0.000976   0.006001   0.000902   0.569182
     H   14   0.005059   0.001952   0.000525   0.023936   0.002676   0.029649
     H   15   0.002530   0.004024   0.001008   0.024786   0.001219   0.033154
     H   16   0.426230   0.046640   0.428594   0.000583   0.002259   0.001725
     H   17   0.419836   0.028657   0.420427   0.000551   0.006858   0.002875
     H   18   0.005713   4.833434   0.445221   0.014527   0.012843   0.000386
     H   19   0.041860   0.444651   4.850944   0.001040   0.015796   0.000117
     H   20   4.868983   0.008737   0.041854   0.002424   0.015067   0.010192
     H   21   0.001370   0.022219   0.003377   5.084770   0.012292   0.000608
     H   22   0.002115   0.012341   0.001748   5.104082   0.015554   0.000401


                  H 13       H 14       H 15       H 16       H 17       H 18
 ------------------------------------------------------------------------------
     H   13   5.145891
     H   14   0.020973   5.127031
     H   15   0.030349   0.572274   5.109598
     H   16   0.000781   0.000333   0.000254   5.037987
     H   17   0.001505   0.000142   0.000152   0.564649   4.957899
     H   18   0.001092   0.000373   0.000532   0.012597   0.017240   5.212776
     H   19   0.000147   0.000222   0.000271   0.036536   0.013684   0.068688
     H   20   0.010593   0.000596   0.000478   0.035790   0.012553   0.001948
     H   21   0.000936   0.012878   0.013036   0.000281   0.000245   0.021234
     H   22   0.000504   0.011002   0.011405   0.000136   0.000220   0.002266


                  H 19       H 20       H 21       H 22
 ------------------------------------------------------
     H   19   5.224345
     H   20   0.005588   5.247216
     H   21   0.000713   0.000309   5.469935
     H   22   0.000604   0.000509   0.412119   5.486754


          HEAT OF FORMATION =      31.959226 KCALS/MOLE

          ZERO POINT ENERGY     118.532 KCAL/MOL


           NORMAL COORDINATE ANALYSIS (Total motion = 1 Angstrom)


   Root No.       1         2         3         4         5         6         7         8

                 1 A       2 A       3 A       4 A       5 A       6 A       7 A       8 A   

                  67.3      88.8     216.7     231.6     303.1     405.0     432.3     484.9
  
           1    0.0035   -0.0019   -0.0009    0.0087   -0.0257   -0.0096   -0.0137    0.0070
           2   -0.0017   -0.0007    0.0103   -0.0139   -0.0052    0.0036    0.0210    0.0320
           3   -0.0109   -0.0152    0.0384   -0.0170   -0.0284   -0.0155    0.0018   -0.0154
           4    0.0032   -0.0065   -0.0067    0.0043   -0.0140   -0.0010    0.0001   -0.0283
           5   -0.0019   -0.0071   -0.0023   -0.0011   -0.0031   -0.0060   -0.0205   -0.0226
           6   -0.0016   -0.0412   -0.0351   -0.0205    0.0127    0.0058    0.0030    0.0096
           7    0.0018    0.0022    0.0053   -0.0007   -0.0131    0.0029    0.0255    0.0134
           8   -0.0022   -0.0042    0.0009   -0.0017   -0.0088   -0.0056   -0.0122   -0.0034
           9   -0.0470    0.0435   -0.0128    0.0045    0.0060    0.0038    0.0007   -0.0032
          10    0.0051    0.0127    0.0028   -0.0160    0.0141    0.0058    0.0118    0.0033
          11    0.0063    0.0104   -0.0125    0.0096   -0.0117   -0.0038    0.0038   -0.0399
          12    0.0225    0.0377   -0.0159   -0.0279   -0.0087    0.0064   -0.0051    0.0056
          13    0.0019   -0.0033    0.0013    0.0119   -0.0208   -0.0118   -0.0216   -0.0278
          14    0.0025   -0.0040    0.0115   -0.0026    0.0015   -0.0029    0.0048    0.0041
          15    0.0063   -0.0182    0.0325    0.0066   -0.0142   -0.0331   -0.0303    0.0436
          16    0.0022    0.0013    0.0043   -0.0002   -0.0146    0.0027    0.0223    0.0092
          17   -0.0013   -0.0011    0.0096   -0.0118   -0.0043   -0.0010    0.0110    0.0410
          18    0.0036    0.0099    0.0124   -0.0099   -0.0154   -0.0254    0.0404   -0.0338
          19    0.0031    0.0041    0.0069    0.0043    0.0067   -0.0031    0.0008   -0.0118
          20    0.0103    0.0070    0.0132    0.0133    0.0172    0.0192    0.0234   -0.0165
          21    0.0230    0.0056    0.0359    0.0402    0.0221    0.0154    0.0076    0.0067
          22   -0.0147   -0.0102   -0.0105    0.0105   -0.0084    0.0303   -0.0162    0.0233
          23   -0.0091   -0.0060   -0.0117    0.0132   -0.0193    0.0173   -0.0061    0.0010
          24   -0.0363   -0.0279    0.0181   -0.0039   -0.0080    0.0408   -0.0062   -0.0158
          25   -0.0137   -0.0025   -0.0204    0.0031    0.0224   -0.0138    0.0096    0.0396
          26   -0.0030    0.0041   -0.0330    0.0204   -0.0093   -0.0148   -0.0017   -0.0003
          27   -0.0231   -0.0054   -0.0277    0.0095    0.0213   -0.0349    0.0085   -0.0095
          28    0.0056    0.0034    0.0174   -0.0195    0.0410   -0.0043   -0.0167   -0.0258
          29    0.0002    0.0004    0.0193   -0.0263    0.0355   -0.0066   -0.0167    0.0189
          30    0.0619    0.0048   -0.0221    0.0206    0.0025    0.0085   -0.0116    0.0062
          31    0.0245    0.0052    0.0025    0.0129   -0.0312   -0.0652   -0.0284    0.0349
          32    0.0035    0.0139    0.0082   -0.0281   -0.0024    0.0006    0.0744    0.0237
          33   -0.0192   -0.0207    0.0366   -0.0143   -0.0260    0.0048   -0.0054   -0.0225
          34    0.0170   -0.0604   -0.0770   -0.0330    0.0102    0.0387    0.0336   -0.0869
          35   -0.0282    0.0311   -0.0104    0.0068   -0.0039   -0.0006   -0.0264   -0.0531
          36    0.0122   -0.0759   -0.0635   -0.0392    0.0235    0.0219    0.0196   -0.0073
          37   -0.0063    0.0301    0.0413    0.0319   -0.0329   -0.0316   -0.0333    0.0015
          38    0.0197   -0.0454   -0.0088   -0.0060   -0.0063   -0.0140   -0.0443   -0.0341
          39    0.0139   -0.0901   -0.0891   -0.0521    0.0329    0.0379    0.0345   -0.0264
          40   -0.0318    0.0281   -0.0042    0.0082    0.0011    0.0290   -0.0043    0.0699
          41   -0.0418    0.0550    0.0084    0.0208   -0.0065    0.0025   -0.0417   -0.0141
          42   -0.0858    0.0915   -0.0120    0.0225    0.0133    0.0202   -0.0307    0.0146
          43    0.0343   -0.0183    0.0229   -0.0146   -0.0281   -0.0196    0.0774    0.0036
          44    0.0381   -0.0678   -0.0126   -0.0216   -0.0094   -0.0163    0.0015   -0.0263
          45   -0.0865    0.0922   -0.0120    0.0230    0.0133    0.0207   -0.0315    0.0154
          46    0.0010    0.0256   -0.0223   -0.0588    0.0049    0.0037    0.0103   -0.0003
          47    0.0363    0.0560   -0.0332   -0.0649   -0.0596    0.0453   -0.0250   -0.0297
          48    0.0436    0.0671   -0.0266   -0.0738   -0.0408    0.0410   -0.0251    0.0135
          49    0.0262    0.0191    0.0441   -0.0090    0.0184    0.0473    0.0175   -0.0038
          50   -0.0235   -0.0330    0.0014    0.0806    0.0305   -0.0537    0.0280   -0.0493
          51    0.0392    0.0728   -0.0464   -0.0937   -0.0479    0.0331   -0.0293    0.0173
          52   -0.0323   -0.0266   -0.0161    0.0288   -0.0146    0.0746   -0.0399    0.0156
          53   -0.0188   -0.0150   -0.0196    0.0291   -0.0270    0.0421   -0.0262   -0.0129
          54   -0.0659   -0.0555    0.0259    0.0042   -0.0024    0.1166   -0.0185    0.0107
          55   -0.0293   -0.0116   -0.0417    0.0191    0.0510   -0.0437    0.0209    0.0498
          56   -0.0051    0.0067   -0.0636    0.0369   -0.0003   -0.0332   -0.0082    0.0315
          57   -0.0436   -0.0154   -0.0676    0.0360    0.0612   -0.0801    0.0201    0.0176
          58    0.0048    0.0085    0.0086   -0.0020    0.0224    0.0082    0.0162    0.0013
          59    0.0176    0.0127    0.0203    0.0250    0.0592    0.0560    0.0605   -0.0076
          60    0.0356    0.0036    0.0468    0.0943    0.0677    0.0671    0.0418   -0.0229
          61    0.0059    0.0029    0.0171   -0.0188    0.0386   -0.0040   -0.0150   -0.0240
          62    0.0039    0.0026    0.0332   -0.0478    0.1057   -0.0182   -0.0814   -0.0390
          63    0.1004   -0.0186   -0.0099    0.0204   -0.0019    0.0096   -0.0433    0.0296
          64    0.0089    0.0056    0.0308   -0.0402    0.1081   -0.0150   -0.0777   -0.0840
          65   -0.0011   -0.0005    0.0141   -0.0183    0.0096   -0.0026    0.0066    0.0416
          66    0.0755    0.0238   -0.0654    0.0481    0.0262    0.0424   -0.0373    0.0298


   Root No.       9        10        11        12        13        14        15        16

                 9 A      10 A      11 A      12 A      13 A      14 A      15 A      16 A   

                 501.8     525.6     591.2     636.5     669.6     759.5     779.2     798.2
  
           1    0.0254   -0.0052    0.0129    0.0121   -0.0059    0.0036   -0.0010   -0.0002
           2   -0.0011   -0.0013    0.0067    0.0099   -0.0025   -0.0039    0.0091   -0.0035
           3   -0.0161    0.0097    0.0153    0.0097   -0.0211   -0.0243    0.0131    0.0011
           4   -0.0073   -0.0159    0.0102    0.0395    0.0287   -0.0161    0.0181    0.0100
           5    0.0087   -0.0355   -0.0097   -0.0256   -0.0122   -0.0042    0.0030   -0.0018
           6   -0.0087    0.0089   -0.0033   -0.0077    0.0030    0.0138   -0.0045    0.0227
           7   -0.0199   -0.0345   -0.0084   -0.0085   -0.0080   -0.0010   -0.0130    0.0050
           8    0.0127   -0.0429   -0.0097   -0.0326   -0.0268   -0.0026   -0.0086   -0.0017
           9    0.0004    0.0060   -0.0022   -0.0032    0.0053    0.0116   -0.0020    0.0176
          10   -0.0204    0.0344   -0.0027   -0.0033   -0.0039    0.0073   -0.0063   -0.0024
          11   -0.0246    0.0296    0.0022    0.0097    0.0000    0.0196   -0.0331    0.0048
          12    0.0112   -0.0159    0.0039    0.0048   -0.0109    0.0154    0.0000   -0.0154
          13    0.0103   -0.0050    0.0102    0.0223    0.0057   -0.0116   -0.0001    0.0098
          14   -0.0299   -0.0188   -0.0171    0.0088    0.0371    0.0107    0.0165   -0.0091
          15   -0.0231    0.0153   -0.0237   -0.0048    0.0218    0.0048    0.0026   -0.0111
          16   -0.0136   -0.0322   -0.0097   -0.0212   -0.0156   -0.0013   -0.0067   -0.0032
          17    0.0141   -0.0047    0.0160    0.0252   -0.0106   -0.0038   -0.0195    0.0086
          18    0.0515    0.0263   -0.0092   -0.0154    0.0209    0.0033    0.0038   -0.0167
          19   -0.0147    0.0522    0.0031   -0.0059   -0.0210   -0.0002   -0.0342    0.0053
          20   -0.0154   -0.0229   -0.0050    0.0124    0.0312    0.0097    0.0147   -0.0096
          21    0.0197    0.0033    0.0070   -0.0025   -0.0103   -0.0064   -0.0059   -0.0138
          22    0.0427   -0.0092    0.0042    0.0074    0.0097    0.0378    0.0101   -0.0078
          23   -0.0054    0.0513   -0.0041   -0.0182   -0.0084   -0.0105    0.0257   -0.0008
          24   -0.0105   -0.0001   -0.0045    0.0040   -0.0082    0.0057    0.0114    0.0071
          25    0.0053    0.0255   -0.0016   -0.0158   -0.0023   -0.0081    0.0474   -0.0045
          26    0.0004    0.0352    0.0012   -0.0116   -0.0054   -0.0028    0.0171   -0.0001
          27   -0.0053   -0.0400    0.0048    0.0174   -0.0052    0.0157   -0.0059    0.0087
          28   -0.0065   -0.0128   -0.0137   -0.0245   -0.0050    0.0009    0.0032   -0.0063
          29    0.0236    0.0124    0.0176    0.0320   -0.0031   -0.0041   -0.0185    0.0115
          30   -0.0103   -0.0021    0.0021    0.0009   -0.0008   -0.0004    0.0002   -0.0015
          31    0.0308    0.0077    0.0078    0.0127    0.0310   -0.0031   -0.0371   -0.0281
          32    0.0449   -0.0105    0.0268   -0.0142   -0.0032   -0.0054   -0.0019   -0.0141
          33   -0.0276    0.0073    0.0114    0.0148   -0.0326   -0.0219    0.0268    0.0133
          34    0.0059   -0.0173    0.0653    0.0749   -0.0077   -0.0726    0.0215   -0.0965
          35    0.0340   -0.0451   -0.0012   -0.0311   -0.0288   -0.0018    0.0011    0.0378
          36   -0.0105    0.0109    0.0189    0.0094   -0.0088   -0.0125   -0.0024   -0.0387
          37   -0.0079   -0.0135   -0.0213    0.0253    0.0553    0.0101    0.0230    0.0852
          38    0.0192   -0.0284    0.0042   -0.0102   -0.0141   -0.0373    0.0181   -0.0485
          39   -0.0062    0.0087    0.0358    0.0134   -0.0263   -0.0245   -0.0060   -0.0730
          40   -0.0856   -0.0596    0.0399    0.0037   -0.0342   -0.0202   -0.0341   -0.0102
          41   -0.0145   -0.0653    0.0240   -0.0264   -0.0299   -0.0473    0.0141   -0.0844
          42   -0.0456   -0.0182    0.0409    0.0071   -0.0068   -0.0255    0.0042   -0.0431
          43    0.0419   -0.0054   -0.0504   -0.0137   -0.0005    0.0256   -0.0337    0.0299
          44    0.0436   -0.0317   -0.0503   -0.0528   -0.0205    0.0349   -0.0102    0.0759
          45   -0.0472   -0.0149    0.0429    0.0110   -0.0029   -0.0250    0.0080   -0.0444
          46   -0.0378   -0.0036   -0.0165    0.0059    0.0363    0.0040    0.0069    0.0291
          47   -0.0184    0.0444   -0.0223   -0.0221    0.0535   -0.0533   -0.0280    0.0525
          48    0.0182   -0.0011   -0.0114   -0.0188    0.0213   -0.0364    0.0030    0.0139
          49   -0.0194    0.0445   -0.0067   -0.0047    0.0149   -0.0067   -0.0487   -0.0301
          50   -0.0300    0.0255    0.0260    0.0369   -0.0558    0.0930   -0.0406   -0.0356
          51    0.0158   -0.0166   -0.0161   -0.0195    0.0318   -0.0449    0.0245    0.0339
          52    0.0726   -0.0026   -0.0190   -0.0161    0.0718    0.0140   -0.1086   -0.0309
          53    0.0187    0.0548   -0.0172   -0.0303    0.0304   -0.0186   -0.0545   -0.0145
          54    0.0136    0.0100   -0.0425   -0.0400    0.0816   -0.0568   -0.1344   -0.0294
          55   -0.0008    0.0194   -0.0169   -0.0387    0.0486   -0.1035   -0.0314    0.0009
          56    0.0430    0.0043   -0.0020   -0.0255    0.0366   -0.0452   -0.0187   -0.0191
          57    0.0048   -0.0610   -0.0160   -0.0176    0.0768   -0.1241   -0.1216    0.0080
          58   -0.0201    0.0541   -0.0016   -0.0151   -0.0175    0.0047   -0.0189    0.0073
          59   -0.0026   -0.0278   -0.0030   -0.0122    0.0291   -0.0132    0.0611    0.0493
          60    0.0769   -0.0192    0.0321   -0.0280   -0.0305   -0.0889    0.0513    0.1345
          61   -0.0083   -0.0150   -0.0114   -0.0271   -0.0053    0.0012    0.0024   -0.0061
          62    0.0470    0.0520    0.0165    0.0321    0.0234    0.0058    0.0191    0.0060
          63   -0.0797   -0.0360    0.2077   -0.1288    0.0627    0.0371   -0.0094    0.0386
          64    0.0122    0.0220   -0.0220   -0.0324    0.0190    0.0115    0.0491   -0.0192
          65    0.0169   -0.0010    0.0212    0.0357   -0.0125   -0.0083   -0.0370    0.0170
          66   -0.0158   -0.0049   -0.1872    0.1573   -0.1015   -0.0438    0.0043    0.0025


   Root No.      17        18        19        20        21        22        23        24

                17 A      18 A      19 A      20 A      21 A      22 A      23 A      24 A   

                 852.3     903.8     921.8     934.5     952.4     978.7     993.6    1019.7
  
           1    0.0148    0.0246   -0.0035    0.0118   -0.0110   -0.0003   -0.0087    0.0042
           2   -0.0055    0.0053    0.0007    0.0218    0.0116    0.0153    0.0049   -0.0041
           3    0.0034    0.0356   -0.0044    0.0266   -0.0142   -0.0007   -0.0083   -0.0122
           4   -0.0290   -0.0208    0.0113   -0.0018    0.0100   -0.0006    0.0050    0.0046
           5   -0.0035   -0.0077   -0.0045    0.0032    0.0019   -0.0015    0.0015    0.0002
           6   -0.0021    0.0006    0.0020    0.0177    0.0158   -0.0106   -0.0107    0.0086
           7   -0.0025    0.0032    0.0305   -0.0247    0.0030   -0.0057    0.0015   -0.0017
           8   -0.0008    0.0051    0.0173   -0.0144    0.0019   -0.0016   -0.0019    0.0001
           9   -0.0187    0.0114   -0.0091   -0.0109   -0.0168    0.0104    0.0101   -0.0091
          10   -0.0017    0.0006    0.0046    0.0069   -0.0062   -0.0062    0.0006    0.0046
          11    0.0209    0.0062   -0.0069    0.0034    0.0087    0.0124   -0.0072   -0.0283
          12   -0.0272   -0.0090    0.0171    0.0231   -0.0130   -0.0158    0.0119   -0.0072
          13   -0.0065   -0.0059   -0.0019   -0.0014    0.0034    0.0008   -0.0032   -0.0028
          14    0.0057   -0.0002    0.0010    0.0002   -0.0087   -0.0029    0.0085   -0.0055
          15    0.0134   -0.0164    0.0025   -0.0097   -0.0024    0.0072    0.0180   -0.0098
          16    0.0025   -0.0032   -0.0090    0.0054    0.0004    0.0032    0.0006    0.0008
          17   -0.0005   -0.0051    0.0016   -0.0088   -0.0013   -0.0023   -0.0005    0.0006
          18    0.0130   -0.0148    0.0047   -0.0046    0.0067   -0.0067    0.0024    0.0107
          19    0.0054   -0.0113    0.0041   -0.0043    0.0099    0.0016    0.0179    0.0026
          20   -0.0011    0.0200   -0.0114   -0.0002   -0.0048   -0.0020   -0.0131    0.0010
          21   -0.0184    0.0092   -0.0149   -0.0191    0.0182    0.0136   -0.0157    0.0007
          22    0.0231    0.0167   -0.0168    0.0013    0.0128   -0.0066    0.0161   -0.0155
          23   -0.0133   -0.0040    0.0022   -0.0069   -0.0040   -0.0110    0.0026    0.0213
          24    0.0011   -0.0036   -0.0064   -0.0180    0.0093   -0.0078    0.0064    0.0184
          25   -0.0103   -0.0043    0.0004   -0.0052   -0.0037    0.0170   -0.0232   -0.0218
          26   -0.0012   -0.0035    0.0023   -0.0020   -0.0038    0.0004   -0.0033    0.0105
          27    0.0175   -0.0103    0.0019   -0.0094    0.0007    0.0148   -0.0110    0.0249
          28    0.0021   -0.0144   -0.0363    0.0136   -0.0086   -0.0009   -0.0019   -0.0004
          29   -0.0029   -0.0165   -0.0114   -0.0137   -0.0081   -0.0099   -0.0025    0.0008
          30    0.0024   -0.0050    0.0029   -0.0020    0.0052   -0.0230   -0.0240   -0.0160
          31    0.0427    0.0354    0.0163    0.0153   -0.1136    0.0433   -0.0932    0.1537
          32    0.0001   -0.0168    0.0094    0.1160    0.1350    0.1132    0.0299    0.0535
          33   -0.0074    0.0354   -0.0130    0.0030   -0.0073   -0.0375    0.0145   -0.0754
          34   -0.0174   -0.0139   -0.0051   -0.0658   -0.0485    0.0407    0.0348   -0.0257
          35   -0.0769    0.0216   -0.0386    0.0015   -0.0247    0.0266   -0.0277   -0.0094
          36    0.0265   -0.0048    0.0047   -0.0106   -0.0027   -0.0005    0.0118   -0.0022
          37   -0.0545   -0.0505    0.0148    0.0490    0.0616   -0.0230   -0.0076    0.0318
          38    0.0300   -0.0723   -0.0194    0.0289    0.0370   -0.0020    0.0342    0.0171
          39    0.0342    0.0160   -0.0045   -0.0334   -0.0326    0.0140    0.0129   -0.0174
          40    0.0407    0.0064    0.0699    0.0059    0.0553   -0.0504   -0.0716    0.0227
          41    0.0501   -0.0415    0.0283   -0.0148    0.0175   -0.0041    0.0267    0.0081
          42    0.0337   -0.0173    0.0144    0.0029    0.0156   -0.0103   -0.0024    0.0065
          43   -0.0231    0.0200    0.0401   -0.1111   -0.0540    0.0167    0.0671   -0.0347
          44   -0.0701    0.0384   -0.0104    0.0058   -0.0080    0.0122   -0.0269   -0.0027
          45    0.0357   -0.0182    0.0051    0.0139    0.0155   -0.0088   -0.0028    0.0075
          46    0.0609    0.0065   -0.0020   -0.0005   -0.0288    0.0114   -0.0247    0.0196
          47    0.0881    0.0279   -0.0538   -0.0604    0.0505    0.0547   -0.0345   -0.0257
          48    0.0104    0.0048   -0.0146   -0.0211    0.0191    0.0115   -0.0043   -0.0062
          49   -0.0373    0.0626   -0.0388   -0.0112    0.0276   -0.0595   -0.0021    0.1463
          50   -0.0312   -0.0214    0.0392    0.0653   -0.0267   -0.0103    0.0168   -0.0813
          51    0.0370   -0.0114   -0.0055   -0.0246    0.0042    0.0286   -0.0081   -0.0231
          52    0.0119   -0.0044    0.0362    0.0511   -0.0443    0.0108   -0.0161   -0.0054
          53   -0.0099   -0.0091    0.0354    0.0231   -0.0455   -0.0184   -0.0094    0.0536
          54   -0.0599   -0.0681    0.0704    0.0599   -0.0502    0.0868   -0.0683   -0.0611
          55   -0.0247    0.0519   -0.0264    0.0032    0.0172   -0.0227    0.0070   -0.0435
          56   -0.0176    0.0508   -0.0184    0.0374    0.0093   -0.0682    0.0808   -0.0132
          57   -0.0082    0.0827   -0.0405    0.0172    0.0333   -0.0636    0.0628   -0.0116
          58    0.0154   -0.0090    0.0197    0.0181   -0.0213   -0.0274    0.0414    0.0385
          59    0.0682   -0.0016    0.0405    0.0603   -0.0808   -0.0514    0.0427    0.0389
          60    0.1214   -0.0598    0.0582    0.0457   -0.0506    0.0043    0.0363   -0.0452
          61    0.0017   -0.0171   -0.0433    0.0157   -0.0108    0.0007   -0.0005    0.0004
          62    0.0005    0.0858    0.1651   -0.0431    0.0418    0.0091    0.0059    0.0004
          63   -0.0374    0.0265   -0.0176   -0.0120   -0.0378    0.0984    0.1083    0.0569
          64    0.0082    0.0881    0.1151    0.0104    0.0403    0.0328    0.0083   -0.0034
          65   -0.0054   -0.0563   -0.0690   -0.0139   -0.0272   -0.0237   -0.0066    0.0021
          66   -0.0007    0.0417   -0.0122    0.0351   -0.0189    0.0979    0.0886    0.0641


   Root No.      25        26        27        28        29        30        31        32

                25 A      26 A      27 A      28 A      29 A      30 A      31 A      32 A   

                1026.2    1038.7    1053.9    1072.4    1073.5    1093.8    1098.7    1144.3
  
           1    0.0011   -0.0014   -0.0009   -0.0113   -0.0017    0.0015   -0.0015   -0.0104
           2   -0.0172    0.0097    0.0044   -0.0049    0.0024   -0.0068   -0.0025    0.0198
           3    0.0023   -0.0175    0.0102   -0.0019   -0.0009   -0.0079   -0.0032   -0.0038
           4   -0.0026    0.0018    0.0005    0.0016   -0.0291   -0.0049    0.0063    0.0006
           5    0.0005   -0.0035   -0.0019    0.0059    0.0446    0.0002   -0.0226   -0.0031
           6    0.0176   -0.0051   -0.0047   -0.0031   -0.0111   -0.0098   -0.0415    0.0020
           7    0.0066   -0.0029   -0.0011    0.0060    0.0075    0.0002   -0.0008   -0.0012
           8    0.0074    0.0029    0.0018   -0.0064   -0.0514   -0.0016    0.0256    0.0005
           9   -0.0143    0.0049    0.0078   -0.0184    0.0171   -0.0023    0.0350   -0.0022
          10    0.0033    0.0036    0.0000   -0.0076   -0.0038    0.0163   -0.0014    0.0026
          11    0.0165    0.0238    0.0049    0.0023   -0.0028    0.0038   -0.0007   -0.0020
          12    0.0069    0.0173   -0.0033    0.0014    0.0026    0.0053    0.0001   -0.0057
          13    0.0058   -0.0004    0.0005   -0.0045    0.0088    0.0066    0.0006    0.0009
          14   -0.0061   -0.0006    0.0033    0.0110    0.0009   -0.0015    0.0025   -0.0058
          15   -0.0169    0.0076    0.0091    0.0113   -0.0045    0.0190    0.0027   -0.0046
          16   -0.0043    0.0016    0.0012   -0.0057    0.0048    0.0006   -0.0005    0.0046
          17    0.0004   -0.0003   -0.0000   -0.0029    0.0061    0.0006   -0.0015    0.0031
          18    0.0249   -0.0075   -0.0108    0.0238   -0.0019    0.0070    0.0076    0.0055
          19   -0.0237   -0.0152   -0.0114    0.0110   -0.0009   -0.0232    0.0028    0.0064
          20    0.0080   -0.0125   -0.0096   -0.0038    0.0042   -0.0067   -0.0006   -0.0028
          21   -0.0006   -0.0180   -0.0195   -0.0097   -0.0025   -0.0019   -0.0029    0.0043
          22   -0.0018    0.0047   -0.0011    0.0095   -0.0019   -0.0026   -0.0002    0.0055
          23   -0.0022    0.0064   -0.0133   -0.0071    0.0003    0.0103   -0.0005   -0.0011
          24   -0.0026    0.0290   -0.0226    0.0007    0.0013   -0.0008    0.0010   -0.0033
          25    0.0200    0.0021    0.0131    0.0067    0.0026   -0.0067    0.0005   -0.0078
          26   -0.0024   -0.0140    0.0111   -0.0002   -0.0002    0.0005    0.0000    0.0053
          27   -0.0124   -0.0178    0.0264   -0.0007    0.0008   -0.0046   -0.0000    0.0029
          28   -0.0002    0.0006    0.0006    0.0002   -0.0087   -0.0012    0.0028   -0.0010
          29    0.0094   -0.0046   -0.0018    0.0035   -0.0056    0.0017    0.0015   -0.0050
          30   -0.0275    0.0075    0.0068   -0.0120    0.0016   -0.0034   -0.0021   -0.0013
          31   -0.0227    0.1448   -0.0928    0.0088    0.0232   -0.0764   -0.0098    0.0333
          32   -0.0948    0.0238    0.0015   -0.0314   -0.0173    0.0492   -0.0066   -0.0925
          33    0.0280   -0.0698    0.0416   -0.0027   -0.0043    0.0061    0.0006    0.0070
          34   -0.0783    0.0179    0.0112    0.0466    0.0123    0.0430    0.0312   -0.0025
          35   -0.0875    0.0031   -0.0162    0.1410    0.0525    0.0727   -0.2273    0.0022
          36    0.0111    0.0003    0.0048   -0.0255    0.0031   -0.0109    0.0309   -0.0010
          37    0.0386   -0.0065   -0.0076   -0.0325    0.0152   -0.0322   -0.0241    0.0084
          38    0.0413   -0.0007    0.0083   -0.1124    0.2565   -0.0290    0.1020    0.0071
          39   -0.0182    0.0046    0.0070    0.0055   -0.0067    0.0125    0.0200   -0.0043
          40    0.0400   -0.0388   -0.0482    0.1307    0.1398    0.0567    0.0961   -0.0088
          41    0.0367    0.0135    0.0150   -0.0536   -0.1862   -0.0375   -0.1265    0.0102
          42    0.0191   -0.0037   -0.0036    0.0033   -0.0134   -0.0020   -0.0194    0.0008
          43    0.0089    0.0100    0.0325   -0.0944    0.1027   -0.0322   -0.1677   -0.0240
          44   -0.0380    0.0064   -0.0040    0.0306   -0.0717    0.0229    0.2304    0.0090
          45    0.0148   -0.0034   -0.0035    0.0019   -0.0101   -0.0037   -0.0204    0.0025
          46   -0.0155   -0.0683   -0.1102   -0.1126   -0.0259    0.1710   -0.0240    0.1582
          47    0.0083    0.0028    0.0358    0.0245   -0.0034   -0.0450    0.0037   -0.0208
          48    0.0036    0.0124    0.0326    0.0301    0.0055   -0.0479    0.0061   -0.0410
          49    0.0291    0.0710    0.2384    0.0066    0.0113    0.0509   -0.0047    0.0425
          50    0.0339    0.0551   -0.0448    0.0013   -0.0053    0.0136   -0.0005   -0.0161
          51   -0.0202   -0.0402   -0.0640   -0.0035   -0.0021   -0.0191    0.0014   -0.0101
          52   -0.0071   -0.1020    0.0503   -0.0133   -0.0136    0.0382   -0.0056   -0.0890
          53   -0.0163   -0.0953    0.0245   -0.0325   -0.0145    0.0648   -0.0065   -0.1223
          54    0.0272    0.0084    0.0294    0.0093    0.0140   -0.0537    0.0036    0.1111
          55    0.0370    0.0732   -0.0564   -0.0176   -0.0036    0.0311   -0.0025   -0.1039
          56   -0.0331   -0.0529    0.0140    0.0437    0.0040   -0.0547    0.0054    0.2094
          57   -0.0048    0.0578   -0.0610   -0.0126   -0.0049    0.0180   -0.0013   -0.0342
          58   -0.0546   -0.0542   -0.0371    0.0177   -0.0082   -0.0816    0.0107   -0.0444
          59   -0.0367   -0.0318   -0.0164    0.0182   -0.0046   -0.0733    0.0141   -0.0720
          60    0.0050    0.0903    0.0668    0.0188    0.0011    0.0693    0.0023    0.0400
          61    0.0013    0.0008    0.0003    0.0007   -0.0101   -0.0017    0.0034    0.0003
          62   -0.0045   -0.0006   -0.0006   -0.0054    0.0286    0.0063   -0.0071   -0.0046
          63    0.0998   -0.0263   -0.0197    0.0302   -0.0006    0.0112    0.0117    0.0026
          64   -0.0247    0.0171    0.0035   -0.0122    0.0264   -0.0079   -0.0061    0.0274
          65    0.0196   -0.0114   -0.0031    0.0084   -0.0197    0.0047    0.0051   -0.0169
          66    0.1057   -0.0345   -0.0243    0.0473   -0.0085    0.0118    0.0042    0.0005


   Root No.      33        34        35        36        37        38        39        40

                33 A      34 A      35 A      36 A      37 A      38 A      39 A      40 A   

                1163.0    1194.8    1209.3    1268.7    1298.5    1321.1    1342.3    1365.3
  
           1   -0.0063    0.0202    0.0263    0.0068   -0.0245   -0.0099   -0.0038    0.0099
           2   -0.0288   -0.0256    0.0114   -0.0255    0.0216    0.0050    0.0199   -0.0327
           3    0.0125   -0.0029   -0.0202   -0.0021    0.0211   -0.0056   -0.0054    0.0063
           4   -0.0050   -0.0024   -0.0137   -0.0095    0.0196    0.0117    0.0061   -0.0061
           5    0.0126   -0.0101    0.0144    0.0200    0.0473    0.0321    0.0103    0.0149
           6   -0.0013   -0.0026   -0.0005   -0.0030   -0.0070   -0.0060   -0.0012    0.0014
           7    0.0059   -0.0012   -0.0155    0.0361    0.0312    0.0012   -0.0340    0.0035
           8    0.0067    0.0119   -0.0082   -0.0365   -0.0182   -0.0070    0.0202    0.0128
           9    0.0044   -0.0002   -0.0014    0.0007    0.0023    0.0009    0.0003    0.0005
          10    0.0019   -0.0096   -0.0078    0.0012   -0.0268   -0.0044   -0.0013    0.0050
          11   -0.0060    0.0125   -0.0159    0.0021    0.0047    0.0013   -0.0038    0.0130
          12    0.0032   -0.0008    0.0065    0.0001    0.0059   -0.0006   -0.0004   -0.0021
          13    0.0213    0.0078    0.0371    0.0048   -0.0243    0.0061    0.0020   -0.0280
          14    0.0115   -0.0170    0.0112   -0.0009   -0.0056   -0.0132   -0.0045    0.0027
          15   -0.0039    0.0156   -0.0020    0.0024   -0.0055    0.0029    0.0007   -0.0000
          16   -0.0260   -0.0096    0.0098    0.0244   -0.0332    0.0029    0.0215    0.0120
          17   -0.0175   -0.0060    0.0094    0.0064   -0.0284    0.0157   -0.0073    0.0140
          18   -0.0111   -0.0021    0.0060   -0.0013   -0.0023    0.0006    0.0009   -0.0011
          19    0.0037   -0.0258    0.0127   -0.0072    0.0123   -0.0148   -0.0035    0.0010
          20    0.0128   -0.0092    0.0086    0.0029   -0.0184   -0.0166   -0.0073    0.0016
          21   -0.0062    0.0034   -0.0063   -0.0012    0.0082    0.0089    0.0038   -0.0009
          22   -0.0043    0.0012   -0.0099   -0.0091    0.0355   -0.0091   -0.0041    0.0028
          23    0.0001    0.0039    0.0130   -0.0011    0.0023   -0.0063   -0.0024    0.0005
          24    0.0081   -0.0037   -0.0041    0.0075   -0.0245    0.0097    0.0031   -0.0016
          25    0.0094    0.0015   -0.0154    0.0076   -0.0095    0.0123    0.0024   -0.0003
          26   -0.0011    0.0102    0.0090   -0.0042    0.0199   -0.0119   -0.0064    0.0046
          27   -0.0073   -0.0038    0.0084   -0.0036   -0.0008   -0.0032    0.0013   -0.0023
          28    0.0068    0.0011   -0.0009   -0.0098    0.0060   -0.0080    0.0137   -0.0063
          29    0.0109    0.0082   -0.0054    0.0019    0.0031    0.0057   -0.0227    0.0056
          30    0.0031    0.0007   -0.0015    0.0003    0.0007   -0.0000   -0.0006    0.0004
          31    0.0302   -0.0608   -0.0724   -0.0101    0.0409    0.0066    0.0061   -0.0054
          32    0.1493    0.0823   -0.0241    0.0353   -0.0194   -0.0131   -0.0288    0.0254
          33   -0.0406    0.0001    0.0224   -0.0094    0.0061   -0.0064    0.0027   -0.0019
          34   -0.0418    0.0288   -0.0667   -0.0515   -0.0129   -0.0157    0.0327    0.1155
          35   -0.0828    0.0383   -0.0640    0.0043   -0.0797   -0.0623   -0.0474   -0.0428
          36    0.0118   -0.0036    0.0021   -0.0133    0.0154    0.0098    0.0239    0.0599
          37   -0.0494    0.0031   -0.0831   -0.0522   -0.0076   -0.0246    0.0201    0.0883
          38   -0.0793    0.0150   -0.1039    0.0117   -0.0622   -0.0733   -0.0641   -0.0485
          39    0.0245   -0.0016    0.0432    0.0367   -0.0016    0.0091   -0.0292   -0.1011
          40    0.0546    0.0440   -0.0069   -0.1412   -0.0052   -0.0183    0.0317   -0.0549
          41   -0.0273   -0.0023   -0.0391    0.0427    0.0053   -0.0366   -0.0838   -0.0883
          42    0.0031    0.0082   -0.0143   -0.0206    0.0014   -0.0228   -0.0323   -0.0755
          43    0.0861    0.0463   -0.0236   -0.1401   -0.0056   -0.0234    0.0279   -0.0550
          44   -0.0292   -0.0029   -0.0355    0.0469    0.0173   -0.0281   -0.0802   -0.0848
          45   -0.0078   -0.0104    0.0164    0.0224   -0.0034    0.0217    0.0310    0.0754
          46   -0.0141    0.0711   -0.0296   -0.0010    0.0796    0.0470    0.0200   -0.0236
          47   -0.0161    0.0218   -0.0501    0.0146   -0.0365    0.0832    0.0491   -0.0656
          48   -0.0010   -0.0091   -0.0095    0.0072   -0.0340    0.0391    0.0273   -0.0439
          49   -0.0162    0.0552    0.0066   -0.0019    0.0552    0.0098    0.0004    0.0016
          50   -0.0005    0.0177   -0.0442    0.0163   -0.0350    0.0752    0.0432   -0.0606
          51    0.0058   -0.0314    0.0217   -0.0097    0.0022   -0.0620   -0.0363    0.0544
          52   -0.0061   -0.0832   -0.0624   -0.0131   -0.0008    0.0292    0.0098   -0.0147
          53    0.0019   -0.1077   -0.0573   -0.0058   -0.0465    0.0450    0.0160   -0.0238
          54   -0.0033    0.1027    0.0721    0.0091    0.0202   -0.0411   -0.0139    0.0205
          55   -0.0399    0.0075    0.0241   -0.0147    0.0539   -0.0118   -0.0063    0.0014
          56    0.1119   -0.0062   -0.0901    0.0473   -0.1281    0.0436    0.0131    0.0033
          57   -0.0237   -0.0035    0.0204   -0.0109    0.0168   -0.0114   -0.0009   -0.0017
          58   -0.0466    0.1114   -0.0013    0.0019    0.0274    0.0368    0.0123   -0.0153
          59   -0.0535    0.1735   -0.0121    0.0151   -0.0000    0.0499    0.0125   -0.0189
          60    0.0270   -0.0876    0.0013   -0.0104    0.0017   -0.0267   -0.0062    0.0081
          61    0.0065    0.0007    0.0017   -0.0210    0.0027    0.0004    0.0003   -0.0036
          62   -0.0219    0.0029   -0.0182    0.1471    0.0136   -0.0985    0.1712   -0.0237
          63   -0.0125   -0.0047    0.0057   -0.0003   -0.0043    0.0017    0.0018   -0.0017
          64   -0.0512   -0.0245    0.0432   -0.0942   -0.0646    0.1061   -0.1457    0.0414
          65    0.0340    0.0192   -0.0241    0.0416    0.0318   -0.0437    0.0466   -0.0138
          66   -0.0027   -0.0009   -0.0021    0.0013    0.0025   -0.0022    0.0016    0.0004


   Root No.      41        42        43        44        45        46        47        48

                41 A      42 A      43 A      44 A      45 A      46 A      47 A      48 A   

                1382.8    1402.3    1409.1    1421.0    1463.9    1860.2    1900.5    1933.0
  
           1   -0.0290    0.0231    0.0101    0.0042    0.1053    0.0196   -0.0000    0.0080
           2    0.0089    0.0094    0.0205   -0.0510    0.0284    0.0081   -0.0331   -0.0038
           3   -0.0014   -0.0091   -0.0047    0.0143   -0.0345   -0.0148    0.0066    0.0072
           4    0.0074    0.0051    0.0242    0.0625    0.0156   -0.0052   -0.0036   -0.0205
           5   -0.0035    0.0341   -0.0020    0.0103    0.0074   -0.0049   -0.0095   -0.0175
           6   -0.0017   -0.0045   -0.0061   -0.0100   -0.0034    0.0015    0.0029    0.0067
           7   -0.0126   -0.0166    0.0226   -0.0456    0.0124    0.0026    0.0189   -0.0138
           8    0.0041   -0.0305    0.0227   -0.0012   -0.0024   -0.0030   -0.0082   -0.0008
           9    0.0001    0.0008   -0.0003    0.0018   -0.0006    0.0001   -0.0001    0.0007
          10   -0.0222    0.0487    0.0508   -0.0045   -0.0587    0.0170    0.0032    0.0096
          11    0.0497    0.0132    0.0043   -0.0040    0.0219   -0.0199    0.0095    0.0127
          12    0.0025   -0.0156   -0.0157    0.0010    0.0132   -0.0004   -0.0033   -0.0062
          13    0.0242   -0.0168   -0.0102   -0.0609   -0.0628    0.0039    0.0073    0.0169
          14   -0.0106   -0.0128   -0.0121    0.0089    0.0141    0.0440    0.0726    0.1710
          15    0.0039    0.0051    0.0041   -0.0015   -0.0025   -0.0185   -0.0336   -0.0731
          16    0.0152    0.0011   -0.0265    0.0397   -0.0409   -0.0181   -0.0990    0.0617
          17    0.0089   -0.0010   -0.0191    0.0289   -0.0291    0.0275    0.1404   -0.0853
          18   -0.0004    0.0011    0.0011   -0.0021    0.0043   -0.0010    0.0025   -0.0002
          19   -0.0063   -0.0275   -0.0261    0.0117    0.0346   -0.0089   -0.0142   -0.0290
          20   -0.0099   -0.0109   -0.0112   -0.0014   -0.0009   -0.0364   -0.0655   -0.1401
          21    0.0032    0.0082    0.0084   -0.0003   -0.0037    0.0179    0.0308    0.0658
          22   -0.0037   -0.0074    0.0009    0.0105   -0.0515   -0.0351    0.0062    0.0031
          23   -0.0139    0.0012    0.0029    0.0023   -0.0069   -0.1702    0.0362    0.0207
          24    0.0099    0.0038   -0.0021   -0.0072    0.0337    0.0941   -0.0190   -0.0116
          25    0.0231   -0.0107   -0.0165   -0.0028    0.0354   -0.0150    0.0028    0.0004
          26   -0.0142   -0.0036    0.0023    0.0112   -0.0396    0.1862   -0.0367   -0.0230
          27   -0.0093    0.0067    0.0081   -0.0029   -0.0042   -0.0686    0.0131    0.0089
          28   -0.0004    0.0012    0.0046   -0.0071    0.0091    0.0166    0.0779   -0.0450
          29   -0.0057   -0.0024    0.0027   -0.0003    0.0022   -0.0230   -0.1090    0.0627
          30   -0.0001   -0.0002   -0.0002    0.0005   -0.0010   -0.0004   -0.0016    0.0009
          31    0.0211   -0.0180   -0.0074    0.0050   -0.0651    0.0091   -0.0048    0.0124
          32   -0.0141   -0.0116   -0.0126    0.0251   -0.0143   -0.0077    0.0103    0.0024
          33   -0.0122    0.0098    0.0080   -0.0039    0.0323   -0.0018   -0.0018   -0.0029
          34   -0.0552    0.0447   -0.0954   -0.1418   -0.0153   -0.0012   -0.0035   -0.0053
          35    0.0053   -0.0626    0.0397    0.0103    0.0125    0.0025    0.0040    0.0078
          36   -0.0261    0.0356   -0.0592   -0.0824   -0.0154   -0.0003   -0.0038    0.0021
          37   -0.0457    0.0244   -0.0672   -0.0794   -0.0004    0.0004    0.0054    0.0033
          38   -0.0004   -0.0726    0.0501    0.0242    0.0246    0.0057    0.0112    0.0220
          39    0.0501   -0.0436    0.0911    0.1262    0.0134   -0.0023    0.0005   -0.0119
          40    0.0091    0.0639   -0.0367    0.0520    0.0116   -0.0035   -0.0124    0.0043
          41   -0.0079    0.0925   -0.0977   -0.0149   -0.0109    0.0028    0.0131   -0.0069
          42    0.0010    0.0958   -0.0866    0.0282   -0.0043    0.0021    0.0027    0.0058
          43    0.0096    0.0574   -0.0364    0.0513    0.0059   -0.0029   -0.0129    0.0050
          44   -0.0083    0.0983   -0.0955   -0.0078   -0.0081    0.0030    0.0130   -0.0059
          45   -0.0014   -0.0965    0.0851   -0.0310    0.0035   -0.0019   -0.0018   -0.0043
          46   -0.0106   -0.0782   -0.0713    0.0209    0.0609    0.0335    0.0067    0.0207
          47   -0.1512   -0.0350   -0.0125    0.0066   -0.0169   -0.0224    0.0094    0.0125
          48   -0.1179   -0.0246   -0.0068    0.0032   -0.0280   -0.0065   -0.0020   -0.0046
          49    0.0399   -0.0390   -0.0429    0.0068    0.0486    0.0135    0.0025    0.0083
          50   -0.1418   -0.0391   -0.0181    0.0068   -0.0193   -0.0037    0.0002   -0.0009
          51    0.1194    0.0596    0.0399   -0.0113   -0.0004   -0.0071    0.0007   -0.0009
          52    0.0385   -0.0098   -0.0070   -0.0183    0.0033    0.0985   -0.0244   -0.0151
          53    0.0412   -0.0024   -0.0072   -0.0374    0.0622   -0.0524    0.0084    0.0035
          54   -0.0465    0.0113    0.0111    0.0271   -0.0214   -0.0395    0.0136    0.0103
          55    0.0008   -0.0264   -0.0206    0.0111   -0.0129    0.0995   -0.0212   -0.0152
          56    0.0379    0.0400    0.0185   -0.0198    0.0686   -0.0102    0.0064    0.0075
          57   -0.0189    0.0060    0.0109    0.0005   -0.0182   -0.0609    0.0114    0.0094
          58    0.0459   -0.0090   -0.0081   -0.0202    0.0036    0.0184    0.0460    0.0974
          59    0.0612    0.0128    0.0117   -0.0431   -0.0413   -0.0143   -0.0067   -0.0223
          60   -0.0271   -0.0095   -0.0068    0.0210    0.0205    0.0030    0.0024    0.0075
          61   -0.0015    0.0001    0.0049   -0.0068    0.0092    0.0195    0.0925   -0.0544
          62    0.0191    0.0141   -0.0177    0.0202   -0.0169    0.0110    0.0426   -0.0217
          63    0.0008    0.0014    0.0006   -0.0026    0.0052   -0.0006   -0.0017    0.0012
          64    0.0004   -0.0124   -0.0161    0.0281   -0.0326   -0.0153   -0.0687    0.0383
          65   -0.0057    0.0034    0.0102   -0.0131    0.0182   -0.0144   -0.0732    0.0436
          66   -0.0001   -0.0010   -0.0004    0.0013   -0.0028   -0.0001    0.0014   -0.0009


   Root No.      49        50        51        52        53        54        55        56

                49 A      50 A      51 A      52 A      53 A      54 A      55 A      56 A   

                2840.0    2938.0    2966.6    2981.0    3018.2    3050.9    3052.5    3054.9
  
           1   -0.0231    0.0001    0.0001    0.0001   -0.0001   -0.0000    0.0002   -0.0005
           2   -0.0154    0.0001   -0.0000   -0.0000    0.0000   -0.0001    0.0000   -0.0002
           3   -0.0673    0.0005    0.0000   -0.0003   -0.0002   -0.0000   -0.0002   -0.0000
           4    0.0002    0.0000   -0.0048   -0.0047   -0.0000   -0.0187   -0.0008    0.0221
           5   -0.0001   -0.0000   -0.0027   -0.0027    0.0000    0.0070    0.0003   -0.0075
           6    0.0001    0.0001   -0.0303   -0.0301   -0.0000    0.0009    0.0000   -0.0009
           7    0.0002   -0.0000    0.0007   -0.0006   -0.0000    0.0127    0.0005    0.0115
           8    0.0001    0.0000    0.0005   -0.0005    0.0000    0.0192    0.0008    0.0162
           9    0.0001   -0.0000    0.0307   -0.0306   -0.0000   -0.0012   -0.0000   -0.0010
          10   -0.0001   -0.0167   -0.0000   -0.0000    0.0044    0.0000   -0.0002    0.0000
          11   -0.0000   -0.0077   -0.0000   -0.0000    0.0381   -0.0000   -0.0013    0.0000
          12   -0.0003   -0.0566   -0.0001   -0.0001   -0.0112   -0.0000    0.0010   -0.0000
          13   -0.0008   -0.0001    0.0001    0.0000   -0.0003   -0.0002   -0.0003    0.0002
          14    0.0010    0.0001    0.0003    0.0001   -0.0004   -0.0005   -0.0001   -0.0001
          15   -0.0005   -0.0003   -0.0001   -0.0002    0.0002    0.0001    0.0001    0.0000
          16   -0.0002   -0.0000    0.0001    0.0000   -0.0000    0.0006    0.0001    0.0001
          17   -0.0012    0.0000   -0.0001   -0.0000   -0.0000   -0.0002    0.0001    0.0002
          18   -0.0002   -0.0000    0.0000   -0.0001    0.0000   -0.0000   -0.0001   -0.0000
          19   -0.0002    0.0006   -0.0002   -0.0002    0.0031    0.0000   -0.0008    0.0003
          20   -0.0007   -0.0011   -0.0001   -0.0001   -0.0015    0.0001    0.0007   -0.0002
          21    0.0001    0.0004    0.0000   -0.0000    0.0005   -0.0000   -0.0004    0.0001
          22    0.0007    0.0000   -0.0000   -0.0000   -0.0001   -0.0007    0.0260    0.0001
          23    0.0008    0.0001   -0.0000    0.0000   -0.0000    0.0007   -0.0268   -0.0001
          24   -0.0010   -0.0003    0.0000    0.0000    0.0001    0.0002   -0.0064   -0.0000
          25   -0.0000   -0.0006   -0.0000   -0.0000   -0.0034    0.0006   -0.0240    0.0000
          26   -0.0008   -0.0008    0.0000   -0.0000   -0.0007    0.0002   -0.0074    0.0000
          27    0.0000    0.0007    0.0000    0.0000    0.0025   -0.0004    0.0186   -0.0000
          28   -0.0002    0.0000   -0.0000   -0.0000   -0.0000   -0.0001    0.0011   -0.0000
          29    0.0003   -0.0000    0.0000    0.0000    0.0000    0.0000   -0.0000    0.0000
          30   -0.0002    0.0000    0.0001   -0.0001    0.0000   -0.0000   -0.0000   -0.0000
          31    0.2803   -0.0013   -0.0000    0.0006    0.0007    0.0000    0.0007    0.0001
          32    0.1883   -0.0012    0.0001    0.0004    0.0006   -0.0001   -0.0004    0.0001
          33    0.8284   -0.0035   -0.0001    0.0017    0.0018    0.0001    0.0002    0.0007
          34    0.0011    0.0005   -0.0989   -0.0997    0.0001    0.0619    0.0025   -0.0726
          35   -0.0006   -0.0002    0.0663    0.0703   -0.0001   -0.0476   -0.0020    0.0570
          36   -0.0025   -0.0009    0.2272    0.2251   -0.0004   -0.1788   -0.0073    0.2103
          37   -0.0006   -0.0007    0.1549    0.1546    0.0005    0.1612    0.0066   -0.1914
          38    0.0003    0.0001   -0.0332   -0.0367   -0.0001   -0.0320   -0.0013    0.0398
          39   -0.0005   -0.0006    0.1378    0.1360    0.0005    0.1675    0.0069   -0.1990
          40    0.0013   -0.0001    0.0774   -0.0763   -0.0000   -0.0785   -0.0031   -0.0680
          41    0.0015   -0.0001    0.1134   -0.1172   -0.0001   -0.1175   -0.0046   -0.1039
          42   -0.0024    0.0002   -0.1786    0.1783    0.0001    0.2167    0.0084    0.1901
          43   -0.0003    0.0001   -0.0860    0.0836    0.0000   -0.0763   -0.0029   -0.0663
          44   -0.0006    0.0001   -0.1202    0.1235   -0.0000   -0.1083   -0.0042   -0.0963
          45   -0.0008    0.0001   -0.1922    0.1897   -0.0000   -0.2027   -0.0079   -0.1782
          46   -0.0000    0.0401    0.0001    0.0001    0.0633    0.0001   -0.0051    0.0000
          47   -0.0010   -0.2243   -0.0003   -0.0002   -0.2479   -0.0001    0.0138   -0.0001
          48    0.0006    0.3115    0.0004    0.0002    0.4153    0.0001   -0.0195    0.0001
          49    0.0020    0.1625    0.0001    0.0001   -0.1166    0.0001    0.0024   -0.0001
          50    0.0044    0.3248    0.0004    0.0003   -0.2079    0.0001    0.0052   -0.0001
          51    0.0042    0.3706    0.0004    0.0003   -0.2842    0.0000    0.0082   -0.0001
          52   -0.0018   -0.0008    0.0000    0.0000    0.0030    0.0080   -0.3110   -0.0007
          53   -0.0003   -0.0001   -0.0000   -0.0001   -0.0035   -0.0080    0.3114    0.0007
          54   -0.0016   -0.0004   -0.0000   -0.0000   -0.0004   -0.0021    0.0807    0.0002
          55   -0.0024    0.0073   -0.0000    0.0000    0.0343   -0.0067    0.2871   -0.0003
          56   -0.0010    0.0043   -0.0000   -0.0000    0.0142   -0.0021    0.0917   -0.0001
          57    0.0006   -0.0085    0.0000   -0.0000   -0.0276    0.0052   -0.2247    0.0002
          58    0.0016   -0.0091    0.0011    0.0010   -0.0301   -0.0011    0.0125   -0.0025
          59   -0.0016    0.0076   -0.0009   -0.0008    0.0221    0.0003   -0.0080    0.0021
          60   -0.0006   -0.0046    0.0005    0.0005   -0.0081   -0.0003    0.0031   -0.0007
          61   -0.0012    0.0000   -0.0001   -0.0001    0.0001    0.0000   -0.0126   -0.0001
          62   -0.0004   -0.0000   -0.0000   -0.0000    0.0000   -0.0001   -0.0003   -0.0001
          63    0.0008   -0.0000    0.0004   -0.0004   -0.0000   -0.0000   -0.0001   -0.0000
          64    0.0004   -0.0000    0.0001   -0.0000   -0.0000    0.0008    0.0006    0.0004
          65    0.0011    0.0000    0.0001    0.0001   -0.0000    0.0010    0.0005    0.0002
          66   -0.0011    0.0000   -0.0002    0.0002   -0.0000    0.0000    0.0000   -0.0000


   Root No.      57        58        59        60

                57 A      58 A      59 A      60 A   

                3071.0    3073.3    3138.8    3144.0
  
           1    0.0001    0.0001   -0.0002   -0.0002
           2   -0.0000   -0.0005    0.0003    0.0005
[...]
 EFFECTIVE MASS      6.7437
 FORCE CONSTANT      0.9163

 VIBRATION         43   43A           ATOM PAIR      ENERGY CONTRIBUTION    RADIAL
 FREQUENCY          1409.12         C  4 -- C  7         +13.6% ( 49.7%)     95.4%
 TRANSITION DIPOLE   0.0991         C  4 -- C  9          +9.6% ( 41.8%)     47.9%
 TRAVEL (Ang.)       0.2506         C  4 -- H 16          +9.3% ( 41.1%)      1.1%
 REDUCED MASS        0.7622         C  4 -- H 17          +8.6% ( 39.6%)      0.8%
 EFFECTIVE MASS      6.8233
 FORCE CONSTANT      0.8917

 VIBRATION         44   44A           ATOM PAIR      ENERGY CONTRIBUTION    RADIAL
 FREQUENCY          1420.96         C  2 -- C  5         +15.3% ( 57.3%)     69.7%
 TRANSITION DIPOLE   0.0351         C  1 -- C  5         +11.2% ( 48.9%)     97.4%
 TRAVEL (Ang.)       0.1886         C  2 -- C  3          +9.7% ( 45.7%)      4.2%
 REDUCED MASS        1.3339         C  2 -- H 12          +9.7% ( 45.7%)      5.8%
 EFFECTIVE MASS      9.0828
 FORCE CONSTANT      1.5869

 VIBRATION         45   45A           ATOM PAIR      ENERGY CONTRIBUTION    RADIAL
 FREQUENCY          1463.91         C  1 -- C  8         +17.4% ( 66.2%)     92.3%
 TRANSITION DIPOLE   0.1485         C  1 -- C  5         +15.6% ( 62.7%)     52.1%
 TRAVEL (Ang.)       0.1398         C  1 -- C  6         +13.6% ( 58.6%)     38.3%
 REDUCED MASS        2.3580         C  1 -- H 11         +10.9% ( 52.5%)      0.1%
 EFFECTIVE MASS     11.2246
 FORCE CONSTANT      2.9773

 VIBRATION         46   46A           ATOM PAIR      ENERGY CONTRIBUTION    RADIAL
 FREQUENCY          1860.15         C  8 -- C  9         +41.4% ( 95.4%)    100.0%
 TRANSITION DIPOLE   0.1936         C  4 -- C  9         +13.2% ( 53.8%)     50.2%
 TRAVEL (Ang.)       0.0874         C  1 -- C  8         +13.0% ( 53.4%)     48.6%
 REDUCED MASS        4.7483         C  9 -- H 19         +12.2% ( 51.8%)      5.1%
 EFFECTIVE MASS     11.8903         C  8 -- H 18         +12.1% ( 51.4%)      5.6%
 FORCE CONSTANT      9.6801

 VIBRATION         47   47A           ATOM PAIR      ENERGY CONTRIBUTION    RADIAL
 FREQUENCY          1900.53         C  6 -- C 10         +33.5% ( 86.3%)    100.0%
 TRANSITION DIPOLE   0.2680         C  1 -- C  6         +14.1% ( 55.9%)     44.5%
 TRAVEL (Ang.)       0.1014         C  3 -- C  6         +13.6% ( 54.9%)     36.5%
 REDUCED MASS        3.4534         C  5 -- C  7          +8.2% ( 42.8%)     99.1%
 EFFECTIVE MASS     11.8968
 FORCE CONSTANT      7.3493

 VIBRATION         48   48A           ATOM PAIR      ENERGY CONTRIBUTION    RADIAL
 FREQUENCY          1932.96         C  5 -- C  7         +33.6% ( 85.3%)     99.2%
 TRANSITION DIPOLE   0.1770         C  2 -- C  5         +13.4% ( 53.9%)     51.0%
 TRAVEL (Ang.)       0.0977         C  1 -- C  5         +12.8% ( 52.6%)     28.3%
 REDUCED MASS        3.6531         C  6 -- C 10          +9.7% ( 46.0%)    100.0%
 EFFECTIVE MASS     11.9145
 FORCE CONSTANT      8.0418

 VIBRATION         49   49A           ATOM PAIR      ENERGY CONTRIBUTION    RADIAL
 FREQUENCY          2839.95         C  1 -- H 11         +97.1% (100.0%)    100.0%
 TRANSITION DIPOLE   0.1150         C  1 -- C  6          +0.9% (  9.9%)      9.0%
 TRAVEL (Ang.)       0.1598         C  1 -- C  8          +0.9% (  9.9%)      7.5%
 REDUCED MASS        0.9298         C  1 -- C  5          +0.9% (  9.9%)     10.0%
 EFFECTIVE MASS      1.4281
 FORCE CONSTANT      4.4181

 VIBRATION         50   50A           ATOM PAIR      ENERGY CONTRIBUTION    RADIAL
 FREQUENCY          2938.00         C  4 -- H 17         +61.8% ( 81.5%)     97.7%
 TRANSITION DIPOLE   0.0374         C  4 -- H 16         +36.0% ( 62.2%)     94.8%
 TRAVEL (Ang.)       0.2042         C  4 -- C  7          +1.1% ( 10.8%)      0.3%
 REDUCED MASS        0.5503         C  4 -- C  9          +1.1% ( 10.8%)      0.2%
 EFFECTIVE MASS      1.5327
 FORCE CONSTANT      2.7988

 VIBRATION         51   51A           ATOM PAIR      ENERGY CONTRIBUTION    RADIAL
 FREQUENCY          2966.58         C  2 -- H 12         +28.8% ( 55.9%)     97.3%
 TRANSITION DIPOLE   0.0111         C  3 -- H 15         +26.0% ( 53.1%)     96.7%
 TRAVEL (Ang.)       0.2934         C  3 -- H 14         +22.7% ( 49.6%)     96.0%
 REDUCED MASS        0.2640         C  2 -- H 13         +20.0% ( 46.6%)     95.3%
 EFFECTIVE MASS      1.5527
 FORCE CONSTANT      1.3687

 VIBRATION         52   52A           ATOM PAIR      ENERGY CONTRIBUTION    RADIAL
 FREQUENCY          2981.05         C  2 -- H 12         +28.9% ( 55.6%)     97.6%
 TRANSITION DIPOLE   0.0685         C  3 -- H 15         +25.9% ( 52.7%)     97.0%
 TRAVEL (Ang.)       0.2930         C  3 -- H 14         +23.1% ( 49.7%)     96.3%
 REDUCED MASS        0.2634         C  2 -- H 13         +20.0% ( 46.2%)     95.5%
 EFFECTIVE MASS      1.5270
 FORCE CONSTANT      1.3792

 VIBRATION         53   53A           ATOM PAIR      ENERGY CONTRIBUTION    RADIAL
 FREQUENCY          3018.20         C  4 -- H 16         +62.6% ( 78.1%)     98.9%
 TRANSITION DIPOLE   0.0885         C  4 -- H 17         +35.0% ( 58.4%)     95.3%
 TRAVEL (Ang.)       0.2100         C  4 -- C  9          +0.7% (  8.2%)     21.6%
 REDUCED MASS        0.5068         C  4 -- C  7          +0.7% (  8.2%)     23.0%
 EFFECTIVE MASS      1.2893
 FORCE CONSTANT      2.7199

 VIBRATION         54   54A           ATOM PAIR      ENERGY CONTRIBUTION    RADIAL
 FREQUENCY          3050.88         C  3 -- H 14         +30.2% ( 54.3%)     98.0%
 TRANSITION DIPOLE   0.0632         C  3 -- H 15         +26.3% ( 50.6%)     97.2%
 TRAVEL (Ang.)       0.2971         C  2 -- H 13         +25.1% ( 49.4%)     98.5%
 REDUCED MASS        0.2504         C  2 -- H 12         +17.0% ( 40.6%)     96.1%
 EFFECTIVE MASS      1.2850
 FORCE CONSTANT      1.3733

 VIBRATION         55   55A           ATOM PAIR      ENERGY CONTRIBUTION    RADIAL
 FREQUENCY          3052.46         C  8 -- H 18         +57.0% ( 76.6%)    100.0%
 TRANSITION DIPOLE   0.3020         C  9 -- H 19         +40.2% ( 64.4%)    100.0%
 TRAVEL (Ang.)       0.2156         C  8 -- C  9          +1.1% ( 10.6%)      0.7%
 REDUCED MASS        0.4751         C  1 -- C  8          +0.8% (  9.0%)     19.8%
 EFFECTIVE MASS      1.4590
 FORCE CONSTANT      2.6081

 VIBRATION         56   56A           ATOM PAIR      ENERGY CONTRIBUTION    RADIAL
 FREQUENCY          3054.86         C  2 -- H 13         +34.1% ( 57.5%)     98.6%
 TRANSITION DIPOLE   0.1109         C  2 -- H 12         +22.6% ( 46.8%)     96.1%
 TRAVEL (Ang.)       0.2952         C  3 -- H 14         +22.4% ( 46.6%)     98.0%
 REDUCED MASS        0.2533         C  3 -- H 15         +19.6% ( 43.6%)     97.2%
 EFFECTIVE MASS      1.2824
 FORCE CONSTANT      1.3925

 VIBRATION         57   57A           ATOM PAIR      ENERGY CONTRIBUTION    RADIAL
 FREQUENCY          3071.05         C  7 -- H 20         +62.1% ( 80.0%)    100.0%
 TRANSITION DIPOLE   0.3842         C  9 -- H 19         +19.2% ( 44.5%)     99.9%
 TRAVEL (Ang.)       0.2229         C  8 -- H 18         +15.4% ( 39.8%)     99.9%
 REDUCED MASS        0.4421         C  5 -- C  7          +1.0% ( 10.2%)     40.6%
 EFFECTIVE MASS      1.5416
 FORCE CONSTANT      2.4565

 VIBRATION         58   58A           ATOM PAIR      ENERGY CONTRIBUTION    RADIAL
 FREQUENCY          3073.28         C  9 -- H 19         +36.9% ( 61.7%)     99.9%
 TRANSITION DIPOLE   0.2322         C  7 -- H 20         +34.3% ( 59.4%)    100.0%
 TRAVEL (Ang.)       0.2645         C  8 -- H 18         +24.4% ( 50.2%)     99.9%
 REDUCED MASS        0.3137         C  8 -- C  9          +1.3% ( 11.7%)     98.1%
 EFFECTIVE MASS      1.5801
 FORCE CONSTANT      1.7458

 VIBRATION         59   59A           ATOM PAIR      ENERGY CONTRIBUTION    RADIAL
 FREQUENCY          3138.78         C 10 -- H 21         +96.2% ( 99.0%)     99.9%
 TRANSITION DIPOLE   0.2701         C 10 -- H 22          +2.3% ( 15.2%)      5.4%
 TRAVEL (Ang.)       0.1547         C  6 -- C 10          +1.5% ( 12.2%)     54.4%
 REDUCED MASS        0.8974
 EFFECTIVE MASS      1.4730
 FORCE CONSTANT      5.2089

 VIBRATION         60   60A           ATOM PAIR      ENERGY CONTRIBUTION    RADIAL
 FREQUENCY          3143.96         C 10 -- H 22         +95.8% ( 99.4%)    100.0%
 TRANSITION DIPOLE   0.2617         C 10 -- H 21          +2.8% ( 17.1%)     48.8%
 TRAVEL (Ang.)       0.1535         C  6 -- C 10          +1.4% ( 11.9%)     30.6%
 REDUCED MASS        0.9105
 EFFECTIVE MASS      1.5216
 FORCE CONSTANT      5.3026

      SYMMETRY NUMBER FOR POINT-GROUP C1  =  1


          SYSTEM IS A GROUND STATE



 InChI=1S/C10H12/c1-8-6-7-9-4-2-3-5-10(8)9/h3-5,10H,1-2,6-7H2


          MOLECULE IS NOT LINEAR

          THERE ARE 60 GENUINE VIBRATIONS IN THIS SYSTEM
          THIS THERMODYNAMICS CALCULATION IS LIMITED TO
          MOLECULES WHICH HAVE NO INTERNAL ROTATIONS




                    CALCULATED THERMODYNAMIC PROPERTIES
                                          *
   TEMP. (K)   PARTITION FUNCTION   H.O.F.    ENTHALPY  HEAT CAPACITY ENTROPY
                                   KCAL/MOL   CAL/MOLE    CAL/K/MOL  CAL/K/MOL


 298.00  VIB.     0.7854D+02                  3565.7568    28.6029    20.6370
         ROT.     0.5427D+06                   888.2803     2.9808    29.2204
         INT.     0.4262D+08                  4454.0371    31.5837    49.8574
         TRA.     0.1470D+28                  1480.4672     4.9680    40.5480
         TOT.                       31.959    5934.5042    36.5517    90.4053

 200.00  VIB.     0.1238D+02                  1389.8644    16.1128    11.9485
         ROT.     0.2984D+06                   596.1613     2.9808    28.0317
         INT.     0.3692D+07                  1986.0257    19.0937    39.9802
         TRA.     0.8080D+27                   993.6021     4.9680    38.5668
         TOT.                       29.004    2979.6278    24.0617    78.5471

 210.00  VIB.     0.1476D+02                  1556.8039    17.2808    12.7628
         ROT.     0.3210D+06                   625.9693     2.9808    28.1771
         INT.     0.4738D+07                  2182.7733    20.2617    40.9399
         TRA.     0.8694D+27                  1043.2822     4.9680    38.8092
         TOT.                       29.251    3226.0555    25.2297    79.7492

 220.00  VIB.     0.1765D+02                  1735.5927    18.4822    13.5943
         ROT.     0.3442D+06                   655.7774     2.9808    28.3158
         INT.     0.6077D+07                  2391.3701    21.4630    41.9101
         TRA.     0.9322D+27                  1092.9623     4.9680    39.0403
         TOT.                       29.509    3484.3325    26.4311    80.9504

 230.00  VIB.     0.2118D+02                  1926.5499    19.7140    14.4430
         ROT.     0.3680D+06                   685.5855     2.9808    28.4483
         INT.     0.7792D+07                  2612.1354    22.6948    42.8912
         TRA.     0.9965D+27                  1142.6424     4.9680    39.2612
         TOT.                       29.779    3754.7778    27.6628    82.1524

 240.00  VIB.     0.2547D+02                  2129.9617    20.9726    15.3085
         ROT.     0.3922D+06                   715.3935     2.9808    28.5752
         INT.     0.9990D+07                  2845.3552    23.9534    43.8836
         TRA.     0.1062D+28                  1192.3226     4.9680    39.4726
         TOT.                       30.062    4037.6778    28.9214    83.3562

 250.00  VIB.     0.3072D+02                  2346.0780    22.2542    16.1905
         ROT.     0.4170D+06                   745.2016     2.9808    28.6968
         INT.     0.1281D+08                  3091.2796    25.2350    44.8874
         TRA.     0.1129D+28                  1242.0027     4.9680    39.6754
         TOT.                       30.358    4333.2822    30.2030    84.5628

 260.00  VIB.     0.3716D+02                  2575.1101    23.5550    17.0886
         ROT.     0.4423D+06                   775.0097     2.9808    28.8137
         INT.     0.1644D+08                  3350.1198    26.5359    45.9024
         TRA.     0.1198D+28                  1291.6828     4.9680    39.8703
         TOT.                       30.667    4641.8025    31.5039    85.7727

 270.00  VIB.     0.4508D+02                  2817.2294    24.8710    18.0023
         ROT.     0.4680D+06                   804.8177     2.9808    28.9262
         INT.     0.2110D+08                  3622.0471    27.8518    46.9285
         TRA.     0.1267D+28                  1341.3629     4.9680    40.0578
         TOT.                       30.988    4963.4100    32.8198    86.9863

 280.00  VIB.     0.5483D+02                  3072.5673    26.1981    18.9307
         ROT.     0.4943D+06                   834.6258     2.9808    29.0346
         INT.     0.2710D+08                  3907.1931    29.1789    47.9654
         TRA.     0.1338D+28                  1391.0430     4.9680    40.2384
         TOT.                       31.323    5298.2361    34.1469    88.2038

 290.00  VIB.     0.6687D+02                  3341.2161    27.5325    19.8733
         ROT.     0.5210D+06                   864.4339     2.9808    29.1392
         INT.     0.3484D+08                  4205.6500    30.5133    49.0125
         TRA.     0.1411D+28                  1440.7231     4.9680    40.4128
         TOT.                       31.671    5646.3730    35.4814    89.4253

 300.00  VIB.     0.8178D+02                  3623.2302    28.8706    20.8292
         ROT.     0.5481D+06                   894.2419     2.9808    29.2403
         INT.     0.4483D+08                  4517.4721    31.8514    50.0695
         TRA.     0.1484D+28                  1490.4032     4.9680    40.5812
         TOT.                       32.033    6007.8753    36.8194    90.6507

 310.00  VIB.     0.1003D+03                  3918.6284    30.2088    21.7977
         ROT.     0.5758D+06                   924.0500     2.9808    29.3380
         INT.     0.5774D+08                  4842.6784    33.1896    51.1358
         TRA.     0.1559D+28                  1540.0833     4.9680    40.7441
         TOT.                       32.407    6382.7617    38.1576    91.8799

 320.00  VIB.     0.1233D+03                  4227.3962    31.5440    22.7779
         ROT.     0.6039D+06                   953.8580     2.9808    29.4327
         INT.     0.7444D+08                  5181.2542    34.5248    52.2106
         TRA.     0.1635D+28                  1589.7634     4.9680    40.9018
         TOT.                       32.796    6771.0176    39.4928    93.1124

 330.00  VIB.     0.1519D+03                  4549.4883    32.8732    23.7689
         ROT.     0.6324D+06                   983.6661     2.9808    29.5244
         INT.     0.9608D+08                  5533.1544    35.8540    53.2933
         TRA.     0.1713D+28                  1639.4435     4.9680    41.0547
         TOT.                       33.197    7172.5979    40.8220    94.3480

 340.00  VIB.     0.1877D+03                  4884.8318    34.1939    24.7699
         ROT.     0.6613D+06                  1013.4742     2.9808    29.6134
         INT.     0.1241D+09                  5898.3060    37.1747    54.3833
         TRA.     0.1791D+28                  1689.1236     4.9680    41.2030
         TOT.                       33.612    7587.4296    42.1427    95.5863

 350.00  VIB.     0.2325D+03                  5233.3288    35.5035    25.7801
         ROT.     0.6907D+06                  1043.2822     2.9808    29.6998
         INT.     0.1606D+09                  6276.6111    38.4844    55.4799
         TRA.     0.1871D+28                  1738.8037     4.9680    41.3470
         TOT.                       34.040    8015.4148    43.4524    96.8269

 360.00  VIB.     0.2885D+03                  5594.8594    36.8002    26.7984
         ROT.     0.7206D+06                  1073.0903     2.9808    29.7838
         INT.     0.2079D+09                  6667.9497    39.7811    56.5822
         TRA.     0.1951D+28                  1788.4838     4.9680    41.4870
         TOT.                       34.481    8456.4335    44.7491    98.0692

 370.00  VIB.     0.3589D+03                  5969.2844    38.0822    27.8242
         ROT.     0.7508D+06                  1102.8984     2.9808    29.8654
         INT.     0.2695D+09                  7072.1827    41.0630    57.6897
         TRA.     0.2033D+28                  1838.1639     4.9680    41.6231
         TOT.                       34.935    8910.3467    46.0310    99.3128

 380.00  VIB.     0.4475D+03                  6356.4480    39.3477    28.8567
         ROT.     0.7814D+06                  1132.7064     2.9808    29.9449
         INT.     0.3497D+09                  7489.1545    42.3286    58.8016
         TRA.     0.2116D+28                  1887.8440     4.9680    41.7556
         TOT.                       35.402    9376.9985    47.2966   100.5572

 390.00  VIB.     0.5590D+03                  6756.1806    40.5957    29.8949
         ROT.     0.8125D+06                  1162.5145     2.9808    30.0224
         INT.     0.4542D+09                  7918.6951    43.5765    59.9173
         TRA.     0.2200D+28                  1937.5242     4.9680    41.8846
         TOT.                       35.881    9856.2193    48.5446   101.8019

 400.00  VIB.     0.6997D+03                  7168.3007    41.8251    30.9382
         ROT.     0.8439D+06                  1192.3226     2.9808    30.0978
         INT.     0.5905D+09                  8360.6233    44.8059    61.0361
         TRA.     0.2285D+28                  1987.2043     4.9680    42.0104
         TOT.                       36.373   10347.8275    49.7739   103.0465

   *: NOTE: HEATS OF FORMATION ARE RELATIVE TO THE
            ELEMENTS IN THEIR STANDARD STATE AT 298K
              (=  Standard Enthalpy of Formation).

            Hvib:  Zero-point energy is not included.
                   frequencies of less than zero cm-1 are not included.
            Hrot = (3/2)RT
            Htra = (3/2)RT + pV = (5/2)RT

            Heat capacity is Cp, not Cv

          For more information, see: HTTP://OpenMOPAC.net/Manual/thermochemistry.html


           FORCE CONSTANT IN CARTESIAN COORDINATES (Millidynes/A)

    ATOM   CHEMICAL       X               Y               Z
   NUMBER   SYMBOL  FORCE CONSTANT  FORCE CONSTANT  FORCE CONSTANT

      1       C        9.747156        9.010969        7.896077
      2       C        9.530313        7.710667        8.122070
      3       C        8.518311        8.571839        8.080259
      4       C        8.884535        8.959481        8.001603
      5       C        9.127017       14.565192        4.869991
      6       C       11.236435       13.933160        2.789042
      7       C        9.643206       13.032785        4.633470
      8       C        7.616068       13.676724        5.935364
      9       C        7.785142       13.212862        6.106722
     10       C       11.315219       13.313871        1.953830
     11       H        0.976159        0.783910        3.912165
     12       H        1.214711        0.978204        4.151176
     13       H        2.874116        0.807682        2.747892
     14       H        1.107451        1.715678        3.568190
     15       H        1.149935        1.696142        3.526772
     16       H        0.772025        1.879649        3.646791
     17       H        1.035114        2.181597        2.909742
     18       H        2.747908        2.856674        0.639398
     19       H        3.200795        0.986366        2.075146
     20       H        3.780111        1.887618        0.599326
     21       H        5.403242        0.696136        0.331144
     22       H        1.352267        4.758259        0.330144

 **********************
 *                    *
 * JOB ENDED NORMALLY *
 *                    *
 **********************



 TOTAL JOB TIME:             2.67 SECONDS

 == MOPAC DONE ==
