 *******************************************************************************
 **                                                                           **
 **                              MOPAC v23.1.2                                **
 **                                                                           **
 *******************************************************************************
 **          Digital Object Identifier (DOI): 10.5281/zenodo.6511958          **
 **    Visit the DOI location for information on how to cite this program.    **
 *******************************************************************************

                              PM3 CALCULATION RESULTS

 *******************************************************************************
 *  CALCULATION DONE: (MAX THREADS = 1)              Tue Jun  3 16:28:19 2025  *
 *  PM3        - The PM3 Hamiltonian to be used
 *  PRECISE    - TIGHTER CRITERIA TO BE USED
 *  NOSYM      - POINT-GROUP SYMMETRY SET TO C1
 *  THREADS=1  - MULTI-THREADING NOT USED
 *  T=         - A TIME OF 172800.0 SECONDS REQUESTED
 *  DUMP=N     - RESTART FILE WRITTEN EVERY 7200.0 SECONDS REQUESTED
 *******************************************************************************
pm3  precise nosym THREADS=1
 InChI=1S/C7H10/c1-2-4-6-7-5-3-1/h1-4H,5-7H2

   ATOM   CHEMICAL          X               Y               Z
  NUMBER   SYMBOL      (ANGSTROMS)     (ANGSTROMS)     (ANGSTROMS)

     1       C         -1.47430000  *   0.28920000  *   0.00970000  *
     2       C         -0.45670000  *   1.17490000  *   0.75200000  *
     3       C         -0.87620000  *  -0.91340000  *  -0.74320000  *
     4       C          0.82950000  *   1.38150000  *  -0.00350000  *
     5       C          0.24610000  *  -1.59250000  *  -0.00360000  *
     6       C          1.71230000  *   0.39270000  *  -0.19690000  *
     7       C          1.43940000  *  -1.01100000  *   0.17610000  *
     8       H         -2.03060000  *   0.91510000  *  -0.72180000  *
     9       H         -2.21650000  *  -0.08200000  *   0.74980000  *
    10       H         -0.92260000  *   2.16400000  *   0.95070000  *
    11       H         -0.22520000  *   0.72290000  *   1.74150000  *
    12       H         -0.50370000  *  -0.57990000  *  -1.73670000  *
    13       H         -1.68370000  *  -1.65270000  *  -0.93350000  *
    14       H          1.09990000  *   2.38800000  *  -0.29840000  *
    15       H          0.11990000  *  -2.62730000  *   0.29030000  *
    16       H          2.25540000  *  -1.60370000  *   0.56940000  *
    17       H          2.68670000  *   0.63420000  *  -0.60190000  *



          CARTESIAN COORDINATES 

    NO.       ATOM           X           Y           Z

     1         C         -1.4743      0.2892      0.0097
     2         C         -0.4567      1.1749      0.7520
     3         C         -0.8762     -0.9134     -0.7432
     4         C          0.8295      1.3815     -0.0035
     5         C          0.2461     -1.5925     -0.0036
     6         C          1.7123      0.3927     -0.1969
     7         C          1.4394     -1.0110      0.1761
     8         H         -2.0306      0.9151     -0.7218
     9         H         -2.2165     -0.0820      0.7498
    10         H         -0.9226      2.1640      0.9507
    11         H         -0.2252      0.7229      1.7415
    12         H         -0.5037     -0.5799     -1.7367
    13         H         -1.6837     -1.6527     -0.9335
    14         H          1.0999      2.3880     -0.2984
    15         H          0.1199     -2.6273      0.2903
    16         H          2.2554     -1.6037      0.5694
    17         H          2.6867      0.6342     -0.6019

  H: (PM3): J. J. P. STEWART, J. COMP. CHEM. 10, 209 (1989).
  C: (PM3): J. J. P. STEWART, J. COMP. CHEM. 10, 209 (1989).

           Empirical Formula: C7 H10  =    17 atoms



      MOLECULAR POINT GROUP   :   C1  


      RHF CALCULATION, NO. OF DOUBLY OCCUPIED LEVELS = 19


          Geometry optimization using EF

          DIAGONAL MATRIX USED AS START HESSIAN

 CYCLE:     1 TIME:   0.004 TIME LEFT:  2.00D  GRAD.:    61.734 HEAT:  22.67424
 CYCLE:     2 TIME:   0.012 TIME LEFT:  2.00D  GRAD.:    36.195 HEAT:  21.65214
 CYCLE:     3 TIME:   0.004 TIME LEFT:  2.00D  GRAD.:    25.321 HEAT:  21.25857
 CYCLE:     4 TIME:   0.008 TIME LEFT:  2.00D  GRAD.:    27.264 HEAT:  21.14999
 CYCLE:     5 TIME:   0.004 TIME LEFT:  2.00D  GRAD.:    23.144 HEAT:  21.04043
 CYCLE:     6 TIME:   0.008 TIME LEFT:  2.00D  GRAD.:    16.804 HEAT:  20.94968
 CYCLE:     7 TIME:   0.004 TIME LEFT:  2.00D  GRAD.:    19.172 HEAT:  20.89275
 CYCLE:     8 TIME:   0.004 TIME LEFT:  2.00D  GRAD.:    17.056 HEAT:  20.85521
 CYCLE:     9 TIME:   0.008 TIME LEFT:  2.00D  GRAD.:    10.587 HEAT:  20.78814
 CYCLE:    10 TIME:   0.008 TIME LEFT:  2.00D  GRAD.:     7.794 HEAT:  20.76939
 CYCLE:    11 TIME:   0.004 TIME LEFT:  2.00D  GRAD.:     4.252 HEAT:  20.75114
 CYCLE:    12 TIME:   0.008 TIME LEFT:  2.00D  GRAD.:     5.741 HEAT:  20.74272
 CYCLE:    13 TIME:   0.004 TIME LEFT:  2.00D  GRAD.:     4.882 HEAT:  20.73586
 CYCLE:    14 TIME:   0.008 TIME LEFT:  2.00D  GRAD.:     3.040 HEAT:  20.73070
 CYCLE:    15 TIME:   0.004 TIME LEFT:  2.00D  GRAD.:     1.766 HEAT:  20.72594
 CYCLE:    16 TIME:   0.004 TIME LEFT:  2.00D  GRAD.:     5.747 HEAT:  20.72664
 CYCLE:    17 TIME:   0.008 TIME LEFT:  2.00D  GRAD.:     2.729 HEAT:  20.71649
 CYCLE:    18 TIME:   0.004 TIME LEFT:  2.00D  GRAD.:     5.631 HEAT:  20.71965
 CYCLE:    19 TIME:   0.004 TIME LEFT:  2.00D  GRAD.:     1.650 HEAT:  20.70894
 CYCLE:    20 TIME:   0.008 TIME LEFT:  2.00D  GRAD.:     1.813 HEAT:  20.70582
 CYCLE:    21 TIME:   0.004 TIME LEFT:  2.00D  GRAD.:     1.717 HEAT:  20.70227
 CYCLE:    22 TIME:   0.004 TIME LEFT:  2.00D  GRAD.:     2.539 HEAT:  20.70133
 CYCLE:    23 TIME:   0.004 TIME LEFT:  2.00D  GRAD.:     1.195 HEAT:  20.69872
 CYCLE:    24 TIME:   0.008 TIME LEFT:  2.00D  GRAD.:     1.530 HEAT:  20.69741
 CYCLE:    25 TIME:   0.004 TIME LEFT:  2.00D  GRAD.:     1.346 HEAT:  20.69484
 CYCLE:    26 TIME:   0.004 TIME LEFT:  2.00D  GRAD.:     1.425 HEAT:  20.69151
 CYCLE:    27 TIME:   0.004 TIME LEFT:  2.00D  GRAD.:     1.252 HEAT:  20.69049
 CYCLE:    28 TIME:   0.004 TIME LEFT:  2.00D  GRAD.:     0.801 HEAT:  20.68934
 CYCLE:    29 TIME:   0.004 TIME LEFT:  2.00D  GRAD.:     0.795 HEAT:  20.68805
 CYCLE:    30 TIME:   0.004 TIME LEFT:  2.00D  GRAD.:     0.653 HEAT:  20.68735
 CYCLE:    31 TIME:   0.004 TIME LEFT:  2.00D  GRAD.:     0.490 HEAT:  20.68665
 CYCLE:    32 TIME:   0.008 TIME LEFT:  2.00D  GRAD.:     0.391 HEAT:  20.68605
 CYCLE:    33 TIME:   0.004 TIME LEFT:  2.00D  GRAD.:     0.295 HEAT:  20.68585
 CYCLE:    34 TIME:   0.004 TIME LEFT:  2.00D  GRAD.:     0.248 HEAT:  20.68569
 CYCLE:    35 TIME:   0.000 TIME LEFT:  2.00D  GRAD.:     0.228 HEAT:  20.68558
 CYCLE:    36 TIME:   0.008 TIME LEFT:  2.00D  GRAD.:     0.141 HEAT:  20.68550
 CYCLE:    37 TIME:   0.004 TIME LEFT:  2.00D  GRAD.:     0.071 HEAT:  20.68548
 CYCLE:    38 TIME:   0.004 TIME LEFT:  2.00D  GRAD.:     0.039 HEAT:  20.68547

     GRADIENT =  0.03870 IS LESS THAN CUTOFF =  0.05000



 -------------------------------------------------------------------------------
 pm3  precise nosym THREADS=1
 InChI=1S/C7H10/c1-2-4-6-7-5-3-1/h1-4H,5-7H2



     GEOMETRY OPTIMISED USING EIGENVECTOR FOLLOWING (EF).     
     SCF FIELD WAS ACHIEVED                                   


                              PM3 CALCULATION
                                                       MOPAC v23.1.2 MacOS
                                                       Tue Jun  3 16:28:20 2025




          FINAL HEAT OF FORMATION =         20.68547 KCAL/MOL =      86.54801 KJ/MOL


          COSMO AREA              =        138.36 SQUARE ANGSTROMS
          COSMO VOLUME            =        134.04 CUBIC ANGSTROMS

          GRADIENT NORM           =          0.03870          =       0.00939 PER ATOM
          IONIZATION POTENTIAL    =          9.305386 EV
          HOMO LUMO ENERGIES (EV) =         -9.305  0.464
          NO. OF FILLED LEVELS    =         19
          MOLECULAR WEIGHT        =         94.1560         POINT GROUP:  C1  

          MOLECULAR DIMENSIONS (Angstroms)

            Atom       Atom       Distance
            H    15    H    14     5.13816
            H    17    H     9     4.82924
            H    12    H    11     3.46510


          SCF CALCULATIONS        =         46

          WALL-CLOCK TIME         =      0.211 SECONDS
          COMPUTATION TIME        =      0.125 SECONDS




   ATOM   CHEMICAL          X               Y               Z
  NUMBER   SYMBOL      (ANGSTROMS)     (ANGSTROMS)     (ANGSTROMS)

     1       C         -1.46223908  *   0.28707224  *   0.00929770  *
     2       C         -0.45237811  *   1.16095406  *   0.74355617  *
     3       C         -0.86712769  *  -0.90256198  *  -0.73454298  *
     4       C          0.82914833  *   1.37019438  *   0.01560466  *
     5       C          0.24988086  *  -1.58171471  *  -0.02248756  *
     6       C          1.70315943  *   0.38103970  *  -0.20443866  *
     7       C          1.43554426  *  -0.99651191  *   0.18358339  *
     8       H         -2.03048545  *   0.90200037  *  -0.71683879  *
     9       H         -2.21278455  *  -0.06838584  *   0.74322999  *
    10       H         -0.91904666  *   2.13849936  *   0.97384188  *
    11       H         -0.21860517  *   0.70363131  *   1.72763035  *
    12       H         -0.49114528  *  -0.56599445  *  -1.72324800  *
    13       H         -1.67144639  *  -1.63108294  *  -0.95524451  *
    14       H          1.05791828  *   2.39272934  *  -0.30345626  *
    15       H          0.07971650  *  -2.61564778  *   0.29648028  *
    16       H          2.26303873  *  -1.53771187  *   0.65595431  *
    17       H          2.66759335  *   0.57067095  *  -0.68885509  *

                             CARTESIAN COORDINATES

   1    C       -1.462239080     0.287072244     0.009297702
   2    C       -0.452378109     1.160954057     0.743556172
   3    C       -0.867127693    -0.902561975    -0.734542982
   4    C        0.829148327     1.370194377     0.015604662
   5    C        0.249880858    -1.581714707    -0.022487562
   6    C        1.703159432     0.381039698    -0.204438660
   7    C        1.435544263    -0.996511914     0.183583391
   8    H       -2.030485450     0.902000365    -0.716838789
   9    H       -2.212784546    -0.068385837     0.743229994
  10    H       -0.919046662     2.138499361     0.973841877
  11    H       -0.218605170     0.703631311     1.727630354
  12    H       -0.491145284    -0.565994455    -1.723247997
  13    H       -1.671446391    -1.631082936    -0.955244515
  14    H        1.057918280     2.392729337    -0.303456259
  15    H        0.079716498    -2.615647778     0.296480277
  16    H        2.263038729    -1.537711870     0.655954312
  17    H        2.667593351     0.570670947    -0.688855092


           Empirical Formula: C7 H10  =    17 atoms



      MOLECULAR POINT GROUP   :   C1  


                  EIGENVALUES  
 -40.15727 -31.73328 -31.43055 -24.63133 -22.87338 -18.94109 -17.71672 -17.59642
 -16.11828 -14.88699 -14.83532 -14.56984 -13.57539 -12.70908 -12.51776 -11.82422
 -11.39618 -10.57759  -9.30539   0.46408   1.77006   3.35733   3.52215   3.63574
   3.71704   3.76113   3.79849   4.09899   4.13863   4.42077   4.49181   4.82805
   4.83239   5.00034   5.25756   5.63666   5.92660   6.16993


              NET ATOMIC CHARGES AND DIPOLE CONTRIBUTIONS

  ATOM NO.   TYPE          CHARGE      No. of ELECS.   s-Pop       p-Pop       
    1          C          -0.077933        4.0779     1.16157     2.91636
    2          C          -0.062935        4.0629     1.14739     2.91554
    3          C          -0.062913        4.0629     1.14739     2.91552
    4          C          -0.129668        4.1297     1.19503     2.93464
    5          C          -0.129659        4.1297     1.19502     2.93463
    6          C          -0.115136        4.1151     1.18072     2.93441
    7          C          -0.115141        4.1151     1.18073     2.93442
    8          H           0.044702        0.9553     0.95530
    9          H           0.044699        0.9553     0.95530
   10          H           0.048052        0.9519     0.95195
   11          H           0.057139        0.9429     0.94286
   12          H           0.057118        0.9429     0.94288
   13          H           0.048034        0.9520     0.95197
   14          H           0.096312        0.9037     0.90369
   15          H           0.096291        0.9037     0.90371
   16          H           0.100516        0.8995     0.89948
   17          H           0.100521        0.8995     0.89948
 DIPOLE           X         Y         Z       TOTAL
 POINT-CHG.    -0.258     0.051     0.002     0.263
 HYBRID         0.032    -0.006    -0.000     0.033
 SUM           -0.226     0.044     0.001     0.230


          ATOMIC ORBITAL ELECTRON POPULATIONS

     Atom    s        px        py        pz   
    1  C   1.16157   0.97155   0.95570   0.98910
    2  C   1.14739   0.94159   0.99250   0.98145
    3  C   1.14739   0.96534   0.96819   0.98200
    4  C   1.19503   0.96226   0.98018   0.99219
    5  C   1.19502   0.95333   0.98877   0.99254
    6  C   1.18072   0.98326   0.94111   1.01005
    7  C   1.18073   0.96926   0.95493   1.01023
    8  H   0.95530
    9  H   0.95530
   10  H   0.95195
   11  H   0.94286
   12  H   0.94288
   13  H   0.95197
   14  H   0.90369
   15  H   0.90371
   16  H   0.89948
   17  H   0.89948
 *******************************************************************************
 **                                                                           **
 **                              MOPAC v23.1.2                                **
 **                                                                           **
 *******************************************************************************
 **          Digital Object Identifier (DOI): 10.5281/zenodo.6511958          **
 **    Visit the DOI location for information on how to cite this program.    **
 *******************************************************************************

                              PM3 CALCULATION RESULTS

 *******************************************************************************
 *  CALCULATION DONE: (MAX THREADS = 1)              Tue Jun  3 16:28:20 2025  *
 *  PM3        - The PM3 Hamiltonian to be used
 *  OLDGEO     - PREVIOUS GEOMETRY TO BE USED
 *  PRECISE    - TIGHTER CRITERIA TO BE USED
 *  NOSYM      - POINT-GROUP SYMMETRY SET TO C1
 *  THREADS=1  - MULTI-THREADING NOT USED
 *  T=         - A TIME OF 172800.0 SECONDS REQUESTED
 *  DUMP=N     - RESTART FILE WRITTEN EVERY 7200.0 SECONDS REQUESTED
 *  THERMO     - THERMODYNAMIC QUANTITIES TO BE CALCULATED
 *******************************************************************************
oldgeo thermo nosym precise THREADS=1  pm3
 InChI=1S/C7H10/c1-2-4-6-7-5-3-1/h1-4H,5-7H2

   ATOM   CHEMICAL          X               Y               Z
  NUMBER   SYMBOL      (ANGSTROMS)     (ANGSTROMS)     (ANGSTROMS)

     1       C         -1.46223908  *   0.28707224  *   0.00929770  *
     2       C         -0.45237811  *   1.16095406  *   0.74355617  *
     3       C         -0.86712769  *  -0.90256198  *  -0.73454298  *
     4       C          0.82914833  *   1.37019438  *   0.01560466  *
     5       C          0.24988086  *  -1.58171471  *  -0.02248756  *
     6       C          1.70315943  *   0.38103970  *  -0.20443866  *
     7       C          1.43554426  *  -0.99651191  *   0.18358339  *
     8       H         -2.03048545  *   0.90200037  *  -0.71683879  *
     9       H         -2.21278455  *  -0.06838584  *   0.74322999  *
    10       H         -0.91904666  *   2.13849936  *   0.97384188  *
    11       H         -0.21860517  *   0.70363131  *   1.72763035  *
    12       H         -0.49114528  *  -0.56599445  *  -1.72324800  *
    13       H         -1.67144639  *  -1.63108294  *  -0.95524451  *
    14       H          1.05791828  *   2.39272934  *  -0.30345626  *
    15       H          0.07971650  *  -2.61564778  *   0.29648028  *
    16       H          2.26303873  *  -1.53771187  *   0.65595431  *
    17       H          2.66759335  *   0.57067095  *  -0.68885509  *



          CARTESIAN COORDINATES 

    NO.       ATOM           X           Y           Z

     1         C         -1.4622      0.2871      0.0093
     2         C         -0.4524      1.1610      0.7436
     3         C         -0.8671     -0.9026     -0.7345
     4         C          0.8291      1.3702      0.0156
     5         C          0.2499     -1.5817     -0.0225
     6         C          1.7032      0.3810     -0.2044
     7         C          1.4355     -0.9965      0.1836
     8         H         -2.0305      0.9020     -0.7168
     9         H         -2.2128     -0.0684      0.7432
    10         H         -0.9190      2.1385      0.9738
    11         H         -0.2186      0.7036      1.7276
    12         H         -0.4911     -0.5660     -1.7232
    13         H         -1.6714     -1.6311     -0.9552
    14         H          1.0579      2.3927     -0.3035
    15         H          0.0797     -2.6156      0.2965
    16         H          2.2630     -1.5377      0.6560
    17         H          2.6676      0.5707     -0.6889

  H: (PM3): J. J. P. STEWART, J. COMP. CHEM. 10, 209 (1989).
  C: (PM3): J. J. P. STEWART, J. COMP. CHEM. 10, 209 (1989).

           Empirical Formula: C7 H10  =    17 atoms



      MOLECULAR POINT GROUP   :   C1  


      RHF CALCULATION, NO. OF DOUBLY OCCUPIED LEVELS = 19



          HEAT OF FORMATION =      20.685471 KCALS/MOLE


          CARTESIAN COORDINATE DERIVATIVES

   NUMBER  ATOM         X            Y            Z

     1       C      0.005933     0.009254     0.003000
     2       C      0.005159     0.006702     0.002552
     3       C      0.002152     0.007575    -0.000640
     4       C      0.005102    -0.001526     0.004023
     5       C     -0.001299     0.001993    -0.003453
     6       C      0.000795    -0.005378     0.001905
     7       C     -0.001614    -0.003424    -0.002425
     8       H     -0.002190     0.009291    -0.002470
     9       H     -0.001316    -0.003287     0.003956
    10       H     -0.008034    -0.011356    -0.006222
    11       H      0.002085     0.004607    -0.000329
    12       H     -0.009166    -0.018403     0.001945
    13       H      0.005636     0.003201     0.005009
    14       H      0.002009    -0.001530     0.005624
    15       H      0.005377    -0.002178    -0.004376
    16       H     -0.006612     0.004293     0.000005
    17       H     -0.004017     0.000166    -0.008104



          GRADIENT NORM =   0.03870

          MOLECULAR WEIGHT =   94.16



          ROTATIONAL CONSTANTS IN CM(-1)

          A =    0.11948323   B =    0.11188449   C =    0.06726863



           PRINCIPAL MOMENTS OF INERTIA IN UNITS OF 10**(-40)*GRAM-CM**2

          A =      234.2818   B =      250.1933   C =      416.1338


          ORIENTATION OF MOLECULE IN FORCE CALCULATION

    NO.       ATOM         X         Y         Z

     1          C      -0.8914   -1.4013   -0.0009
     2          C       0.6326   -1.4013   -0.0009
     3          C      -1.5376   -0.0210   -0.0009
     4          C       1.2511   -0.3472    0.8491
     5          C      -0.8438    0.9870   -0.8486
     6          C       1.1570    0.9567    0.5633
     7          C       0.3767    1.4542   -0.5607
     8          H      -1.2652   -1.9599    0.8802
     9          H      -1.2390   -1.9767   -0.8821
    10          H       0.9949   -2.3995    0.3132
    11          H       0.9994   -1.2649   -1.0397
    12          H      -1.5718    0.3678    1.0382
    13          H      -2.5946   -0.1158   -0.3173
    14          H       1.8352   -0.6845    1.7121
    15          H      -1.3957    1.3745   -1.7117
    16          H       0.8423    2.2408   -1.1651
    17          H       1.6714    1.7110    1.1693


    FIRST DERIVATIVES WILL BE USED IN THE CALCULATION OF SECOND DERIVATIVES

          ESTIMATED TIME TO COMPLETE CALCULATION =        0.80 SECONDS

    FOR POINT-GROUP C1   THERE ARE   1 UNIQUE SYMMETRY FUNCTIONS.

 STEP:   1 TIME =     0.01 SECS, INTEGRAL =      0.01 TIME LEFT: 172799.99
 STEP:   2 TIME =     0.01 SECS, INTEGRAL =      0.02 TIME LEFT: 172799.98
 STEP:   3 TIME =     0.01 SECS, INTEGRAL =      0.04 TIME LEFT: 172799.96
 STEP:   4 TIME =     0.01 SECS, INTEGRAL =      0.05 TIME LEFT: 172799.95
 STEP:   5 TIME =     0.01 SECS, INTEGRAL =      0.06 TIME LEFT: 172799.94
 STEP:   6 TIME =     0.01 SECS, INTEGRAL =      0.07 TIME LEFT: 172799.93
 STEP:   7 TIME =     0.01 SECS, INTEGRAL =      0.08 TIME LEFT: 172799.92
 STEP:   8 TIME =     0.01 SECS, INTEGRAL =      0.09 TIME LEFT: 172799.91
 STEP:   9 TIME =     0.02 SECS, INTEGRAL =      0.11 TIME LEFT: 172799.89
 STEP:  10 TIME =     0.01 SECS, INTEGRAL =      0.12 TIME LEFT: 172799.88
 STEP:  11 TIME =     0.02 SECS, INTEGRAL =      0.14 TIME LEFT: 172799.86
 STEP:  12 TIME =     0.01 SECS, INTEGRAL =      0.15 TIME LEFT: 172799.85
 STEP:  13 TIME =     0.01 SECS, INTEGRAL =      0.16 TIME LEFT: 172799.84
 STEP:  14 TIME =     0.02 SECS, INTEGRAL =      0.18 TIME LEFT: 172799.82
 STEP:  15 TIME =     0.01 SECS, INTEGRAL =      0.19 TIME LEFT: 172799.81
 STEP:  16 TIME =     0.01 SECS, INTEGRAL =      0.20 TIME LEFT: 172799.80
 STEP:  17 TIME =     0.01 SECS, INTEGRAL =      0.21 TIME LEFT: 172799.79
 STEP:  18 TIME =     0.02 SECS, INTEGRAL =      0.23 TIME LEFT: 172799.77
 STEP:  19 TIME =     0.01 SECS, INTEGRAL =      0.24 TIME LEFT: 172799.76
 STEP:  20 TIME =     0.01 SECS, INTEGRAL =      0.25 TIME LEFT: 172799.75
 STEP:  21 TIME =     0.01 SECS, INTEGRAL =      0.26 TIME LEFT: 172799.74
 STEP:  22 TIME =     0.01 SECS, INTEGRAL =      0.27 TIME LEFT: 172799.73
 STEP:  23 TIME =     0.01 SECS, INTEGRAL =      0.29 TIME LEFT: 172799.71
 STEP:  24 TIME =     0.01 SECS, INTEGRAL =      0.30 TIME LEFT: 172799.70
 STEP:  25 TIME =     0.01 SECS, INTEGRAL =      0.31 TIME LEFT: 172799.69
 STEP:  26 TIME =     0.02 SECS, INTEGRAL =      0.32 TIME LEFT: 172799.68
 STEP:  27 TIME =     0.01 SECS, INTEGRAL =      0.34 TIME LEFT: 172799.66
 STEP:  28 TIME =     0.01 SECS, INTEGRAL =      0.35 TIME LEFT: 172799.65
 STEP:  29 TIME =     0.01 SECS, INTEGRAL =      0.36 TIME LEFT: 172799.64
 STEP:  30 TIME =     0.01 SECS, INTEGRAL =      0.37 TIME LEFT: 172799.63
 STEP:  31 TIME =     0.02 SECS, INTEGRAL =      0.39 TIME LEFT: 172799.61
 STEP:  32 TIME =     0.01 SECS, INTEGRAL =      0.40 TIME LEFT: 172799.60
 STEP:  33 TIME =     0.01 SECS, INTEGRAL =      0.41 TIME LEFT: 172799.59
 STEP:  34 TIME =     0.02 SECS, INTEGRAL =      0.43 TIME LEFT: 172799.57
 STEP:  35 TIME =     0.02 SECS, INTEGRAL =      0.44 TIME LEFT: 172799.56
 STEP:  36 TIME =     0.01 SECS, INTEGRAL =      0.45 TIME LEFT: 172799.55
 STEP:  37 TIME =     0.01 SECS, INTEGRAL =      0.46 TIME LEFT: 172799.54
 STEP:  38 TIME =     0.02 SECS, INTEGRAL =      0.48 TIME LEFT: 172799.52
 STEP:  39 TIME =     0.01 SECS, INTEGRAL =      0.49 TIME LEFT: 172799.51
 STEP:  40 TIME =     0.02 SECS, INTEGRAL =      0.51 TIME LEFT: 172799.49
 STEP:  41 TIME =     0.01 SECS, INTEGRAL =      0.52 TIME LEFT: 172799.48
 STEP:  42 TIME =     0.01 SECS, INTEGRAL =      0.53 TIME LEFT: 172799.47
 STEP:  43 TIME =     0.01 SECS, INTEGRAL =      0.54 TIME LEFT: 172799.46
 STEP:  44 TIME =     0.01 SECS, INTEGRAL =      0.55 TIME LEFT: 172799.45
 STEP:  45 TIME =     0.01 SECS, INTEGRAL =      0.57 TIME LEFT: 172799.43
 STEP:  46 TIME =     0.02 SECS, INTEGRAL =      0.58 TIME LEFT: 172799.42
 STEP:  47 TIME =     0.01 SECS, INTEGRAL =      0.59 TIME LEFT: 172799.41
 STEP:  48 TIME =     0.01 SECS, INTEGRAL =      0.61 TIME LEFT: 172799.39
 STEP:  49 TIME =     0.02 SECS, INTEGRAL =      0.62 TIME LEFT: 172799.38
 STEP:  50 TIME =     0.01 SECS, INTEGRAL =      0.63 TIME LEFT: 172799.37
 STEP:  51 TIME =     0.01 SECS, INTEGRAL =      0.64 TIME LEFT: 172799.36

(To convert to Hartree/Bohr^2, multiply by (10^(-21) x N x a0^2)/(4.184 x 627.51) =  0.0642)


           FORCE MATRIX IN MILLIDYNES/ANGSTROM


                  C  1       C  2       C  3       C  4       C  5       C  6
 ------------------------------------------------------------------------------
     C    1  14.104893
     C    2   4.031581  14.558223
     C    3   4.031558   0.563388  14.561548
     C    4   0.631166   4.921726   0.074504  17.897643
     C    5   0.631086   0.074976   4.923177   0.110959  17.895731
     C    6   0.043995   0.823364   0.124062  10.392270   0.990092  18.304136
     C    7   0.044068   0.124240   0.822351   0.987844  10.390316   5.645284
     H    8   4.456741   0.438077   0.427069   0.007630   0.046423   0.002666
     H    9   4.456529   0.427097   0.438154   0.046351   0.007721   0.004193
     H   10   0.431659   4.484325   0.047569   0.437671   0.004375   0.051726
     H   11   0.445095   4.388785   0.008692   0.420413   0.014472   0.037979
     H   12   0.445056   0.008692   4.389039   0.014354   0.420215   0.021478
     H   13   0.431822   0.047437   4.484685   0.004362   0.438416   0.003634
     H   14   0.026340   0.431561   0.007091   4.840595   0.015870   0.439671
     H   15   0.026320   0.006997   0.431532   0.015503   4.840640   0.128477
     H   16   0.017555   0.011210   0.121305   0.046207   0.448359   0.426046
     H   17   0.017427   0.120807   0.011195   0.448424   0.046818   4.815613


                  C  7       H  8       H  9       H 10       H 11       H 12
 ------------------------------------------------------------------------------
     C    7  18.303618
     H    8   0.004259   5.055044
     H    9   0.002714   0.580760   5.054920
     H   10   0.003640   0.035746   0.025378   5.069588
     H   11   0.021542   0.043822   0.035470   0.570028   4.977024
     H   12   0.037949   0.035387   0.043777   0.000890   0.000935   4.977292
     H   13   0.051856   0.025278   0.035804   0.007688   0.000894   0.570149
     H   14   0.129207   0.001843   0.004661   0.034035   0.026069   0.001504
     H   15   0.439733   0.004638   0.001827   0.000418   0.001496   0.026009
     H   16   4.815354   0.002163   0.000582   0.000667   0.002082   0.010167
     H   17   0.426331   0.000573   0.002190   0.006680   0.010034   0.002078


                  H 13       H 14       H 15       H 16       H 17
 ------------------------------------------------------------------
     H   13   5.069741
     H   14   0.000416   5.203128
     H   15   0.034066   0.006115   5.203001
     H   16   0.006721   0.012453   0.069987   5.181967
     H   17   0.000666   0.069938   0.012312   0.026773   5.182576


          HEAT OF FORMATION =      20.685471 KCALS/MOLE

          ZERO POINT ENERGY      93.144 KCAL/MOL


           NORMAL COORDINATE ANALYSIS (Total motion = 1 Angstrom)


   Root No.       1         2         3         4         5         6         7         8

                 1 A       2 A       3 A       4 A       5 A       6 A       7 A       8 A   

                 109.2     205.9     320.9     350.8     383.5     528.0     610.2     707.6
  
           1   -0.0007   -0.0012    0.0035   -0.0289    0.0231    0.0123    0.0235    0.0023
           2    0.0004   -0.0018   -0.0017   -0.0455   -0.0145    0.0193    0.0371   -0.0015
           3    0.0507   -0.0001   -0.0109   -0.0002    0.0214   -0.0000   -0.0000   -0.0172
           4   -0.0024   -0.0019    0.0019   -0.0341    0.0176    0.0095    0.0240    0.0019
           5    0.0161   -0.0230    0.0321    0.0087   -0.0339    0.0125   -0.0198    0.0007
           6   -0.0307    0.0373   -0.0058   -0.0018   -0.0066    0.0069   -0.0210   -0.0162
           7   -0.0156   -0.0196   -0.0290    0.0218    0.0379    0.0072   -0.0283    0.0004
           8   -0.0048   -0.0112   -0.0151   -0.0275   -0.0014    0.0139    0.0133   -0.0021
           9   -0.0310   -0.0370   -0.0064    0.0018   -0.0066   -0.0068    0.0209   -0.0162
          10    0.0100    0.0261   -0.0137   -0.0421   -0.0473    0.0044   -0.0294   -0.0157
          11   -0.0081   -0.0011    0.0073    0.0207   -0.0115   -0.0223   -0.0034    0.0125
          12   -0.0098   -0.0135    0.0365   -0.0042    0.0080    0.0446   -0.0101   -0.0050
          13    0.0115   -0.0120   -0.0133    0.0362   -0.0098   -0.0221    0.0094   -0.0180
          14   -0.0055    0.0230    0.0102   -0.0290    0.0478   -0.0055   -0.0283    0.0089
          15   -0.0097    0.0131    0.0367    0.0050    0.0081   -0.0446    0.0099   -0.0051
          16   -0.0003    0.0241    0.0387    0.0403   -0.0206    0.0152    0.0140    0.0208
          17   -0.0033   -0.0033   -0.0020    0.0257   -0.0164   -0.0341   -0.0004    0.0195
          18    0.0159   -0.0199   -0.0196   -0.0195   -0.0234   -0.0220   -0.0119    0.0221
          19    0.0027   -0.0135    0.0180    0.0067    0.0060   -0.0373   -0.0064   -0.0089
          20    0.0018    0.0207   -0.0346    0.0466    0.0256   -0.0010    0.0123   -0.0272
          21    0.0161    0.0200   -0.0197    0.0189   -0.0233    0.0219    0.0121    0.0221
          22    0.0530   -0.0254    0.0119   -0.0295    0.0426    0.0091    0.0516    0.0575
          23    0.0693    0.0115   -0.0194   -0.0464    0.0362    0.0237    0.0238    0.0812
          24    0.1172   -0.0014   -0.0189   -0.0012    0.0630    0.0012    0.0030    0.0617
          25   -0.0401    0.0211    0.0235   -0.0288   -0.0145    0.0177   -0.0005   -0.0490
          26   -0.0776   -0.0174   -0.0020   -0.0463   -0.0536    0.0186    0.0566   -0.0866
          27    0.1172    0.0007   -0.0189    0.0005    0.0630   -0.0015   -0.0028    0.0617
          28    0.0278   -0.0339    0.0265    0.0099    0.0310    0.0154   -0.0172   -0.0301
          29    0.0083   -0.0160    0.0252    0.0208   -0.0270   -0.0079   -0.0164    0.0156
          30   -0.0908    0.0993   -0.0576   -0.0153   -0.0003   -0.0679    0.0429    0.0751
          31   -0.0587    0.0253   -0.0036   -0.0544    0.0183    0.0066    0.0705    0.0567
          32    0.0669   -0.0901    0.0935    0.0341   -0.0338    0.0923   -0.0891   -0.0855
          33   -0.0440    0.0382   -0.0005   -0.0062   -0.0053    0.0148   -0.0119   -0.0057
          34   -0.0857   -0.0905   -0.0887    0.0522    0.0376    0.0807   -0.1100    0.1019
          35    0.0247   -0.0150   -0.0361   -0.0356   -0.0022    0.0451    0.0261   -0.0152
          36   -0.0445   -0.0381   -0.0013    0.0062   -0.0053   -0.0145    0.0117   -0.0056
          37    0.0044    0.0000   -0.0117    0.0144    0.0375   -0.0139   -0.0078   -0.0269
          38   -0.0289   -0.0367   -0.0355    0.0169   -0.0168    0.0104   -0.0223    0.0206
          39   -0.0914   -0.0978   -0.0594    0.0141   -0.0008    0.0680   -0.0424    0.0752
          40    0.0123    0.0709   -0.0695   -0.0648   -0.1267    0.0068   -0.1193   -0.0176
          41   -0.0268    0.0126    0.0024    0.0110    0.0115   -0.0174    0.0004   -0.0138
          42   -0.0191   -0.0375    0.0711    0.0080    0.0709    0.0442    0.0526   -0.0135
          43    0.0293   -0.0183   -0.0324    0.0362   -0.0640   -0.0190    0.0510    0.0047
          44    0.0008    0.0685    0.0634   -0.0520    0.1093   -0.0006   -0.1076    0.0225
          45   -0.0187    0.0366    0.0716   -0.0060    0.0705   -0.0437   -0.0526   -0.0130
          46    0.0036   -0.0389    0.0131   -0.0546    0.0015   -0.0753   -0.0347    0.0226
          47    0.0116    0.0557   -0.0603    0.1056    0.0501    0.0763    0.0216   -0.0825
          48    0.0291    0.0448   -0.0576    0.0486    0.0061    0.0921    0.0027   -0.0260
          49   -0.0082    0.0662    0.0587    0.1198   -0.0449    0.1006    0.0342    0.0843
          50   -0.0084   -0.0117    0.0138   -0.0044   -0.0226   -0.0356   -0.0220    0.0145
          51    0.0286   -0.0440   -0.0569   -0.0496    0.0061   -0.0916   -0.0025   -0.0259


   Root No.       9        10        11        12        13        14        15        16

                 9 A      10 A      11 A      12 A      13 A      14 A      15 A      16 A   

                 748.1     821.8     838.2     911.4     963.5     967.0     975.7    1000.2
  
           1    0.0121    0.0117    0.0067    0.0118    0.0078    0.0214   -0.0145   -0.0141
           2   -0.0075    0.0184   -0.0042    0.0185   -0.0055    0.0335    0.0094   -0.0220
           3    0.0036   -0.0000    0.0312    0.0001    0.0238    0.0002   -0.0108   -0.0001
           4    0.0007   -0.0050    0.0003   -0.0440   -0.0009   -0.0127    0.0063    0.0089
           5   -0.0119    0.0071   -0.0166    0.0497    0.0349   -0.0090   -0.0107   -0.0002
           6    0.0052   -0.0096   -0.0008   -0.0083   -0.0058    0.0193   -0.0019   -0.0141
           7    0.0110    0.0084    0.0152    0.0634   -0.0322   -0.0033    0.0124   -0.0039
           8    0.0045   -0.0016    0.0067   -0.0189   -0.0136   -0.0156   -0.0013    0.0080
           9    0.0052    0.0097   -0.0007    0.0083   -0.0055   -0.0194   -0.0020    0.0141
          10   -0.0251   -0.0337   -0.0114    0.0092    0.0040   -0.0231    0.0363   -0.0091
          11   -0.0039    0.0046    0.0093   -0.0100   -0.0101   -0.0034   -0.0005   -0.0004
          12    0.0070    0.0034   -0.0269    0.0021   -0.0091   -0.0107   -0.0000    0.0270
          13   -0.0070    0.0184   -0.0132   -0.0128    0.0108    0.0070    0.0160    0.0036
          14    0.0240   -0.0284    0.0063    0.0040    0.0011   -0.0224   -0.0328   -0.0085
          15    0.0069   -0.0032   -0.0269   -0.0021   -0.0094    0.0105   -0.0000   -0.0270
          16   -0.0198   -0.0261    0.0198    0.0058   -0.0192    0.0166   -0.0282    0.0285
          17   -0.0023    0.0044    0.0205   -0.0159   -0.0191    0.0018    0.0033   -0.0024
          18    0.0042    0.0136    0.0194   -0.0048   -0.0024   -0.0093    0.0103   -0.0125
          19   -0.0065    0.0153   -0.0101   -0.0168    0.0093   -0.0052   -0.0147   -0.0143
          20    0.0191   -0.0219   -0.0267   -0.0011    0.0252    0.0162    0.0240    0.0247
          21    0.0045   -0.0140    0.0192    0.0048   -0.0025    0.0092    0.0101    0.0125
          22    0.0024    0.0348   -0.0701    0.0132    0.0259   -0.0253   -0.0311    0.0639
          23   -0.0178    0.0088   -0.0927    0.0159   -0.0856    0.0716    0.0482   -0.0722
          24   -0.0075    0.0035   -0.0611    0.0017   -0.0199    0.0046    0.0069    0.0007
          25    0.0172   -0.0068    0.0541    0.0097    0.0869    0.0771   -0.0567   -0.0929
          26    0.0058    0.0349    0.1029    0.0191    0.0125    0.0077    0.0080    0.0271
          27   -0.0075   -0.0034   -0.0611   -0.0020   -0.0198   -0.0050    0.0068   -0.0006
          28    0.0342   -0.0298    0.0590   -0.1443   -0.0071   -0.0330   -0.0268   -0.0030
          29   -0.0151    0.0088   -0.0007    0.0444    0.0617   -0.0412   -0.0338    0.0044
          30   -0.0450    0.0273   -0.0196    0.0943    0.0901   -0.0615   -0.0404    0.0180
          31   -0.0079    0.0386   -0.0755    0.0016    0.0156   -0.0263   -0.0101    0.0868
          32    0.0481   -0.0215   -0.0111   -0.0600   -0.0532    0.0694    0.0047   -0.0169
          33    0.0083    0.0021   -0.0282   -0.0045   -0.0106    0.0227   -0.0055    0.0128
          34   -0.0470   -0.0359   -0.0221   -0.0545    0.0535    0.0751   -0.0084   -0.0523
          35   -0.0129    0.0255    0.0733   -0.0239    0.0088    0.0058    0.0073    0.0715
          36    0.0081   -0.0020   -0.0282    0.0042   -0.0101   -0.0226   -0.0056   -0.0129
          37    0.0281    0.0205    0.0257    0.1011   -0.0591   -0.0246    0.0193    0.0054
          38   -0.0246   -0.0232   -0.0535   -0.1119   -0.0183   -0.0480    0.0382   -0.0007
          39   -0.0449   -0.0272   -0.0197   -0.0936    0.0893    0.0633   -0.0401   -0.0183
          40    0.1068    0.1302   -0.0796   -0.0481   -0.0434    0.0325   -0.0939    0.0842
          41   -0.0026   -0.0121   -0.0080   -0.0722   -0.0311   -0.0135    0.0392   -0.0135
          42   -0.0815   -0.1146    0.0124    0.0165    0.0154   -0.0528    0.1035   -0.0402
          43    0.0476   -0.0661   -0.0268   -0.0449    0.0102   -0.0261   -0.0761   -0.0485
          44   -0.0951    0.1120    0.0761   -0.0738    0.0529    0.0248    0.0690    0.0706
          45   -0.0812    0.1143    0.0131   -0.0165    0.0150    0.0533    0.1044    0.0408
          46    0.0898   -0.0450    0.0063    0.0040    0.0943    0.0023    0.0299    0.0477
          47   -0.1125    0.0806   -0.0443   -0.0370   -0.0278   -0.0638   -0.0871   -0.0731
          48   -0.0928    0.0740    0.0092   -0.0242   -0.0078   -0.0885   -0.0992   -0.0682
          49    0.1405    0.0906    0.0428   -0.0346    0.0665   -0.0585    0.0931   -0.0872
          50   -0.0340   -0.0066    0.0132   -0.0126   -0.0733   -0.0264    0.0094    0.0126
          51   -0.0926   -0.0727    0.0091    0.0238   -0.0094    0.0887   -0.0995    0.0680


   Root No.      17        18        19        20        21        22        23        24

                17 A      18 A      19 A      20 A      21 A      22 A      23 A      24 A   

                1042.9    1059.6    1074.3    1092.4    1097.9    1124.7    1130.3    1167.8
  
           1    0.0005    0.0094    0.0043    0.0027   -0.0132    0.0068    0.0226   -0.0029
           2    0.0009   -0.0060    0.0066   -0.0013   -0.0208    0.0109   -0.0143   -0.0041
           3    0.0001   -0.0287   -0.0001    0.0303    0.0004    0.0000   -0.0137    0.0001
           4    0.0086   -0.0136   -0.0129   -0.0001    0.0019   -0.0097   -0.0193    0.0020
           5    0.0207    0.0012   -0.0064   -0.0005    0.0136    0.0013   -0.0027    0.0031
           6    0.0033    0.0332   -0.0018   -0.0047    0.0052    0.0214    0.0097   -0.0136
           7    0.0152   -0.0068   -0.0004    0.0001    0.0115    0.0053   -0.0057    0.0020
           8    0.0165    0.0119   -0.0144   -0.0001    0.0075   -0.0084    0.0186    0.0029
           9   -0.0033    0.0332    0.0019   -0.0047   -0.0052   -0.0214    0.0095    0.0137
          10   -0.0196    0.0002    0.0002   -0.0030    0.0010    0.0024    0.0046    0.0024
          11    0.0000    0.0005    0.0086    0.0005   -0.0019   -0.0012   -0.0058    0.0023
          12   -0.0143   -0.0327   -0.0035   -0.0089   -0.0292   -0.0100    0.0028    0.0102
          13    0.0083   -0.0004    0.0078   -0.0017   -0.0023   -0.0022    0.0072    0.0012
          14   -0.0178   -0.0004    0.0038    0.0026    0.0001    0.0017   -0.0018    0.0032
          15    0.0143   -0.0328    0.0035   -0.0096    0.0289    0.0100    0.0029   -0.0103
          16   -0.0102    0.0027   -0.0099    0.0025   -0.0137   -0.0060   -0.0046   -0.0026
          17   -0.0231    0.0008   -0.0014    0.0081   -0.0048   -0.0031    0.0018   -0.0017
          18   -0.0342    0.0015   -0.0219    0.0016   -0.0035    0.0024    0.0032    0.0006
          19   -0.0167    0.0004    0.0029   -0.0062    0.0012   -0.0002   -0.0035   -0.0004
          20   -0.0190   -0.0028   -0.0095   -0.0053   -0.0146   -0.0068    0.0033   -0.0030
          21    0.0342    0.0015    0.0219    0.0014    0.0035   -0.0025    0.0031   -0.0007
          22   -0.0438    0.0861    0.0589    0.0118   -0.0274    0.1899    0.1052   -0.0466
          23    0.0305    0.0293   -0.0249   -0.0693   -0.0076   -0.0923   -0.0426    0.0118
          24   -0.0019    0.0280    0.0042   -0.0077    0.0020    0.0109    0.0029   -0.0065
          25    0.0464    0.0104   -0.0476    0.0668    0.0071   -0.1653    0.0819    0.0279
          26   -0.0263   -0.0906    0.0424    0.0201   -0.0278    0.1336   -0.0761   -0.0356
          27    0.0017    0.0280   -0.0040   -0.0077   -0.0021   -0.0109    0.0028    0.0067
          28    0.1250    0.0311   -0.0813   -0.1429   -0.0348    0.0473   -0.0288   -0.0603
          29    0.0893    0.0042   -0.0434   -0.0712   -0.0008    0.0209   -0.0139   -0.0174
          30    0.0793   -0.0110   -0.0416   -0.0580   -0.0009    0.0154   -0.0072   -0.0097
          31   -0.0338    0.0142    0.0029    0.1398    0.2091   -0.0467   -0.0787   -0.0258
          32   -0.0076    0.1022    0.0150    0.0475    0.1176    0.0270   -0.0218   -0.0355
          33   -0.0159    0.0558    0.0065    0.0510    0.0928    0.0129   -0.0144   -0.0287
          34    0.0076   -0.0869    0.0121    0.0159    0.0184    0.0444   -0.0132   -0.0214
          35   -0.0340   -0.0569    0.0090   -0.1528    0.2343   -0.0311    0.0800   -0.0413
          36    0.0158    0.0559   -0.0064    0.0530   -0.0907   -0.0128   -0.0143    0.0297
          37    0.0281    0.0096   -0.0050    0.0036    0.0142   -0.0012    0.0004    0.0100
          38    0.1521   -0.0294   -0.0925    0.1599   -0.0263    0.0507    0.0324   -0.0651
          39   -0.0795   -0.0115    0.0417   -0.0574   -0.0012   -0.0149   -0.0073    0.0104
          40    0.0222   -0.0575    0.0078   -0.0209   -0.0371   -0.0113   -0.0265    0.0461
          41    0.0721    0.0121    0.1152   -0.0315    0.0312    0.0299   -0.0966    0.1473
          42   -0.0158    0.0104    0.0297   -0.0105    0.0080    0.0118   -0.0113    0.0373
          43    0.0558   -0.0356    0.1012    0.0186    0.0448    0.0311    0.0766    0.1174
          44    0.0511    0.0469    0.0563    0.0328   -0.0191    0.0017    0.0653    0.1070
          45    0.0163    0.0105   -0.0294   -0.0103   -0.0085   -0.0116   -0.0112   -0.0379
          46    0.0231    0.0849    0.1133   -0.0199   -0.0611   -0.0814   -0.0951   -0.1158
          47   -0.0629   -0.0038   -0.0202   -0.0050    0.0024    0.0016   -0.0016    0.0007
          48    0.0108    0.0647    0.0916   -0.0087   -0.0195   -0.0522   -0.0744   -0.0844
          49   -0.0668    0.0392   -0.0659   -0.0044    0.0281    0.0363   -0.0380    0.0488
          50   -0.0054   -0.0757    0.0939    0.0215   -0.0539   -0.0744    0.0859   -0.1035
          51   -0.0113    0.0650   -0.0916   -0.0091    0.0194    0.0534   -0.0737    0.0833


   Root No.      25        26        27        28        29        30        31        32

                25 A      26 A      27 A      28 A      29 A      30 A      31 A      32 A   

                1173.9    1228.0    1317.2    1323.6    1376.3    1379.9    1406.6    1407.3
  
           1    0.0110   -0.0092    0.0472   -0.0065    0.0604    0.0057   -0.0247    0.0113
           2   -0.0070    0.0058   -0.0300   -0.0106   -0.0385    0.0088   -0.0379   -0.0087
           3   -0.0025    0.0058   -0.0013   -0.0000    0.0091    0.0000    0.0001   -0.0041
           4   -0.0072   -0.0139    0.0039    0.0374   -0.0661    0.0159    0.0187   -0.0006
           5   -0.0013   -0.0034    0.0133    0.0178   -0.0162   -0.0100   -0.0039    0.0292
           6   -0.0055   -0.0071    0.0038    0.0172   -0.0229   -0.0082   -0.0047    0.0235
           7   -0.0018   -0.0028   -0.0104    0.0002   -0.0132   -0.0158   -0.0095   -0.0274
           8    0.0071    0.0141   -0.0093    0.0415    0.0666    0.0104    0.0160   -0.0109
           9   -0.0051   -0.0071    0.0038   -0.0172   -0.0229    0.0080    0.0030    0.0236
          10   -0.0015   -0.0040   -0.0084   -0.0070    0.0226   -0.0047    0.0004   -0.0087
          11    0.0046   -0.0166   -0.0096    0.0159    0.0119   -0.0126    0.0045   -0.0069
          12    0.0057   -0.0109   -0.0127   -0.0055    0.0207   -0.0036    0.0018   -0.0130
          13   -0.0047    0.0134    0.0051    0.0174   -0.0012   -0.0094    0.0037    0.0027
          14   -0.0005    0.0106    0.0117    0.0004   -0.0255   -0.0098    0.0015    0.0108
          15    0.0054   -0.0109   -0.0127    0.0055    0.0206    0.0037   -0.0009   -0.0130
          16    0.0042    0.0047    0.0028   -0.0172   -0.0053    0.0107   -0.0038    0.0024
          17    0.0008   -0.0117   -0.0095   -0.0016    0.0114   -0.0008    0.0015   -0.0101
          18    0.0004    0.0138    0.0072   -0.0251   -0.0086    0.0141   -0.0062    0.0059
          19    0.0011    0.0126    0.0098    0.0059   -0.0126   -0.0053    0.0023    0.0103
          20   -0.0042    0.0006    0.0015   -0.0163   -0.0000    0.0094   -0.0030    0.0021
          21    0.0004    0.0138    0.0071    0.0251   -0.0085   -0.0141    0.0057    0.0060
          22    0.0666    0.0405   -0.1124   -0.0179   -0.0690   -0.0305    0.0998   -0.0357
          23   -0.0461   -0.0374    0.0782   -0.0802    0.0247   -0.0654    0.1642    0.0416
          24   -0.0045   -0.0000   -0.0002   -0.0418   -0.0055   -0.0534    0.1552    0.0076
          25    0.0708    0.0509   -0.1182   -0.0656   -0.0509   -0.0463    0.1100   -0.0468
          26   -0.0417   -0.0208    0.0688   -0.0499    0.0526   -0.0553    0.1585    0.0238
          27   -0.0043   -0.0000   -0.0003    0.0418   -0.0062    0.0534   -0.1554   -0.0012
          28   -0.0862    0.0617   -0.0947   -0.0971    0.0722   -0.0674   -0.0668    0.0371
          29   -0.0378    0.0385    0.0042   -0.0491    0.0301    0.0176   -0.0048   -0.0245
          30   -0.0284    0.0360    0.0655   -0.0398   -0.0167    0.1342    0.0684   -0.1483
          31   -0.0697    0.0562   -0.0518   -0.0558    0.0945   -0.0626   -0.0530    0.0419
          32   -0.0423    0.0311    0.0683   -0.0241   -0.0284    0.1328    0.0624   -0.1437
          33   -0.0338    0.0222   -0.0030   -0.0207    0.0272   -0.0048   -0.0137    0.0022
          34    0.0082   -0.0043   -0.0837    0.0017    0.0648    0.1465    0.0683    0.1527
          35    0.0799   -0.0641    0.0182   -0.0607   -0.0733   -0.0007   -0.0230    0.0217
          36   -0.0328    0.0221   -0.0033    0.0206    0.0271    0.0052    0.0136    0.0033
          37   -0.0020   -0.0087   -0.0440   -0.0036    0.0031    0.0446    0.0214    0.0396
          38    0.0922   -0.0723    0.0841   -0.1083   -0.0774   -0.0535   -0.0606   -0.0268
          39   -0.0279    0.0359    0.0654    0.0397   -0.0161   -0.1337   -0.0578   -0.1523
          40    0.0348    0.0185   -0.0001   -0.0219    0.0038    0.0067   -0.0027   -0.0031
          41    0.1355    0.1179    0.0387   -0.0780   -0.0027    0.0220   -0.0207    0.0276
          42    0.0313    0.0252   -0.0009   -0.0337    0.0293    0.0028   -0.0057   -0.0051
          43   -0.1046   -0.0988   -0.0347   -0.0614    0.0038    0.0172   -0.0157   -0.0269
          44   -0.0860   -0.0667   -0.0161   -0.0529   -0.0025    0.0153   -0.0106   -0.0092
          45    0.0299    0.0250   -0.0012    0.0335    0.0294   -0.0027    0.0060   -0.0049
          46    0.0471   -0.0903   -0.0397   -0.0346    0.0441    0.0277   -0.0073   -0.0260
          47   -0.0008   -0.0017    0.0011   -0.0199    0.0023    0.0111   -0.0033    0.0027
          48    0.0420   -0.0678   -0.0321   -0.0061    0.0398    0.0114   -0.0012   -0.0221
          49    0.0218   -0.0363   -0.0176   -0.0035    0.0165   -0.0015    0.0011   -0.0134
          50   -0.0452    0.0823    0.0356   -0.0397   -0.0410    0.0295   -0.0096    0.0223
          51    0.0443   -0.0678   -0.0322    0.0061    0.0399   -0.0111    0.0028   -0.0221


   Root No.      33        34        35        36        37        38        39        40

                33 A      34 A      35 A      36 A      37 A      38 A      39 A      40 A   

                1453.9    1851.9    1871.9    2935.6    2940.6    2953.9    3023.1    3025.0
  
           1    0.0107   -0.0019   -0.0005   -0.0002    0.0005    0.0005    0.0060   -0.0003
           2    0.0167    0.0012   -0.0009    0.0001    0.0007   -0.0003    0.0094    0.0008
           3    0.0000    0.0004   -0.0000    0.0182    0.0001   -0.0328   -0.0000    0.0015
           4   -0.0245   -0.0063    0.0040    0.0015   -0.0018    0.0006    0.0087   -0.0102
           5   -0.0349   -0.0178    0.0171    0.0120   -0.0168    0.0083   -0.0125    0.0153
           6   -0.0252   -0.0077    0.0068   -0.0176    0.0240   -0.0111   -0.0060    0.0071
           7   -0.0213    0.0136    0.0137   -0.0101   -0.0144   -0.0073   -0.0140   -0.0192
           8   -0.0371    0.0134    0.0107   -0.0064   -0.0087   -0.0041    0.0024    0.0030
           9    0.0252   -0.0077   -0.0067   -0.0175   -0.0241   -0.0112    0.0055    0.0075
          10    0.0198    0.0035    0.0023    0.0003   -0.0005    0.0004   -0.0010    0.0012
          11    0.0374    0.1316   -0.1362   -0.0005    0.0007   -0.0002    0.0004   -0.0007
          12    0.0225   -0.0103    0.0135    0.0006   -0.0009    0.0005   -0.0013    0.0018
          13    0.0255   -0.1187   -0.1232    0.0006    0.0008    0.0004    0.0007    0.0012
          14    0.0339   -0.0593   -0.0550   -0.0001   -0.0002   -0.0003   -0.0007   -0.0008
          15   -0.0225   -0.0106   -0.0135    0.0006    0.0009    0.0005    0.0012    0.0018
          16   -0.0290    0.0072   -0.0416   -0.0000    0.0001   -0.0000    0.0001   -0.0001
          17    0.0124   -0.1174    0.1351   -0.0000   -0.0001   -0.0000    0.0001   -0.0000
          18   -0.0409    0.0306   -0.0679   -0.0001    0.0002   -0.0001    0.0000   -0.0001
          19    0.0235    0.1104    0.1389   -0.0000   -0.0001    0.0000    0.0001   -0.0000
          20   -0.0211    0.0433    0.0190    0.0000    0.0001    0.0000    0.0001    0.0001
          21    0.0409    0.0312    0.0678   -0.0001   -0.0002   -0.0001   -0.0000   -0.0001
          22   -0.0236    0.0061    0.0014    0.0460   -0.0010   -0.0863   -0.0375    0.0004
          23   -0.0055   -0.0060   -0.0030    0.0707   -0.0063   -0.1280   -0.0542    0.0047
          24   -0.0240   -0.0016   -0.0009   -0.1101    0.0093    0.1961    0.1012   -0.0041
          25    0.0048    0.0080   -0.0033   -0.0445   -0.0055    0.0794   -0.0328   -0.0071
          26   -0.0236   -0.0030    0.0000   -0.0716   -0.0041    0.1325   -0.0566   -0.0075
          27    0.0240   -0.0016    0.0010   -0.1101   -0.0100    0.1961   -0.1006   -0.0131
          28    0.0232   -0.0114    0.0135    0.0444   -0.0626    0.0331   -0.0595    0.0750
          29    0.0175   -0.0204    0.0219   -0.1176    0.1651   -0.0856    0.1782   -0.2192
          30    0.0687   -0.0149    0.0167    0.0339   -0.0474    0.0247   -0.0678    0.0835
          31    0.0085    0.0025    0.0027   -0.0621    0.0864   -0.0415   -0.0444    0.0538
          32    0.0740    0.0159   -0.0172   -0.0235    0.0318   -0.0137   -0.0292    0.0356
          33    0.0068    0.0022   -0.0017    0.1784   -0.2422    0.1080    0.1401   -0.1691
          34    0.0639   -0.0136   -0.0167   -0.0054   -0.0084   -0.0054   -0.0069   -0.0096
          35    0.0392   -0.0090   -0.0048    0.0658    0.0915    0.0435   -0.0488   -0.0672
          36   -0.0067    0.0022    0.0016    0.1781    0.2424    0.1085   -0.1307   -0.1789
          37    0.0063    0.0138    0.0140    0.1250    0.1761    0.0918    0.1735    0.2428
          38    0.0284    0.0192    0.0214    0.0096    0.0133    0.0063    0.0201    0.0264
          39   -0.0691   -0.0150   -0.0166    0.0341    0.0478    0.0249    0.0634    0.0886
          40   -0.0100   -0.0403    0.0462   -0.0043    0.0064   -0.0032    0.0101   -0.0135
          41   -0.0785   -0.0151   -0.0046    0.0041   -0.0060    0.0031   -0.0062    0.0083
          42   -0.0025   -0.0642    0.0626   -0.0074    0.0109   -0.0055    0.0141   -0.0192
          43   -0.0668   -0.0035   -0.0237   -0.0056   -0.0082   -0.0042   -0.0092   -0.0139
          44   -0.0422    0.0431    0.0394    0.0022    0.0033    0.0017    0.0060    0.0092
          45    0.0022   -0.0646   -0.0619   -0.0074   -0.0109   -0.0055   -0.0132   -0.0202
          46   -0.0678   -0.0034    0.0188    0.0002    0.0007    0.0002   -0.0004    0.0001
          47   -0.0245    0.0542    0.0357   -0.0002    0.0005    0.0001   -0.0006    0.0001
          48   -0.0297   -0.0761   -0.0426   -0.0000   -0.0006   -0.0001    0.0008    0.0003
          49    0.0064   -0.0503    0.0247    0.0002    0.0002    0.0000   -0.0003   -0.0001
          50   -0.0717   -0.0195    0.0324   -0.0001    0.0008   -0.0003   -0.0005   -0.0001
          51    0.0296   -0.0759    0.0435   -0.0000    0.0006   -0.0001   -0.0008    0.0002


   Root No.      41        42        43        44        45

                41 A      42 A      43 A      44 A      45 A   

                3034.8    3042.6    3046.3    3062.7    3067.7
  
           1    0.0127    0.0000    0.0007    0.0000    0.0004
           2    0.0200   -0.0000    0.0011   -0.0000    0.0006
           3   -0.0000    0.0001   -0.0000    0.0001    0.0000
           4   -0.0040   -0.0004   -0.0008   -0.0007   -0.0006
           5    0.0070    0.0009    0.0016    0.0018    0.0017
           6    0.0023   -0.0002   -0.0001   -0.0003   -0.0003
           7    0.0082   -0.0011    0.0017   -0.0020    0.0018
           8   -0.0007    0.0000   -0.0000   -0.0002    0.0002
           9   -0.0023   -0.0002    0.0001   -0.0003    0.0003
          10    0.0010   -0.0074   -0.0090   -0.0120   -0.0103
          11   -0.0007    0.0037    0.0049    0.0095    0.0086
          12    0.0016   -0.0108   -0.0133   -0.0181   -0.0154
          13   -0.0011   -0.0067    0.0080   -0.0139    0.0120
          14    0.0006    0.0053   -0.0060    0.0070   -0.0056
          15   -0.0017   -0.0112    0.0130   -0.0184    0.0152
          16   -0.0003    0.0108    0.0088   -0.0060   -0.0084
          17   -0.0004    0.0162    0.0128   -0.0121   -0.0147
          18   -0.0003    0.0125    0.0103   -0.0068   -0.0093
          19   -0.0002   -0.0104    0.0076    0.0085   -0.0097
          20   -0.0004   -0.0171    0.0130    0.0107   -0.0137
          21    0.0003    0.0128   -0.0100   -0.0069    0.0091
          22   -0.0809    0.0000   -0.0043   -0.0002   -0.0020
          23   -0.1206    0.0003   -0.0063    0.0000   -0.0029
          24    0.2213   -0.0004    0.0116   -0.0000    0.0054
          25   -0.0749   -0.0001   -0.0039   -0.0000   -0.0018
          26   -0.1243    0.0002   -0.0065    0.0002   -0.0031
          27   -0.2212    0.0001   -0.0116    0.0001   -0.0054
          28    0.0355    0.0041    0.0069    0.0067    0.0061
          29   -0.0969   -0.0141   -0.0222   -0.0226   -0.0202
          30    0.0369    0.0040    0.0068    0.0065    0.0058
          31    0.0204    0.0006    0.0018    0.0011    0.0008
          32    0.0143    0.0012    0.0022    0.0024    0.0021
          33   -0.0646   -0.0024   -0.0062   -0.0036   -0.0026
          34    0.0042   -0.0008    0.0012   -0.0017    0.0015
          35    0.0248   -0.0012    0.0026   -0.0021    0.0016
          36    0.0657   -0.0027    0.0062   -0.0038    0.0026
          37   -0.1041    0.0153   -0.0226    0.0238   -0.0206
          38   -0.0090    0.0023   -0.0031    0.0036   -0.0030
          39   -0.0376    0.0043   -0.0067    0.0067   -0.0057
          40   -0.0136    0.0880    0.1087    0.1411    0.1183
          41    0.0079   -0.0485   -0.0606   -0.0815   -0.0687
          42   -0.0198    0.1305    0.1605    0.2087    0.1754
          43    0.0131    0.0837   -0.0983    0.1353   -0.1104
          44   -0.0091   -0.0613    0.0712   -0.0950    0.0771
          45    0.0200    0.1348   -0.1567    0.2119   -0.1727
          46    0.0028    0.1181   -0.0889   -0.0711    0.0868
          47    0.0049    0.2005   -0.1534   -0.1178    0.1466
          48   -0.0040   -0.1538    0.1197    0.0892   -0.1130
          49    0.0032   -0.1279   -0.1043    0.0752    0.0974
          50    0.0045   -0.1868   -0.1500    0.1123    0.1427
          51    0.0039   -0.1502   -0.1238    0.0880    0.1151


           MASS-WEIGHTED COORDINATE ANALYSIS (NORMAL COORDINATES)


   Root No.       1         2         3         4         5         6         7         8

                 1 A       2 A       3 A       4 A       5 A       6 A       7 A       8 A   

                 109.2     205.9     320.9     350.8     383.5     528.0     610.2     707.6
  
           1   -0.0060   -0.0104    0.0287   -0.2049    0.1760    0.0969    0.2013    0.0216
           2    0.0031   -0.0154   -0.0139   -0.3233   -0.1107    0.1526    0.3176   -0.0139
           3    0.4412   -0.0012   -0.0903   -0.0013    0.1632   -0.0002   -0.0001   -0.1645
           4   -0.0206   -0.0160    0.0160   -0.2420    0.1337    0.0755    0.2058    0.0185
           5    0.1401   -0.1992    0.2656    0.0618   -0.2581    0.0985   -0.1695    0.0062
           6   -0.2671    0.3226   -0.0480   -0.0131   -0.0507    0.0542   -0.1799   -0.1544
           7   -0.1359   -0.1697   -0.2396    0.1549    0.2887    0.0567   -0.2425    0.0040
           8   -0.0417   -0.0965   -0.1246   -0.1956   -0.0109    0.1099    0.1141   -0.0196
           9   -0.2698   -0.3203   -0.0530    0.0125   -0.0505   -0.0536    0.1791   -0.1547
          10    0.0869    0.2257   -0.1136   -0.2991   -0.3601    0.0347   -0.2513   -0.1498
          11   -0.0701   -0.0099    0.0608    0.1471   -0.0875   -0.1762   -0.0292    0.1193
          12   -0.0853   -0.1164    0.3015   -0.0298    0.0608    0.3530   -0.0862   -0.0474
          13    0.1000   -0.1041   -0.1101    0.2571   -0.0746   -0.1744    0.0801   -0.1714
          14   -0.0480    0.1987    0.0841   -0.2056    0.3640   -0.0432   -0.2423    0.0848
          15   -0.0848    0.1130    0.3036    0.0359    0.0618   -0.3529    0.0850   -0.0484
          16   -0.0025    0.2080    0.3199    0.2861   -0.1572    0.1201    0.1201    0.1983
          17   -0.0285   -0.0285   -0.0167    0.1827   -0.1247   -0.2699   -0.0034    0.1860
          18    0.1380   -0.1717   -0.1618   -0.1383   -0.1782   -0.1739   -0.1018    0.2112
          19    0.0235   -0.1164    0.1487    0.0476    0.0457   -0.2948   -0.0544   -0.0847
          20    0.0160    0.1789   -0.2864    0.3306    0.1953   -0.0076    0.1053   -0.2592
          21    0.1398    0.1734   -0.1629    0.1345   -0.1778    0.1728    0.1036    0.2107
          22    0.1337   -0.0635    0.0285   -0.0606    0.0940    0.0208    0.1279    0.1591
          23    0.1747    0.0288   -0.0465   -0.0954    0.0798    0.0543    0.0590    0.2244
          24    0.2954   -0.0034   -0.0454   -0.0024    0.1390    0.0027    0.0074    0.1707
          25   -0.1011    0.0529    0.0563   -0.0593   -0.0321    0.0406   -0.0012   -0.1354
          26   -0.1958   -0.0437   -0.0049   -0.0952   -0.1184    0.0425    0.1405   -0.2396
          27    0.2955    0.0017   -0.0454    0.0010    0.1390   -0.0033   -0.0070    0.1708
          28    0.0701   -0.0849    0.0635    0.0203    0.0684    0.0353   -0.0427   -0.0832
          29    0.0209   -0.0401    0.0604    0.0427   -0.0597   -0.0180   -0.0406    0.0432
          30   -0.2290    0.2487   -0.1379   -0.0314   -0.0007   -0.1556    0.1064    0.2078
          31   -0.1480    0.0633   -0.0086   -0.1118    0.0405    0.0150    0.1747    0.1568
          32    0.1686   -0.2258    0.2240    0.0702   -0.0746    0.2114   -0.2208   -0.2365
          33   -0.1110    0.0958   -0.0012   -0.0127   -0.0117    0.0339   -0.0296   -0.0159
          34   -0.2161   -0.2268   -0.2124    0.1074    0.0830    0.1849   -0.2728    0.2818
          35    0.0623   -0.0376   -0.0865   -0.0733   -0.0049    0.1033    0.0648   -0.0419
          36   -0.1121   -0.0954   -0.0032    0.0129   -0.0117   -0.0333    0.0290   -0.0154
          37    0.0112    0.0001   -0.0281    0.0297    0.0828   -0.0317   -0.0194   -0.0744
          38   -0.0728   -0.0918   -0.0850    0.0349   -0.0371    0.0239   -0.0553    0.0570
          39   -0.2304   -0.2449   -0.1424    0.0291   -0.0017    0.1556   -0.1051    0.2081
          40    0.0309    0.1776   -0.1665   -0.1333   -0.2796    0.0155   -0.2957   -0.0487
          41   -0.0675    0.0316    0.0057    0.0226    0.0253   -0.0399    0.0010   -0.0381
          42   -0.0481   -0.0940    0.1703    0.0165    0.1564    0.1012    0.1305   -0.0374
          43    0.0739   -0.0459   -0.0776    0.0745   -0.1412   -0.0435    0.1265    0.0129
          44    0.0019    0.1715    0.1518   -0.1069    0.2413   -0.0014   -0.2668    0.0621
          45   -0.0472    0.0917    0.1715   -0.0123    0.1557   -0.1000   -0.1305   -0.0360
          46    0.0092   -0.0975    0.0314   -0.1124    0.0032   -0.1724   -0.0861    0.0626
          47    0.0293    0.1394   -0.1445    0.2171    0.1105    0.1748    0.0536   -0.2282
          48    0.0734    0.1121   -0.1379    0.1000    0.0135    0.2109    0.0068   -0.0720
          49   -0.0207    0.1659    0.1407    0.2465   -0.0990    0.2303    0.0849    0.2331
          50   -0.0211   -0.0293    0.0330   -0.0091   -0.0499   -0.0815   -0.0546    0.0401
          51    0.0720   -0.1102   -0.1363   -0.1020    0.0134   -0.2097   -0.0062   -0.0716


   Root No.       9        10        11        12        13        14        15        16

                 9 A      10 A      11 A      12 A      13 A      14 A      15 A      16 A   

                 748.1     821.8     838.2     911.4     963.5     967.0     975.7    1000.2
  
           1    0.1118    0.1023    0.0609    0.0880    0.0737    0.2065   -0.1275   -0.1321
           2   -0.0695    0.1605   -0.0384    0.1379   -0.0526    0.3236    0.0824   -0.2068
           3    0.0336   -0.0003    0.2853    0.0010    0.2254    0.0022   -0.0943   -0.0007
           4    0.0062   -0.0432    0.0029   -0.3281   -0.0081   -0.1230    0.0556    0.0837
           5   -0.1100    0.0616   -0.1518    0.3705    0.3311   -0.0866   -0.0937   -0.0018
           6    0.0477   -0.0839   -0.0071   -0.0619   -0.0554    0.1866   -0.0168   -0.1323
           7    0.1013    0.0730    0.1391    0.4723   -0.3059   -0.0322    0.1084   -0.0365
           8    0.0415   -0.0137    0.0616   -0.1411   -0.1287   -0.1506   -0.0116    0.0751
           9    0.0480    0.0842   -0.0066    0.0618   -0.0525   -0.1875   -0.0171    0.1323
          10   -0.2311   -0.2944   -0.1044    0.0682    0.0375   -0.2233    0.3178   -0.0856
          11   -0.0361    0.0404    0.0855   -0.0748   -0.0963   -0.0327   -0.0046   -0.0036
          12    0.0646    0.0296   -0.2456    0.0155   -0.0866   -0.1031   -0.0001    0.2538
          13   -0.0644    0.1606   -0.1207   -0.0954    0.1028    0.0671    0.1398    0.0339
          14    0.2214   -0.2478    0.0577    0.0300    0.0102   -0.2163   -0.2872   -0.0799
          15    0.0635   -0.0277   -0.2455   -0.0160   -0.0895    0.1010   -0.0004   -0.2535
          16   -0.1827   -0.2282    0.1810    0.0434   -0.1822    0.1604   -0.2471    0.2672
          17   -0.0217    0.0387    0.1876   -0.1187   -0.1811    0.0172    0.0286   -0.0228
          18    0.0391    0.1189    0.1771   -0.0358   -0.0226   -0.0895    0.0903   -0.1175
          19   -0.0595    0.1338   -0.0926   -0.1254    0.0885   -0.0500   -0.1289   -0.1338
          20    0.1761   -0.1913   -0.2445   -0.0085    0.2395    0.1566    0.2104    0.2321
          21    0.0414   -0.1219    0.1759    0.0355   -0.0241    0.0886    0.0889    0.1176
          22    0.0063    0.0879   -0.1856    0.0285    0.0713   -0.0708   -0.0789    0.1736
          23   -0.0476    0.0221   -0.2455    0.0344   -0.2354    0.2002    0.1224   -0.1963
          24   -0.0201    0.0089   -0.1619    0.0036   -0.0546    0.0129    0.0175    0.0020
          25    0.0459   -0.0172    0.1432    0.0209    0.2387    0.2157   -0.1439   -0.2526
          26    0.0155    0.0882    0.2726    0.0411    0.0344    0.0215    0.0202    0.0736
          27   -0.0202   -0.0085   -0.1619   -0.0043   -0.0543   -0.0139    0.0174   -0.0016
          28    0.0912   -0.0752    0.1563   -0.3115   -0.0194   -0.0924   -0.0679   -0.0083
          29   -0.0402    0.0223   -0.0018    0.0959    0.1694   -0.1151   -0.0859    0.0118
          30   -0.1202    0.0690   -0.0518    0.2036    0.2476   -0.1721   -0.1025    0.0489
          31   -0.0211    0.0976   -0.2000    0.0035    0.0428   -0.0736   -0.0257    0.2361
          32    0.1286   -0.0543   -0.0295   -0.1295   -0.1462    0.1941    0.0119   -0.0460
          33    0.0221    0.0053   -0.0747   -0.0098   -0.0292    0.0634   -0.0139    0.0349
          34   -0.1256   -0.0908   -0.0586   -0.1176    0.1470    0.2100   -0.0214   -0.1421
          35   -0.0346    0.0645    0.1942   -0.0516    0.0241    0.0161    0.0185    0.1943
          36    0.0216   -0.0050   -0.0748    0.0091   -0.0278   -0.0633   -0.0143   -0.0349
          37    0.0750    0.0519    0.0682    0.2182   -0.1624   -0.0688    0.0491    0.0148
          38   -0.0658   -0.0587   -0.1417   -0.2415   -0.0503   -0.1342    0.0970   -0.0019
          39   -0.1199   -0.0689   -0.0521   -0.2020    0.2453    0.1772   -0.1018   -0.0498
          40    0.2851    0.3293   -0.2108   -0.1038   -0.1192    0.0910   -0.2385    0.2289
          41   -0.0070   -0.0307   -0.0212   -0.1559   -0.0854   -0.0379    0.0994   -0.0367
          42   -0.2176   -0.2898    0.0329    0.0356    0.0424   -0.1477    0.2628   -0.1093
          43    0.1270   -0.1672   -0.0710   -0.0970    0.0279   -0.0731   -0.1931   -0.1318
          44   -0.2541    0.2832    0.2016   -0.1594    0.1455    0.0694    0.1751    0.1921
          45   -0.2169    0.2891    0.0347   -0.0356    0.0411    0.1491    0.2649    0.1109
          46    0.2398   -0.1137    0.0166    0.0086    0.2593    0.0064    0.0760    0.1296
          47   -0.3006    0.2037   -0.1173   -0.0799   -0.0763   -0.1785   -0.2210   -0.1988
          48   -0.2479    0.1871    0.0243   -0.0524   -0.0213   -0.2474   -0.2519   -0.1854
          49    0.3753    0.2292    0.1133   -0.0747    0.1828   -0.1636    0.2364   -0.2371
          50   -0.0907   -0.0168    0.0348   -0.0273   -0.2013   -0.0739    0.0240    0.0344
          51   -0.2473   -0.1838    0.0242    0.0513   -0.0258    0.2480   -0.2527    0.1848


   Root No.      17        18        19        20        21        22        23        24

                17 A      18 A      19 A      20 A      21 A      22 A      23 A      24 A   

                1042.9    1059.6    1074.3    1092.4    1097.9    1124.7    1130.3    1167.8
  
           1    0.0045    0.0854    0.0419    0.0249   -0.1057    0.0619    0.2306   -0.0289
           2    0.0075   -0.0542    0.0656   -0.0119   -0.1674    0.0994   -0.1455   -0.0408
           3    0.0009   -0.2594   -0.0009    0.2814    0.0036    0.0001   -0.1391    0.0006
           4    0.0741   -0.1233   -0.1272   -0.0005    0.0152   -0.0884   -0.1969    0.0204
           5    0.1794    0.0107   -0.0631   -0.0048    0.1094    0.0121   -0.0280    0.0306
           6    0.0282    0.2998   -0.0177   -0.0438    0.0417    0.1955    0.0985   -0.1358
           7    0.1315   -0.0619   -0.0037    0.0011    0.0927    0.0489   -0.0579    0.0199
           8    0.1427    0.1076   -0.1415   -0.0006    0.0605   -0.0766    0.1891    0.0287
           9   -0.0286    0.3003    0.0186   -0.0434   -0.0421   -0.1962    0.0967    0.1370
          10   -0.1692    0.0019    0.0018   -0.0282    0.0078    0.0218    0.0474    0.0241
          11    0.0002    0.0047    0.0852    0.0046   -0.0155   -0.0107   -0.0586    0.0231
          12   -0.1236   -0.2959   -0.0347   -0.0822   -0.2349   -0.0920    0.0289    0.1020
          13    0.0721   -0.0033    0.0767   -0.0157   -0.0183   -0.0200    0.0730    0.0119
          14   -0.1542   -0.0036    0.0372    0.0241    0.0008    0.0152   -0.0182    0.0317
          15    0.1238   -0.2963    0.0342   -0.0891    0.2319    0.0919    0.0292   -0.1033
          16   -0.0879    0.0248   -0.0980    0.0232   -0.1099   -0.0553   -0.0464   -0.0265
          17   -0.1994    0.0069   -0.0141    0.0751   -0.0388   -0.0287    0.0181   -0.0167
          18   -0.2961    0.0136   -0.2160    0.0149   -0.0278    0.0222    0.0324    0.0060
          19   -0.1441    0.0039    0.0285   -0.0580    0.0093   -0.0020   -0.0359   -0.0043
          20   -0.1640   -0.0254   -0.0941   -0.0491   -0.1177   -0.0626    0.0339   -0.0301
          21    0.2957    0.0136    0.2159    0.0132    0.0278   -0.0230    0.0315   -0.0067
          22   -0.1099    0.2253    0.1683    0.0319   -0.0637    0.5036    0.3106   -0.1348
          23    0.0764    0.0766   -0.0710   -0.1864   -0.0177   -0.2447   -0.1258    0.0342
          24   -0.0047    0.0732    0.0119   -0.0207    0.0046    0.0290    0.0086   -0.0190
          25    0.1162    0.0272   -0.1359    0.1796    0.0166   -0.4385    0.2417    0.0807
          26   -0.0660   -0.2372    0.1212    0.0540   -0.0648    0.3543   -0.2246   -0.1030
          27    0.0043    0.0733   -0.0115   -0.0207   -0.0049   -0.0288    0.0084    0.0193
          28    0.3133    0.0814   -0.2321   -0.3844   -0.0810    0.1254   -0.0850   -0.1748
          29    0.2237    0.0110   -0.1240   -0.1917   -0.0018    0.0554   -0.0411   -0.0503
          30    0.1988   -0.0288   -0.1189   -0.1559   -0.0020    0.0408   -0.0213   -0.0280
          31   -0.0846    0.0372    0.0083    0.3762    0.4869   -0.1239   -0.2324   -0.0747
          32   -0.0191    0.2674    0.0429    0.1279    0.2738    0.0716   -0.0644   -0.1028
          33   -0.0397    0.1462    0.0187    0.1373    0.2162    0.0341   -0.0425   -0.0832
          34    0.0190   -0.2274    0.0347    0.0427    0.0429    0.1176   -0.0390   -0.0620
          35   -0.0852   -0.1489    0.0257   -0.4110    0.5457   -0.0826    0.2362   -0.1196
          36    0.0396    0.1464   -0.0182    0.1427   -0.2112   -0.0340   -0.0423    0.0861
          37    0.0703    0.0251   -0.0142    0.0096    0.0331   -0.0032    0.0012    0.0289
          38    0.3811   -0.0769   -0.2642    0.4303   -0.0612    0.1345    0.0956   -0.1885
          39   -0.1992   -0.0301    0.1190   -0.1545   -0.0029   -0.0396   -0.0216    0.0302
          40    0.0557   -0.1504    0.0224   -0.0563   -0.0864   -0.0299   -0.0782    0.1335
          41    0.1806    0.0317    0.3289   -0.0846    0.0728    0.0794   -0.2852    0.4265
          42   -0.0396    0.0272    0.0850   -0.0283    0.0187    0.0312   -0.0335    0.1079
          43    0.1397   -0.0933    0.2889    0.0499    0.1044    0.0825    0.2262    0.3399
          44    0.1281    0.1227    0.1609    0.0882   -0.0444    0.0046    0.1928    0.3100
          45    0.0408    0.0275   -0.0841   -0.0278   -0.0197   -0.0308   -0.0330   -0.1099
          46    0.0578    0.2222    0.3235   -0.0536   -0.1422   -0.2157   -0.2807   -0.3354
          47   -0.1576   -0.0099   -0.0576   -0.0134    0.0057    0.0043   -0.0049    0.0019
          48    0.0271    0.1692    0.2616   -0.0234   -0.0454   -0.1385   -0.2197   -0.2446
          49   -0.1674    0.1027   -0.1881   -0.0119    0.0654    0.0963   -0.1121    0.1412
          50   -0.0135   -0.1980    0.2683    0.0578   -0.1255   -0.1972    0.2537   -0.2998
          51   -0.0284    0.1700   -0.2617   -0.0245    0.0451    0.1415   -0.2175    0.2413


   Root No.      25        26        27        28        29        30        31        32

                25 A      26 A      27 A      28 A      29 A      30 A      31 A      32 A   

                1173.9    1228.0    1317.2    1323.6    1376.3    1379.9    1406.6    1407.3
  
           1    0.1192   -0.0955    0.4349   -0.0582    0.4019    0.0544   -0.1974    0.0996
           2   -0.0763    0.0605   -0.2766   -0.0943   -0.2562    0.0840   -0.3023   -0.0769
           3   -0.0268    0.0607   -0.0122   -0.0001    0.0608    0.0002    0.0012   -0.0367
           4   -0.0780   -0.1446    0.0361    0.3330   -0.4399    0.1516    0.1489   -0.0050
           5   -0.0142   -0.0355    0.1222    0.1584   -0.1081   -0.0950   -0.0308    0.2585
           6   -0.0598   -0.0742    0.0349    0.1531   -0.1526   -0.0782   -0.0375    0.2076
           7   -0.0197   -0.0290   -0.0955    0.0018   -0.0878   -0.1500   -0.0757   -0.2422
           8    0.0771    0.1466   -0.0857    0.3691    0.4435    0.0995    0.1277   -0.0965
           9   -0.0555   -0.0745    0.0354   -0.1526   -0.1523    0.0763    0.0243    0.2089
          10   -0.0157   -0.0413   -0.0772   -0.0619    0.1503   -0.0451    0.0034   -0.0770
          11    0.0495   -0.1726   -0.0886    0.1417    0.0790   -0.1201    0.0359   -0.0614
          12    0.0616   -0.1140   -0.1170   -0.0488    0.1378   -0.0347    0.0142   -0.1154
          13   -0.0511    0.1393    0.0470    0.1545   -0.0077   -0.0898    0.0295    0.0239
          14   -0.0055    0.1110    0.1077    0.0039   -0.1695   -0.0932    0.0123    0.0958
          15    0.0582   -0.1131   -0.1168    0.0489    0.1372    0.0356   -0.0068   -0.1153
          16    0.0458    0.0486    0.0262   -0.1529   -0.0353    0.1021   -0.0307    0.0211
          17    0.0085   -0.1224   -0.0872   -0.0140    0.0761   -0.0074    0.0121   -0.0898
          18    0.0040    0.1439    0.0660   -0.2234   -0.0571    0.1341   -0.0492    0.0520
          19    0.0115    0.1316    0.0900    0.0522   -0.0837   -0.0507    0.0182    0.0909
          20   -0.0460    0.0065    0.0135   -0.1447   -0.0003    0.0896   -0.0239    0.0182
          21    0.0041    0.1444    0.0651    0.2232   -0.0565   -0.1344    0.0458    0.0534
          22    0.2089    0.1222   -0.3000   -0.0462   -0.1330   -0.0842    0.2307   -0.0916
          23   -0.1445   -0.1130    0.2088   -0.2066    0.0475   -0.1805    0.3794    0.1066
          24   -0.0142   -0.0001   -0.0004   -0.1076   -0.0106   -0.1474    0.3585    0.0194
          25    0.2220    0.1538   -0.3155   -0.1691   -0.0980   -0.1276    0.2542   -0.1199
          26   -0.1309   -0.0628    0.1837   -0.1286    0.1014   -0.1525    0.3664    0.0611
          27   -0.0136   -0.0001   -0.0009    0.1077   -0.0119    0.1473   -0.3591   -0.0032
          28   -0.2703    0.1864   -0.2526   -0.2501    0.1391   -0.1858   -0.1545    0.0950
          29   -0.1187    0.1162    0.0111   -0.1266    0.0580    0.0485   -0.0112   -0.0628
          30   -0.0891    0.1087    0.1748   -0.1026   -0.0322    0.3703    0.1581   -0.3800
          31   -0.2186    0.1698   -0.1381   -0.1438    0.1821   -0.1726   -0.1224    0.1074
          32   -0.1326    0.0940    0.1821   -0.0622   -0.0547    0.3664    0.1441   -0.3684
          33   -0.1059    0.0671   -0.0081   -0.0533    0.0524   -0.0133   -0.0317    0.0056
          34    0.0258   -0.0130   -0.2234    0.0044    0.1248    0.4041    0.1578    0.3914
          35    0.2506   -0.1937    0.0487   -0.1565   -0.1413   -0.0019   -0.0532    0.0555
          36   -0.1029    0.0668   -0.0087    0.0531    0.0523    0.0143    0.0314    0.0085
          37   -0.0063   -0.0264   -0.1174   -0.0092    0.0059    0.1231    0.0494    0.1016
          38    0.2893   -0.2184    0.2245   -0.2792   -0.1492   -0.1477   -0.1401   -0.0686
          39   -0.0875    0.1084    0.1744    0.1023   -0.0310   -0.3689   -0.1336   -0.3902
          40    0.1092    0.0559   -0.0002   -0.0565    0.0074    0.0184   -0.0063   -0.0080
          41    0.4248    0.3561    0.1033   -0.2009   -0.0052    0.0606   -0.0479    0.0706
          42    0.0981    0.0762   -0.0025   -0.0867    0.0565    0.0078   -0.0133   -0.0130
          43   -0.3281   -0.2982   -0.0927   -0.1582    0.0073    0.0473   -0.0363   -0.0689
          44   -0.2698   -0.2014   -0.0428   -0.1363   -0.0047    0.0423   -0.0245   -0.0237
          45    0.0936    0.0754   -0.0031    0.0864    0.0566   -0.0073    0.0139   -0.0125
          46    0.1478   -0.2726   -0.1059   -0.0891    0.0849    0.0764   -0.0169   -0.0667
          47   -0.0025   -0.0053    0.0029   -0.0514    0.0044    0.0305   -0.0076    0.0070
          48    0.1317   -0.2047   -0.0857   -0.0158    0.0768    0.0313   -0.0028   -0.0566
          49    0.0684   -0.1096   -0.0471   -0.0091    0.0317   -0.0043    0.0025   -0.0343
          50   -0.1418    0.2486    0.0951   -0.1023   -0.0790    0.0815   -0.0222    0.0571
          51    0.1390   -0.2047   -0.0859    0.0157    0.0768   -0.0306    0.0064   -0.0567


   Root No.      33        34        35        36        37        38        39        40

                33 A      34 A      35 A      36 A      37 A      38 A      39 A      40 A   

                1453.9    1851.9    1871.9    2935.6    2940.6    2953.9    3023.1    3025.0
  
           1    0.0765   -0.0074   -0.0018   -0.0019    0.0033    0.0040    0.0530   -0.0020
           2    0.1199    0.0047   -0.0029    0.0013    0.0052   -0.0026    0.0830    0.0057
           3    0.0000    0.0015   -0.0000    0.1576    0.0004   -0.2613   -0.0004    0.0110
           4   -0.1760   -0.0242    0.0133    0.0134   -0.0132    0.0046    0.0770   -0.0773
           5   -0.2504   -0.0680    0.0576    0.1035   -0.1229    0.0663   -0.1104    0.1155
           6   -0.1807   -0.0293    0.0229   -0.1517    0.1757   -0.0889   -0.0525    0.0535
           7   -0.1532    0.0518    0.0462   -0.0876   -0.1054   -0.0581   -0.1237   -0.1453
           8   -0.2664    0.0511    0.0360   -0.0557   -0.0639   -0.0323    0.0215    0.0223
           9    0.1809   -0.0294   -0.0226   -0.1515   -0.1761   -0.0894    0.0488    0.0564
          10    0.1422    0.0134    0.0076    0.0030   -0.0038    0.0036   -0.0086    0.0089
          11    0.2688    0.5030   -0.4580   -0.0044    0.0050   -0.0020    0.0037   -0.0051
          12    0.1614   -0.0395    0.0452    0.0048   -0.0065    0.0038   -0.0114    0.0132
          13    0.1832   -0.4536   -0.4142    0.0052    0.0061    0.0033    0.0065    0.0088
          14    0.2434   -0.2267   -0.1850   -0.0009   -0.0014   -0.0024   -0.0058   -0.0063
          15   -0.1613   -0.0405   -0.0455    0.0048    0.0065    0.0038    0.0106    0.0139
          16   -0.2085    0.0276   -0.1398   -0.0002    0.0008   -0.0000    0.0005   -0.0007
          17    0.0888   -0.4486    0.4541   -0.0000   -0.0005   -0.0000    0.0011   -0.0002
          18   -0.2935    0.1170   -0.2284   -0.0007    0.0012   -0.0004    0.0002   -0.0006
          19    0.1690    0.4220    0.4669   -0.0001   -0.0008    0.0000    0.0009   -0.0001
          20   -0.1518    0.1654    0.0640    0.0002    0.0005    0.0000    0.0009    0.0007
          21    0.2935    0.1193    0.2278   -0.0007   -0.0012   -0.0004   -0.0002   -0.0006
          22   -0.0491    0.0068    0.0014    0.1151   -0.0022   -0.1993   -0.0958    0.0010
          23   -0.0115   -0.0067   -0.0029    0.1769   -0.0134   -0.2955   -0.1382    0.0104
          24   -0.0499   -0.0017   -0.0009   -0.2756    0.0198    0.4527    0.2582   -0.0090
          25    0.0099    0.0089   -0.0032   -0.1115   -0.0117    0.1832   -0.0837   -0.0155
          26   -0.0490   -0.0033    0.0000   -0.1793   -0.0086    0.3060   -0.1445   -0.0163
          27    0.0499   -0.0017    0.0009   -0.2756   -0.0211    0.4529   -0.2567   -0.0287
          28    0.0483   -0.0126    0.0132    0.1112   -0.1326    0.0764   -0.1519    0.1640
          29    0.0365   -0.0226    0.0213   -0.2944    0.3500   -0.1978    0.4547   -0.4793
          30    0.1429   -0.0165    0.0163    0.0849   -0.1006    0.0570   -0.1729    0.1825
          31    0.0176    0.0027    0.0026   -0.1553    0.1832   -0.0959   -0.1132    0.1176
          32    0.1538    0.0176   -0.0168   -0.0589    0.0673   -0.0317   -0.0746    0.0778
          33    0.0142    0.0025   -0.0016    0.4467   -0.5134    0.2494    0.3576   -0.3698
          34    0.1330   -0.0150   -0.0162   -0.0135   -0.0178   -0.0125   -0.0175   -0.0210
          35    0.0815   -0.0099   -0.0047    0.1647    0.1940    0.1004   -0.1246   -0.1470
          36   -0.0138    0.0024    0.0015    0.4457    0.5140    0.2505   -0.3335   -0.3912
          37    0.0131    0.0153    0.0137    0.3130    0.3733    0.2120    0.4428    0.5310
          38    0.0590    0.0213    0.0208    0.0240    0.0282    0.0147    0.0514    0.0578
          39   -0.1438   -0.0166   -0.0161    0.0854    0.1014    0.0576    0.1618    0.1937
          40   -0.0207   -0.0446    0.0450   -0.0108    0.0137   -0.0075    0.0257   -0.0296
          41   -0.1632   -0.0167   -0.0045    0.0103   -0.0128    0.0071   -0.0159    0.0181
          42   -0.0051   -0.0710    0.0610   -0.0185    0.0231   -0.0126    0.0361   -0.0420
[...]
 TRAVEL (Ang.)       0.2336         C  1 -- C  2         +11.7% ( 42.8%)     49.7%
 REDUCED MASS        0.9381         C  1 -- C  3         +11.7% ( 42.8%)     49.4%
 EFFECTIVE MASS      4.5904
 FORCE CONSTANT      0.9590

 VIBRATION         28   28A           ATOM PAIR      ENERGY CONTRIBUTION    RADIAL
 FREQUENCY          1323.56         C  2 -- H 10         +11.1% ( 46.0%)      0.0%
 TRANSITION DIPOLE   0.0156         C  3 -- H 13         +11.1% ( 46.0%)      0.0%
 TRAVEL (Ang.)       0.2542         C  6 -- C  7          +9.2% ( 42.0%)     96.4%
 REDUCED MASS        0.7885         C  2 -- H 11          +7.7% ( 38.5%)      0.0%
 EFFECTIVE MASS      6.4734
 FORCE CONSTANT      0.8138

 VIBRATION         29   29A           ATOM PAIR      ENERGY CONTRIBUTION    RADIAL
 FREQUENCY          1376.30         C  1 -- C  2         +15.2% ( 61.0%)     91.3%
 TRANSITION DIPOLE   0.1199         C  1 -- C  3         +15.1% ( 60.9%)     91.4%
 TRAVEL (Ang.)       0.1584         C  2 -- C  4          +9.2% ( 47.6%)     63.2%
 REDUCED MASS        1.9518         C  3 -- C  5          +9.2% ( 47.5%)     63.2%
 EFFECTIVE MASS      9.6915
 FORCE CONSTANT      2.1783

 VIBRATION         30   30A           ATOM PAIR      ENERGY CONTRIBUTION    RADIAL
 FREQUENCY          1379.94         C  2 -- H 10         +14.4% ( 38.2%)      3.8%
 TRANSITION DIPOLE   0.0331         C  3 -- H 13         +14.3% ( 38.1%)      3.8%
 TRAVEL (Ang.)       0.5126         C  2 -- H 11         +13.5% ( 37.0%)      3.8%
 REDUCED MASS        0.1860         C  3 -- H 12         +13.5% ( 37.0%)      3.8%
 EFFECTIVE MASS      2.7090
 FORCE CONSTANT      0.2086

 VIBRATION         31   31A           ATOM PAIR      ENERGY CONTRIBUTION    RADIAL
 FREQUENCY          1406.63         C  1 -- H  9         +29.6% ( 55.6%)      5.2%
 TRANSITION DIPOLE   0.0024         C  1 -- H  8         +29.4% ( 55.5%)      5.4%
 TRAVEL (Ang.)       0.3304         C  1 -- C  2         +10.0% ( 32.4%)     61.5%
 REDUCED MASS        0.4392         C  1 -- C  3          +9.9% ( 32.3%)     57.0%
 EFFECTIVE MASS      2.7897
 FORCE CONSTANT      0.5121

 VIBRATION         32   32A           ATOM PAIR      ENERGY CONTRIBUTION    RADIAL
 FREQUENCY          1407.32         C  3 -- H 13         +14.5% ( 43.8%)      5.3%
 TRANSITION DIPOLE   0.0477         C  3 -- H 12         +13.9% ( 43.0%)      5.1%
 TRAVEL (Ang.)       0.3399         C  2 -- H 10         +13.9% ( 42.9%)      5.3%
 REDUCED MASS        0.4147         C  2 -- H 11         +13.4% ( 42.2%)      5.0%
 EFFECTIVE MASS      4.1068
 FORCE CONSTANT      0.4840

 VIBRATION         33   33A           ATOM PAIR      ENERGY CONTRIBUTION    RADIAL
 FREQUENCY          1453.91         C  6 -- C  7         +13.8% ( 55.1%)     99.9%
 TRANSITION DIPOLE   0.0923         C  3 -- C  5         +11.0% ( 49.2%)     99.1%
 TRAVEL (Ang.)       0.1975         C  2 -- C  4         +10.9% ( 49.1%)     99.1%
 REDUCED MASS        1.1894         C  5 -- C  7          +7.4% ( 40.5%)      0.8%
 EFFECTIVE MASS      9.5437
 FORCE CONSTANT      1.4813

 VIBRATION         34   34A           ATOM PAIR      ENERGY CONTRIBUTION    RADIAL
 FREQUENCY          1851.87         C  5 -- C  7         +22.8% ( 70.1%)     99.4%
 TRANSITION DIPOLE   0.1333         C  4 -- C  6         +22.4% ( 69.5%)     99.4%
 TRAVEL (Ang.)       0.1156         C  6 -- C  7         +11.8% ( 50.5%)      0.0%
 REDUCED MASS        2.7233         C  3 -- C  5          +7.9% ( 41.3%)     52.4%
 EFFECTIVE MASS     11.7842
 FORCE CONSTANT      5.5025

 VIBRATION         35   35A           ATOM PAIR      ENERGY CONTRIBUTION    RADIAL
 FREQUENCY          1871.88         C  4 -- C  6         +21.9% ( 69.1%)     98.7%
 TRANSITION DIPOLE   0.1760         C  5 -- C  7         +21.5% ( 68.5%)     98.7%
 TRAVEL (Ang.)       0.1117         C  6 -- C  7         +17.7% ( 62.1%)     90.2%
 REDUCED MASS        2.8877         C  6 -- H 17          +7.5% ( 40.5%)      1.5%
 EFFECTIVE MASS     11.9258
 FORCE CONSTANT      5.9616

 VIBRATION         36   36A           ATOM PAIR      ENERGY CONTRIBUTION    RADIAL
 FREQUENCY          2935.58         C  2 -- H 11         +23.8% ( 50.8%)     97.9%
 TRANSITION DIPOLE   0.0564         C  3 -- H 12         +23.7% ( 50.7%)     97.9%
 TRAVEL (Ang.)       0.3474         C  1 -- H  9         +13.1% ( 37.6%)     96.1%
 REDUCED MASS        0.1903         C  1 -- H  8         +13.1% ( 37.6%)     96.1%
 EFFECTIVE MASS      1.5516         C  2 -- H 10         +11.9% ( 35.9%)     93.6%
 FORCE CONSTANT      0.9663         C  3 -- H 13         +11.9% ( 35.9%)     93.6%

 VIBRATION         37   37A           ATOM PAIR      ENERGY CONTRIBUTION    RADIAL
 FREQUENCY          2940.60         C  3 -- H 12         +31.8% ( 58.6%)     97.8%
 TRANSITION DIPOLE   0.0085         C  2 -- H 11         +31.8% ( 58.5%)     97.8%
 TRAVEL (Ang.)       0.2859         C  3 -- H 13         +16.9% ( 42.6%)     94.1%
 REDUCED MASS        0.2805         C  2 -- H 10         +16.8% ( 42.6%)     94.1%
 EFFECTIVE MASS      1.5430
 FORCE CONSTANT      1.4290

 VIBRATION         38   38A           ATOM PAIR      ENERGY CONTRIBUTION    RADIAL
 FREQUENCY          2953.88         C  1 -- H  9         +35.9% ( 62.1%)     96.5%
 TRANSITION DIPOLE   0.0269         C  1 -- H  8         +35.9% ( 62.0%)     96.5%
 TRAVEL (Ang.)       0.2770         C  3 -- H 12          +7.7% ( 28.7%)     97.6%
 REDUCED MASS        0.2975         C  2 -- H 11          +7.6% ( 28.6%)     97.6%
 EFFECTIVE MASS      1.5332
 FORCE CONSTANT      1.5296

 VIBRATION         39   39A           ATOM PAIR      ENERGY CONTRIBUTION    RADIAL
 FREQUENCY          3023.08         C  2 -- H 10         +27.3% ( 51.6%)     99.0%
 TRANSITION DIPOLE   0.0245         C  3 -- H 13         +23.7% ( 48.0%)     99.0%
 TRAVEL (Ang.)       0.3471         C  2 -- H 11         +14.8% ( 38.0%)     95.1%
 REDUCED MASS        0.1851         C  3 -- H 12         +12.9% ( 35.4%)     95.1%
 EFFECTIVE MASS      1.2892
 FORCE CONSTANT      0.9968

 VIBRATION         40   40A           ATOM PAIR      ENERGY CONTRIBUTION    RADIAL
 FREQUENCY          3024.99         C  3 -- H 13         +33.9% ( 57.4%)     99.1%
 TRANSITION DIPOLE   0.0549         C  2 -- H 10         +30.4% ( 54.4%)     99.1%
 TRAVEL (Ang.)       0.2935         C  3 -- H 12         +17.7% ( 41.5%)     95.1%
 REDUCED MASS        0.2587         C  2 -- H 11         +15.8% ( 39.2%)     95.1%
 EFFECTIVE MASS      1.2785
 FORCE CONSTANT      1.3949

 VIBRATION         41   41A           ATOM PAIR      ENERGY CONTRIBUTION    RADIAL
 FREQUENCY          3034.83         C  1 -- H  8         +39.4% ( 61.7%)     97.9%
 TRANSITION DIPOLE   0.0117         C  1 -- H  9         +39.3% ( 61.7%)     97.9%
 TRAVEL (Ang.)       0.2641         C  3 -- H 13          +7.0% ( 26.1%)     99.4%
 REDUCED MASS        0.3186         C  2 -- H 10          +6.9% ( 25.8%)     99.4%
 EFFECTIVE MASS      1.2740
 FORCE CONSTANT      1.7288

 VIBRATION         42   42A           ATOM PAIR      ENERGY CONTRIBUTION    RADIAL
 FREQUENCY          3042.61         C  7 -- H 16         +36.5% ( 61.4%)    100.0%
 TRANSITION DIPOLE   0.1926         C  6 -- H 17         +34.6% ( 59.8%)    100.0%
 TRAVEL (Ang.)       0.2808         C  5 -- H 15         +13.5% ( 37.4%)    100.0%
 REDUCED MASS        0.2810         C  4 -- H 14         +12.7% ( 36.2%)    100.0%
 EFFECTIVE MASS      1.4677
 FORCE CONSTANT      1.5325

 VIBRATION         43   43A           ATOM PAIR      ENERGY CONTRIBUTION    RADIAL
 FREQUENCY          3046.33         C  6 -- H 17         +26.9% ( 52.6%)    100.0%
 TRANSITION DIPOLE   0.3236         C  7 -- H 16         +25.3% ( 51.0%)    100.0%
 TRAVEL (Ang.)       0.3102         C  4 -- H 14         +22.8% ( 48.4%)    100.0%
 REDUCED MASS        0.2300         C  5 -- H 15         +21.7% ( 47.3%)    100.0%
 EFFECTIVE MASS      1.4522
 FORCE CONSTANT      1.2577

 VIBRATION         44   44A           ATOM PAIR      ENERGY CONTRIBUTION    RADIAL
 FREQUENCY          3062.69         C  5 -- H 15         +35.5% ( 60.4%)     99.9%
 TRANSITION DIPOLE   0.4069         C  4 -- H 14         +34.4% ( 59.5%)     99.9%
 TRAVEL (Ang.)       0.2816         C  7 -- H 16         +13.3% ( 36.9%)     99.8%
 REDUCED MASS        0.2776         C  6 -- H 17         +12.8% ( 36.3%)     99.8%
 EFFECTIVE MASS      1.5634
 FORCE CONSTANT      1.5341

 VIBRATION         45   45A           ATOM PAIR      ENERGY CONTRIBUTION    RADIAL
 FREQUENCY          3067.71         C  4 -- H 14         +26.0% ( 51.7%)     99.9%
 TRANSITION DIPOLE   0.2086         C  5 -- H 15         +25.2% ( 50.9%)     99.9%
 TRAVEL (Ang.)       0.3080         C  6 -- H 17         +22.7% ( 48.2%)     99.9%
 REDUCED MASS        0.2317         C  7 -- H 16         +22.0% ( 47.5%)     99.9%
 EFFECTIVE MASS      1.5956
 FORCE CONSTANT      1.2849

      SYMMETRY NUMBER FOR POINT-GROUP C1  =  1


          SYSTEM IS A GROUND STATE



 InChI=1S/C7H10/c1-2-4-6-7-5-3-1/h1-4H,5-7H2


          MOLECULE IS NOT LINEAR

          THERE ARE 45 GENUINE VIBRATIONS IN THIS SYSTEM
          THIS THERMODYNAMICS CALCULATION IS LIMITED TO
          MOLECULES WHICH HAVE NO INTERNAL ROTATIONS




                    CALCULATED THERMODYNAMIC PROPERTIES
                                          *
   TEMP. (K)   PARTITION FUNCTION   H.O.F.    ENTHALPY  HEAT CAPACITY ENTROPY
                                   KCAL/MOL   CAL/MOLE    CAL/K/MOL  CAL/K/MOL


 298.00  VIB.     0.1002D+02                  2232.2039    19.0420    12.0695
         ROT.     0.1762D+06                   888.2803     2.9808    26.9848
         INT.     0.1765D+07                  3120.4842    22.0228    39.0543
         TRA.     0.8833D+27                  1480.4672     4.9680    39.5363
         TOT.                       20.685    4600.9513    26.9908    78.5906

 200.00  VIB.     0.3254D+01                   814.6009    10.2182     6.4179
         ROT.     0.9687D+05                   596.1613     2.9808    25.7961
         INT.     0.3153D+06                  1410.7621    13.1990    32.2141
         TRA.     0.4856D+27                   993.6021     4.9680    37.5551
         TOT.                       18.489    2404.3643    18.1671    69.7692

 210.00  VIB.     0.3610D+01                   920.7285    11.0124     6.9356
         ROT.     0.1042D+06                   625.9693     2.9808    25.9416
         INT.     0.3763D+06                  1546.6978    13.9933    32.8771
         TRA.     0.5225D+27                  1043.2822     4.9680    37.7975
         TOT.                       18.674    2589.9801    18.9613    70.6747

 220.00  VIB.     0.4015D+01                  1034.9510    11.8370     7.4668
         ROT.     0.1118D+06                   655.7774     2.9808    26.0802
         INT.     0.4487D+06                  1690.7284    14.8178    33.5470
         TRA.     0.5603D+27                  1092.9623     4.9680    38.0286
         TOT.                       18.868    2783.6907    19.7858    71.5756

 230.00  VIB.     0.4477D+01                  1157.5640    12.6902     8.0117
         ROT.     0.1195D+06                   685.5855     2.9808    26.2127
         INT.     0.5349D+06                  1843.1495    15.6710    34.2244
         TRA.     0.5989D+27                  1142.6424     4.9680    38.2495
         TOT.                       19.070    2985.7920    20.6390    72.4739

 240.00  VIB.     0.5005D+01                  1288.8437    13.5699     8.5703
         ROT.     0.1273D+06                   715.3935     2.9808    26.3396
         INT.     0.6373D+06                  2004.2372    16.5507    34.9099
         TRA.     0.6384D+27                  1192.3226     4.9680    38.4609
         TOT.                       19.281    3196.5597    21.5187    73.3708

 250.00  VIB.     0.5608D+01                  1429.0410    14.4733     9.1425
         ROT.     0.1354D+06                   745.2016     2.9808    26.4613
         INT.     0.7592D+06                  2174.2426    17.4541    35.6037
         TRA.     0.6787D+27                  1242.0027     4.9680    38.6637
         TOT.                       19.501    3416.2453    22.4221    74.2674

 260.00  VIB.     0.6299D+01                  1578.3787    15.3974     9.7280
         ROT.     0.1436D+06                   775.0097     2.9808    26.5782
         INT.     0.9045D+06                  2353.3883    18.3782    36.3062
         TRA.     0.7198D+27                  1291.6828     4.9680    38.8586
         TOT.                       19.730    3645.0711    23.3463    75.1648

 270.00  VIB.     0.7093D+01                  1737.0483    16.3392    10.3268
         ROT.     0.1519D+06                   804.8177     2.9808    26.6907
         INT.     0.1078D+07                  2541.8660    19.3200    37.0174
         TRA.     0.7618D+27                  1341.3629     4.9680    39.0461
         TOT.                       19.968    3883.2289    24.2880    76.0635

 280.00  VIB.     0.8007D+01                  1905.2095    17.2952    10.9382
         ROT.     0.1605D+06                   834.6258     2.9808    26.7991
         INT.     0.1285D+07                  2739.8352    20.2760    37.7373
         TRA.     0.8045D+27                  1391.0430     4.9680    39.2267
         TOT.                       20.215    4130.8782    25.2440    76.9640

 290.00  VIB.     0.9059D+01                  2082.9893    18.2624    11.5620
         ROT.     0.1691D+06                   864.4339     2.9808    26.9037
         INT.     0.1532D+07                  2947.4232    21.2432    38.4657
         TRA.     0.8479D+27                  1440.7231     4.9680    39.4011
         TOT.                       20.473    4388.1463    26.2112    77.8667

 300.00  VIB.     0.1027D+02                  2270.4833    19.2375    12.1975
         ROT.     0.1780D+06                   894.2419     2.9808    27.0047
         INT.     0.1828D+07                  3164.7253    22.2183    39.2023
         TRA.     0.8922D+27                  1490.4032     4.9680    39.5695
         TOT.                       20.740    4655.1285    27.1863    78.7718

 310.00  VIB.     0.1168D+02                  2467.7564    20.2177    12.8443
         ROT.     0.1869D+06                   924.0500     2.9808    27.1025
         INT.     0.2183D+07                  3391.8063    23.1985    39.9468
         TRA.     0.9372D+27                  1540.0833     4.9680    39.7324
         TOT.                       21.016    4931.8896    28.1665    79.6792

 320.00  VIB.     0.1330D+02                  2674.8443    21.2001    13.5017
         ROT.     0.1960D+06                   953.8580     2.9808    27.1971
         INT.     0.2608D+07                  3628.7024    24.1809    40.6988
         TRA.     0.9829D+27                  1589.7634     4.9680    39.8901
         TOT.                       21.303    5218.4658    29.1489    80.5889

 330.00  VIB.     0.1519D+02                  2891.7563    22.1821    14.1691
         ROT.     0.2053D+06                   983.6661     2.9808    27.2888
         INT.     0.3118D+07                  3875.4224    25.1629    41.4579
         TRA.     0.1029D+28                  1639.4435     4.9680    40.0430
         TOT.                       21.599    5514.8660    30.1309    81.5009

 340.00  VIB.     0.1738D+02                  3118.4767    23.1614    14.8458
         ROT.     0.2147D+06                  1013.4742     2.9808    27.3778
         INT.     0.3731D+07                  4131.9509    26.1422    42.2237
         TRA.     0.1076D+28                  1689.1236     4.9680    40.1913
         TOT.                       21.906    5821.0745    31.1102    82.4150

 350.00  VIB.     0.1992D+02                  3354.9674    24.1358    15.5313
         ROT.     0.2243D+06                  1043.2822     2.9808    27.4642
         INT.     0.4468D+07                  4398.2497    27.1166    42.9955
         TRA.     0.1124D+28                  1738.8037     4.9680    40.3353
         TOT.                       22.222    6137.0534    32.0846    83.3308

 360.00  VIB.     0.2289D+02                  3601.1705    25.1035    16.2248
         ROT.     0.2339D+06                  1073.0903     2.9808    27.5482
         INT.     0.5355D+07                  4674.2608    28.0843    43.7730
         TRA.     0.1173D+28                  1788.4838     4.9680    40.4753
         TOT.                       22.547    6462.7446    33.0523    84.2483

 370.00  VIB.     0.2635D+02                  3857.0100    26.0628    16.9257
         ROT.     0.2437D+06                  1102.8984     2.9808    27.6299
         INT.     0.6424D+07                  4959.9083    29.0437    44.5556
         TRA.     0.1222D+28                  1838.1639     4.9680    40.6114
         TOT.                       22.883    6798.0723    34.0117    85.1670

 380.00  VIB.     0.3040D+02                  4122.3947    27.0123    17.6334
         ROT.     0.2537D+06                  1132.7064     2.9808    27.7094
         INT.     0.7712D+07                  5255.1011    29.9932    45.3428
         TRA.     0.1272D+28                  1887.8440     4.9680    40.7439
         TOT.                       23.227    7142.9451    34.9612    86.0866

 390.00  VIB.     0.3512D+02                  4397.2200    27.9508    18.3472
         ROT.     0.2638D+06                  1162.5145     2.9808    27.7868
         INT.     0.9265D+07                  5559.7345    30.9316    46.1340
         TRA.     0.1322D+28                  1937.5242     4.9680    40.8729
         TOT.                       23.582    7497.2587    35.8996    87.0069

 400.00  VIB.     0.4066D+02                  4681.3701    28.8771    19.0666
         ROT.     0.2740D+06                  1192.3226     2.9808    27.8623
         INT.     0.1114D+08                  5873.6927    31.8579    46.9288
         TRA.     0.1374D+28                  1987.2043     4.9680    40.9987
         TOT.                       23.945    7860.8969    36.8260    87.9275

   *: NOTE: HEATS OF FORMATION ARE RELATIVE TO THE
            ELEMENTS IN THEIR STANDARD STATE AT 298K
              (=  Standard Enthalpy of Formation).

            Hvib:  Zero-point energy is not included.
                   frequencies of less than zero cm-1 are not included.
            Hrot = (3/2)RT
            Htra = (3/2)RT + pV = (5/2)RT

            Heat capacity is Cp, not Cv

          For more information, see: HTTP://OpenMOPAC.net/Manual/thermochemistry.html


           FORCE CONSTANT IN CARTESIAN COORDINATES (Millidynes/A)

    ATOM   CHEMICAL       X               Y               Z
   NUMBER   SYMBOL  FORCE CONSTANT  FORCE CONSTANT  FORCE CONSTANT

      1       C        8.058863        8.181780        8.186141
      2       C        7.963949        9.065389        8.126790
      3       C        8.738658        8.296786        8.126126
      4       C        4.875764       14.629248        7.391301
      5       C       13.050808        6.457693        7.388529
      6       C        5.356397       14.712050        7.505744
      7       C       12.941241        7.135168        7.494739
      8       H        1.166452        1.714055        3.495721
      9       H        1.122822        1.757990        3.495206
     10       H        1.151923        4.132563        1.098583
     11       H        1.115636        0.765937        4.357488
     12       H        0.664906        1.213884        4.360745
     13       H        4.518115        0.760868        1.104010
     14       H        1.716552        1.175851        3.346662
     15       H        1.799806        1.091938        3.348383
     16       H        1.448813        2.800671        1.947415
     17       H        1.440421        2.801759        1.956801

 **********************
 *                    *
 * JOB ENDED NORMALLY *
 *                    *
 **********************



 TOTAL JOB TIME:             1.17 SECONDS

 == MOPAC DONE ==
