 *******************************************************************************
 **                                                                           **
 **                              MOPAC v23.1.2                                **
 **                                                                           **
 *******************************************************************************
 **          Digital Object Identifier (DOI): 10.5281/zenodo.6511958          **
 **    Visit the DOI location for information on how to cite this program.    **
 *******************************************************************************

                              PM3 CALCULATION RESULTS

 *******************************************************************************
 *  CALCULATION DONE: (MAX THREADS = 1)              Tue Jun  3 16:27:56 2025  *
 *  PM3        - The PM3 Hamiltonian to be used
 *  PRECISE    - TIGHTER CRITERIA TO BE USED
 *  NOSYM      - POINT-GROUP SYMMETRY SET TO C1
 *  THREADS=1  - MULTI-THREADING NOT USED
 *  T=         - A TIME OF 172800.0 SECONDS REQUESTED
 *  DUMP=N     - RESTART FILE WRITTEN EVERY 7200.0 SECONDS REQUESTED
 *******************************************************************************
pm3  precise nosym THREADS=1
 InChI=1S/C10H10/c1-8-6-7-9-4-2-3-5-10(8)9/h2-3,5,7H,1,4,6H2

   ATOM   CHEMICAL          X               Y               Z
  NUMBER   SYMBOL      (ANGSTROMS)     (ANGSTROMS)     (ANGSTROMS)

     1       C          1.94940000  *  -1.12550000  *   0.21920000  *
     2       C         -1.85890000  *  -1.02160000  *   0.34330000  *
     3       C         -0.37650000  *  -0.81100000  *   0.22880000  *
     4       C          1.64150000  *   0.29700000  *  -0.14360000  *
     5       C          0.19530000  *   0.46150000  *  -0.12950000  *
     6       C          0.57800000  *  -1.71220000  *   0.42840000  *
     7       C         -2.62640000  *   0.25180000  *   0.03810000  *
     8       C         -0.55590000  *   1.53310000  *  -0.38210000  *
     9       C         -2.02770000  *   1.41260000  *  -0.29180000  *
    10       C          2.54990000  *   1.22950000  *  -0.42560000  *
    11       H          2.54070000  *  -1.17610000  *   1.15800000  *
    12       H          2.47020000  *  -1.64330000  *  -0.61400000  *
    13       H         -2.10350000  *  -1.35210000  *   1.37470000  *
    14       H         -2.17290000  *  -1.81220000  *  -0.37030000  *
    15       H          0.38890000  *  -2.74070000  *   0.70710000  *
    16       H         -3.70740000  *   0.21940000  *   0.08960000  *
    17       H         -0.10860000  *   2.48080000  *  -0.64980000  *
    18       H         -2.63600000  *   2.28400000  *  -0.49740000  *
    19       H          3.60440000  *   0.98640000  *  -0.40350000  *
    20       H          2.25560000  *   2.23870000  *  -0.68000000  *



          CARTESIAN COORDINATES 

    NO.       ATOM           X           Y           Z

     1         C          1.9494     -1.1255      0.2192
     2         C         -1.8589     -1.0216      0.3433
     3         C         -0.3765     -0.8110      0.2288
     4         C          1.6415      0.2970     -0.1436
     5         C          0.1953      0.4615     -0.1295
     6         C          0.5780     -1.7122      0.4284
     7         C         -2.6264      0.2518      0.0381
     8         C         -0.5559      1.5331     -0.3821
     9         C         -2.0277      1.4126     -0.2918
    10         C          2.5499      1.2295     -0.4256
    11         H          2.5407     -1.1761      1.1580
    12         H          2.4702     -1.6433     -0.6140
    13         H         -2.1035     -1.3521      1.3747
    14         H         -2.1729     -1.8122     -0.3703
    15         H          0.3889     -2.7407      0.7071
    16         H         -3.7074      0.2194      0.0896
    17         H         -0.1086      2.4808     -0.6498
    18         H         -2.6360      2.2840     -0.4974
    19         H          3.6044      0.9864     -0.4035
    20         H          2.2556      2.2387     -0.6800

  H: (PM3): J. J. P. STEWART, J. COMP. CHEM. 10, 209 (1989).
  C: (PM3): J. J. P. STEWART, J. COMP. CHEM. 10, 209 (1989).

           Empirical Formula: C10 H10  =    20 atoms



      MOLECULAR POINT GROUP   :   C1  


      RHF CALCULATION, NO. OF DOUBLY OCCUPIED LEVELS = 25


          Geometry optimization using EF

          DIAGONAL MATRIX USED AS START HESSIAN

 CYCLE:     1 TIME:   0.008 TIME LEFT:  2.00D  GRAD.:    98.697 HEAT:  57.59597
 CYCLE:     2 TIME:   0.012 TIME LEFT:  2.00D  GRAD.:   119.849 HEAT:  57.19108
 CYCLE:     3 TIME:   0.012 TIME LEFT:  2.00D  GRAD.:    53.957 HEAT:  55.28918
 CYCLE:     4 TIME:   0.008 TIME LEFT:  2.00D  GRAD.:    26.850 HEAT:  54.72659
 CYCLE:     5 TIME:   0.008 TIME LEFT:  2.00D  GRAD.:    35.663 HEAT:  54.56105
 CYCLE:     6 TIME:   0.008 TIME LEFT:  2.00D  GRAD.:    34.468 HEAT:  54.38987
 CYCLE:     7 TIME:   0.004 TIME LEFT:  2.00D  GRAD.:    27.747 HEAT:  54.26489
 CYCLE:     8 TIME:   0.012 TIME LEFT:  2.00D  GRAD.:    23.239 HEAT:  54.14892
 CYCLE:     9 TIME:   0.012 TIME LEFT:  2.00D  GRAD.:    11.029 HEAT:  54.05323
 CYCLE:    10 TIME:   0.008 TIME LEFT:  2.00D  GRAD.:     7.217 HEAT:  54.02562
 CYCLE:    11 TIME:   0.008 TIME LEFT:  2.00D  GRAD.:     8.148 HEAT:  54.00237
 CYCLE:    12 TIME:   0.004 TIME LEFT:  2.00D  GRAD.:     7.377 HEAT:  53.97089
 CYCLE:    13 TIME:   0.012 TIME LEFT:  2.00D  GRAD.:     6.499 HEAT:  53.96048
 CYCLE:    14 TIME:   0.008 TIME LEFT:  2.00D  GRAD.:     3.865 HEAT:  53.94960
 CYCLE:    15 TIME:   0.012 TIME LEFT:  2.00D  GRAD.:     3.549 HEAT:  53.93956
 CYCLE:    16 TIME:   0.004 TIME LEFT:  2.00D  GRAD.:     5.946 HEAT:  53.93807
 CYCLE:    17 TIME:   0.008 TIME LEFT:  2.00D  GRAD.:     3.747 HEAT:  53.92932
 CYCLE:    18 TIME:   0.004 TIME LEFT:  2.00D  GRAD.:     3.980 HEAT:  53.92855
 CYCLE:    19 TIME:   0.008 TIME LEFT:  2.00D  GRAD.:     1.820 HEAT:  53.92467
 CYCLE:    20 TIME:   0.008 TIME LEFT:  2.00D  GRAD.:     1.857 HEAT:  53.92424
 CYCLE:    21 TIME:   0.004 TIME LEFT:  2.00D  GRAD.:     1.076 HEAT:  53.92309
 CYCLE:    22 TIME:   0.008 TIME LEFT:  2.00D  GRAD.:     1.161 HEAT:  53.92274
 CYCLE:    23 TIME:   0.008 TIME LEFT:  2.00D  GRAD.:     0.666 HEAT:  53.92198
 CYCLE:    24 TIME:   0.004 TIME LEFT:  2.00D  GRAD.:     0.842 HEAT:  53.92156
 CYCLE:    25 TIME:   0.008 TIME LEFT:  2.00D  GRAD.:     0.542 HEAT:  53.92122
 CYCLE:    26 TIME:   0.008 TIME LEFT:  2.00D  GRAD.:     0.510 HEAT:  53.92112
 CYCLE:    27 TIME:   0.008 TIME LEFT:  2.00D  GRAD.:     0.316 HEAT:  53.92102
 CYCLE:    28 TIME:   0.008 TIME LEFT:  2.00D  GRAD.:     0.389 HEAT:  53.92097
 CYCLE:    29 TIME:   0.004 TIME LEFT:  2.00D  GRAD.:     0.240 HEAT:  53.92092
 CYCLE:    30 TIME:   0.004 TIME LEFT:  2.00D  GRAD.:     0.170 HEAT:  53.92090
 CYCLE:    31 TIME:   0.008 TIME LEFT:  2.00D  GRAD.:     0.138 HEAT:  53.92089
 CYCLE:    32 TIME:   0.008 TIME LEFT:  2.00D  GRAD.:     0.091 HEAT:  53.92088
 CYCLE:    33 TIME:   0.004 TIME LEFT:  2.00D  GRAD.:     0.095 HEAT:  53.92087
 CYCLE:    34 TIME:   0.008 TIME LEFT:  2.00D  GRAD.:     0.112 HEAT:  53.92085
 CYCLE:    35 TIME:   0.008 TIME LEFT:  2.00D  GRAD.:     0.081 HEAT:  53.92084
 CYCLE:    36 TIME:   0.004 TIME LEFT:  2.00D  GRAD.:     0.071 HEAT:  53.92083
 CYCLE:    37 TIME:   0.008 TIME LEFT:  2.00D  GRAD.:     0.071 HEAT:  53.92082
 CYCLE:    38 TIME:   0.008 TIME LEFT:  2.00D  GRAD.:     0.049 HEAT:  53.92082

     GRADIENT =  0.04907 IS LESS THAN CUTOFF =  0.05000



 -------------------------------------------------------------------------------
 pm3  precise nosym THREADS=1
 InChI=1S/C10H10/c1-8-6-7-9-4-2-3-5-10(8)9/h2-3,5,7H,1,4,6H2



     GEOMETRY OPTIMISED USING EIGENVECTOR FOLLOWING (EF).     
     SCF FIELD WAS ACHIEVED                                   


                              PM3 CALCULATION
                                                       MOPAC v23.1.2 MacOS
                                                       Tue Jun  3 16:27:56 2025




          FINAL HEAT OF FORMATION =         53.92082 KCAL/MOL =     225.60470 KJ/MOL


          COSMO AREA              =        172.82 SQUARE ANGSTROMS
          COSMO VOLUME            =        172.76 CUBIC ANGSTROMS

          GRADIENT NORM           =          0.04907          =       0.01097 PER ATOM
          IONIZATION POTENTIAL    =          8.262783 EV
          HOMO LUMO ENERGIES (EV) =         -8.263 -0.414
          NO. OF FILLED LEVELS    =         25
          MOLECULAR WEIGHT        =        130.1890         POINT GROUP:  C1  

          MOLECULAR DIMENSIONS (Angstroms)

            Atom       Atom       Distance
            H    19    H    16     7.38419
            H    18    H    15     5.59573
            H    12    H    11     1.77532


          SCF CALCULATIONS        =         47

          WALL-CLOCK TIME         =      0.301 SECONDS
          COMPUTATION TIME        =      0.186 SECONDS




   ATOM   CHEMICAL          X               Y               Z
  NUMBER   SYMBOL      (ANGSTROMS)     (ANGSTROMS)     (ANGSTROMS)

     1       C          1.93796160  *  -1.13241045  *   0.22173003  *
     2       C         -1.86153256  *  -0.99598682  *   0.33637829  *
     3       C         -0.39314397  *  -0.83714354  *   0.23632618  *
     4       C          1.64415060  *   0.30332035  *  -0.14541099  *
     5       C          0.18642750  *   0.46468140  *  -0.12987650  *
     6       C          0.58295040  *  -1.74469235  *   0.43696033  *
     7       C         -2.60866916  *   0.25636707  *   0.03614639  *
     8       C         -0.57716583  *   1.54206707  *  -0.38345568  *
     9       C         -2.01806213  *   1.41580819  *  -0.29284878  *
    10       C          2.55053544  *   1.23509429  *  -0.42750968  *
    11       H          2.55926128  *  -1.20047614  *   1.13381616  *
    12       H          2.49138099  *  -1.65307383  *  -0.58149882  *
    13       H         -2.13188198  *  -1.34319566  *   1.35503326  *
    14       H         -2.19981337  *  -1.79388693  *  -0.35662032  *
    15       H          0.46253922  *  -2.78963899  *   0.71737672  *
    16       H         -3.70038043  *   0.18479452  *   0.09835102  *
    17       H         -0.14593117  *   2.51067219  *  -0.65585692  *
    18       H         -2.61351821  *   2.31015411  *  -0.50485759  *
    19       H          3.61686062  *   1.03264995  *  -0.41684546  *
    20       H          2.28004155  *   2.25484461  *  -0.68568143  *

                             CARTESIAN COORDINATES

   1    C        1.937961603    -1.132410451     0.221730032
   2    C       -1.861532556    -0.995986824     0.336378294
   3    C       -0.393143966    -0.837143535     0.236326184
   4    C        1.644150596     0.303320353    -0.145410990
   5    C        0.186427500     0.464681400    -0.129876501
   6    C        0.582950402    -1.744692351     0.436960333
   7    C       -2.608669160     0.256367069     0.036146393
   8    C       -0.577165833     1.542067071    -0.383455677
   9    C       -2.018062134     1.415808195    -0.292848777
  10    C        2.550535438     1.235094292    -0.427509685
  11    H        2.559261281    -1.200476137     1.133816156
  12    H        2.491380986    -1.653073826    -0.581498821
  13    H       -2.131881977    -1.343195663     1.355033255
  14    H       -2.199813374    -1.793886930    -0.356620316
  15    H        0.462539222    -2.789638985     0.717376721
  16    H       -3.700380433     0.184794518     0.098351018
  17    H       -0.145931165     2.510672188    -0.655856916
  18    H       -2.613518210     2.310154110    -0.504857590
  19    H        3.616860620     1.032649947    -0.416845461
  20    H        2.280041548     2.254844614    -0.685681426


           Empirical Formula: C10 H10  =    20 atoms



      MOLECULAR POINT GROUP   :   C1  


                  EIGENVALUES  
 -41.21047 -35.57838 -31.90618 -28.62100 -27.34651 -22.99561 -22.31409 -19.70304
 -19.02456 -17.23737 -16.13288 -15.97969 -15.39359 -14.91832 -14.73435 -14.42523
 -14.11429 -13.38715 -12.68929 -12.41210 -11.91719 -11.89755 -10.60513 -10.16959
  -8.26278  -0.41395   0.98910   1.38798   2.62062   3.07430   3.18811   3.29836
   3.40364   3.66964   3.70789   3.84656   3.97970   4.06362   4.26498   4.40103
   4.52368   4.53723   4.70856   5.04973   5.19859   5.46963   5.67638   5.98516
   6.17943   6.45591


              NET ATOMIC CHARGES AND DIPOLE CONTRIBUTIONS

  ATOM NO.   TYPE          CHARGE      No. of ELECS.   s-Pop       p-Pop       
    1          C          -0.023453        4.0235     1.14169     2.88177
    2          C           0.001865        3.9981     1.12482     2.87331
    3          C          -0.091436        4.0914     1.18872     2.90272
    4          C          -0.071168        4.0712     1.18641     2.88476
    5          C          -0.040782        4.0408     1.17353     2.86725
    6          C          -0.154972        4.1550     1.20120     2.95377
    7          C          -0.132283        4.1323     1.19671     2.93557
    8          C          -0.079656        4.0797     1.17306     2.90660
    9          C          -0.110320        4.1103     1.17784     2.93248
   10          C          -0.150563        4.1506     1.17585     2.97471
   11          H           0.065521        0.9345     0.93448
   12          H           0.065520        0.9345     0.93448
   13          H           0.064965        0.9350     0.93504
   14          H           0.064967        0.9350     0.93503
   15          H           0.115423        0.8846     0.88458
   16          H           0.097430        0.9026     0.90257
   17          H           0.107520        0.8925     0.89248
   18          H           0.100740        0.8993     0.89926
   19          H           0.084649        0.9154     0.91535
   20          H           0.086033        0.9140     0.91397
 DIPOLE           X         Y         Z       TOTAL
 POINT-CHG.    -0.156    -0.377     0.105     0.422
 HYBRID         0.003    -0.004     0.001     0.005
 SUM           -0.154    -0.381     0.106     0.424


          ATOMIC ORBITAL ELECTRON POPULATIONS

     Atom    s        px        py        pz   
    1  C   1.14169   0.95398   0.92449   1.00330
    2  C   1.12482   0.91181   0.95808   1.00342
    3  C   1.18872   0.94970   0.94766   1.00536
    4  C   1.18641   0.93128   0.95889   0.99458
    5  C   1.17353   0.92641   0.94317   0.99767
    6  C   1.20120   0.94917   0.98038   1.02421
    7  C   1.19671   0.98468   0.95400   0.99689
    8  C   1.17306   0.93678   0.97061   0.99920
    9  C   1.17784   0.94751   0.97191   1.01306
   10  C   1.17585   0.98005   0.98136   1.01330
   11  H   0.93448
   12  H   0.93448
   13  H   0.93504
   14  H   0.93503
   15  H   0.88458
   16  H   0.90257
   17  H   0.89248
   18  H   0.89926
   19  H   0.91535
   20  H   0.91397
 *******************************************************************************
 **                                                                           **
 **                              MOPAC v23.1.2                                **
 **                                                                           **
 *******************************************************************************
 **          Digital Object Identifier (DOI): 10.5281/zenodo.6511958          **
 **    Visit the DOI location for information on how to cite this program.    **
 *******************************************************************************

                              PM3 CALCULATION RESULTS

 *******************************************************************************
 *  CALCULATION DONE: (MAX THREADS = 1)              Tue Jun  3 16:27:56 2025  *
 *  PM3        - The PM3 Hamiltonian to be used
 *  OLDGEO     - PREVIOUS GEOMETRY TO BE USED
 *  PRECISE    - TIGHTER CRITERIA TO BE USED
 *  NOSYM      - POINT-GROUP SYMMETRY SET TO C1
 *  THREADS=1  - MULTI-THREADING NOT USED
 *  T=         - A TIME OF 172800.0 SECONDS REQUESTED
 *  DUMP=N     - RESTART FILE WRITTEN EVERY 7200.0 SECONDS REQUESTED
 *  THERMO     - THERMODYNAMIC QUANTITIES TO BE CALCULATED
 *******************************************************************************
oldgeo thermo nosym precise THREADS=1  pm3
 InChI=1S/C10H10/c1-8-6-7-9-4-2-3-5-10(8)9/h2-3,5,7H,1,4,6H2

   ATOM   CHEMICAL          X               Y               Z
  NUMBER   SYMBOL      (ANGSTROMS)     (ANGSTROMS)     (ANGSTROMS)

     1       C          1.93796160  *  -1.13241045  *   0.22173003  *
     2       C         -1.86153256  *  -0.99598682  *   0.33637829  *
     3       C         -0.39314397  *  -0.83714354  *   0.23632618  *
     4       C          1.64415060  *   0.30332035  *  -0.14541099  *
     5       C          0.18642750  *   0.46468140  *  -0.12987650  *
     6       C          0.58295040  *  -1.74469235  *   0.43696033  *
     7       C         -2.60866916  *   0.25636707  *   0.03614639  *
     8       C         -0.57716583  *   1.54206707  *  -0.38345568  *
     9       C         -2.01806213  *   1.41580819  *  -0.29284878  *
    10       C          2.55053544  *   1.23509429  *  -0.42750968  *
    11       H          2.55926128  *  -1.20047614  *   1.13381616  *
    12       H          2.49138099  *  -1.65307383  *  -0.58149882  *
    13       H         -2.13188198  *  -1.34319566  *   1.35503326  *
    14       H         -2.19981337  *  -1.79388693  *  -0.35662032  *
    15       H          0.46253922  *  -2.78963899  *   0.71737672  *
    16       H         -3.70038043  *   0.18479452  *   0.09835102  *
    17       H         -0.14593117  *   2.51067219  *  -0.65585692  *
    18       H         -2.61351821  *   2.31015411  *  -0.50485759  *
    19       H          3.61686062  *   1.03264995  *  -0.41684546  *
    20       H          2.28004155  *   2.25484461  *  -0.68568143  *



          CARTESIAN COORDINATES 

    NO.       ATOM           X           Y           Z

     1         C          1.9380     -1.1324      0.2217
     2         C         -1.8615     -0.9960      0.3364
     3         C         -0.3931     -0.8371      0.2363
     4         C          1.6442      0.3033     -0.1454
     5         C          0.1864      0.4647     -0.1299
     6         C          0.5830     -1.7447      0.4370
     7         C         -2.6087      0.2564      0.0361
     8         C         -0.5772      1.5421     -0.3835
     9         C         -2.0181      1.4158     -0.2928
    10         C          2.5505      1.2351     -0.4275
    11         H          2.5593     -1.2005      1.1338
    12         H          2.4914     -1.6531     -0.5815
    13         H         -2.1319     -1.3432      1.3550
    14         H         -2.1998     -1.7939     -0.3566
    15         H          0.4625     -2.7896      0.7174
    16         H         -3.7004      0.1848      0.0984
    17         H         -0.1459      2.5107     -0.6559
    18         H         -2.6135      2.3102     -0.5049
    19         H          3.6169      1.0326     -0.4168
    20         H          2.2800      2.2548     -0.6857

  H: (PM3): J. J. P. STEWART, J. COMP. CHEM. 10, 209 (1989).
  C: (PM3): J. J. P. STEWART, J. COMP. CHEM. 10, 209 (1989).

           Empirical Formula: C10 H10  =    20 atoms



      MOLECULAR POINT GROUP   :   C1  


      RHF CALCULATION, NO. OF DOUBLY OCCUPIED LEVELS = 25



          HEAT OF FORMATION =      53.920817 KCALS/MOLE


          CARTESIAN COORDINATE DERIVATIVES

   NUMBER  ATOM         X            Y            Z

     1       C      0.006306    -0.001030     0.000074
     2       C     -0.002477    -0.003625    -0.002314
     3       C      0.001902    -0.002820     0.001167
     4       C      0.010812     0.005119     0.003296
     5       C     -0.003906    -0.001797    -0.008039
     6       C     -0.010875     0.003794     0.000157
     7       C      0.005122    -0.001261    -0.001897
     8       C      0.019400    -0.001285     0.006586
     9       C     -0.007364    -0.010769    -0.003960
    10       C      0.001571    -0.010322    -0.000308
    11       H      0.012847     0.003698    -0.002258
    12       H      0.009624     0.003697     0.000411
    13       H     -0.005442    -0.007118     0.006580
    14       H      0.005263    -0.003879    -0.001458
    15       H     -0.001357     0.002689    -0.003657
    16       H     -0.010101     0.000444     0.003971
    17       H     -0.005665     0.003107    -0.002194
    18       H     -0.009117     0.010977     0.001682
    19       H     -0.009798     0.000432     0.006296
    20       H     -0.006744     0.009948    -0.004136



          GRADIENT NORM =   0.04843

          MOLECULAR WEIGHT =  130.19



          ROTATIONAL CONSTANTS IN CM(-1)

          A =    0.08580034   B =    0.04163937   C =    0.02833289



           PRINCIPAL MOMENTS OF INERTIA IN UNITS OF 10**(-40)*GRAM-CM**2

          A =      326.2546   B =      672.2665   C =      987.9950


          ORIENTATION OF MOLECULE IN FORCE CALCULATION

    NO.       ATOM         X         Y         Z

     1          C      -2.0175   -1.1415   -0.0002
     2          C       1.7861   -1.1415   -0.0002
     3          C       0.3220   -0.9228   -0.0002
     4          C      -1.6836    0.3319    0.0003
     5          C      -0.2212    0.4446    0.0000
     6          C      -0.6795   -1.8248   -0.0004
     7          C       2.5683    0.1254   -0.0003
     8          C       0.5725    1.5300    0.0000
     9          C       2.0100    1.3459   -0.0002
    10          C      -2.5641    1.3290    0.0010
    11          H      -2.6131   -1.4237   -0.8880
    12          H      -2.6132   -1.4243    0.8873
    13          H       2.0744   -1.7448   -0.8857
    14          H       2.0745   -1.7445    0.8856
    15          H      -0.5882   -2.9095   -0.0007
    16          H       3.6581    0.0108   -0.0004
    17          H       0.1683    2.5473    0.0001
    18          H       2.6305    2.2483   -0.0002
    19          H      -3.6362    1.1594    0.0014
    20          H      -2.2651    2.3731    0.0012


    FIRST DERIVATIVES WILL BE USED IN THE CALCULATION OF SECOND DERIVATIVES

          ESTIMATED TIME TO COMPLETE CALCULATION =        1.88 SECONDS

    FOR POINT-GROUP C1   THERE ARE   1 UNIQUE SYMMETRY FUNCTIONS.

 STEP:   1 TIME =     0.02 SECS, INTEGRAL =      0.02 TIME LEFT: 172799.98
 STEP:   2 TIME =     0.02 SECS, INTEGRAL =      0.04 TIME LEFT: 172799.96
 STEP:   3 TIME =     0.02 SECS, INTEGRAL =      0.05 TIME LEFT: 172799.94
 STEP:   4 TIME =     0.02 SECS, INTEGRAL =      0.07 TIME LEFT: 172799.92
 STEP:   5 TIME =     0.02 SECS, INTEGRAL =      0.09 TIME LEFT: 172799.90
 STEP:   6 TIME =     0.02 SECS, INTEGRAL =      0.11 TIME LEFT: 172799.88
 STEP:   7 TIME =     0.02 SECS, INTEGRAL =      0.13 TIME LEFT: 172799.86
 STEP:   8 TIME =     0.02 SECS, INTEGRAL =      0.15 TIME LEFT: 172799.84
 STEP:   9 TIME =     0.02 SECS, INTEGRAL =      0.17 TIME LEFT: 172799.82
 STEP:  10 TIME =     0.02 SECS, INTEGRAL =      0.19 TIME LEFT: 172799.80
 STEP:  11 TIME =     0.02 SECS, INTEGRAL =      0.21 TIME LEFT: 172799.78
 STEP:  12 TIME =     0.02 SECS, INTEGRAL =      0.23 TIME LEFT: 172799.76
 STEP:  13 TIME =     0.02 SECS, INTEGRAL =      0.25 TIME LEFT: 172799.74
 STEP:  14 TIME =     0.02 SECS, INTEGRAL =      0.27 TIME LEFT: 172799.72
 STEP:  15 TIME =     0.02 SECS, INTEGRAL =      0.29 TIME LEFT: 172799.70
 STEP:  16 TIME =     0.02 SECS, INTEGRAL =      0.31 TIME LEFT: 172799.68
 STEP:  17 TIME =     0.02 SECS, INTEGRAL =      0.33 TIME LEFT: 172799.66
 STEP:  18 TIME =     0.02 SECS, INTEGRAL =      0.35 TIME LEFT: 172799.64
 STEP:  19 TIME =     0.02 SECS, INTEGRAL =      0.37 TIME LEFT: 172799.62
 STEP:  20 TIME =     0.02 SECS, INTEGRAL =      0.39 TIME LEFT: 172799.60
 STEP:  21 TIME =     0.02 SECS, INTEGRAL =      0.41 TIME LEFT: 172799.58
 STEP:  22 TIME =     0.02 SECS, INTEGRAL =      0.43 TIME LEFT: 172799.56
 STEP:  23 TIME =     0.02 SECS, INTEGRAL =      0.45 TIME LEFT: 172799.54
 STEP:  24 TIME =     0.02 SECS, INTEGRAL =      0.47 TIME LEFT: 172799.52
 STEP:  25 TIME =     0.02 SECS, INTEGRAL =      0.50 TIME LEFT: 172799.50
 STEP:  26 TIME =     0.02 SECS, INTEGRAL =      0.52 TIME LEFT: 172799.48
 STEP:  27 TIME =     0.02 SECS, INTEGRAL =      0.54 TIME LEFT: 172799.46
 STEP:  28 TIME =     0.02 SECS, INTEGRAL =      0.55 TIME LEFT: 172799.44
 STEP:  29 TIME =     0.02 SECS, INTEGRAL =      0.57 TIME LEFT: 172799.42
 STEP:  30 TIME =     0.02 SECS, INTEGRAL =      0.59 TIME LEFT: 172799.40
 STEP:  31 TIME =     0.02 SECS, INTEGRAL =      0.61 TIME LEFT: 172799.38
 STEP:  32 TIME =     0.02 SECS, INTEGRAL =      0.63 TIME LEFT: 172799.36
 STEP:  33 TIME =     0.02 SECS, INTEGRAL =      0.65 TIME LEFT: 172799.34
 STEP:  34 TIME =     0.02 SECS, INTEGRAL =      0.67 TIME LEFT: 172799.32
 STEP:  35 TIME =     0.02 SECS, INTEGRAL =      0.69 TIME LEFT: 172799.30
 STEP:  36 TIME =     0.02 SECS, INTEGRAL =      0.71 TIME LEFT: 172799.28
 STEP:  37 TIME =     0.02 SECS, INTEGRAL =      0.73 TIME LEFT: 172799.26
 STEP:  38 TIME =     0.02 SECS, INTEGRAL =      0.75 TIME LEFT: 172799.24
 STEP:  39 TIME =     0.02 SECS, INTEGRAL =      0.77 TIME LEFT: 172799.22
 STEP:  40 TIME =     0.02 SECS, INTEGRAL =      0.79 TIME LEFT: 172799.20
 STEP:  41 TIME =     0.02 SECS, INTEGRAL =      0.81 TIME LEFT: 172799.18
 STEP:  42 TIME =     0.02 SECS, INTEGRAL =      0.83 TIME LEFT: 172799.16
 STEP:  43 TIME =     0.02 SECS, INTEGRAL =      0.86 TIME LEFT: 172799.14
 STEP:  44 TIME =     0.02 SECS, INTEGRAL =      0.87 TIME LEFT: 172799.12
 STEP:  45 TIME =     0.02 SECS, INTEGRAL =      0.89 TIME LEFT: 172799.10
 STEP:  46 TIME =     0.02 SECS, INTEGRAL =      0.91 TIME LEFT: 172799.09
 STEP:  47 TIME =     0.02 SECS, INTEGRAL =      0.93 TIME LEFT: 172799.07
 STEP:  48 TIME =     0.02 SECS, INTEGRAL =      0.95 TIME LEFT: 172799.04
 STEP:  49 TIME =     0.02 SECS, INTEGRAL =      0.97 TIME LEFT: 172799.02
 STEP:  50 TIME =     0.02 SECS, INTEGRAL =      0.99 TIME LEFT: 172799.00
 STEP:  51 TIME =     0.02 SECS, INTEGRAL =      1.01 TIME LEFT: 172798.98
 STEP:  52 TIME =     0.02 SECS, INTEGRAL =      1.03 TIME LEFT: 172798.96
 STEP:  53 TIME =     0.02 SECS, INTEGRAL =      1.05 TIME LEFT: 172798.95
 STEP:  54 TIME =     0.02 SECS, INTEGRAL =      1.07 TIME LEFT: 172798.92
 STEP:  55 TIME =     0.02 SECS, INTEGRAL =      1.09 TIME LEFT: 172798.90
 STEP:  56 TIME =     0.02 SECS, INTEGRAL =      1.11 TIME LEFT: 172798.88
 STEP:  57 TIME =     0.02 SECS, INTEGRAL =      1.14 TIME LEFT: 172798.86
 STEP:  58 TIME =     0.02 SECS, INTEGRAL =      1.16 TIME LEFT: 172798.84
 STEP:  59 TIME =     0.02 SECS, INTEGRAL =      1.17 TIME LEFT: 172798.82
 STEP:  60 TIME =     0.02 SECS, INTEGRAL =      1.20 TIME LEFT: 172798.80

(To convert to Hartree/Bohr^2, multiply by (10^(-21) x N x a0^2)/(4.184 x 627.51) =  0.0642)


           FORCE MATRIX IN MILLIDYNES/ANGSTROM


                  C  1       C  2       C  3       C  4       C  5       C  6
 ------------------------------------------------------------------------------
     C    1  14.824144
     C    2   0.120746  15.093126
     C    3   1.188942   5.176293  19.273235
     C    4   4.204898   0.047238   1.028459  19.239246
     C    5   0.884323   0.571127   4.924611   4.995979  19.590972
     C    6   4.477647   0.641699   9.840521   0.987823   1.456105  18.031198
     C    7   0.010429   4.870810   0.753580   0.033832   0.232130   0.061959
     C    8   0.057253   0.132064   0.993574   0.786728   9.648537   0.146424
     C    9   0.017642   0.829790   0.164135   0.157216   1.265806   0.061858
     C   10   0.686268   0.007663   0.055372  10.674587   0.888903   0.053825
     H   11   4.503067   0.016423   0.034965   0.432293   0.032244   0.426157
     H   12   4.503186   0.016421   0.034968   0.432317   0.032269   0.426178
     H   13   0.014012   4.374931   0.421450   0.004433   0.025369   0.022285
     H   14   0.014018   4.374639   0.421458   0.004430   0.025353   0.022283
     H   15   0.406674   0.052984   0.458049   0.043726   0.108889   5.050805
     H   16   0.003670   0.421642   0.050245   0.010252   0.008370   0.008262
     H   17   0.008849   0.004425   0.113292   0.066812   0.456929   0.009996
     H   18   0.001726   0.123063   0.002700   0.008278   0.048843   0.000979
     H   19   0.087629   0.001330   0.009204   0.475481   0.132107   0.002189
     H   20   0.125174   0.001043   0.005218   0.477829   0.093098   0.006773


                  C  7       C  8       C  9       C 10       H 11       H 12
 ------------------------------------------------------------------------------
     C    7  17.815870
     C    8   1.172608  18.169746
     C    9  10.044016   5.572373  18.169847
     C   10   0.012600   0.113479   0.030083  17.944088
     H   11   0.000617   0.003968   0.001369   0.019262   5.101714
     H   12   0.000615   0.003972   0.001369   0.019258   0.553923   5.101863
     H   13   0.420964   0.014968   0.041073   0.000480   0.002084   0.001992
     H   14   0.420912   0.014970   0.041066   0.000480   0.001992   0.002085
     H   15   0.002104   0.008950   0.007221   0.007661   0.012150   0.012148
     H   16   4.824665   0.121196   0.442534   0.001000   0.000487   0.000487
     H   17   0.047880   4.857169   0.435322   0.012586   0.000689   0.000689
     H   18   0.442558   0.434228   4.845521   0.000734   0.000296   0.000296
     H   19   0.001091   0.008207   0.008530   5.113283   0.010472   0.010469
     H   20   0.001233   0.014470   0.007336   5.085249   0.012417   0.012409


                  H 13       H 14       H 15       H 16       H 17       H 18
 ------------------------------------------------------------------------------
     H   13   4.960082
     H   14   0.566300   4.959780
     H   15   0.007692   0.007694   5.448897
     H   16   0.028400   0.028412   0.001140   5.198392
     H   17   0.000954   0.000953   0.008048   0.007341   5.229547
     H   18   0.016231   0.016234   0.000333   0.067145   0.029952   5.207876
     H   19   0.000371   0.000371   0.001147   0.000689   0.006594   0.000578
     H   20   0.000295   0.000295   0.001526   0.000505   0.020572   0.000412


                  H 19       H 20
 ------------------------------
     H   19   5.486641
     H   20   0.406261   5.464051


          HEAT OF FORMATION =      53.920817 KCALS/MOLE

          ZERO POINT ENERGY     104.917 KCAL/MOL


           NORMAL COORDINATE ANALYSIS (Total motion = 1 Angstrom)


   Root No.       1         2         3         4         5         6         7         8

                 1 A       2 A       3 A       4 A       5 A       6 A       7 A       8 A   

                  81.3     144.8     222.7     276.8     286.6     422.0     468.8     486.5
  
           1   -0.0000    0.0000   -0.0000   -0.0093    0.0000    0.0000    0.0225    0.0000
           2    0.0000    0.0000    0.0000   -0.0117    0.0000   -0.0000   -0.0360   -0.0000
           3   -0.0488   -0.0066   -0.0502   -0.0000   -0.0084    0.0020   -0.0000    0.0004
           4   -0.0000    0.0000    0.0000    0.0078    0.0000   -0.0000   -0.0163   -0.0000
           5    0.0000   -0.0000   -0.0000    0.0086   -0.0000   -0.0000   -0.0147   -0.0000
           6    0.0570    0.0227   -0.0276    0.0000   -0.0179    0.0019    0.0000   -0.0059
           7   -0.0000    0.0000    0.0000    0.0005    0.0000    0.0000    0.0026    0.0000
           8    0.0000   -0.0000   -0.0000   -0.0318   -0.0000    0.0000    0.0472    0.0001
           9    0.0116    0.0171    0.0356   -0.0000    0.0427    0.0408    0.0001   -0.0482
          10   -0.0000    0.0000   -0.0000    0.0044    0.0000   -0.0000   -0.0233   -0.0000
          11   -0.0000   -0.0000    0.0000   -0.0168   -0.0000   -0.0000   -0.0184   -0.0000
          12    0.0028    0.0121   -0.0163   -0.0000    0.0370   -0.0158   -0.0001    0.0763
          13   -0.0000    0.0000    0.0000    0.0002    0.0000   -0.0000   -0.0246   -0.0000
          14    0.0000   -0.0000    0.0000   -0.0355   -0.0000    0.0000    0.0341    0.0000
          15   -0.0004    0.0477    0.0070   -0.0000    0.0608    0.0072    0.0000    0.0006
          16   -0.0000    0.0000    0.0000   -0.0084   -0.0000    0.0000    0.0418    0.0001
          17    0.0000    0.0000   -0.0000   -0.0244   -0.0000    0.0000    0.0122    0.0000
          18   -0.0219   -0.0164    0.0678    0.0000   -0.0247   -0.0130   -0.0000    0.0110
          19   -0.0000   -0.0000   -0.0000   -0.0198   -0.0000   -0.0000   -0.0121   -0.0000
          20   -0.0000   -0.0000    0.0000    0.0297    0.0000   -0.0000   -0.0291   -0.0000
          21    0.0015   -0.0584   -0.0231   -0.0000    0.0246   -0.0469    0.0000   -0.0082
          22   -0.0000    0.0000    0.0000   -0.0337   -0.0000   -0.0000   -0.0111   -0.0000
          23    0.0000   -0.0000    0.0000   -0.0125   -0.0000    0.0000    0.0252    0.0000
          24   -0.0273    0.0590    0.0126    0.0000   -0.0330   -0.0393    0.0000   -0.0250
          25   -0.0000   -0.0000    0.0000   -0.0341   -0.0000    0.0000   -0.0139   -0.0000
          26   -0.0000   -0.0000    0.0000    0.0231    0.0000   -0.0000   -0.0290   -0.0000
          27   -0.0373   -0.0198    0.0057    0.0000   -0.0253    0.0601   -0.0000    0.0189
          28    0.0000   -0.0000   -0.0000    0.0820    0.0000    0.0000    0.0164   -0.0000
          29   -0.0000    0.0000   -0.0000    0.0516    0.0000    0.0000    0.0170    0.0000
          30    0.0581   -0.0422    0.0073    0.0000   -0.0176    0.0054    0.0000   -0.0147
          31    0.0322   -0.0015    0.1019   -0.0106    0.0057   -0.0263    0.0365    0.0798
          32    0.0260    0.0114    0.0054   -0.0079    0.0311   -0.0129   -0.0627    0.0735
          33   -0.0788   -0.0092   -0.1216   -0.0001   -0.0223    0.0245   -0.0004   -0.0794
          34   -0.0322    0.0015   -0.1019   -0.0106   -0.0057    0.0263    0.0366   -0.0796
          35   -0.0259   -0.0114   -0.0053   -0.0079   -0.0311    0.0128   -0.0625   -0.0736
          36   -0.0788   -0.0093   -0.1216    0.0001   -0.0224    0.0245    0.0005   -0.0795
          37    0.0217   -0.0030   -0.0443    0.0258   -0.0371   -0.0297   -0.0398    0.0452
          38   -0.0548   -0.0631    0.0359    0.0176    0.0715   -0.0514   -0.0269   -0.0619
          39    0.1017    0.0653   -0.0672   -0.0001   -0.0800    0.0284    0.0003    0.0529
          40   -0.0217    0.0030    0.0443    0.0257    0.0372    0.0297   -0.0396   -0.0453
          41    0.0548    0.0631   -0.0359    0.0178   -0.0715    0.0514   -0.0271    0.0619
          42    0.1017    0.0652   -0.0671    0.0002   -0.0799    0.0284   -0.0004    0.0529
          43   -0.0000    0.0000    0.0000   -0.0211   -0.0000    0.0000    0.1010    0.0001
          44    0.0000    0.0000   -0.0000   -0.0254    0.0000    0.0000    0.0172   -0.0000
          45   -0.0287   -0.0484    0.1321    0.0001   -0.0985   -0.0761   -0.0001    0.0625
          46   -0.0000   -0.0000   -0.0000   -0.0177   -0.0000   -0.0000   -0.0124   -0.0000
          47   -0.0000   -0.0000    0.0000    0.0495    0.0000   -0.0000   -0.0302   -0.0000
          48   -0.0043   -0.1423   -0.0439   -0.0001    0.0760   -0.1088    0.0000    0.0107
          49   -0.0000    0.0000    0.0000   -0.0628   -0.0001   -0.0000    0.0273    0.0000
          50    0.0000   -0.0000    0.0000   -0.0238   -0.0000    0.0000    0.0403    0.0000
          51   -0.0441    0.0974    0.0122    0.0001   -0.1028   -0.1622    0.0001   -0.0364
          52   -0.0000   -0.0000    0.0000   -0.0513   -0.0000    0.0000    0.0070    0.0000
          53   -0.0000   -0.0000   -0.0000    0.0347    0.0000   -0.0000   -0.0431   -0.0001
          54   -0.0777   -0.0651    0.0164    0.0000   -0.0384    0.1791   -0.0001    0.0902
          55    0.0000   -0.0000   -0.0000    0.0668   -0.0000    0.0000    0.0051   -0.0000
          56   -0.0000    0.0000   -0.0000    0.1550    0.0001    0.0000    0.0972    0.0001
          57    0.0657   -0.0946   -0.0057    0.0001   -0.0816    0.0206    0.0001   -0.0465
          58    0.0000   -0.0000   -0.0000    0.1790    0.0001    0.0000    0.0924    0.0000
          59   -0.0000    0.0000   -0.0000    0.0252    0.0000   -0.0000   -0.0032    0.0000
          60    0.0997   -0.0390    0.0429   -0.0000   -0.0064    0.0129    0.0000   -0.0892


   Root No.       9        10        11        12        13        14        15        16

                 9 A      10 A      11 A      12 A      13 A      14 A      15 A      16 A   

                 522.6     537.1     592.8     688.3     706.9     748.1     797.6     805.8
  
           1   -0.0366    0.0132    0.0000    0.0706    0.0000   -0.0000    0.0170    0.0000
           2   -0.0349    0.0263   -0.0000    0.0032    0.0000    0.0000    0.0211    0.0000
           3   -0.0000    0.0000   -0.0007   -0.0000   -0.0062    0.0026    0.0000   -0.0324
           4   -0.0045    0.0623    0.0000   -0.0441   -0.0000   -0.0000   -0.0299   -0.0000
           5    0.0563   -0.0187   -0.0000    0.0217    0.0000    0.0000    0.0570    0.0000
           6   -0.0000    0.0000   -0.0087   -0.0000   -0.0255   -0.0156   -0.0000    0.0168
           7   -0.0210    0.0424    0.0000   -0.0248   -0.0000   -0.0000   -0.0187   -0.0000
           8    0.0129   -0.0058    0.0000   -0.0195    0.0000   -0.0000    0.0188    0.0000
           9    0.0000    0.0000   -0.0289    0.0000   -0.0304    0.0299    0.0000    0.0046
          10   -0.0471   -0.0412   -0.0000   -0.0080   -0.0000    0.0000    0.0373    0.0000
          11   -0.0237    0.0343    0.0000    0.0433    0.0000   -0.0000    0.0012   -0.0000
          12    0.0000   -0.0000   -0.0107   -0.0000   -0.0391   -0.0013   -0.0000    0.0159
          13   -0.0310   -0.0317    0.0000   -0.0085    0.0000   -0.0000   -0.0095   -0.0000
          14   -0.0019   -0.0260    0.0000   -0.0115   -0.0000    0.0000   -0.0055   -0.0000
          15    0.0000   -0.0000    0.0238   -0.0000    0.0720   -0.0142   -0.0000    0.0090
          16   -0.0131    0.0238    0.0000    0.0329    0.0000    0.0000    0.0016    0.0000
          17   -0.0015    0.0191    0.0000   -0.0705   -0.0000    0.0000   -0.0040    0.0000
          18    0.0000   -0.0000    0.0113   -0.0000    0.0111    0.0045    0.0000   -0.0258
          19    0.0684    0.0384    0.0000   -0.0232    0.0000    0.0000    0.0515    0.0000
          20    0.0151   -0.0051   -0.0000    0.0025   -0.0000   -0.0000   -0.0096   -0.0000
          21   -0.0000   -0.0000   -0.0001    0.0000    0.0013   -0.0207    0.0000   -0.0119
          22    0.0339   -0.0327   -0.0000    0.0149   -0.0000   -0.0000   -0.0301   -0.0000
          23   -0.0437   -0.0381    0.0000   -0.0282   -0.0000    0.0000   -0.0110   -0.0000
          24   -0.0000    0.0000   -0.0094   -0.0000    0.0078   -0.0016    0.0000   -0.0065
          25    0.0503   -0.0344   -0.0000    0.0176   -0.0000   -0.0000   -0.0420   -0.0000
          26    0.0027   -0.0389   -0.0000    0.0182   -0.0000   -0.0000   -0.0568   -0.0000
          27   -0.0000    0.0000    0.0002   -0.0000   -0.0104   -0.0302    0.0000   -0.0088
          28   -0.0082   -0.0431    0.0000   -0.0274    0.0000    0.0000    0.0365    0.0000
          29    0.0129    0.0442   -0.0000    0.0415   -0.0000   -0.0000   -0.0151   -0.0000
          30    0.0000    0.0000    0.0029    0.0000    0.0010   -0.0002   -0.0000    0.0016
          31   -0.0315    0.0228   -0.0297    0.0820    0.0019    0.0100    0.0076   -0.1182
          32   -0.0518    0.0097   -0.0433    0.0014   -0.0446    0.0007    0.0544    0.0053
          33    0.0016   -0.0008    0.0348   -0.0049    0.0070   -0.0046   -0.0033    0.0491
          34   -0.0315    0.0229    0.0297    0.0820   -0.0019   -0.0100    0.0074    0.1182
          35   -0.0518    0.0097    0.0433    0.0015    0.0446   -0.0007    0.0544   -0.0053
          36   -0.0016    0.0008    0.0348    0.0049    0.0071   -0.0046    0.0032    0.0491
          37   -0.0147    0.0700    0.0314   -0.0493    0.0589   -0.0137   -0.0720   -0.0442
          38    0.0548   -0.0174   -0.0330    0.0232   -0.0673   -0.0729    0.0500    0.0302
          39   -0.0017    0.0016    0.0252   -0.0028    0.0420    0.0319   -0.0070   -0.0193
          40   -0.0147    0.0700   -0.0314   -0.0493   -0.0589    0.0137   -0.0721    0.0441
          41    0.0548   -0.0174    0.0330    0.0232    0.0673    0.0729    0.0500   -0.0301
          42    0.0017   -0.0017    0.0252    0.0028    0.0420    0.0318    0.0070   -0.0193
          43    0.0097   -0.0025    0.0000    0.0362    0.0000    0.0000    0.0086    0.0000
          44    0.0003    0.0170   -0.0000   -0.0704   -0.0000    0.0000   -0.0023   -0.0001
          45   -0.0000   -0.0000    0.0652   -0.0001    0.0415   -0.0899   -0.0003    0.2633
          46    0.0646    0.0443    0.0000   -0.0286    0.0000    0.0000    0.0510    0.0000
          47   -0.0189    0.0533    0.0000   -0.0463    0.0000    0.0000   -0.0057   -0.0000
          48    0.0000   -0.0000    0.0319    0.0000    0.0983    0.2441   -0.0001    0.0326
          49    0.0569   -0.0310   -0.0000   -0.0035   -0.0000    0.0000   -0.0205   -0.0000
          50   -0.0337   -0.0376    0.0000   -0.0354    0.0000   -0.0000   -0.0079   -0.0000
          51   -0.0000    0.0000   -0.0276    0.0000   -0.1089    0.1604   -0.0001    0.0389
          52    0.0181   -0.0702   -0.0000    0.0168   -0.0000    0.0000   -0.0869   -0.0001
          53    0.0251   -0.0139   -0.0000    0.0181   -0.0000   -0.0000   -0.0274   -0.0000
          54    0.0000   -0.0000    0.0301    0.0000    0.0123    0.1854   -0.0001    0.0906
          55   -0.0208   -0.0457   -0.0001   -0.0256    0.0001    0.0000    0.0536    0.0000
          56    0.0983    0.0553    0.0001    0.0231   -0.0001   -0.0000   -0.1224   -0.0001
          57    0.0000    0.0001   -0.2486    0.0000    0.1624   -0.0071   -0.0001    0.0166
          58    0.0703   -0.0434    0.0001   -0.0613   -0.0000   -0.0000   -0.0415   -0.0001
          59   -0.0081    0.0451   -0.0001    0.0522    0.0000   -0.0000    0.0044    0.0000
          60   -0.0000    0.0001    0.2699    0.0001   -0.0837    0.0088    0.0001   -0.0547


   Root No.      17        18        19        20        21        22        23        24

                17 A      18 A      19 A      20 A      21 A      22 A      23 A      24 A   

                 888.3     901.6     920.1     925.6     962.0    1002.2    1012.8    1027.4
  
           1    0.0029    0.0000    0.0333    0.0000    0.0000   -0.0000   -0.0000    0.0049
           2   -0.0093   -0.0000    0.0477    0.0000   -0.0000   -0.0000    0.0000   -0.0024
           3   -0.0000    0.0178    0.0000   -0.0253    0.0374    0.0035   -0.0247    0.0000
           4    0.0230    0.0000   -0.0102   -0.0000   -0.0000    0.0000   -0.0000   -0.0084
           5    0.0036    0.0000    0.0083    0.0000   -0.0000   -0.0000   -0.0000   -0.0471
           6   -0.0000    0.0393    0.0000   -0.0268   -0.0113    0.0240    0.0154   -0.0000
           7   -0.0210   -0.0000    0.0043    0.0000   -0.0000   -0.0000    0.0000   -0.0091
           8   -0.0358   -0.0000    0.0007   -0.0000   -0.0000    0.0000    0.0000    0.0035
           9    0.0000   -0.0301    0.0000    0.0088    0.0147   -0.0186   -0.0164    0.0000
          10   -0.0051   -0.0000   -0.0008    0.0000   -0.0000   -0.0000    0.0000    0.0018
          11    0.0058    0.0000   -0.0161   -0.0000    0.0000    0.0000   -0.0000    0.0025
          12    0.0000   -0.0163   -0.0000    0.0059   -0.0175   -0.0048    0.0240   -0.0000
          13    0.0066    0.0000   -0.0016    0.0000    0.0000    0.0000    0.0000    0.0052
          14    0.0365    0.0000   -0.0049   -0.0000    0.0000   -0.0000   -0.0000    0.0030
          15   -0.0000    0.0274   -0.0000    0.0200    0.0094    0.0134   -0.0003   -0.0000
          16   -0.0178   -0.0000    0.0007    0.0000   -0.0000   -0.0000    0.0000   -0.0044
          17   -0.0655   -0.0000    0.0101    0.0000    0.0000   -0.0000   -0.0000   -0.0083
          18   -0.0000    0.0016    0.0000    0.0160   -0.0354   -0.0038    0.0318   -0.0000
          19    0.0402    0.0000   -0.0057    0.0000   -0.0000    0.0000    0.0000    0.0534
          20   -0.0022    0.0000   -0.0008   -0.0000   -0.0000    0.0000    0.0000    0.0190
          21   -0.0000   -0.0018   -0.0000    0.0269    0.0026   -0.0366   -0.0217    0.0000
          22   -0.0116   -0.0000    0.0003   -0.0000   -0.0000   -0.0000   -0.0000   -0.0113
          23    0.0754    0.0000   -0.0133    0.0000    0.0000    0.0000    0.0000    0.0128
          24    0.0000   -0.0196    0.0000   -0.0515   -0.0183   -0.0219   -0.0044    0.0000
          25   -0.0116   -0.0000   -0.0013    0.0000    0.0000    0.0000    0.0000    0.0095
          26   -0.0253   -0.0000   -0.0006   -0.0000    0.0000    0.0000    0.0000    0.0275
          27    0.0000   -0.0215   -0.0000    0.0157    0.0147    0.0376    0.0157   -0.0000
          28   -0.0190   -0.0000   -0.0270   -0.0000   -0.0000    0.0000   -0.0000   -0.0032
          29    0.0037   -0.0000   -0.0519   -0.0000    0.0000   -0.0000    0.0000   -0.0002
          30    0.0000   -0.0053   -0.0000    0.0031   -0.0228    0.0167   -0.0430    0.0000
          31   -0.0107    0.0620    0.0267   -0.0504    0.0626    0.0445   -0.0808    0.0053
          32    0.0132   -0.0181    0.0902   -0.0469    0.0839   -0.0750    0.0353    0.0006
          33    0.0015   -0.0198   -0.0083    0.0256   -0.0342   -0.0029    0.0202   -0.0009
          34   -0.0106   -0.0620    0.0267    0.0504   -0.0626   -0.0445    0.0808    0.0052
          35    0.0132    0.0182    0.0902    0.0469   -0.0839    0.0750   -0.0353    0.0006
          36   -0.0015   -0.0198    0.0084    0.0257   -0.0343   -0.0028    0.0202    0.0009
          37    0.0579   -0.0059   -0.0198    0.0477   -0.0244   -0.0718   -0.0034   -0.1573
          38    0.0181    0.1037    0.0077   -0.0482   -0.0402    0.0261    0.0360   -0.1402
          39    0.0018   -0.0361   -0.0024    0.0232    0.0090   -0.0182   -0.0111    0.0141
          40    0.0579    0.0060   -0.0197   -0.0477    0.0244    0.0717    0.0033   -0.1573
          41    0.0182   -0.1037    0.0077    0.0482    0.0402   -0.0262   -0.0361   -0.1402
          42   -0.0018   -0.0361    0.0024    0.0232    0.0090   -0.0182   -0.0111   -0.0141
          43   -0.0903   -0.0000   -0.0731    0.0000   -0.0000   -0.0000    0.0000    0.0056
          44   -0.0745   -0.0000    0.0051    0.0000   -0.0000   -0.0000    0.0000   -0.0081
          45    0.0000   -0.0372    0.0000   -0.0411    0.1290   -0.0076   -0.0888    0.0000
          46    0.0464    0.0000   -0.0077   -0.0000    0.0000    0.0000    0.0000    0.0562
          47    0.0414    0.0000   -0.0163   -0.0000    0.0000    0.0000   -0.0000    0.0538
          48    0.0000   -0.0881    0.0000   -0.1294    0.0090    0.1417    0.0704   -0.0000
          49    0.0753    0.0000    0.0012    0.0000    0.0000   -0.0000   -0.0000   -0.1007
          50    0.1125    0.0000   -0.0133   -0.0000   -0.0000   -0.0000   -0.0000   -0.0210
          51   -0.0001    0.0932   -0.0000    0.2372    0.0807    0.0667    0.0021    0.0000
          52    0.0270    0.0000   -0.0100   -0.0000   -0.0000   -0.0000   -0.0000   -0.1136
          53   -0.0507   -0.0000    0.0050    0.0000    0.0000    0.0000    0.0000    0.1156
          54   -0.0001    0.1745    0.0000   -0.0484   -0.0673   -0.1403   -0.0532    0.0000
          55   -0.0303    0.0000   -0.0614   -0.0000    0.0000   -0.0000    0.0001   -0.0063
          56    0.0774    0.0000    0.1949    0.0000   -0.0000    0.0000   -0.0001    0.0195
          57    0.0000    0.0431    0.0001    0.0116    0.0919   -0.0579    0.1710   -0.0000
          58    0.0373    0.0000    0.2315    0.0000    0.0000   -0.0000    0.0001    0.0059
          59   -0.0105   -0.0000   -0.1231    0.0000   -0.0000    0.0000   -0.0000   -0.0022
          60   -0.0000    0.0282   -0.0001   -0.0421    0.1221   -0.0734    0.1604   -0.0000


   Root No.      25        26        27        28        29        30        31        32

                25 A      26 A      27 A      28 A      29 A      30 A      31 A      32 A   

                1049.9    1050.2    1060.9    1075.6    1110.9    1156.3    1174.6    1217.4
  
           1    0.0000   -0.0304    0.0000    0.0163   -0.0093    0.0013   -0.0148    0.0077
           2   -0.0000    0.0060    0.0000    0.0079   -0.0123    0.0021   -0.0021    0.0252
           3    0.0071    0.0000    0.0008   -0.0000    0.0000   -0.0000    0.0000    0.0000
           4    0.0000    0.0072    0.0000    0.0066   -0.0106    0.0031    0.0040    0.0025
           5   -0.0000   -0.0085   -0.0000   -0.0209    0.0071    0.0070    0.0180   -0.0081
           6    0.0048    0.0000    0.0040   -0.0000    0.0000   -0.0000   -0.0000    0.0000
           7   -0.0000   -0.0066   -0.0000   -0.0134   -0.0040    0.0021    0.0369   -0.0116
           8   -0.0000    0.0085    0.0000    0.0100   -0.0066    0.0049   -0.0155   -0.0181
           9    0.0079   -0.0000   -0.0278    0.0000   -0.0000    0.0000    0.0000   -0.0000
          10   -0.0000    0.0045   -0.0000   -0.0063    0.0219   -0.0067   -0.0075   -0.0040
          11    0.0000    0.0022    0.0000   -0.0118    0.0246   -0.0062   -0.0054    0.0006
          12   -0.0262   -0.0000   -0.0232    0.0000   -0.0000   -0.0000   -0.0000    0.0000
          13   -0.0000   -0.0063   -0.0000   -0.0386    0.0379   -0.0026    0.0111   -0.0151
          14    0.0000    0.0027    0.0000    0.0228   -0.0106   -0.0095   -0.0209   -0.0111
          15    0.0074    0.0000    0.0125    0.0000   -0.0000   -0.0000   -0.0000    0.0000
          16    0.0000    0.0257   -0.0000   -0.0024   -0.0137    0.0053    0.0239   -0.0287
          17   -0.0000   -0.0345   -0.0000   -0.0077    0.0113   -0.0016    0.0012    0.0084
          18    0.0101   -0.0000    0.0245   -0.0000    0.0000   -0.0000   -0.0000    0.0000
          19    0.0000   -0.0047   -0.0000   -0.0121   -0.0075   -0.0045   -0.0063    0.0149
          20    0.0000    0.0013    0.0000    0.0116    0.0023    0.0067    0.0101    0.0152
          21   -0.0238    0.0000    0.0176    0.0000    0.0000    0.0000    0.0000   -0.0000
          22   -0.0000    0.0050    0.0000    0.0222    0.0231    0.0010   -0.0084   -0.0240
          23    0.0000   -0.0061   -0.0000   -0.0267   -0.0072   -0.0054    0.0048    0.0008
          24   -0.0079   -0.0000   -0.0027   -0.0000   -0.0000   -0.0000    0.0000    0.0000
          25    0.0000   -0.0003    0.0000   -0.0059   -0.0249   -0.0002   -0.0116    0.0014
          26    0.0000    0.0019    0.0000    0.0042   -0.0180   -0.0029    0.0050    0.0135
          27    0.0108    0.0000   -0.0042    0.0000    0.0000    0.0000    0.0000    0.0000
          28    0.0000   -0.0047    0.0000    0.0205   -0.0209    0.0022   -0.0052    0.0051
          29   -0.0000   -0.0039   -0.0000   -0.0034   -0.0021    0.0015    0.0074   -0.0044
          30    0.0182    0.0000    0.0137   -0.0000    0.0000   -0.0000    0.0000   -0.0000
          31   -0.0504   -0.1202   -0.0619    0.0161    0.0184   -0.0054   -0.0479    0.0824
          32    0.1489    0.1691    0.1411    0.0322   -0.0876    0.0190    0.0225   -0.0486
          33   -0.0069    0.0085   -0.0027   -0.0068    0.0050   -0.0008    0.0123   -0.0230
          34    0.0505   -0.1201    0.0619    0.0161    0.0184   -0.0054   -0.0479    0.0824
          35   -0.1488    0.1691   -0.1411    0.0323   -0.0877    0.0190    0.0225   -0.0486
          36   -0.0070   -0.0084   -0.0028    0.0068   -0.0051    0.0009   -0.0123    0.0230
          37    0.1440    0.0206   -0.1716    0.0257   -0.0227   -0.0918   -0.1312    0.0052
          38    0.0771   -0.0089   -0.0685   -0.0253    0.0144   -0.0286   -0.0304   -0.0258
          39   -0.0016    0.0040   -0.0049    0.0084   -0.0068   -0.0040   -0.0099    0.0111
          40   -0.1440    0.0207    0.1716    0.0257   -0.0227   -0.0918   -0.1312    0.0052
          41   -0.0771   -0.0089    0.0685   -0.0253    0.0144   -0.0286   -0.0304   -0.0258
          42   -0.0015   -0.0040   -0.0049   -0.0084    0.0068    0.0041    0.0099   -0.0111
          43   -0.0000    0.2999   -0.0001   -0.0877    0.1037   -0.0378   -0.0621    0.1719
          44   -0.0000   -0.0106    0.0000   -0.0152    0.0214   -0.0051   -0.0062    0.0263
          45   -0.0069   -0.0000   -0.0581   -0.0000    0.0000    0.0000    0.0000    0.0000
          46    0.0000   -0.0013   -0.0000   -0.0001    0.0053    0.0223   -0.0193    0.0086
          47    0.0000    0.0361    0.0000    0.1464    0.1486    0.2766   -0.1054   -0.0623
          48    0.0466   -0.0000   -0.0280   -0.0000   -0.0000   -0.0000   -0.0000   -0.0000
          49    0.0000    0.0240    0.0000    0.2106    0.0925   -0.0531    0.1973    0.1011
          50    0.0000    0.0013    0.0000    0.0478    0.0193   -0.0288    0.0869    0.0512
          51    0.0295    0.0000    0.0063   -0.0000   -0.0000    0.0000   -0.0000   -0.0000
          52   -0.0000   -0.0073    0.0000   -0.0861   -0.0867    0.2562    0.0151    0.0975
          53    0.0000    0.0071    0.0000    0.0613    0.0237   -0.1793   -0.0132   -0.0513
          54   -0.0249   -0.0000    0.0062    0.0000    0.0000   -0.0000   -0.0000   -0.0000
          55   -0.0000   -0.0082   -0.0000    0.0348   -0.0347    0.0036   -0.0068    0.0156
          56    0.0000    0.0185   -0.0000   -0.0862    0.0832   -0.0090    0.0078   -0.0577
          57   -0.0697   -0.0000   -0.0485   -0.0000    0.0000   -0.0000    0.0000   -0.0000
          58   -0.0000    0.0173   -0.0000   -0.0003    0.0235   -0.0092   -0.0289    0.0476
          59    0.0000   -0.0100    0.0000   -0.0002   -0.0124    0.0045    0.0145   -0.0189
          60   -0.0571   -0.0000   -0.0439    0.0000   -0.0000    0.0000    0.0000   -0.0000


   Root No.      33        34        35        36        37        38        39        40

                33 A      34 A      35 A      36 A      37 A      38 A      39 A      40 A   

                1298.1    1312.1    1342.9    1359.0    1364.2    1391.7    1438.8    1517.3
  
           1   -0.0249    0.0138   -0.0309   -0.0168   -0.0139    0.0606   -0.0036    0.0208
           2    0.0195   -0.0357    0.0675    0.0023   -0.0056    0.0143   -0.0270    0.0182
           3    0.0000   -0.0000    0.0000   -0.0000   -0.0000    0.0000   -0.0000    0.0000
           4    0.0139    0.0077   -0.0039    0.0120    0.0635    0.0279    0.0221    0.0881
           5    0.0061    0.0052    0.0073    0.0446   -0.0028    0.0251    0.0452    0.0067
           6   -0.0000   -0.0000   -0.0000   -0.0000   -0.0000   -0.0000   -0.0000   -0.0000
           7   -0.0016   -0.0173   -0.0012    0.0042   -0.0070   -0.0001    0.0183   -0.0883
           8    0.0123    0.0217    0.0058   -0.0070   -0.0006   -0.0248   -0.0222    0.1308
           9    0.0000    0.0000    0.0000   -0.0000    0.0000   -0.0000   -0.0000    0.0000
          10    0.0176    0.0366    0.0056   -0.0240    0.0157   -0.0214    0.0460   -0.0256
          11    0.0344    0.0209   -0.0255   -0.0145    0.0070   -0.0206    0.0375   -0.0198
          12    0.0000   -0.0000   -0.0000    0.0000    0.0000   -0.0000    0.0000   -0.0000
          13   -0.0134   -0.0084   -0.0110    0.0171   -0.0212   -0.0048   -0.0530    0.0793
          14    0.0115    0.0035    0.0064    0.0041    0.0302    0.0163   -0.0031   -0.0897
          15    0.0000    0.0000    0.0000   -0.0000    0.0000    0.0000    0.0000   -0.0000
          16    0.0244   -0.0144    0.0274   -0.0037   -0.0189   -0.0388   -0.0117   -0.0238
          17   -0.0250    0.0053   -0.0258   -0.0053   -0.0130    0.0107    0.0107   -0.0362
          18   -0.0000    0.0000   -0.0000   -0.0000   -0.0000    0.0000    0.0000   -0.0000
          19   -0.0052    0.0058   -0.0026   -0.0167   -0.0177   -0.0149   -0.0283   -0.0224
          20    0.0033    0.0213   -0.0034   -0.0071    0.0042   -0.0051   -0.0566   -0.0350
          21    0.0000   -0.0000    0.0000    0.0000    0.0000    0.0000    0.0000    0.0000
          22    0.0042   -0.0005   -0.0006    0.0264    0.0228    0.0195   -0.0677   -0.0473
          23   -0.0106   -0.0228   -0.0009    0.0091   -0.0108    0.0051    0.0078    0.0046
          24   -0.0000   -0.0000   -0.0000   -0.0000   -0.0000   -0.0000    0.0000    0.0000
          25   -0.0068   -0.0235    0.0054   -0.0082   -0.0141   -0.0024    0.0822    0.0309
          26    0.0006    0.0056   -0.0003   -0.0140   -0.0038   -0.0097   -0.0003    0.0064
          27    0.0000    0.0000   -0.0000    0.0000    0.0000    0.0000   -0.0000   -0.0000
          28   -0.0092   -0.0010    0.0228   -0.0024    0.0062    0.0071    0.0017   -0.0087
          29   -0.0027   -0.0093   -0.0245    0.0092   -0.0096    0.0025   -0.0132    0.0119
          30    0.0000   -0.0000   -0.0000    0.0000   -0.0000   -0.0000   -0.0000    0.0000
          31   -0.0530   -0.0280    0.0170    0.0897    0.0731   -0.1363    0.0066   -0.0013
          32   -0.1090    0.0243   -0.1112    0.0422    0.0097   -0.0473    0.0062   -0.0128
          33    0.0529    0.0083    0.0220   -0.0743   -0.0554    0.1324   -0.0145    0.0219
          34   -0.0529   -0.0280    0.0170    0.0897    0.0731   -0.1363    0.0066   -0.0012
          35   -0.1090    0.0242   -0.1112    0.0422    0.0096   -0.0472    0.0062   -0.0127
          36   -0.0530   -0.0083   -0.0221    0.0744    0.0554   -0.1325    0.0145   -0.0219
          37   -0.0072    0.0473    0.0227    0.0093   -0.1196   -0.0428   -0.0270   -0.0191
          38   -0.0396   -0.1007   -0.0397   -0.1299    0.0598   -0.0388   -0.0438    0.0012
          39    0.0206    0.0730    0.0349    0.1013   -0.0883    0.0174    0.0379   -0.0263
          40   -0.0072    0.0472    0.0226    0.0093   -0.1196   -0.0428   -0.0270   -0.0191
          41   -0.0396   -0.1008   -0.0397   -0.1300    0.0598   -0.0388   -0.0439    0.0012
          42   -0.0206   -0.0730   -0.0349   -0.1013    0.0883   -0.0174   -0.0378    0.0263
          43   -0.0404   -0.0407    0.0119    0.0177    0.0267    0.0797    0.0123   -0.0443
          44   -0.0323    0.0030   -0.0277   -0.0042   -0.0111    0.0215    0.0128   -0.0400
          45   -0.0000    0.0000   -0.0000    0.0000   -0.0000    0.0000    0.0000   -0.0000
          46   -0.0095   -0.0052   -0.0010   -0.0183   -0.0264   -0.0167   -0.0097   -0.0180
          47   -0.0358   -0.0887    0.0149   -0.0027   -0.0717   -0.0090    0.1262   -0.0030
          48    0.0000    0.0000   -0.0000    0.0000    0.0000    0.0000   -0.0000    0.0000
          49   -0.0278    0.0327    0.0011   -0.0473   -0.0491   -0.0430    0.0257    0.0955
          50   -0.0240   -0.0120   -0.0003   -0.0202   -0.0406   -0.0195    0.0492    0.0610
          51    0.0000   -0.0000   -0.0000    0.0000    0.0000    0.0000   -0.0000   -0.0000
          52    0.0169    0.0721   -0.0056   -0.0458   -0.0064   -0.0309   -0.0527   -0.0246
          53   -0.0165   -0.0616    0.0076    0.0094   -0.0112    0.0083    0.0982    0.0475
          54   -0.0000   -0.0000    0.0000    0.0000    0.0000    0.0000    0.0000    0.0000
          55    0.0160   -0.0223   -0.0159    0.0092   -0.0033    0.0081   -0.0075   -0.0046
          56   -0.1233    0.1134    0.1849   -0.0607    0.0489   -0.0072    0.0526   -0.0260
          57   -0.0000    0.0000    0.0001   -0.0000    0.0000   -0.0000    0.0000   -0.0000
          58    0.1773   -0.0615   -0.2005    0.0306   -0.0319   -0.0283    0.0021    0.0020
          59   -0.0605    0.0119    0.0440   -0.0020    0.0027    0.0125   -0.0119    0.0083
          60   -0.0001    0.0000    0.0001   -0.0000    0.0000    0.0000   -0.0000   -0.0000


   Root No.      41        42        43        44        45        46        47        48

                41 A      42 A      43 A      44 A      45 A      46 A      47 A      48 A   

                1828.4    1856.1    1883.8    1919.1    2927.6    2974.8    3007.2    3046.2
  
           1   -0.0034    0.0037   -0.0067   -0.0008   -0.0000   -0.0000   -0.0000    0.0381
           2   -0.0005    0.0112    0.0090    0.0184   -0.0000    0.0000   -0.0000    0.0180
           3    0.0000    0.0000    0.0000    0.0000    0.0000   -0.0611   -0.0000   -0.0000
           4    0.0045   -0.0434    0.0143    0.0103   -0.0000   -0.0000    0.0176    0.0001
           5   -0.0245   -0.0075    0.0126   -0.0044    0.0000    0.0000   -0.0365   -0.0001
           6    0.0000    0.0000   -0.0000   -0.0000   -0.0610   -0.0001   -0.0000   -0.0000
           7   -0.0463    0.1588   -0.0412   -0.0450   -0.0000    0.0000    0.0007   -0.0009
           8   -0.0251    0.0948   -0.0435   -0.0101   -0.0000    0.0000    0.0001   -0.0002
           9   -0.0000    0.0000   -0.0000   -0.0000   -0.0001   -0.0003   -0.0000   -0.0000
          10   -0.0072    0.0418    0.0392    0.1325   -0.0000    0.0000    0.0000    0.0002
          11   -0.0066   -0.0523   -0.0779   -0.1195   -0.0000   -0.0000    0.0000    0.0008
          12   -0.0000   -0.0000   -0.0000   -0.0001   -0.0000   -0.0001   -0.0000    0.0000
          13    0.0476    0.0062    0.0842   -0.0836    0.0000   -0.0000   -0.0004   -0.0005
          14    0.0432    0.0347    0.1262   -0.0715    0.0000   -0.0000    0.0000   -0.0005
          15   -0.0000    0.0000    0.0000    0.0000   -0.0002   -0.0001   -0.0000   -0.0000
          16    0.0345   -0.1216    0.0297    0.0269    0.0000   -0.0000   -0.0002    0.0009
          17    0.0200   -0.0890    0.0189    0.0294    0.0000    0.0000   -0.0000   -0.0012
          18    0.0000   -0.0000    0.0000    0.0000   -0.0001   -0.0002    0.0000   -0.0000
          19   -0.0540   -0.0087    0.0133   -0.0041    0.0000   -0.0000   -0.0048   -0.0003
          20    0.1825    0.0281   -0.0571    0.0198    0.0000    0.0000   -0.0002    0.0000
          21    0.0000    0.0000   -0.0000    0.0000   -0.0001    0.0000    0.0000    0.0000
          22   -0.0666   -0.0267   -0.0812    0.0527   -0.0000    0.0000    0.0002    0.0001
          23   -0.0233   -0.0288   -0.0928    0.0563   -0.0000   -0.0000    0.0001   -0.0002
          24    0.0000    0.0000    0.0000   -0.0000    0.0001   -0.0000    0.0000   -0.0000
          25    0.1150    0.0198   -0.0167    0.0044    0.0000    0.0000   -0.0002    0.0002
          26   -0.1586   -0.0218    0.0502   -0.0175   -0.0000   -0.0000    0.0003    0.0003
          27   -0.0000   -0.0000    0.0000   -0.0000   -0.0003    0.0000   -0.0000    0.0000
          28   -0.0019   -0.0373   -0.0452   -0.0845   -0.0000   -0.0000    0.0000    0.0000
          29    0.0035    0.0430    0.0546    0.0930   -0.0000    0.0000   -0.0000   -0.0001
          30    0.0000    0.0000    0.0000    0.0001    0.0000   -0.0001   -0.0000   -0.0000
          31   -0.0041    0.0194    0.0006    0.0053   -0.0005    0.2577    0.0004   -0.2275
          32    0.0047   -0.0209   -0.0019   -0.0091   -0.0001    0.1219    0.0002   -0.1078
          33   -0.0005   -0.0060   -0.0028    0.0052   -0.0005    0.3701    0.0007   -0.3866
          34   -0.0041    0.0194    0.0006    0.0053    0.0005   -0.2576    0.0004   -0.2277
          35    0.0047   -0.0209   -0.0019   -0.0091    0.0001   -0.1221    0.0002   -0.1082
          36    0.0005    0.0059    0.0028   -0.0052   -0.0005    0.3697   -0.0007    0.3867
          37   -0.0169    0.0125   -0.0052   -0.0010   -0.1224   -0.0001   -0.1042   -0.0002
          38   -0.0245    0.0113    0.0000   -0.0045    0.2591    0.0003    0.2197    0.0003
          39    0.0000    0.0031    0.0019   -0.0026    0.3684    0.0005    0.3746    0.0006
          40   -0.0169    0.0125   -0.0052   -0.0010    0.1226    0.0001   -0.1041   -0.0002
          41   -0.0245    0.0113    0.0000   -0.0045   -0.2593   -0.0003    0.2193    0.0003
          42   -0.0000   -0.0031   -0.0019    0.0026    0.3690    0.0005   -0.3742   -0.0006
          43   -0.0162    0.0490   -0.0087   -0.0126    0.0000   -0.0000    0.0005    0.0004
          44    0.0217   -0.1051    0.0219    0.0402    0.0000   -0.0000   -0.0025    0.0142
          45    0.0000   -0.0000    0.0000    0.0000    0.0002   -0.0012   -0.0000    0.0000
          46   -0.1044   -0.0181    0.0311   -0.0098   -0.0000    0.0000    0.0515    0.0036
          47   -0.0342    0.0037    0.0166   -0.0091    0.0000   -0.0000   -0.0084   -0.0004
          48    0.0000    0.0000   -0.0000    0.0000   -0.0016   -0.0000   -0.0000   -0.0000
          49   -0.0221    0.0048    0.0671   -0.0407   -0.0000   -0.0000    0.0001   -0.0015
          50   -0.0144   -0.0253   -0.0563    0.0346    0.0000    0.0000   -0.0003    0.0039
          51    0.0000    0.0000   -0.0000    0.0000    0.0000   -0.0001    0.0000    0.0000
          52   -0.0809   -0.0024    0.0549   -0.0239   -0.0000   -0.0000    0.0013   -0.0024
          53   -0.0572   -0.0120    0.0098    0.0002   -0.0000   -0.0000    0.0029   -0.0035
          54    0.0000    0.0000   -0.0000    0.0000   -0.0007   -0.0000   -0.0000    0.0000
          55   -0.0011   -0.0352   -0.0426   -0.0852    0.0000   -0.0000   -0.0001    0.0014
          56   -0.0060   -0.0247   -0.0358   -0.0390    0.0000   -0.0000   -0.0000    0.0008
          57   -0.0000    0.0000    0.0000    0.0000    0.0000    0.0005   -0.0000   -0.0000
          58    0.0020    0.0276    0.0302    0.0584   -0.0000    0.0000    0.0000   -0.0003
          59    0.0030    0.0333    0.0449    0.0742   -0.0000    0.0000    0.0001   -0.0005
          60    0.0000    0.0000    0.0000    0.0000   -0.0000   -0.0009    0.0000    0.0000


   Root No.      49        50        51        52        53        54

                49 A      50 A      51 A      52 A      53 A      54 A   

                3047.7    3062.3    3072.3    3135.2    3136.2    3145.1
  
           1   -0.0003   -0.0002   -0.0001   -0.0015   -0.0002   -0.0003
           2   -0.0001   -0.0001   -0.0000   -0.0008    0.0002    0.0003
           3    0.0000   -0.0000    0.0000    0.0000    0.0000    0.0000
           4   -0.0011    0.0008   -0.0006   -0.0003   -0.0001    0.0000
           5    0.0018   -0.0016    0.0013   -0.0003   -0.0000   -0.0000
           6    0.0000   -0.0000    0.0000    0.0000   -0.0000    0.0000
           7    0.0004   -0.0001    0.0004    0.0049    0.0007   -0.0001
           8    0.0003    0.0002    0.0005    0.0032    0.0003    0.0000
           9    0.0000    0.0000    0.0000    0.0000    0.0000    0.0000
          10    0.0000   -0.0001   -0.0002   -0.0001   -0.0041    0.0020
          11   -0.0001   -0.0001   -0.0001    0.0003    0.0043   -0.0031
          12   -0.0000    0.0000   -0.0000   -0.0000    0.0000   -0.0000
          13   -0.0000    0.0013    0.0020    0.0006   -0.0000    0.0004
          14    0.0002    0.0019    0.0019    0.0015   -0.0002   -0.0003
          15    0.0000   -0.0000   -0.0000    0.0000   -0.0000   -0.0000
          16   -0.0001   -0.0001   -0.0001    0.0016    0.0002    0.0000
          17   -0.0000   -0.0000   -0.0001   -0.0673   -0.0078    0.0008
          18    0.0000   -0.0000    0.0000   -0.0000   -0.0000    0.0000
          19   -0.0354    0.0236   -0.0187   -0.0001   -0.0000    0.0000
          20    0.0040   -0.0051    0.0050    0.0001   -0.0000    0.0000
          21    0.0000   -0.0000    0.0000   -0.0000   -0.0000    0.0000
          22    0.0022    0.0099    0.0107   -0.0002   -0.0004   -0.0001
          23   -0.0067   -0.0302   -0.0301   -0.0006    0.0016    0.0005
          24   -0.0000   -0.0000   -0.0000   -0.0000    0.0000    0.0000
          25    0.0179    0.0098   -0.0146    0.0001    0.0000    0.0000
          26    0.0248    0.0192   -0.0249   -0.0000    0.0000    0.0000
          27   -0.0000   -0.0000    0.0000   -0.0000   -0.0000    0.0000
          28   -0.0001   -0.0002   -0.0003   -0.0012    0.0043   -0.0646
          29   -0.0001   -0.0008   -0.0008    0.0074   -0.0515   -0.0229
          30   -0.0000   -0.0000   -0.0000    0.0000   -0.0000    0.0000
          31    0.0018    0.0008    0.0004    0.0069    0.0003    0.0002
          32    0.0009    0.0004    0.0002    0.0011    0.0002    0.0006
          33    0.0031    0.0014    0.0007    0.0097    0.0006    0.0007
          34    0.0018    0.0008    0.0004    0.0069    0.0003    0.0002
          35    0.0009    0.0004    0.0002    0.0011    0.0002    0.0006
          36   -0.0031   -0.0014   -0.0007   -0.0097   -0.0006   -0.0007
          37    0.0039   -0.0030    0.0023   -0.0006   -0.0000   -0.0000
          38   -0.0132    0.0092   -0.0070    0.0010    0.0000    0.0000
          39   -0.0203    0.0143   -0.0109    0.0016    0.0001    0.0001
          40    0.0039   -0.0030    0.0023   -0.0006   -0.0000   -0.0000
          41   -0.0132    0.0092   -0.0070    0.0010    0.0000    0.0000
          42    0.0202   -0.0143    0.0109   -0.0016   -0.0001   -0.0001
          43    0.0000    0.0001    0.0000   -0.0650   -0.0075    0.0007
          44   -0.0005   -0.0006   -0.0005    0.7494    0.0860   -0.0077
          45   -0.0000    0.0000   -0.0000    0.0002    0.0000   -0.0000
          46    0.4190   -0.2684    0.2016    0.0001    0.0005   -0.0005
          47   -0.0393    0.0281   -0.0217   -0.0000   -0.0001    0.0000
          48   -0.0000    0.0000   -0.0000   -0.0000    0.0000   -0.0000
          49   -0.0274   -0.1329   -0.1334   -0.0012    0.0070    0.0026
          50    0.0746    0.3382    0.3307    0.0029   -0.0165   -0.0053
          51    0.0000    0.0000    0.0000    0.0000   -0.0000   -0.0000
          52   -0.2085   -0.1301    0.1796   -0.0001   -0.0004   -0.0004
          53   -0.2987   -0.1948    0.2585   -0.0002   -0.0003   -0.0005
          54    0.0000    0.0000   -0.0000   -0.0000    0.0000   -0.0000
          55    0.0001   -0.0006    0.0002    0.0361   -0.1863    0.7008
          56   -0.0000   -0.0004   -0.0003    0.0079   -0.0440    0.1113
          57   -0.0000    0.0000   -0.0000   -0.0000    0.0001   -0.0003
          58    0.0004    0.0026    0.0026   -0.0271    0.1814    0.0416
          59    0.0017    0.0101    0.0102   -0.0900    0.6068    0.1947
          60    0.0000    0.0000    0.0000   -0.0000    0.0001    0.0000


           MASS-WEIGHTED COORDINATE ANALYSIS (NORMAL COORDINATES)


   Root No.       1         2         3         4         5         6         7         8

                 1 A       2 A       3 A       4 A       5 A       6 A       7 A       8 A   

                  81.3     144.8     222.7     276.8     286.6     422.0     468.8     486.5
  
           1   -0.0000    0.0000   -0.0000   -0.0605    0.0000    0.0000    0.1754    0.0003
           2    0.0001    0.0000    0.0001   -0.0764    0.0000   -0.0001   -0.2800   -0.0002
           3   -0.3703   -0.0496   -0.3787   -0.0001   -0.0666    0.0156   -0.0001    0.0029
           4   -0.0000    0.0000    0.0000    0.0506    0.0001   -0.0000   -0.1265   -0.0001
           5    0.0000   -0.0000   -0.0000    0.0563   -0.0000   -0.0000   -0.1147   -0.0001
           6    0.4328    0.1691   -0.2081    0.0001   -0.1423    0.0146    0.0000   -0.0467
           7   -0.0000    0.0000    0.0000    0.0034    0.0001    0.0000    0.0200    0.0001
           8    0.0000   -0.0000   -0.0000   -0.2069   -0.0002    0.0000    0.3673    0.0004
           9    0.0879    0.1275    0.2685   -0.0002    0.3393    0.3136    0.0004   -0.3809
          10   -0.0000    0.0000   -0.0000    0.0290    0.0000   -0.0001   -0.1817   -0.0001
          11   -0.0000   -0.0000    0.0001   -0.1096   -0.0001   -0.0000   -0.1429   -0.0002
          12    0.0212    0.0904   -0.1227   -0.0002    0.2945   -0.1216   -0.0006    0.6024
          13   -0.0000    0.0000    0.0000    0.0015    0.0001   -0.0000   -0.1914   -0.0003
          14    0.0000   -0.0000    0.0000   -0.2310   -0.0002    0.0001    0.2653    0.0002
          15   -0.0034    0.3559    0.0527   -0.0002    0.4832    0.0552    0.0000    0.0046
          16   -0.0000    0.0000    0.0000   -0.0545   -0.0000    0.0001    0.3251    0.0004
          17    0.0001    0.0001   -0.0001   -0.1589   -0.0000    0.0001    0.0947    0.0000
          18   -0.1664   -0.1224    0.5110    0.0001   -0.1965   -0.0999   -0.0001    0.0871
          19   -0.0000   -0.0000   -0.0000   -0.1292   -0.0001   -0.0001   -0.0943   -0.0001
          20   -0.0000   -0.0000    0.0000    0.1931    0.0001   -0.0001   -0.2262   -0.0003
          21    0.0116   -0.4356   -0.1744   -0.0001    0.1958   -0.3604    0.0001   -0.0647
          22   -0.0000    0.0001    0.0000   -0.2195   -0.0002   -0.0001   -0.0862   -0.0002
          23    0.0000   -0.0001    0.0000   -0.0814   -0.0001    0.0001    0.1964    0.0002
          24   -0.2076    0.4406    0.0951    0.0003   -0.2621   -0.3019    0.0003   -0.1975
          25   -0.0000   -0.0000    0.0000   -0.2219   -0.0002    0.0000   -0.1079   -0.0002
          26   -0.0000   -0.0000    0.0000    0.1507    0.0001   -0.0001   -0.2258   -0.0003
          27   -0.2829   -0.1480    0.0433    0.0002   -0.2009    0.4618   -0.0003    0.1496
          28    0.0001   -0.0002   -0.0001    0.5338    0.0002    0.0001    0.1277   -0.0001
          29   -0.0002    0.0001   -0.0001    0.3357    0.0003    0.0000    0.1320    0.0003
          30    0.4410   -0.3152    0.0547    0.0000   -0.1398    0.0415    0.0001   -0.1157
          31    0.0708   -0.0032    0.2227   -0.0199    0.0132   -0.0586    0.0823    0.1824
          32    0.0571    0.0247    0.0117   -0.0149    0.0716   -0.0287   -0.1413    0.1682
          33   -0.1733   -0.0200   -0.2656   -0.0002   -0.0515    0.0546   -0.0010   -0.1817
          34   -0.0708    0.0032   -0.2226   -0.0200   -0.0132    0.0587    0.0826   -0.1821
          35   -0.0570   -0.0247   -0.0115   -0.0148   -0.0716    0.0286   -0.1410   -0.1683
          36   -0.1733   -0.0200   -0.2656    0.0001   -0.0515    0.0547    0.0012   -0.1818
          37    0.0477   -0.0064   -0.0967    0.0486   -0.0855   -0.0661   -0.0896    0.1033
          38   -0.1206   -0.1364    0.0784    0.0333    0.1648   -0.1144   -0.0607   -0.1416
          39    0.2237    0.1411   -0.1467   -0.0002   -0.1842    0.0633    0.0006    0.1210
          40   -0.0477    0.0065    0.0967    0.0485    0.0856    0.0661   -0.0894   -0.1035
          41    0.1206    0.1364   -0.0784    0.0335   -0.1648    0.1144   -0.0611    0.1415
          42    0.2237    0.1410   -0.1467    0.0004   -0.1842    0.0632   -0.0010    0.1209
          43   -0.0000    0.0000    0.0000   -0.0398   -0.0000    0.0001    0.2276    0.0002
          44    0.0000    0.0000   -0.0001   -0.0479    0.0000    0.0001    0.0387   -0.0000
          45   -0.0631   -0.1046    0.2886    0.0001   -0.2269   -0.1695   -0.0001    0.1429
          46   -0.0000   -0.0000   -0.0000   -0.0334   -0.0000   -0.0000   -0.0281   -0.0000
          47   -0.0000   -0.0000    0.0000    0.0933    0.0001   -0.0000   -0.0682   -0.0001
          48   -0.0095   -0.3075   -0.0958   -0.0001    0.1752   -0.2424    0.0000    0.0245
          49   -0.0000    0.0000    0.0000   -0.1185   -0.0001   -0.0000    0.0615    0.0000
          50    0.0000   -0.0000    0.0000   -0.0448   -0.0000    0.0000    0.0907    0.0001
          51   -0.0969    0.2106    0.0266    0.0002   -0.2368   -0.3613    0.0002   -0.0833
          52   -0.0000   -0.0000    0.0000   -0.0968   -0.0001    0.0001    0.0158    0.0000
          53   -0.0000   -0.0000   -0.0000    0.0655    0.0000   -0.0000   -0.0971   -0.0001
          54   -0.1708   -0.1408    0.0357    0.0001   -0.0885    0.3989   -0.0003    0.2063
          55    0.0000   -0.0001   -0.0000    0.1260   -0.0000    0.0000    0.0115   -0.0001
          56   -0.0001    0.0000   -0.0001    0.2923    0.0002    0.0000    0.2191    0.0003
          57    0.1445   -0.2046   -0.0125    0.0001   -0.1880    0.0458    0.0002   -0.1064
          58    0.0001   -0.0001   -0.0000    0.3376    0.0002    0.0001    0.2083    0.0001
          59   -0.0001    0.0000   -0.0000    0.0475    0.0001   -0.0000   -0.0072    0.0001
          60    0.2194   -0.0842    0.0937   -0.0000   -0.0148    0.0287    0.0001   -0.2041


   Root No.       9        10        11        12        13        14        15        16

                 9 A      10 A      11 A      12 A      13 A      14 A      15 A      16 A   

                 522.6     537.1     592.8     688.3     706.9     748.1     797.6     805.8
  
           1   -0.2350    0.0823    0.0000    0.4512    0.0000   -0.0000    0.1153    0.0001
           2   -0.2240    0.1640   -0.0000    0.0207    0.0000    0.0000    0.1429    0.0002
           3   -0.0001    0.0000   -0.0057   -0.0000   -0.0501    0.0219    0.0003   -0.2851
           4   -0.0291    0.3882    0.0000   -0.2819   -0.0000   -0.0000   -0.2022   -0.0002
           5    0.3612   -0.1164   -0.0000    0.1385    0.0000    0.0000    0.3858    0.0004
           6   -0.0000    0.0000   -0.0714   -0.0000   -0.2060   -0.1296   -0.0001    0.1479
           7   -0.1347    0.2641    0.0000   -0.1587   -0.0000   -0.0000   -0.1265   -0.0001
           8    0.0829   -0.0365    0.0001   -0.1246    0.0000   -0.0000    0.1268    0.0001
           9    0.0000    0.0000   -0.2371    0.0000   -0.2454    0.2477    0.0000    0.0403
          10   -0.3025   -0.2571   -0.0000   -0.0511   -0.0000    0.0000    0.2524    0.0003
          11   -0.1522    0.2137    0.0000    0.2768    0.0001   -0.0000    0.0080   -0.0000
          12    0.0000   -0.0002   -0.0882   -0.0001   -0.3157   -0.0104   -0.0001    0.1397
          13   -0.1992   -0.1977    0.0000   -0.0544    0.0001   -0.0000   -0.0643   -0.0000
          14   -0.0121   -0.1622    0.0000   -0.0732   -0.0001    0.0000   -0.0370   -0.0001
          15    0.0001   -0.0002    0.1959   -0.0000    0.5806   -0.1176   -0.0001    0.0793
          16   -0.0840    0.1483    0.0000    0.2104    0.0000    0.0000    0.0111    0.0000
          17   -0.0093    0.1192    0.0000   -0.4504   -0.0000    0.0000   -0.0272    0.0000
          18    0.0000   -0.0000    0.0928   -0.0001    0.0898    0.0373    0.0002   -0.2274
          19    0.4391    0.2393    0.0000   -0.1481    0.0000    0.0000    0.3482    0.0003
          20    0.0967   -0.0319   -0.0000    0.0157   -0.0000   -0.0000   -0.0652   -0.0000
          21   -0.0000   -0.0000   -0.0011    0.0000    0.0104   -0.1713    0.0001   -0.1046
          22    0.2177   -0.2040   -0.0001    0.0952   -0.0000   -0.0000   -0.2035   -0.0002
          23   -0.2805   -0.2372    0.0000   -0.1800   -0.0000    0.0000   -0.0744   -0.0001
          24   -0.0001    0.0001   -0.0769   -0.0000    0.0631   -0.0132    0.0001   -0.0573
          25    0.3230   -0.2144   -0.0001    0.1127   -0.0001   -0.0001   -0.2839   -0.0003
          26    0.0175   -0.2426   -0.0001    0.1165   -0.0000   -0.0000   -0.3844   -0.0003
          27   -0.0001    0.0000    0.0015   -0.0000   -0.0839   -0.2502    0.0001   -0.0772
          28   -0.0526   -0.2686    0.0000   -0.1749    0.0000    0.0000    0.2470    0.0002
          29    0.0828    0.2755   -0.0000    0.2651   -0.0000   -0.0000   -0.1023   -0.0001
          30    0.0000    0.0002    0.0241    0.0002    0.0083   -0.0015   -0.0001    0.0145
          31   -0.0585    0.0413   -0.0706    0.1519    0.0044    0.0241    0.0150   -0.3014
          32   -0.0963    0.0175   -0.1031    0.0026   -0.1043    0.0016    0.1065    0.0135
          33    0.0030   -0.0014    0.0827   -0.0091    0.0164   -0.0110   -0.0065    0.1252
          34   -0.0585    0.0414    0.0706    0.1519   -0.0044   -0.0241    0.0144    0.3014
          35   -0.0963    0.0176    0.1030    0.0027    0.1042   -0.0016    0.1066   -0.0134
          36   -0.0031    0.0015    0.0828    0.0091    0.0165   -0.0110    0.0064    0.1252
[...]
 REDUCED MASS        0.5132         C  2 -- C  3          +7.9% ( 34.5%)      0.0%
 EFFECTIVE MASS      5.0737
 FORCE CONSTANT      0.5584

 VIBRATION         37   37A           ATOM PAIR      ENERGY CONTRIBUTION    RADIAL
 FREQUENCY          1364.16         C  2 -- H 14         +17.3% ( 56.8%)      2.4%
 TRANSITION DIPOLE   0.1047         C  2 -- H 13         +17.3% ( 56.8%)      2.4%
 TRAVEL (Ang.)       0.2112         C  2 -- C  7         +12.8% ( 48.8%)     20.3%
 REDUCED MASS        1.1080         C  2 -- C  3         +12.0% ( 47.2%)     98.6%
 EFFECTIVE MASS      6.5678
 FORCE CONSTANT      1.2148

 VIBRATION         38   38A           ATOM PAIR      ENERGY CONTRIBUTION    RADIAL
 FREQUENCY          1391.74         C  1 -- C  6         +15.8% ( 54.1%)     76.3%
 TRANSITION DIPOLE   0.0852         C  1 -- H 11         +15.5% ( 53.4%)      7.5%
 TRAVEL (Ang.)       0.2324         C  1 -- H 12         +15.5% ( 53.4%)      7.5%
 REDUCED MASS        0.8974         C  1 -- C  4         +12.0% ( 47.0%)     34.3%
 EFFECTIVE MASS      6.8222
 FORCE CONSTANT      1.0242

 VIBRATION         39   39A           ATOM PAIR      ENERGY CONTRIBUTION    RADIAL
 FREQUENCY          1438.81         C  8 -- C  9         +18.6% ( 65.2%)     99.5%
 TRANSITION DIPOLE   0.3314         C  7 -- C  9         +10.6% ( 49.3%)      0.2%
 TRAVEL (Ang.)       0.1770         C  2 -- C  7          +9.7% ( 47.1%)     99.1%
 REDUCED MASS        1.4965         C  4 -- C  5          +9.2% ( 45.9%)     90.6%
 EFFECTIVE MASS     10.7124
 FORCE CONSTANT      1.8253

 VIBRATION         40   40A           ATOM PAIR      ENERGY CONTRIBUTION    RADIAL
 FREQUENCY          1517.25         C  3 -- C  5         +26.4% ( 78.0%)     92.8%
 TRANSITION DIPOLE   0.1581         C  2 -- C  3         +19.5% ( 67.0%)     79.9%
 TRAVEL (Ang.)       0.1174         C  3 -- C  6         +14.3% ( 57.4%)     12.7%
 REDUCED MASS        3.2256         C  5 -- C  8          +7.8% ( 42.5%)      0.0%
 EFFECTIVE MASS     11.6528
 FORCE CONSTANT      4.3749

 VIBRATION         41   41A           ATOM PAIR      ENERGY CONTRIBUTION    RADIAL
 FREQUENCY          1828.36         C  7 -- C  9         +37.4% ( 91.3%)     99.9%
 TRANSITION DIPOLE   0.5076         C  8 -- C  9         +14.4% ( 56.5%)     75.9%
 TRAVEL (Ang.)       0.0946         C  2 -- C  7         +11.8% ( 51.2%)     45.7%
 REDUCED MASS        4.1210         C  9 -- H 18         +11.5% ( 50.5%)      3.8%
 EFFECTIVE MASS     11.9079         C  7 -- H 16         +10.9% ( 49.4%)      5.1%
 FORCE CONSTANT      8.1166

 VIBRATION         42   42A           ATOM PAIR      ENERGY CONTRIBUTION    RADIAL
 FREQUENCY          1856.12         C  3 -- C  6         +35.3% ( 88.7%)     97.7%
 TRANSITION DIPOLE   0.1675         C  2 -- C  3         +15.8% ( 59.3%)     66.6%
 TRAVEL (Ang.)       0.0966         C  3 -- C  5         +14.0% ( 55.8%)      0.0%
 REDUCED MASS        3.8934         C  1 -- C  6          +8.3% ( 43.0%)     17.0%
 EFFECTIVE MASS     11.9162
 FORCE CONSTANT      7.9030

 VIBRATION         43   43A           ATOM PAIR      ENERGY CONTRIBUTION    RADIAL
 FREQUENCY          1883.82         C  5 -- C  8         +27.1% ( 77.2%)    100.0%
 TRANSITION DIPOLE   0.2846         C  4 -- C  5         +14.3% ( 56.1%)      8.4%
 TRAVEL (Ang.)       0.1178         C  3 -- C  5         +13.3% ( 54.1%)     27.9%
 REDUCED MASS        2.5775         C  4 -- C 10          +9.2% ( 45.1%)     97.6%
 EFFECTIVE MASS     11.8865
 FORCE CONSTANT      5.3893

 VIBRATION         44   44A           ATOM PAIR      ENERGY CONTRIBUTION    RADIAL
 FREQUENCY          1919.07         C  4 -- C 10         +30.1% ( 81.3%)     99.5%
 TRANSITION DIPOLE   0.1266         C  4 -- C  5         +19.8% ( 65.9%)     91.5%
 TRAVEL (Ang.)       0.1030         C  1 -- C  4         +13.4% ( 54.2%)     30.0%
 REDUCED MASS        3.3135         C  5 -- C  8         +10.7% ( 48.4%)     96.6%
 EFFECTIVE MASS     11.9181
 FORCE CONSTANT      7.1899

 VIBRATION         45   45A           ATOM PAIR      ENERGY CONTRIBUTION    RADIAL
 FREQUENCY          2927.63         C  2 -- H 14         +49.0% ( 72.6%)     96.5%
 TRANSITION DIPOLE   0.0615         C  2 -- H 13         +48.9% ( 72.5%)     96.5%
 TRAVEL (Ang.)       0.2109         C  2 -- C  3          +1.1% ( 10.8%)      0.0%
 REDUCED MASS        0.5176         C  2 -- C  7          +1.1% ( 10.8%)      0.0%
 EFFECTIVE MASS      1.5348
 FORCE CONSTANT      2.6138

 VIBRATION         46   46A           ATOM PAIR      ENERGY CONTRIBUTION    RADIAL
 FREQUENCY          2974.84         C  1 -- H 11         +48.9% ( 72.5%)     96.7%
 TRANSITION DIPOLE   0.0644         C  1 -- H 12         +48.9% ( 72.5%)     96.7%
 TRAVEL (Ang.)       0.2092         C  1 -- C  4          +1.1% ( 10.8%)      0.0%
 REDUCED MASS        0.5179         C  1 -- C  6          +1.1% ( 10.8%)      0.0%
 EFFECTIVE MASS      1.5359
 FORCE CONSTANT      2.7002

 VIBRATION         47   47A           ATOM PAIR      ENERGY CONTRIBUTION    RADIAL
 FREQUENCY          3007.17         C  2 -- H 13         +49.0% ( 69.0%)     97.8%
 TRANSITION DIPOLE   0.1239         C  2 -- H 14         +48.9% ( 68.9%)     97.8%
 TRAVEL (Ang.)       0.2167         C  7 -- H 16          +0.8% (  8.5%)    100.0%
 REDUCED MASS        0.4773         C  2 -- C  7          +0.7% (  8.1%)     20.1%
 EFFECTIVE MASS      1.2802
 FORCE CONSTANT      2.5432

 VIBRATION         48   48A           ATOM PAIR      ENERGY CONTRIBUTION    RADIAL
 FREQUENCY          3046.23         C  1 -- H 12         +49.3% ( 69.3%)     97.4%
 TRANSITION DIPOLE   0.1353         C  1 -- H 11         +49.2% ( 69.3%)     97.4%
 TRAVEL (Ang.)       0.2139         C  1 -- C  4          +0.7% (  8.4%)     36.6%
 REDUCED MASS        0.4836         C  1 -- C  6          +0.7% (  8.3%)     33.9%
 EFFECTIVE MASS      1.2850
 FORCE CONSTANT      2.6442

 VIBRATION         49   49A           ATOM PAIR      ENERGY CONTRIBUTION    RADIAL
 FREQUENCY          3047.71         C  7 -- H 16         +54.4% ( 74.9%)    100.0%
 TRANSITION DIPOLE   0.2730         C  9 -- H 18         +40.8% ( 64.9%)    100.0%
 TRAVEL (Ang.)       0.2211         C  8 -- H 17          +2.0% ( 14.2%)     99.9%
 REDUCED MASS        0.4526         C  7 -- C  9          +1.1% ( 10.7%)      0.3%
 EFFECTIVE MASS      1.4662
 FORCE CONSTANT      2.4771

 VIBRATION         50   50A           ATOM PAIR      ENERGY CONTRIBUTION    RADIAL
 FREQUENCY          3062.33         C  8 -- H 17         +49.1% ( 71.2%)    100.0%
 TRANSITION DIPOLE   0.2677         C  7 -- H 16         +27.0% ( 52.8%)     99.9%
 TRAVEL (Ang.)       0.2500         C  9 -- H 18         +20.5% ( 46.0%)     99.8%
 REDUCED MASS        0.3524         C  8 -- C  9          +1.1% ( 10.7%)      1.7%
 EFFECTIVE MASS      1.5413
 FORCE CONSTANT      1.9473

 VIBRATION         51   51A           ATOM PAIR      ENERGY CONTRIBUTION    RADIAL
 FREQUENCY          3072.27         C  8 -- H 17         +45.8% ( 68.6%)    100.0%
 TRANSITION DIPOLE   0.4494         C  9 -- H 18         +35.7% ( 60.6%)    100.0%
 TRAVEL (Ang.)       0.2474         C  7 -- H 16         +14.9% ( 39.1%)     99.8%
 REDUCED MASS        0.3585         C  8 -- C  9          +1.3% ( 11.7%)     99.5%
 EFFECTIVE MASS      1.5751
 FORCE CONSTANT      1.9939

 VIBRATION         52   52A           ATOM PAIR      ENERGY CONTRIBUTION    RADIAL
 FREQUENCY          3135.25         C  6 -- H 15         +94.9% ( 99.0%)    100.0%
 TRANSITION DIPOLE   0.4084         C  3 -- C  6          +1.8% ( 13.5%)     49.5%
 TRAVEL (Ang.)       0.1548         C  1 -- C  6          +1.6% ( 12.9%)     24.5%
 REDUCED MASS        0.8973         C 10 -- H 20          +1.4% ( 12.2%)     99.3%
 EFFECTIVE MASS      1.5520
 FORCE CONSTANT      5.1966

 VIBRATION         53   53A           ATOM PAIR      ENERGY CONTRIBUTION    RADIAL
 FREQUENCY          3136.16         C 10 -- H 20         +88.8% ( 94.8%)     99.5%
 TRANSITION DIPOLE   0.3273         C 10 -- H 19          +7.9% ( 28.3%)     54.2%
 TRAVEL (Ang.)       0.1674         C  6 -- H 15          +1.7% ( 13.1%)    100.0%
 REDUCED MASS        0.7674         C  4 -- C 10          +1.4% ( 12.1%)     70.5%
 EFFECTIVE MASS      1.4393
 FORCE CONSTANT      4.4468

 VIBRATION         54   54A           ATOM PAIR      ENERGY CONTRIBUTION    RADIAL
 FREQUENCY          3145.12         C 10 -- H 19         +89.3% ( 96.3%)     99.8%
 TRANSITION DIPOLE   0.2661         C 10 -- H 20          +9.3% ( 31.0%)     77.9%
 TRAVEL (Ang.)       0.1617         C  4 -- C 10          +1.3% ( 11.8%)     17.7%
 REDUCED MASS        0.8204
 EFFECTIVE MASS      1.5559
 FORCE CONSTANT      4.7815

      SYMMETRY NUMBER FOR POINT-GROUP C1  =  1


          SYSTEM IS A GROUND STATE



 InChI=1S/C10H10/c1-8-6-7-9-4-2-3-5-10(8)9/h2-3,5,7H,1,4,6H2


          MOLECULE IS NOT LINEAR

          THERE ARE 54 GENUINE VIBRATIONS IN THIS SYSTEM
          THIS THERMODYNAMICS CALCULATION IS LIMITED TO
          MOLECULES WHICH HAVE NO INTERNAL ROTATIONS




                    CALCULATED THERMODYNAMIC PROPERTIES
                                          *
   TEMP. (K)   PARTITION FUNCTION   H.O.F.    ENTHALPY  HEAT CAPACITY ENTROPY
                                   KCAL/MOL   CAL/MOLE    CAL/K/MOL  CAL/K/MOL


 298.00  VIB.     0.3908D+02                  3308.4960    26.8761    18.3866
         ROT.     0.5251D+06                   888.2803     2.9808    29.1551
         INT.     0.2052D+08                  4196.7763    29.8569    47.5416
         TRA.     0.1436D+28                  1480.4672     4.9680    40.5022
         TOT.                       53.921    5677.2435    34.8249    88.0438

 200.00  VIB.     0.7157D+01                  1253.4868    15.2572    10.1785
         ROT.     0.2887D+06                   596.1613     2.9808    27.9664
         INT.     0.2066D+07                  1849.6481    18.2380    38.1449
         TRA.     0.7896D+27                   993.6021     4.9680    38.5210
         TOT.                       51.087    2843.2502    23.2060    76.6659

 210.00  VIB.     0.8394D+01                  1411.6037    16.3706    10.9497
         ROT.     0.3107D+06                   625.9693     2.9808    28.1118
         INT.     0.2608D+07                  2037.5730    19.3514    39.0616
         TRA.     0.8496D+27                  1043.2822     4.9680    38.7634
         TOT.                       51.324    3080.8553    24.3194    77.8250

 220.00  VIB.     0.9877D+01                  1580.9807    17.5087    11.7375
         ROT.     0.3331D+06                   655.7774     2.9808    28.2505
         INT.     0.3290D+07                  2236.7581    20.4895    39.9880
         TRA.     0.9110D+27                  1092.9623     4.9680    38.9945
         TOT.                       51.573    3329.7205    25.4576    78.9825

 230.00  VIB.     0.1166D+02                  1761.8511    18.6687    12.5413
         ROT.     0.3561D+06                   685.5855     2.9808    28.3830
         INT.     0.4152D+07                  2447.4366    21.6495    40.9243
         TRA.     0.9738D+27                  1142.6424     4.9680    39.2154
         TOT.                       51.834    3590.0790    26.6175    80.1396

 240.00  VIB.     0.1381D+02                  1954.4167    19.8472    13.3606
         ROT.     0.3795D+06                   715.3935     2.9808    28.5099
         INT.     0.5242D+07                  2669.8102    22.8280    41.8705
         TRA.     0.1038D+28                  1192.3226     4.9680    39.4268
         TOT.                       52.106    3862.1328    27.7960    81.2973

 250.00  VIB.     0.1641D+02                  2158.8463    21.0409    14.1950
         ROT.     0.4035D+06                   745.2016     2.9808    28.6315
         INT.     0.6620D+07                  2904.0479    24.0217    42.8265
         TRA.     0.1103D+28                  1242.0027     4.9680    39.6296
         TOT.                       52.390    4146.0506    28.9897    82.4562

 260.00  VIB.     0.1955D+02                  2375.2745    22.2464    15.0437
         ROT.     0.4280D+06                   775.0097     2.9808    28.7485
         INT.     0.8367D+07                  3150.2842    25.2272    43.7921
         TRA.     0.1170D+28                  1291.6828     4.9680    39.8245
         TOT.                       52.686    4441.9670    30.1952    83.6166

 270.00  VIB.     0.2337D+02                  2603.8020    23.4602    15.9060
         ROT.     0.4529D+06                   804.8177     2.9808    28.8610
         INT.     0.1058D+08                  3408.6197    26.4410    44.7670
         TRA.     0.1239D+28                  1341.3629     4.9680    40.0120
         TOT.                       52.994    4749.9826    31.4090    84.7789

 280.00  VIB.     0.2801D+02                  2844.4958    24.6791    16.7812
         ROT.     0.4783D+06                   834.6258     2.9808    28.9694
         INT.     0.1340D+08                  3679.1216    27.6599    45.7506
         TRA.     0.1308D+28                  1391.0430     4.9680    40.1926
         TOT.                       53.314    5070.1646    32.6279    85.9432

 290.00  VIB.     0.3366D+02                  3097.3910    25.9000    17.6685
         ROT.     0.5041D+06                   864.4339     2.9808    29.0740
         INT.     0.1697D+08                  3961.8248    28.8808    46.7425
         TRA.     0.1379D+28                  1440.7231     4.9680    40.3670
         TOT.                       53.646    5402.5479    33.8488    87.1095

 300.00  VIB.     0.4057D+02                  3362.4919    27.1198    18.5672
         ROT.     0.5304D+06                   894.2419     2.9808    29.1750
         INT.     0.2152D+08                  4256.7338    30.1006    47.7422
         TRA.     0.1451D+28                  1490.4032     4.9680    40.5354
         TOT.                       53.991    5747.1370    35.0686    88.2776

 310.00  VIB.     0.4903D+02                  3639.7749    28.3359    19.4763
         ROT.     0.5572D+06                   924.0500     2.9808    29.2728
         INT.     0.2732D+08                  4563.8249    31.3168    48.7490
         TRA.     0.1524D+28                  1540.0833     4.9680    40.6983
         TOT.                       54.347    6103.9082    36.2848    89.4473

 320.00  VIB.     0.5940D+02                  3929.1901    29.5459    20.3950
         ROT.     0.5843D+06                   953.8580     2.9808    29.3674
         INT.     0.3471D+08                  4883.0482    32.5267    49.7624
         TRA.     0.1598D+28                  1589.7634     4.9680    40.8560
         TOT.                       54.716    6472.8116    37.4947    90.6184

 330.00  VIB.     0.7214D+02                  4230.6640    30.7473    21.3226
         ROT.     0.6119D+06                   983.6661     2.9808    29.4591
         INT.     0.4414D+08                  5214.3301    33.7281    50.7817
         TRA.     0.1674D+28                  1639.4435     4.9680    41.0089
         TOT.                       55.097    6853.7736    38.6961    91.7906

 340.00  VIB.     0.8782D+02                  4544.1018    31.9383    22.2582
         ROT.     0.6400D+06                  1013.4742     2.9808    29.5481
         INT.     0.5620D+08                  5557.5760    34.9191    51.8063
         TRA.     0.1750D+28                  1689.1236     4.9680    41.1572
         TOT.                       55.490    7246.6996    39.8872    92.9635

 350.00  VIB.     0.1071D+03                  4869.3900    33.1171    23.2011
         ROT.     0.6684D+06                  1043.2822     2.9808    29.6345
         INT.     0.7162D+08                  5912.6723    36.0979    52.8356
         TRA.     0.1828D+28                  1738.8037     4.9680    41.3012
         TOT.                       55.895    7651.4760    41.0660    94.1368

 360.00  VIB.     0.1310D+03                  5206.3988    34.2822    24.1504
         ROT.     0.6973D+06                  1073.0903     2.9808    29.7185
         INT.     0.9135D+08                  6279.4891    37.2630    53.8688
         TRA.     0.1907D+28                  1788.4838     4.9680    41.4412
         TOT.                       56.312    8067.9729    42.2310    95.3100

 370.00  VIB.     0.1605D+03                  5554.9840    35.4322    25.1054
         ROT.     0.7265D+06                  1102.8984     2.9808    29.8001
         INT.     0.1166D+09                  6657.8824    38.4130    54.9055
         TRA.     0.1987D+28                  1838.1639     4.9680    41.5773
         TOT.                       56.740    8496.0463    43.3811    96.4828

 380.00  VIB.     0.1971D+03                  5914.9897    36.5661    26.0654
         ROT.     0.7562D+06                  1132.7064     2.9808    29.8796
         INT.     0.1490D+09                  7047.6961    39.5469    55.9450
         TRA.     0.2068D+28                  1887.8440     4.9680    41.7098
         TOT.                       57.179    8935.5402    44.5149    97.6548

 390.00  VIB.     0.2424D+03                  6286.2497    37.6830    27.0297
         ROT.     0.7862D+06                  1162.5145     2.9808    29.9571
         INT.     0.1906D+09                  7448.7642    40.6638    56.9868
         TRA.     0.2150D+28                  1937.5242     4.9680    41.8388
         TOT.                       57.630    9386.2884    45.6318    98.8256

 400.00  VIB.     0.2987D+03                  6668.5899    38.7820    27.9976
         ROT.     0.8166D+06                  1192.3226     2.9808    30.0325
         INT.     0.2440D+09                  7860.9125    41.7629    58.0302
         TRA.     0.2233D+28                  1987.2043     4.9680    41.9646
         TOT.                       58.092    9848.1167    46.7309    99.9948

   *: NOTE: HEATS OF FORMATION ARE RELATIVE TO THE
            ELEMENTS IN THEIR STANDARD STATE AT 298K
              (=  Standard Enthalpy of Formation).

            Hvib:  Zero-point energy is not included.
                   frequencies of less than zero cm-1 are not included.
            Hrot = (3/2)RT
            Htra = (3/2)RT + pV = (5/2)RT

            Heat capacity is Cp, not Cv

          For more information, see: HTTP://OpenMOPAC.net/Manual/thermochemistry.html


           FORCE CONSTANT IN CARTESIAN COORDINATES (Millidynes/A)

    ATOM   CHEMICAL       X               Y               Z
   NUMBER   SYMBOL  FORCE CONSTANT  FORCE CONSTANT  FORCE CONSTANT

      1       C        9.579129        8.074342        7.877802
      2       C        9.481933        8.921970        7.633527
      3       C       14.929353       11.509479        2.548538
      4       C       12.673343       12.955525        2.599595
      5       C       12.626962       13.942379        2.364286
      6       C       11.000982       13.646436        2.296794
      7       C       10.694024       13.690950        2.383679
      8       C       11.738838       13.444083        2.175380
      9       C       11.085995       14.067991        2.206208
     10       C       11.889536       12.576070        1.936287
     11       H        1.840149        0.918728        3.547015
     12       H        1.840718        0.920019        3.545368
     13       H        0.917233        1.793217        3.437678
     14       H        0.917362        1.791959        3.438513
     15       H        0.732306        5.358692        0.332933
     16       H        5.087127        0.812896        0.341854
     17       H        1.352927        4.560367        0.341768
     18       H        2.176098        3.726566        0.342717
     19       H        5.313515        0.790224        0.326418
     20       H        1.053017        5.044893        0.330996

 **********************
 *                    *
 * JOB ENDED NORMALLY *
 *                    *
 **********************



 TOTAL JOB TIME:             1.92 SECONDS

 == MOPAC DONE ==
