 *******************************************************************************
 **                                                                           **
 **                              MOPAC v23.1.2                                **
 **                                                                           **
 *******************************************************************************
 **          Digital Object Identifier (DOI): 10.5281/zenodo.6511958          **
 **    Visit the DOI location for information on how to cite this program.    **
 *******************************************************************************

                              PM3 CALCULATION RESULTS

 *******************************************************************************
 *  CALCULATION DONE: (MAX THREADS = 1)              Tue Jun  3 16:41:44 2025  *
 *  PM3        - The PM3 Hamiltonian to be used
 *  PRECISE    - TIGHTER CRITERIA TO BE USED
 *  NOSYM      - POINT-GROUP SYMMETRY SET TO C1
 *  THREADS=1  - MULTI-THREADING NOT USED
 *  T=         - A TIME OF 172800.0 SECONDS REQUESTED
 *  DUMP=N     - RESTART FILE WRITTEN EVERY 7200.0 SECONDS REQUESTED
 *******************************************************************************
pm3  precise nosym THREADS=1
 InChI=1S/C12H22/c1-4-6-7-10(3)12-9-8-11(12)5-2/h4,6,10-12H,5,7-9H2,1-3H3

   ATOM   CHEMICAL          X               Y               Z
  NUMBER   SYMBOL      (ANGSTROMS)     (ANGSTROMS)     (ANGSTROMS)

     1       C         -0.95050000  *   0.59480000  *   0.30690000  *
     2       C         -2.06430000  *  -0.45990000  *   0.44670000  *
     3       C          0.41110000  *   0.03660000  *  -0.18450000  *
     4       C         -2.11210000  *  -0.20740000  *   1.95300000  *
     5       C         -1.00780000  *   0.83060000  *   1.82080000  *
     6       C         -3.38350000  *  -0.08680000  *  -0.25550000  *
     7       C          1.50720000  *   1.12280000  *  -0.06130000  *
     8       C          0.30260000  *  -0.44410000  *  -1.64210000  *
     9       C         -3.29270000  *  -0.27420000  *  -1.76670000  *
    10       C          4.86470000  *  -0.78080000  *   0.24700000  *
    11       C          2.88570000  *   0.57940000  *  -0.33110000  *
    12       C          3.49060000  *  -0.25590000  *   0.52470000  *
    13       H         -1.74080000  *  -1.50200000  *   0.22730000  *
    14       H         -1.26680000  *   1.50040000  *  -0.25940000  *
    15       H          0.68990000  *  -0.83700000  *   0.44710000  *
    16       H         -3.66230000  *   0.96720000  *  -0.03410000  *
    17       H         -4.19250000  *  -0.74290000  *   0.13240000  *
    18       H         -3.06600000  *   0.23660000  *   2.31510000  *
    19       H         -1.78770000  *  -1.09450000  *   2.54000000  *
    20       H         -1.35850000  *   1.85460000  *   2.07540000  *
    21       H         -0.09120000  *   0.52630000  *   2.37260000  *
    22       H          1.29730000  *   1.94410000  *  -0.78110000  *
    23       H          1.50440000  *   1.57370000  *   0.95390000  *
    24       H         -4.27810000  *  -0.05120000  *  -2.22720000  *
    25       H         -2.53990000  *   0.41720000  *  -2.19880000  *
    26       H         -3.01710000  *  -1.32210000  *  -2.01060000  *
    27       H          1.27430000  *  -0.85180000  *  -1.99160000  *
    28       H          0.00700000  *   0.39340000  *  -2.30960000  *
    29       H         -0.44470000  *  -1.25810000  *  -1.73440000  *
    30       H          5.58410000  *   0.06170000  *   0.17120000  *
    31       H          4.86560000  *  -1.35480000  *  -0.70370000  *
    32       H          5.18310000  *  -1.45190000  *   1.07180000  *
    33       H          2.98580000  *  -0.56230000  *   1.43700000  *
    34       H          3.40300000  *   0.89800000  *  -1.23230000  *



          CARTESIAN COORDINATES 

    NO.       ATOM           X           Y           Z

     1         C         -0.9505      0.5948      0.3069
     2         C         -2.0643     -0.4599      0.4467
     3         C          0.4111      0.0366     -0.1845
     4         C         -2.1121     -0.2074      1.9530
     5         C         -1.0078      0.8306      1.8208
     6         C         -3.3835     -0.0868     -0.2555
     7         C          1.5072      1.1228     -0.0613
     8         C          0.3026     -0.4441     -1.6421
     9         C         -3.2927     -0.2742     -1.7667
    10         C          4.8647     -0.7808      0.2470
    11         C          2.8857      0.5794     -0.3311
    12         C          3.4906     -0.2559      0.5247
    13         H         -1.7408     -1.5020      0.2273
    14         H         -1.2668      1.5004     -0.2594
    15         H          0.6899     -0.8370      0.4471
    16         H         -3.6623      0.9672     -0.0341
    17         H         -4.1925     -0.7429      0.1324
    18         H         -3.0660      0.2366      2.3151
    19         H         -1.7877     -1.0945      2.5400
    20         H         -1.3585      1.8546      2.0754
    21         H         -0.0912      0.5263      2.3726
    22         H          1.2973      1.9441     -0.7811
    23         H          1.5044      1.5737      0.9539
    24         H         -4.2781     -0.0512     -2.2272
    25         H         -2.5399      0.4172     -2.1988
    26         H         -3.0171     -1.3221     -2.0106
    27         H          1.2743     -0.8518     -1.9916
    28         H          0.0070      0.3934     -2.3096
    29         H         -0.4447     -1.2581     -1.7344
    30         H          5.5841      0.0617      0.1712
    31         H          4.8656     -1.3548     -0.7037
    32         H          5.1831     -1.4519      1.0718
    33         H          2.9858     -0.5623      1.4370
    34         H          3.4030      0.8980     -1.2323

  H: (PM3): J. J. P. STEWART, J. COMP. CHEM. 10, 209 (1989).
  C: (PM3): J. J. P. STEWART, J. COMP. CHEM. 10, 209 (1989).

           Empirical Formula: C12 H22  =    34 atoms



      MOLECULAR POINT GROUP   :   C1  


      RHF CALCULATION, NO. OF DOUBLY OCCUPIED LEVELS = 35


          Geometry optimization using L-BFGS
 CYCLE:     1 TIME:   0.012 TIME LEFT:  2.00D  GRAD.:    86.139 HEAT: -16.32630
 CYCLE:     2 TIME:   0.012 TIME LEFT:  2.00D  GRAD.:    84.800 HEAT: -16.39992
 CYCLE:     3 TIME:   0.008 TIME LEFT:  2.00D  GRAD.:    33.808 HEAT: -19.51445
 CYCLE:     4 TIME:   0.012 TIME LEFT:  2.00D  GRAD.:    84.803 HEAT: -16.39998
 CYCLE:     5 TIME:   0.012 TIME LEFT:  2.00D  GRAD.:    33.810 HEAT: -19.51444
 CYCLE:     6 TIME:   0.008 TIME LEFT:  2.00D  GRAD.:    33.968 HEAT: -20.05815
 CYCLE:     7 TIME:   0.012 TIME LEFT:  2.00D  GRAD.:    24.464 HEAT: -20.68118
 CYCLE:     8 TIME:   0.012 TIME LEFT:  2.00D  GRAD.:    21.303 HEAT: -21.22613
 CYCLE:     9 TIME:   0.008 TIME LEFT:  2.00D  GRAD.:    24.726 HEAT: -21.40712
 CYCLE:    10 TIME:   0.012 TIME LEFT:  2.00D  GRAD.:     6.787 HEAT: -21.56840
 CYCLE:    11 TIME:   0.008 TIME LEFT:  2.00D  GRAD.:     4.151 HEAT: -21.58999
 CYCLE:    12 TIME:   0.012 TIME LEFT:  2.00D  GRAD.:     3.659 HEAT: -21.61032
 CYCLE:    13 TIME:   0.012 TIME LEFT:  2.00D  GRAD.:     3.630 HEAT: -21.62934
 CYCLE:    14 TIME:   0.008 TIME LEFT:  2.00D  GRAD.:     8.171 HEAT: -21.63147
 CYCLE:    15 TIME:   0.012 TIME LEFT:  2.00D  GRAD.:     2.242 HEAT: -21.64908
 CYCLE:    16 TIME:   0.012 TIME LEFT:  2.00D  GRAD.:     1.937 HEAT: -21.65299
 CYCLE:    17 TIME:   0.008 TIME LEFT:  2.00D  GRAD.:     2.474 HEAT: -21.66181
 CYCLE:    18 TIME:   0.012 TIME LEFT:  2.00D  GRAD.:     2.711 HEAT: -21.67135
 CYCLE:    19 TIME:   0.012 TIME LEFT:  2.00D  GRAD.:     6.689 HEAT: -21.66874
 CYCLE:    20 TIME:   0.008 TIME LEFT:  2.00D  GRAD.:     1.667 HEAT: -21.68129
 CYCLE:    21 TIME:   0.012 TIME LEFT:  2.00D  GRAD.:     1.484 HEAT: -21.68366
 CYCLE:    22 TIME:   0.012 TIME LEFT:  2.00D  GRAD.:     2.463 HEAT: -21.68946
 CYCLE:    23 TIME:   0.008 TIME LEFT:  2.00D  GRAD.:     6.928 HEAT: -21.69317
 CYCLE:    24 TIME:   0.012 TIME LEFT:  2.00D  GRAD.:     3.519 HEAT: -21.70083
 CYCLE:    25 TIME:   0.008 TIME LEFT:  2.00D  GRAD.:     2.491 HEAT: -21.70875
 CYCLE:    26 TIME:   0.012 TIME LEFT:  2.00D  GRAD.:     3.208 HEAT: -21.71432
 CYCLE:    27 TIME:   0.008 TIME LEFT:  2.00D  GRAD.:     3.732 HEAT: -21.72616
 CYCLE:    28 TIME:   0.012 TIME LEFT:  2.00D  GRAD.:     4.241 HEAT: -21.74025
 CYCLE:    29 TIME:   0.012 TIME LEFT:  2.00D  GRAD.:     3.185 HEAT: -21.75253
 CYCLE:    30 TIME:   0.012 TIME LEFT:  2.00D  GRAD.:     3.311 HEAT: -21.76011
 CYCLE:    31 TIME:   0.008 TIME LEFT:  2.00D  GRAD.:     4.305 HEAT: -21.76969
 CYCLE:    32 TIME:   0.012 TIME LEFT:  2.00D  GRAD.:     3.147 HEAT: -21.77674
 CYCLE:    33 TIME:   0.012 TIME LEFT:  2.00D  GRAD.:     2.943 HEAT: -21.78203
 CYCLE:    34 TIME:   0.008 TIME LEFT:  2.00D  GRAD.:     1.954 HEAT: -21.78817
 CYCLE:    35 TIME:   0.012 TIME LEFT:  2.00D  GRAD.:     2.303 HEAT: -21.79442
 CYCLE:    36 TIME:   0.012 TIME LEFT:  2.00D  GRAD.:     2.780 HEAT: -21.79991
 CYCLE:    37 TIME:   0.008 TIME LEFT:  2.00D  GRAD.:     4.557 HEAT: -21.80453
 CYCLE:    38 TIME:   0.012 TIME LEFT:  2.00D  GRAD.:     2.473 HEAT: -21.81189
 CYCLE:    39 TIME:   0.012 TIME LEFT:  2.00D  GRAD.:     2.012 HEAT: -21.81625
 CYCLE:    40 TIME:   0.008 TIME LEFT:  2.00D  GRAD.:     2.199 HEAT: -21.82246
 CYCLE:    41 TIME:   0.012 TIME LEFT:  2.00D  GRAD.:     5.565 HEAT: -21.83268
 CYCLE:    42 TIME:   0.012 TIME LEFT:  2.00D  GRAD.:     2.599 HEAT: -21.84403
 CYCLE:    43 TIME:   0.012 TIME LEFT:  2.00D  GRAD.:     1.873 HEAT: -21.85071
 CYCLE:    44 TIME:   0.008 TIME LEFT:  2.00D  GRAD.:     2.581 HEAT: -21.85739
 CYCLE:    45 TIME:   0.012 TIME LEFT:  2.00D  GRAD.:     4.640 HEAT: -21.86769
 CYCLE:    46 TIME:   0.012 TIME LEFT:  2.00D  GRAD.:     3.739 HEAT: -21.88246
 CYCLE:    47 TIME:   0.008 TIME LEFT:  2.00D  GRAD.:     3.378 HEAT: -21.90025
 CYCLE:    48 TIME:   0.012 TIME LEFT:  2.00D  GRAD.:     4.650 HEAT: -21.91036
 CYCLE:    49 TIME:   0.012 TIME LEFT:  2.00D  GRAD.:     2.357 HEAT: -21.92002
 CYCLE:    50 TIME:   0.008 TIME LEFT:  2.00D  GRAD.:     2.272 HEAT: -21.92682
 CYCLE:    51 TIME:   0.012 TIME LEFT:  2.00D  GRAD.:     2.928 HEAT: -21.93706
 CYCLE:    52 TIME:   0.012 TIME LEFT:  2.00D  GRAD.:     9.066 HEAT: -21.93926
 CYCLE:    53 TIME:   0.012 TIME LEFT:  2.00D  GRAD.:     2.927 HEAT: -21.95461
 CYCLE:    54 TIME:   0.012 TIME LEFT:  2.00D  GRAD.:     2.409 HEAT: -21.96176
 CYCLE:    55 TIME:   0.008 TIME LEFT:  2.00D  GRAD.:     3.553 HEAT: -21.97466
 CYCLE:    56 TIME:   0.012 TIME LEFT:  2.00D  GRAD.:     7.202 HEAT: -21.98067
 CYCLE:    57 TIME:   0.012 TIME LEFT:  2.00D  GRAD.:     3.295 HEAT: -21.99928
 CYCLE:    58 TIME:   0.012 TIME LEFT:  2.00D  GRAD.:     2.853 HEAT: -22.01284
 CYCLE:    59 TIME:   0.012 TIME LEFT:  2.00D  GRAD.:     4.145 HEAT: -22.02872
 CYCLE:    60 TIME:   0.008 TIME LEFT:  2.00D  GRAD.:     5.138 HEAT: -22.05176
 CYCLE:    61 TIME:   0.012 TIME LEFT:  2.00D  GRAD.:    11.413 HEAT: -22.03975
 CYCLE:    62 TIME:   0.012 TIME LEFT:  2.00D  GRAD.:     3.618 HEAT: -22.09135
 CYCLE:    63 TIME:   0.008 TIME LEFT:  2.00D  GRAD.:     2.926 HEAT: -22.10310
 CYCLE:    64 TIME:   0.012 TIME LEFT:  2.00D  GRAD.:     6.769 HEAT: -22.12356
 CYCLE:    65 TIME:   0.012 TIME LEFT:  2.00D  GRAD.:     5.452 HEAT: -22.14924
 CYCLE:    66 TIME:   0.012 TIME LEFT:  2.00D  GRAD.:     5.719 HEAT: -22.18696
 CYCLE:    67 TIME:   0.008 TIME LEFT:  2.00D  GRAD.:     7.120 HEAT: -22.22514
 CYCLE:    68 TIME:   0.012 TIME LEFT:  2.00D  GRAD.:     8.910 HEAT: -22.23917
 CYCLE:    69 TIME:   0.012 TIME LEFT:  2.00D  GRAD.:     4.836 HEAT: -22.26661
 CYCLE:    70 TIME:   0.012 TIME LEFT:  2.00D  GRAD.:     4.490 HEAT: -22.28551
 CYCLE:    71 TIME:   0.008 TIME LEFT:  2.00D  GRAD.:     8.988 HEAT: -22.31474
 CYCLE:    72 TIME:   0.012 TIME LEFT:  2.00D  GRAD.:     6.087 HEAT: -22.33917
 CYCLE:    73 TIME:   0.012 TIME LEFT:  2.00D  GRAD.:     4.707 HEAT: -22.36582
 CYCLE:    74 TIME:   0.012 TIME LEFT:  2.00D  GRAD.:     5.218 HEAT: -22.40150
 CYCLE:    75 TIME:   0.008 TIME LEFT:  2.00D  GRAD.:     6.109 HEAT: -22.42891
 CYCLE:    76 TIME:   0.012 TIME LEFT:  2.00D  GRAD.:     3.999 HEAT: -22.45475
 CYCLE:    77 TIME:   0.012 TIME LEFT:  2.00D  GRAD.:     4.305 HEAT: -22.48070
 CYCLE:    78 TIME:   0.012 TIME LEFT:  2.00D  GRAD.:     6.562 HEAT: -22.51763
 CYCLE:    79 TIME:   0.008 TIME LEFT:  2.00D  GRAD.:     8.633 HEAT: -22.54948
 CYCLE:    80 TIME:   0.012 TIME LEFT:  2.00D  GRAD.:     6.180 HEAT: -22.57790
 CYCLE:    81 TIME:   0.012 TIME LEFT:  2.00D  GRAD.:    11.073 HEAT: -22.57834
 CYCLE:    82 TIME:   0.008 TIME LEFT:  2.00D  GRAD.:     4.599 HEAT: -22.61587
 CYCLE:    83 TIME:   0.012 TIME LEFT:  2.00D  GRAD.:     3.163 HEAT: -22.62379
 CYCLE:    84 TIME:   0.012 TIME LEFT:  2.00D  GRAD.:     2.897 HEAT: -22.63898
 CYCLE:    85 TIME:   0.008 TIME LEFT:  2.00D  GRAD.:     3.113 HEAT: -22.65375
 CYCLE:    86 TIME:   0.012 TIME LEFT:  2.00D  GRAD.:     8.889 HEAT: -22.65224
 CYCLE:    87 TIME:   0.012 TIME LEFT:  2.00D  GRAD.:     3.138 HEAT: -22.67454
 CYCLE:    88 TIME:   0.008 TIME LEFT:  2.00D  GRAD.:     2.060 HEAT: -22.68007
 CYCLE:    89 TIME:   0.012 TIME LEFT:  2.00D  GRAD.:     2.631 HEAT: -22.68806
 CYCLE:    90 TIME:   0.012 TIME LEFT:  2.00D  GRAD.:     5.555 HEAT: -22.69309
 CYCLE:    91 TIME:   0.012 TIME LEFT:  2.00D  GRAD.:     2.515 HEAT: -22.70529
 CYCLE:    92 TIME:   0.008 TIME LEFT:  2.00D  GRAD.:     1.935 HEAT: -22.71011
 CYCLE:    93 TIME:   0.012 TIME LEFT:  2.00D  GRAD.:     2.262 HEAT: -22.71648
 CYCLE:    94 TIME:   0.012 TIME LEFT:  2.00D  GRAD.:     3.773 HEAT: -22.72263
 CYCLE:    95 TIME:   0.012 TIME LEFT:  2.00D  GRAD.:     2.311 HEAT: -22.72983
 CYCLE:    96 TIME:   0.012 TIME LEFT:  2.00D  GRAD.:     2.133 HEAT: -22.73686
 CYCLE:    97 TIME:   0.008 TIME LEFT:  2.00D  GRAD.:     2.755 HEAT: -22.74437
 CYCLE:    98 TIME:   0.012 TIME LEFT:  2.00D  GRAD.:     5.893 HEAT: -22.75066
 CYCLE:    99 TIME:   0.008 TIME LEFT:  2.00D  GRAD.:     2.708 HEAT: -22.75964
 CYCLE:   100 TIME:   0.012 TIME LEFT:  2.00D  GRAD.:     2.444 HEAT: -22.76728
 CYCLE:   101 TIME:   0.012 TIME LEFT:  2.00D  GRAD.:     3.332 HEAT: -22.77360
 CYCLE:   102 TIME:   0.012 TIME LEFT:  2.00D  GRAD.:     4.253 HEAT: -22.78032
 CYCLE:   103 TIME:   0.008 TIME LEFT:  2.00D  GRAD.:     2.136 HEAT: -22.78694
 CYCLE:   104 TIME:   0.012 TIME LEFT:  2.00D  GRAD.:     1.814 HEAT: -22.79023
 CYCLE:   105 TIME:   0.012 TIME LEFT:  2.00D  GRAD.:     1.962 HEAT: -22.79478
 CYCLE:   106 TIME:   0.008 TIME LEFT:  2.00D  GRAD.:     3.279 HEAT: -22.79942
 CYCLE:   107 TIME:   0.012 TIME LEFT:  2.00D  GRAD.:     1.844 HEAT: -22.80402
 CYCLE:   108 TIME:   0.012 TIME LEFT:  2.00D  GRAD.:     1.515 HEAT: -22.80693
 CYCLE:   109 TIME:   0.012 TIME LEFT:  2.00D  GRAD.:     1.878 HEAT: -22.81091
 CYCLE:   110 TIME:   0.008 TIME LEFT:  2.00D  GRAD.:     2.988 HEAT: -22.81525
 CYCLE:   111 TIME:   0.012 TIME LEFT:  2.00D  GRAD.:     2.075 HEAT: -22.82031
 CYCLE:   112 TIME:   0.012 TIME LEFT:  2.00D  GRAD.:     1.699 HEAT: -22.82586
 CYCLE:   113 TIME:   0.008 TIME LEFT:  2.00D  GRAD.:     2.505 HEAT: -22.82921
 CYCLE:   114 TIME:   0.012 TIME LEFT:  2.00D  GRAD.:     1.999 HEAT: -22.83277
 CYCLE:   115 TIME:   0.012 TIME LEFT:  2.00D  GRAD.:     1.911 HEAT: -22.83741
 CYCLE:   116 TIME:   0.012 TIME LEFT:  2.00D  GRAD.:     2.800 HEAT: -22.84238
 CYCLE:   117 TIME:   0.012 TIME LEFT:  2.00D  GRAD.:     3.071 HEAT: -22.84693
 CYCLE:   118 TIME:   0.012 TIME LEFT:  2.00D  GRAD.:     1.809 HEAT: -22.85144
 CYCLE:   119 TIME:   0.008 TIME LEFT:  2.00D  GRAD.:     1.711 HEAT: -22.85562
 CYCLE:   120 TIME:   0.012 TIME LEFT:  2.00D  GRAD.:     2.025 HEAT: -22.85928
 CYCLE:   121 TIME:   0.012 TIME LEFT:  2.00D  GRAD.:     2.057 HEAT: -22.86363
 CYCLE:   122 TIME:   0.012 TIME LEFT:  2.00D  GRAD.:     1.557 HEAT: -22.86693
 CYCLE:   123 TIME:   0.008 TIME LEFT:  2.00D  GRAD.:     1.631 HEAT: -22.87023
 CYCLE:   124 TIME:   0.012 TIME LEFT:  2.00D  GRAD.:     2.072 HEAT: -22.87363
 CYCLE:   125 TIME:   0.012 TIME LEFT:  2.00D  GRAD.:     1.806 HEAT: -22.87693
 CYCLE:   126 TIME:   0.008 TIME LEFT:  2.00D  GRAD.:     1.408 HEAT: -22.87955
 CYCLE:   127 TIME:   0.012 TIME LEFT:  2.00D  GRAD.:     1.845 HEAT: -22.88387
 CYCLE:   128 TIME:   0.012 TIME LEFT:  2.00D  GRAD.:     2.741 HEAT: -22.88869
 CYCLE:   129 TIME:   0.012 TIME LEFT:  2.00D  GRAD.:     2.588 HEAT: -22.89526
 CYCLE:   130 TIME:   0.012 TIME LEFT:  2.00D  GRAD.:     2.717 HEAT: -22.90159
 CYCLE:   131 TIME:   0.008 TIME LEFT:  2.00D  GRAD.:     3.407 HEAT: -22.90730
 CYCLE:   132 TIME:   0.012 TIME LEFT:  2.00D  GRAD.:     2.703 HEAT: -22.91456
 CYCLE:   133 TIME:   0.012 TIME LEFT:  2.00D  GRAD.:     3.810 HEAT: -22.92776
 CYCLE:   134 TIME:   0.008 TIME LEFT:  2.00D  GRAD.:     3.276 HEAT: -22.93637
 CYCLE:   135 TIME:   0.012 TIME LEFT:  2.00D  GRAD.:     3.423 HEAT: -22.94240
 CYCLE:   136 TIME:   0.012 TIME LEFT:  2.00D  GRAD.:     4.223 HEAT: -22.94477
 CYCLE:   137 TIME:   0.008 TIME LEFT:  2.00D  GRAD.:     1.782 HEAT: -22.94961
 CYCLE:   138 TIME:   0.012 TIME LEFT:  2.00D  GRAD.:     1.764 HEAT: -22.95209
 CYCLE:   139 TIME:   0.012 TIME LEFT:  2.00D  GRAD.:     1.254 HEAT: -22.95455
 CYCLE:   140 TIME:   0.012 TIME LEFT:  2.00D  GRAD.:     1.400 HEAT: -22.95717
 CYCLE:   141 TIME:   0.008 TIME LEFT:  2.00D  GRAD.:     1.538 HEAT: -22.95874
 CYCLE:   142 TIME:   0.012 TIME LEFT:  2.00D  GRAD.:     1.376 HEAT: -22.96063
 CYCLE:   143 TIME:   0.012 TIME LEFT:  2.00D  GRAD.:     3.405 HEAT: -22.96354
 CYCLE:   144 TIME:   0.012 TIME LEFT:  2.00D  GRAD.:     1.436 HEAT: -22.96691
 CYCLE:   145 TIME:   0.008 TIME LEFT:  2.00D  GRAD.:     1.308 HEAT: -22.96867
 CYCLE:   146 TIME:   0.012 TIME LEFT:  2.00D  GRAD.:     1.595 HEAT: -22.97278
 CYCLE:   147 TIME:   0.012 TIME LEFT:  2.00D  GRAD.:     3.771 HEAT: -22.97354
 CYCLE:   148 TIME:   0.008 TIME LEFT:  2.00D  GRAD.:     1.502 HEAT: -22.97707
 CYCLE:   149 TIME:   0.012 TIME LEFT:  2.00D  GRAD.:     0.935 HEAT: -22.97894
 CYCLE:   150 TIME:   0.012 TIME LEFT:  2.00D  GRAD.:     1.173 HEAT: -22.98070
 CYCLE:   151 TIME:   0.008 TIME LEFT:  2.00D  GRAD.:     1.819 HEAT: -22.98248
 CYCLE:   152 TIME:   0.016 TIME LEFT:  2.00D  GRAD.:     1.247 HEAT: -22.98372
 CYCLE:   153 TIME:   0.008 TIME LEFT:  2.00D  GRAD.:     0.727 HEAT: -22.98455
 CYCLE:   154 TIME:   0.012 TIME LEFT:  2.00D  GRAD.:     0.792 HEAT: -22.98523
 CYCLE:   155 TIME:   0.008 TIME LEFT:  2.00D  GRAD.:     1.133 HEAT: -22.98618
 CYCLE:   156 TIME:   0.012 TIME LEFT:  2.00D  GRAD.:     1.530 HEAT: -22.98746
 CYCLE:   157 TIME:   0.012 TIME LEFT:  2.00D  GRAD.:     0.936 HEAT: -22.98876
 CYCLE:   158 TIME:   0.008 TIME LEFT:  2.00D  GRAD.:     0.972 HEAT: -22.99011
 CYCLE:   159 TIME:   0.012 TIME LEFT:  2.00D  GRAD.:     1.250 HEAT: -22.99139
 CYCLE:   160 TIME:   0.012 TIME LEFT:  2.00D  GRAD.:     1.822 HEAT: -22.99277
 CYCLE:   161 TIME:   0.008 TIME LEFT:  2.00D  GRAD.:     0.987 HEAT: -22.99426
 CYCLE:   162 TIME:   0.012 TIME LEFT:  2.00D  GRAD.:     1.009 HEAT: -22.99525
 CYCLE:   163 TIME:   0.012 TIME LEFT:  2.00D  GRAD.:     1.073 HEAT: -22.99674
 CYCLE:   164 TIME:   0.012 TIME LEFT:  2.00D  GRAD.:     2.290 HEAT: -22.99804
 CYCLE:   165 TIME:   0.012 TIME LEFT:  2.00D  GRAD.:     1.054 HEAT: -23.00025
 CYCLE:   166 TIME:   0.008 TIME LEFT:  2.00D  GRAD.:     0.874 HEAT: -23.00150
 CYCLE:   167 TIME:   0.012 TIME LEFT:  2.00D  GRAD.:     1.253 HEAT: -23.00274
 CYCLE:   168 TIME:   0.012 TIME LEFT:  2.00D  GRAD.:     1.546 HEAT: -23.00401
 CYCLE:   169 TIME:   0.012 TIME LEFT:  2.00D  GRAD.:     0.826 HEAT: -23.00510
 CYCLE:   170 TIME:   0.008 TIME LEFT:  2.00D  GRAD.:     0.951 HEAT: -23.00625
 CYCLE:   171 TIME:   0.012 TIME LEFT:  2.00D  GRAD.:     1.052 HEAT: -23.00718
 CYCLE:   172 TIME:   0.012 TIME LEFT:  2.00D  GRAD.:     2.811 HEAT: -23.00777
 CYCLE:   173 TIME:   0.008 TIME LEFT:  2.00D  GRAD.:     0.846 HEAT: -23.00978
 CYCLE:   174 TIME:   0.012 TIME LEFT:  2.00D  GRAD.:     0.617 HEAT: -23.01014
 CYCLE:   175 TIME:   0.012 TIME LEFT:  2.00D  GRAD.:     0.729 HEAT: -23.01081
 CYCLE:   176 TIME:   0.008 TIME LEFT:  2.00D  GRAD.:     2.332 HEAT: -23.01122
 CYCLE:   177 TIME:   0.012 TIME LEFT:  2.00D  GRAD.:     1.107 HEAT: -23.01216
 CYCLE:   178 TIME:   0.008 TIME LEFT:  2.00D  GRAD.:     0.598 HEAT: -23.01286
 CYCLE:   179 TIME:   0.012 TIME LEFT:  2.00D  GRAD.:     0.733 HEAT: -23.01324
 CYCLE:   180 TIME:   0.012 TIME LEFT:  2.00D  GRAD.:     0.816 HEAT: -23.01417
 CYCLE:   181 TIME:   0.012 TIME LEFT:  2.00D  GRAD.:     2.310 HEAT: -23.01492
 CYCLE:   182 TIME:   0.008 TIME LEFT:  2.00D  GRAD.:     0.784 HEAT: -23.01632
 CYCLE:   183 TIME:   0.012 TIME LEFT:  2.00D  GRAD.:     0.541 HEAT: -23.01683
 CYCLE:   184 TIME:   0.008 TIME LEFT:  2.00D  GRAD.:     0.860 HEAT: -23.01741
 CYCLE:   185 TIME:   0.012 TIME LEFT:  2.00D  GRAD.:     1.108 HEAT: -23.01805
 CYCLE:   186 TIME:   0.012 TIME LEFT:  2.00D  GRAD.:     0.882 HEAT: -23.01889
 CYCLE:   187 TIME:   0.012 TIME LEFT:  2.00D  GRAD.:     1.263 HEAT: -23.02012
 CYCLE:   188 TIME:   0.008 TIME LEFT:  2.00D  GRAD.:     1.244 HEAT: -23.02122
 CYCLE:   189 TIME:   0.012 TIME LEFT:  2.00D  GRAD.:     0.941 HEAT: -23.02219
 CYCLE:   190 TIME:   0.008 TIME LEFT:  2.00D  GRAD.:     1.010 HEAT: -23.02501
 CYCLE:   191 TIME:   0.012 TIME LEFT:  2.00D  GRAD.:     1.781 HEAT: -23.02643
 CYCLE:   192 TIME:   0.012 TIME LEFT:  2.00D  GRAD.:     1.283 HEAT: -23.02819
 CYCLE:   193 TIME:   0.012 TIME LEFT:  2.00D  GRAD.:     1.171 HEAT: -23.02989
 CYCLE:   194 TIME:   0.012 TIME LEFT:  2.00D  GRAD.:     1.149 HEAT: -23.03113
 CYCLE:   195 TIME:   0.012 TIME LEFT:  2.00D  GRAD.:     0.968 HEAT: -23.03226
 CYCLE:   196 TIME:   0.008 TIME LEFT:  2.00D  GRAD.:     1.412 HEAT: -23.03397
 CYCLE:   197 TIME:   0.012 TIME LEFT:  2.00D  GRAD.:     1.202 HEAT: -23.03529
 CYCLE:   198 TIME:   0.012 TIME LEFT:  2.00D  GRAD.:     1.331 HEAT: -23.03677
 CYCLE:   199 TIME:   0.012 TIME LEFT:  2.00D  GRAD.:     1.049 HEAT: -23.03807
 CYCLE:   200 TIME:   0.008 TIME LEFT:  2.00D  GRAD.:     1.421 HEAT: -23.03931
 CYCLE:   201 TIME:   0.012 TIME LEFT:  2.00D  GRAD.:     1.118 HEAT: -23.04035
 CYCLE:   202 TIME:   0.012 TIME LEFT:  2.00D  GRAD.:     1.079 HEAT: -23.04156
 CYCLE:   203 TIME:   0.008 TIME LEFT:  2.00D  GRAD.:     1.216 HEAT: -23.04307
 CYCLE:   204 TIME:   0.012 TIME LEFT:  2.00D  GRAD.:     0.947 HEAT: -23.04430
 CYCLE:   205 TIME:   0.012 TIME LEFT:  2.00D  GRAD.:     1.109 HEAT: -23.04572
 CYCLE:   206 TIME:   0.012 TIME LEFT:  2.00D  GRAD.:     1.159 HEAT: -23.04690
 CYCLE:   207 TIME:   0.012 TIME LEFT:  2.00D  GRAD.:     1.125 HEAT: -23.04804
 CYCLE:   208 TIME:   0.008 TIME LEFT:  2.00D  GRAD.:     0.760 HEAT: -23.04880
 CYCLE:   209 TIME:   0.012 TIME LEFT:  2.00D  GRAD.:     0.740 HEAT: -23.04951
 CYCLE:   210 TIME:   0.012 TIME LEFT:  2.00D  GRAD.:     0.818 HEAT: -23.05030
 CYCLE:   211 TIME:   0.008 TIME LEFT:  2.00D  GRAD.:     0.890 HEAT: -23.05122
 CYCLE:   212 TIME:   0.012 TIME LEFT:  2.00D  GRAD.:     0.882 HEAT: -23.05172
 CYCLE:   213 TIME:   0.012 TIME LEFT:  2.00D  GRAD.:     0.645 HEAT: -23.05213
 CYCLE:   214 TIME:   0.008 TIME LEFT:  2.00D  GRAD.:     0.977 HEAT: -23.05312
 CYCLE:   215 TIME:   0.012 TIME LEFT:  2.00D  GRAD.:     1.080 HEAT: -23.05403
 CYCLE:   216 TIME:   0.012 TIME LEFT:  2.00D  GRAD.:     1.837 HEAT: -23.05535
 CYCLE:   217 TIME:   0.012 TIME LEFT:  2.00D  GRAD.:     1.359 HEAT: -23.05697
 CYCLE:   218 TIME:   0.008 TIME LEFT:  2.00D  GRAD.:     1.059 HEAT: -23.05854
 CYCLE:   219 TIME:   0.012 TIME LEFT:  2.00D  GRAD.:     1.294 HEAT: -23.06044
 CYCLE:   220 TIME:   0.012 TIME LEFT:  2.00D  GRAD.:     1.625 HEAT: -23.06216
 CYCLE:   221 TIME:   0.008 TIME LEFT:  2.00D  GRAD.:     1.126 HEAT: -23.06382
 CYCLE:   222 TIME:   0.012 TIME LEFT:  2.00D  GRAD.:     1.200 HEAT: -23.06512
 CYCLE:   223 TIME:   0.012 TIME LEFT:  2.00D  GRAD.:     1.016 HEAT: -23.06607
 CYCLE:   224 TIME:   0.012 TIME LEFT:  2.00D  GRAD.:     2.026 HEAT: -23.06654
 CYCLE:   225 TIME:   0.012 TIME LEFT:  2.00D  GRAD.:     0.711 HEAT: -23.06754
 CYCLE:   226 TIME:   0.012 TIME LEFT:  2.00D  GRAD.:     0.595 HEAT: -23.06797
 CYCLE:   227 TIME:   0.008 TIME LEFT:  2.00D  GRAD.:     0.860 HEAT: -23.06846
 CYCLE:   228 TIME:   0.012 TIME LEFT:  2.00D  GRAD.:     0.966 HEAT: -23.06921
 CYCLE:   229 TIME:   0.012 TIME LEFT:  2.00D  GRAD.:     2.603 HEAT: -23.06857
 CYCLE:   230 TIME:   0.012 TIME LEFT:  2.00D  GRAD.:     0.626 HEAT: -23.07030
 CYCLE:   231 TIME:   0.008 TIME LEFT:  2.00D  GRAD.:     0.517 HEAT: -23.07052
 CYCLE:   232 TIME:   0.012 TIME LEFT:  2.00D  GRAD.:     0.674 HEAT: -23.07103
 CYCLE:   233 TIME:   0.008 TIME LEFT:  2.00D  GRAD.:     0.762 HEAT: -23.07143
 CYCLE:   234 TIME:   0.012 TIME LEFT:  2.00D  GRAD.:     0.377 HEAT: -23.07170
 CYCLE:   235 TIME:   0.012 TIME LEFT:  2.00D  GRAD.:     0.386 HEAT: -23.07188
 CYCLE:   236 TIME:   0.012 TIME LEFT:  2.00D  GRAD.:     0.556 HEAT: -23.07209
 CYCLE:   237 TIME:   0.012 TIME LEFT:  2.00D  GRAD.:     0.629 HEAT: -23.07235
 CYCLE:   238 TIME:   0.008 TIME LEFT:  2.00D  GRAD.:     0.908 HEAT: -23.07254
 CYCLE:   239 TIME:   0.012 TIME LEFT:  2.00D  GRAD.:     0.440 HEAT: -23.07274
 CYCLE:   240 TIME:   0.012 TIME LEFT:  2.00D  GRAD.:     0.673 HEAT: -23.07289
 CYCLE:   241 TIME:   0.008 TIME LEFT:  2.00D  GRAD.:     0.442 HEAT: -23.07301
 CYCLE:   242 TIME:   0.012 TIME LEFT:  2.00D  GRAD.:     0.314 HEAT: -23.07319
 CYCLE:   243 TIME:   0.012 TIME LEFT:  2.00D  GRAD.:     0.354 HEAT: -23.07333
 CYCLE:   244 TIME:   0.008 TIME LEFT:  2.00D  GRAD.:     0.502 HEAT: -23.07356
 CYCLE:   245 TIME:   0.012 TIME LEFT:  2.00D  GRAD.:     0.449 HEAT: -23.07377
 CYCLE:   246 TIME:   0.012 TIME LEFT:  2.00D  GRAD.:     0.390 HEAT: -23.07396
 CYCLE:   247 TIME:   0.008 TIME LEFT:  2.00D  GRAD.:     0.580 HEAT: -23.07422
 CYCLE:   248 TIME:   0.012 TIME LEFT:  2.00D  GRAD.:     0.488 HEAT: -23.07440
 CYCLE:   249 TIME:   0.012 TIME LEFT:  2.00D  GRAD.:     0.395 HEAT: -23.07453
 CYCLE:   250 TIME:   0.012 TIME LEFT:  2.00D  GRAD.:     0.409 HEAT: -23.07476
 CYCLE:   251 TIME:   0.012 TIME LEFT:  2.00D  GRAD.:     0.426 HEAT: -23.07505
 CYCLE:   252 TIME:   0.008 TIME LEFT:  2.00D  GRAD.:     0.308 HEAT: -23.07529
 CYCLE:   253 TIME:   0.012 TIME LEFT:  2.00D  GRAD.:     0.452 HEAT: -23.07540
 CYCLE:   254 TIME:   0.012 TIME LEFT:  2.00D  GRAD.:     0.491 HEAT: -23.07546
 CYCLE:   255 TIME:   0.012 TIME LEFT:  2.00D  GRAD.:     1.359 HEAT: -23.07525
 CYCLE:   256 TIME:   0.008 TIME LEFT:  2.00D  GRAD.:     0.713 HEAT: -23.07558
 CYCLE:   257 TIME:   0.012 TIME LEFT:  2.00D  GRAD.:     0.872 HEAT: -23.07554
 CYCLE:   258 TIME:   0.012 TIME LEFT:  2.00D  GRAD.:     0.173 HEAT: -23.07566

 -------------------------------------------------------------------------------
 pm3  precise nosym THREADS=1
 InChI=1S/C12H22/c1-4-6-7-10(3)12-9-8-11(12)5-2/h4,6,10-12H,5,7-9H2,1-3H3



     HERBERTS TEST WAS SATISFIED IN BFGS                      
     SCF FIELD WAS ACHIEVED                                   


                              PM3 CALCULATION
                                                       MOPAC v23.1.2 MacOS
                                                       Tue Jun  3 16:41:46 2025




          FINAL HEAT OF FORMATION =        -23.07566 KCAL/MOL =     -96.54854 KJ/MOL


          COSMO AREA              =        238.38 SQUARE ANGSTROMS
          COSMO VOLUME            =        257.31 CUBIC ANGSTROMS

          GRADIENT NORM           =          0.17281          =       0.02964 PER ATOM
          IONIZATION POTENTIAL    =          9.681303 EV
          HOMO LUMO ENERGIES (EV) =         -9.681  1.123
          NO. OF FILLED LEVELS    =         35
          MOLECULAR WEIGHT        =        166.3058         POINT GROUP:  C1  

          MOLECULAR DIMENSIONS (Angstroms)

            Atom       Atom       Distance
            H    30    H    24    10.59974
            H    18    H    27     5.55099
            H    22    H    19     3.60958


          SCF CALCULATIONS        =        259

          WALL-CLOCK TIME         =      2.754 SECONDS
          COMPUTATION TIME        =      1.941 SECONDS




   ATOM   CHEMICAL          X               Y               Z
  NUMBER   SYMBOL      (ANGSTROMS)     (ANGSTROMS)     (ANGSTROMS)

     1       C         -0.93086878  *   0.48456478  *   0.30642082  *
     2       C         -2.16638222  *  -0.46306727  *   0.39240270  *
     3       C          0.32804618  *  -0.12285565  *  -0.30437949  *
     4       C         -2.15426887  *  -0.32753583  *   1.93367276  *
     5       C         -0.92351287  *   0.59029298  *   1.85278744  *
     6       C         -3.43530392  *   0.04782669  *  -0.25936381  *
     7       C          1.51620577  *   0.82730509  *  -0.10670684  *
     8       C          0.11911192  *  -0.41407317  *  -1.78232869  *
     9       C         -3.40612555  *  -0.09444959  *  -1.76406313  *
    10       C          5.10793183  *  -0.47137873  *   0.44401712  *
    11       C          2.81600581  *   0.12285786  *  -0.27381980  *
    12       C          3.80781426  *   0.21408725  *   0.61345354  *
    13       H         -1.94743978  *  -1.49511043  *   0.04248851  *
    14       H         -1.16176194  *   1.44814931  *  -0.19771427  *
    15       H          0.55081318  *  -1.08389479  *   0.22181271  *
    16       H         -3.60593563  *   1.10797095  *   0.01665557  *
    17       H         -4.29782184  *  -0.51032606  *   0.15656227  *
    18       H         -3.05412829  *   0.14124250  *   2.36142256  *
    19       H         -1.99247369  *  -1.27173586  *   2.47450026  *
    20       H         -1.07777943  *   1.60823377  *   2.24033002  *
    21       H         -0.02051056  *   0.19057311  *   2.34097141  *
    22       H          1.46600138  *   1.66047166  *  -0.83735919  *
    23       H          1.45362510  *   1.30329414  *   0.89387237  *
    24       H         -4.34275428  *   0.25559628  *  -2.21577958  *
    25       H         -2.58611443  *   0.48929960  *  -2.20692274  *
    26       H         -3.26147159  *  -1.13943736  *  -2.07089553  *
    27       H          1.02116484  *  -0.84822313  *  -2.23448167  *
    28       H         -0.12620090  *   0.49749560  *  -2.34563674  *
    29       H         -0.70503329  *  -1.12464729  *  -1.93896728  *
    30       H          5.92688588  *   0.25971440  *   0.40890432  *
    31       H          5.15998851  *  -1.07143905  *  -0.47422689  *
    32       H          5.30178532  *  -1.14379473  *   1.29053770  *
    33       H          3.69798134  *   0.81607552  *   1.52434020  *
    34       H          2.92242651  *  -0.48338254  *  -1.18360663  *

                             CARTESIAN COORDINATES

   1    C       -0.930868781     0.484564776     0.306420819
   2    C       -2.166382216    -0.463067274     0.392402702
   3    C        0.328046182    -0.122855653    -0.304379493
   4    C       -2.154268869    -0.327535832     1.933672760
   5    C       -0.923512869     0.590292984     1.852787441
   6    C       -3.435303918     0.047826691    -0.259363809
   7    C        1.516205772     0.827305087    -0.106706836
   8    C        0.119111919    -0.414073169    -1.782328689
   9    C       -3.406125546    -0.094449592    -1.764063133
  10    C        5.107931828    -0.471378734     0.444017122
  11    C        2.816005811     0.122857865    -0.273819800
  12    C        3.807814261     0.214087252     0.613453537
  13    H       -1.947439776    -1.495110431     0.042488506
  14    H       -1.161761941     1.448149309    -0.197714268
  15    H        0.550813185    -1.083894785     0.221812707
  16    H       -3.605935631     1.107970948     0.016655569
  17    H       -4.297821843    -0.510326055     0.156562275
  18    H       -3.054128286     0.141242498     2.361422556
  19    H       -1.992473688    -1.271735858     2.474500260
  20    H       -1.077779433     1.608233770     2.240330016
  21    H       -0.020510563     0.190573115     2.340971415
  22    H        1.466001382     1.660471661    -0.837359187
  23    H        1.453625103     1.303294138     0.893872375
  24    H       -4.342754278     0.255596278    -2.215779581
  25    H       -2.586114431     0.489299604    -2.206922739
  26    H       -3.261471586    -1.139437360    -2.070895529
  27    H        1.021164837    -0.848223125    -2.234481669
  28    H       -0.126200900     0.497495597    -2.345636743
  29    H       -0.705033292    -1.124647291    -1.938967277
  30    H        5.926885877     0.259714399     0.408904317
  31    H        5.159988514    -1.071439052    -0.474226891
  32    H        5.301785324    -1.143794732     1.290537699
  33    H        3.697981342     0.816075517     1.524340199
  34    H        2.922426510    -0.483382542    -1.183606631


           Empirical Formula: C12 H22  =    34 atoms



      MOLECULAR POINT GROUP   :   C1  


                  EIGENVALUES  
 -42.36999 -37.39114 -33.88567 -32.94653 -28.50299 -25.77907 -24.81022 -23.24700
 -21.48181 -20.13196 -19.50464 -18.80994 -16.90811 -16.22676 -15.85890 -15.35157
 -15.19529 -14.83677 -14.38686 -14.27375 -14.11871 -13.85087 -13.42831 -13.06472
 -12.93038 -12.70493 -12.40300 -12.22946 -12.03224 -11.97399 -11.74670 -11.35621
 -11.26805 -11.00535  -9.68130   1.12315   3.15119   3.31797   3.43670   3.50838
   3.68428   3.77096   3.80700   3.90985   3.92129   3.94454   3.98032   4.00252
   4.08791   4.22616   4.29283   4.31556   4.34373   4.40619   4.43138   4.45701
   4.52412   4.55471   4.57529   4.64321   4.84423   4.91389   4.97791   4.99906
   5.05505   5.12716   5.53857   5.65472   5.76513   6.00788


              NET ATOMIC CHARGES AND DIPOLE CONTRIBUTIONS

  ATOM NO.   TYPE          CHARGE      No. of ELECS.   s-Pop       p-Pop       
    1          C          -0.093287        4.0933     1.19758     2.89571
    2          C          -0.093639        4.0936     1.19442     2.89922
    3          C          -0.064243        4.0642     1.17575     2.88850
    4          C          -0.110664        4.1107     1.17362     2.93704
    5          C          -0.111171        4.1112     1.17396     2.93721
    6          C          -0.088051        4.0881     1.15716     2.93089
    7          C          -0.070004        4.0700     1.15335     2.91665
    8          C          -0.121248        4.1212     1.14452     2.97673
    9          C          -0.115642        4.1156     1.13975     2.97590
   10          C          -0.073118        4.0731     1.12502     2.94810
   11          C          -0.154497        4.1545     1.19724     2.95726
   12          C          -0.150335        4.1503     1.19354     2.95679
   13          H           0.076988        0.9230     0.92301
   14          H           0.076514        0.9235     0.92349
   15          H           0.069371        0.9306     0.93063
   16          H           0.051182        0.9488     0.94882
   17          H           0.049128        0.9509     0.95087
   18          H           0.058077        0.9419     0.94192
   19          H           0.055138        0.9449     0.94486
   20          H           0.054673        0.9453     0.94533
   21          H           0.061494        0.9385     0.93851
   22          H           0.057659        0.9423     0.94234
   23          H           0.057864        0.9421     0.94214
   24          H           0.037515        0.9625     0.96248
   25          H           0.043350        0.9566     0.95665
   26          H           0.038660        0.9613     0.96134
   27          H           0.041692        0.9583     0.95831
   28          H           0.041532        0.9585     0.95847
   29          H           0.045710        0.9543     0.95429
   30          H           0.043218        0.9568     0.95678
   31          H           0.040387        0.9596     0.95961
   32          H           0.043228        0.9568     0.95677
   33          H           0.098312        0.9017     0.90169
   34          H           0.104207        0.8958     0.89579
 DIPOLE           X         Y         Z       TOTAL
 POINT-CHG.    -0.023    -0.053     0.003     0.058
 HYBRID         0.030     0.028    -0.019     0.045
 SUM            0.007    -0.025    -0.017     0.031


          ATOMIC ORBITAL ELECTRON POPULATIONS

     Atom    s        px        py        pz   
    1  C   1.19758   0.94773   0.99144   0.95655
    2  C   1.19442   0.94972   0.99425   0.95526
    3  C   1.17575   0.93856   0.98812   0.96182
    4  C   1.17362   0.98252   0.99716   0.95737
    5  C   1.17396   0.98339   0.99592   0.95791
    6  C   1.15716   0.96683   1.00873   0.95533
    7  C   1.15335   0.92778   0.96958   1.01929
    8  C   1.14452   1.01163   1.01078   0.95432
    9  C   1.13975   1.01041   1.00991   0.95557
   10  C   1.12502   0.95225   0.98901   1.00684
   11  C   1.19724   0.95841   1.00702   0.99183
   12  C   1.19354   0.96177   1.00497   0.99005
   13  H   0.92301
   14  H   0.92349
   15  H   0.93063
   16  H   0.94882
   17  H   0.95087
   18  H   0.94192
   19  H   0.94486
   20  H   0.94533
   21  H   0.93851
   22  H   0.94234
   23  H   0.94214
   24  H   0.96248
   25  H   0.95665
   26  H   0.96134
   27  H   0.95831
   28  H   0.95847
   29  H   0.95429
   30  H   0.95678
   31  H   0.95961
   32  H   0.95677
   33  H   0.90169
   34  H   0.89579
 *******************************************************************************
 **                                                                           **
 **                              MOPAC v23.1.2                                **
 **                                                                           **
 *******************************************************************************
 **          Digital Object Identifier (DOI): 10.5281/zenodo.6511958          **
 **    Visit the DOI location for information on how to cite this program.    **
 *******************************************************************************

                              PM3 CALCULATION RESULTS

 *******************************************************************************
 *  CALCULATION DONE: (MAX THREADS = 1)              Tue Jun  3 16:41:46 2025  *
 *  PM3        - The PM3 Hamiltonian to be used
 *  OLDGEO     - PREVIOUS GEOMETRY TO BE USED
 *  PRECISE    - TIGHTER CRITERIA TO BE USED
 *  NOSYM      - POINT-GROUP SYMMETRY SET TO C1
 *  THREADS=1  - MULTI-THREADING NOT USED
 *  T=         - A TIME OF 172800.0 SECONDS REQUESTED
 *  DUMP=N     - RESTART FILE WRITTEN EVERY 7200.0 SECONDS REQUESTED
 *  THERMO     - THERMODYNAMIC QUANTITIES TO BE CALCULATED
 *******************************************************************************
oldgeo thermo nosym precise THREADS=1  pm3
 InChI=1S/C12H22/c1-4-6-7-10(3)12-9-8-11(12)5-2/h4,6,10-12H,5,7-9H2,1-3H3

   ATOM   CHEMICAL          X               Y               Z
  NUMBER   SYMBOL      (ANGSTROMS)     (ANGSTROMS)     (ANGSTROMS)

     1       C         -0.93086878  *   0.48456478  *   0.30642082  *
     2       C         -2.16638222  *  -0.46306727  *   0.39240270  *
     3       C          0.32804618  *  -0.12285565  *  -0.30437949  *
     4       C         -2.15426887  *  -0.32753583  *   1.93367276  *
     5       C         -0.92351287  *   0.59029298  *   1.85278744  *
     6       C         -3.43530392  *   0.04782669  *  -0.25936381  *
     7       C          1.51620577  *   0.82730509  *  -0.10670684  *
     8       C          0.11911192  *  -0.41407317  *  -1.78232869  *
     9       C         -3.40612555  *  -0.09444959  *  -1.76406313  *
    10       C          5.10793183  *  -0.47137873  *   0.44401712  *
    11       C          2.81600581  *   0.12285786  *  -0.27381980  *
    12       C          3.80781426  *   0.21408725  *   0.61345354  *
    13       H         -1.94743978  *  -1.49511043  *   0.04248851  *
    14       H         -1.16176194  *   1.44814931  *  -0.19771427  *
    15       H          0.55081318  *  -1.08389479  *   0.22181271  *
    16       H         -3.60593563  *   1.10797095  *   0.01665557  *
    17       H         -4.29782184  *  -0.51032606  *   0.15656227  *
    18       H         -3.05412829  *   0.14124250  *   2.36142256  *
    19       H         -1.99247369  *  -1.27173586  *   2.47450026  *
    20       H         -1.07777943  *   1.60823377  *   2.24033002  *
    21       H         -0.02051056  *   0.19057311  *   2.34097141  *
    22       H          1.46600138  *   1.66047166  *  -0.83735919  *
    23       H          1.45362510  *   1.30329414  *   0.89387237  *
    24       H         -4.34275428  *   0.25559628  *  -2.21577958  *
    25       H         -2.58611443  *   0.48929960  *  -2.20692274  *
    26       H         -3.26147159  *  -1.13943736  *  -2.07089553  *
    27       H          1.02116484  *  -0.84822313  *  -2.23448167  *
    28       H         -0.12620090  *   0.49749560  *  -2.34563674  *
    29       H         -0.70503329  *  -1.12464729  *  -1.93896728  *
    30       H          5.92688588  *   0.25971440  *   0.40890432  *
    31       H          5.15998851  *  -1.07143905  *  -0.47422689  *
    32       H          5.30178532  *  -1.14379473  *   1.29053770  *
    33       H          3.69798134  *   0.81607552  *   1.52434020  *
    34       H          2.92242651  *  -0.48338254  *  -1.18360663  *



          CARTESIAN COORDINATES 

    NO.       ATOM           X           Y           Z

     1         C         -0.9309      0.4846      0.3064
     2         C         -2.1664     -0.4631      0.3924
     3         C          0.3280     -0.1229     -0.3044
     4         C         -2.1543     -0.3275      1.9337
     5         C         -0.9235      0.5903      1.8528
     6         C         -3.4353      0.0478     -0.2594
     7         C          1.5162      0.8273     -0.1067
     8         C          0.1191     -0.4141     -1.7823
     9         C         -3.4061     -0.0944     -1.7641
    10         C          5.1079     -0.4714      0.4440
    11         C          2.8160      0.1229     -0.2738
    12         C          3.8078      0.2141      0.6135
    13         H         -1.9474     -1.4951      0.0425
    14         H         -1.1618      1.4481     -0.1977
    15         H          0.5508     -1.0839      0.2218
    16         H         -3.6059      1.1080      0.0167
    17         H         -4.2978     -0.5103      0.1566
    18         H         -3.0541      0.1412      2.3614
    19         H         -1.9925     -1.2717      2.4745
    20         H         -1.0778      1.6082      2.2403
    21         H         -0.0205      0.1906      2.3410
    22         H          1.4660      1.6605     -0.8374
    23         H          1.4536      1.3033      0.8939
    24         H         -4.3428      0.2556     -2.2158
    25         H         -2.5861      0.4893     -2.2069
    26         H         -3.2615     -1.1394     -2.0709
    27         H          1.0212     -0.8482     -2.2345
    28         H         -0.1262      0.4975     -2.3456
    29         H         -0.7050     -1.1246     -1.9390
    30         H          5.9269      0.2597      0.4089
    31         H          5.1600     -1.0714     -0.4742
    32         H          5.3018     -1.1438      1.2905
    33         H          3.6980      0.8161      1.5243
    34         H          2.9224     -0.4834     -1.1836

  H: (PM3): J. J. P. STEWART, J. COMP. CHEM. 10, 209 (1989).
  C: (PM3): J. J. P. STEWART, J. COMP. CHEM. 10, 209 (1989).

           Empirical Formula: C12 H22  =    34 atoms



      MOLECULAR POINT GROUP   :   C1  


      RHF CALCULATION, NO. OF DOUBLY OCCUPIED LEVELS = 35



          HEAT OF FORMATION =     -23.075655 KCALS/MOLE


          CARTESIAN COORDINATE DERIVATIVES

   NUMBER  ATOM         X            Y            Z

     1       C     -0.000484    -0.012199     0.013127
     2       C     -0.019850    -0.000530     0.013849
     3       C     -0.009126    -0.004254    -0.001075
     4       C     -0.002446    -0.006127    -0.008015
     5       C      0.006574     0.015647     0.003642
     6       C     -0.009344     0.013581     0.001826
     7       C      0.003620     0.005934    -0.000494
     8       C      0.009841    -0.003305     0.000627
     9       C      0.008643    -0.007114     0.033826
    10       C      0.000959    -0.004831     0.007461
    11       C     -0.043128    -0.001926     0.026336
    12       C      0.046905    -0.002430     0.002045
    13       H      0.004155    -0.012856     0.000593
    14       H      0.004968     0.003423     0.002320
    15       H     -0.010037     0.001186    -0.027008
    16       H      0.014370     0.015760    -0.000787
    17       H     -0.006112     0.006357    -0.002666
    18       H     -0.000722     0.018004     0.024736
    19       H     -0.003018     0.011463    -0.006023
    20       H      0.017042    -0.006226     0.002180
    21       H     -0.018805    -0.027121    -0.004702
    22       H     -0.004560     0.039397     0.007853
    23       H     -0.014613     0.021618    -0.048548
    24       H      0.002596     0.008643     0.000778
    25       H      0.012367     0.018293    -0.016043
    26       H      0.002415    -0.027675    -0.007173
    27       H      0.028563    -0.024854    -0.028358
    28       H      0.008865     0.006133    -0.006620
    29       H     -0.013724    -0.018090    -0.030597
    30       H      0.021549     0.017832     0.000605
    31       H      0.003225    -0.017857     0.033903
    32       H     -0.009368    -0.012602    -0.014923
    33       H      0.011658     0.027137    -0.005155
    34       H     -0.042976    -0.040413     0.032481



          GRADIENT NORM =   0.17453

          MOLECULAR WEIGHT =  166.31



          ROTATIONAL CONSTANTS IN CM(-1)

          A =    0.06083301   B =    0.01315505   C =    0.01149535



           PRINCIPAL MOMENTS OF INERTIA IN UNITS OF 10**(-40)*GRAM-CM**2

          A =      460.1573   B =     2127.9099   C =     2435.1378


          ORIENTATION OF MOLECULE IN FORCE CALCULATION

    NO.       ATOM         X         Y         Z

     1          C       0.5077   -0.9590   -0.2071
     2          C       2.0672   -0.9590   -0.2071
     3          C      -0.1542    0.4153   -0.2071
     4          C       2.0602   -1.6962    1.1532
     5          C       0.5229   -1.6790    1.1654
     6          C       2.7261   -1.7401   -1.3259
     7          C      -1.6621    0.2696    0.0354
     8          C       0.1068    1.1352   -1.5210
     9          C       2.7065   -0.9912   -2.6389
    10          C      -3.6882    2.9130    1.9841
    11          C      -2.2730    1.5516    0.4791
    12          C      -3.0653    1.6438    1.5482
    13          H       2.5016    0.0624   -0.1487
    14          H       0.0773   -1.5797   -1.0229
    15          H       0.2823    1.0205    0.6255
    16          H       2.2323   -2.7256   -1.4456
    17          H       3.7716   -1.9648   -1.0343
    18          H       2.5119   -2.7003    1.1348
    19          H       2.5356   -1.1421    1.9761
    20          H       0.0479   -2.6712    1.1644
    21          H       0.0773   -1.1067    1.9946
    22          H      -2.1689   -0.0640   -0.8933
    23          H      -1.8466   -0.5317    0.7808
    24          H       3.2109   -1.5602   -3.4299
    25          H       1.6777   -0.7968   -2.9751
    26          H       3.2100   -0.0180   -2.5593
    27          H      -0.3690    2.1252   -1.5345
    28          H      -0.2839    0.5698   -2.3790
    29          H       1.1829    1.2822   -1.6914
    30          H      -4.7832    2.8283    1.9729
    31          H      -3.4154    3.7654    1.3477
    32          H      -3.3865    3.1569    3.0116
    33          H      -3.2939    0.7622    2.1603
    34          H      -2.0391    2.4340   -0.1318


    FIRST DERIVATIVES WILL BE USED IN THE CALCULATION OF SECOND DERIVATIVES

          ESTIMATED TIME TO COMPLETE CALCULATION =        4.78 SECONDS

    FOR POINT-GROUP C1   THERE ARE   1 UNIQUE SYMMETRY FUNCTIONS.

 STEP:   1 TIME =     0.04 SECS, INTEGRAL =      0.04 TIME LEFT: 172799.95
 STEP:   2 TIME =     0.04 SECS, INTEGRAL =      0.08 TIME LEFT: 172799.91
 STEP:   3 TIME =     0.04 SECS, INTEGRAL =      0.12 TIME LEFT: 172799.87
 STEP:   4 TIME =     0.04 SECS, INTEGRAL =      0.16 TIME LEFT: 172799.83
 STEP:   5 TIME =     0.04 SECS, INTEGRAL =      0.20 TIME LEFT: 172799.79
 STEP:   6 TIME =     0.04 SECS, INTEGRAL =      0.23 TIME LEFT: 172799.75
 STEP:   7 TIME =     0.04 SECS, INTEGRAL =      0.27 TIME LEFT: 172799.71
 STEP:   8 TIME =     0.04 SECS, INTEGRAL =      0.31 TIME LEFT: 172799.68
 STEP:   9 TIME =     0.04 SECS, INTEGRAL =      0.35 TIME LEFT: 172799.64
 STEP:  10 TIME =     0.04 SECS, INTEGRAL =      0.39 TIME LEFT: 172799.60
 STEP:  11 TIME =     0.04 SECS, INTEGRAL =      0.43 TIME LEFT: 172799.56
 STEP:  12 TIME =     0.04 SECS, INTEGRAL =      0.46 TIME LEFT: 172799.52
 STEP:  13 TIME =     0.04 SECS, INTEGRAL =      0.50 TIME LEFT: 172799.48
 STEP:  14 TIME =     0.04 SECS, INTEGRAL =      0.55 TIME LEFT: 172799.44
 STEP:  15 TIME =     0.04 SECS, INTEGRAL =      0.59 TIME LEFT: 172799.40
 STEP:  16 TIME =     0.04 SECS, INTEGRAL =      0.63 TIME LEFT: 172799.36
 STEP:  17 TIME =     0.04 SECS, INTEGRAL =      0.67 TIME LEFT: 172799.32
 STEP:  18 TIME =     0.04 SECS, INTEGRAL =      0.71 TIME LEFT: 172799.28
 STEP:  19 TIME =     0.04 SECS, INTEGRAL =      0.75 TIME LEFT: 172799.24
 STEP:  20 TIME =     0.04 SECS, INTEGRAL =      0.79 TIME LEFT: 172799.20
 STEP:  21 TIME =     0.04 SECS, INTEGRAL =      0.83 TIME LEFT: 172799.16
 STEP:  22 TIME =     0.04 SECS, INTEGRAL =      0.87 TIME LEFT: 172799.12
 STEP:  23 TIME =     0.04 SECS, INTEGRAL =      0.91 TIME LEFT: 172799.08
 STEP:  24 TIME =     0.04 SECS, INTEGRAL =      0.94 TIME LEFT: 172799.05
 STEP:  25 TIME =     0.04 SECS, INTEGRAL =      0.98 TIME LEFT: 172799.00
 STEP:  26 TIME =     0.04 SECS, INTEGRAL =      1.03 TIME LEFT: 172798.96
 STEP:  27 TIME =     0.04 SECS, INTEGRAL =      1.07 TIME LEFT: 172798.92
 STEP:  28 TIME =     0.04 SECS, INTEGRAL =      1.11 TIME LEFT: 172798.88
 STEP:  29 TIME =     0.04 SECS, INTEGRAL =      1.15 TIME LEFT: 172798.84
 STEP:  30 TIME =     0.04 SECS, INTEGRAL =      1.19 TIME LEFT: 172798.80
 STEP:  31 TIME =     0.04 SECS, INTEGRAL =      1.23 TIME LEFT: 172798.76
 STEP:  32 TIME =     0.04 SECS, INTEGRAL =      1.27 TIME LEFT: 172798.72
 STEP:  33 TIME =     0.04 SECS, INTEGRAL =      1.30 TIME LEFT: 172798.68
 STEP:  34 TIME =     0.04 SECS, INTEGRAL =      1.34 TIME LEFT: 172798.64
 STEP:  35 TIME =     0.04 SECS, INTEGRAL =      1.38 TIME LEFT: 172798.61
 STEP:  36 TIME =     0.04 SECS, INTEGRAL =      1.42 TIME LEFT: 172798.57
 STEP:  37 TIME =     0.04 SECS, INTEGRAL =      1.46 TIME LEFT: 172798.53
 STEP:  38 TIME =     0.04 SECS, INTEGRAL =      1.50 TIME LEFT: 172798.49
 STEP:  39 TIME =     0.05 SECS, INTEGRAL =      1.55 TIME LEFT: 172798.44
 STEP:  40 TIME =     0.04 SECS, INTEGRAL =      1.59 TIME LEFT: 172798.40
 STEP:  41 TIME =     0.04 SECS, INTEGRAL =      1.63 TIME LEFT: 172798.36
 STEP:  42 TIME =     0.04 SECS, INTEGRAL =      1.67 TIME LEFT: 172798.32
 STEP:  43 TIME =     0.04 SECS, INTEGRAL =      1.71 TIME LEFT: 172798.28
 STEP:  44 TIME =     0.04 SECS, INTEGRAL =      1.75 TIME LEFT: 172798.24
 STEP:  45 TIME =     0.04 SECS, INTEGRAL =      1.79 TIME LEFT: 172798.20
 STEP:  46 TIME =     0.04 SECS, INTEGRAL =      1.83 TIME LEFT: 172798.16
 STEP:  47 TIME =     0.04 SECS, INTEGRAL =      1.87 TIME LEFT: 172798.12
 STEP:  48 TIME =     0.04 SECS, INTEGRAL =      1.91 TIME LEFT: 172798.08
 STEP:  49 TIME =     0.04 SECS, INTEGRAL =      1.95 TIME LEFT: 172798.04
 STEP:  50 TIME =     0.04 SECS, INTEGRAL =      1.99 TIME LEFT: 172798.00
 STEP:  51 TIME =     0.04 SECS, INTEGRAL =      2.03 TIME LEFT: 172797.96
 STEP:  52 TIME =     0.04 SECS, INTEGRAL =      2.07 TIME LEFT: 172797.92
 STEP:  53 TIME =     0.04 SECS, INTEGRAL =      2.11 TIME LEFT: 172797.88
 STEP:  54 TIME =     0.05 SECS, INTEGRAL =      2.15 TIME LEFT: 172797.84
 STEP:  55 TIME =     0.04 SECS, INTEGRAL =      2.19 TIME LEFT: 172797.80
 STEP:  56 TIME =     0.04 SECS, INTEGRAL =      2.23 TIME LEFT: 172797.76
 STEP:  57 TIME =     0.04 SECS, INTEGRAL =      2.27 TIME LEFT: 172797.71
 STEP:  58 TIME =     0.04 SECS, INTEGRAL =      2.31 TIME LEFT: 172797.68
 STEP:  59 TIME =     0.04 SECS, INTEGRAL =      2.35 TIME LEFT: 172797.64
 STEP:  60 TIME =     0.04 SECS, INTEGRAL =      2.39 TIME LEFT: 172797.59
 STEP:  61 TIME =     0.04 SECS, INTEGRAL =      2.43 TIME LEFT: 172797.55
 STEP:  62 TIME =     0.04 SECS, INTEGRAL =      2.48 TIME LEFT: 172797.51
 STEP:  63 TIME =     0.04 SECS, INTEGRAL =      2.52 TIME LEFT: 172797.47
 STEP:  64 TIME =     0.04 SECS, INTEGRAL =      2.55 TIME LEFT: 172797.43
 STEP:  65 TIME =     0.04 SECS, INTEGRAL =      2.59 TIME LEFT: 172797.39
 STEP:  66 TIME =     0.04 SECS, INTEGRAL =      2.63 TIME LEFT: 172797.36
 STEP:  67 TIME =     0.04 SECS, INTEGRAL =      2.68 TIME LEFT: 172797.31
 STEP:  68 TIME =     0.04 SECS, INTEGRAL =      2.71 TIME LEFT: 172797.27
 STEP:  69 TIME =     0.04 SECS, INTEGRAL =      2.76 TIME LEFT: 172797.23
 STEP:  70 TIME =     0.04 SECS, INTEGRAL =      2.80 TIME LEFT: 172797.19
 STEP:  71 TIME =     0.04 SECS, INTEGRAL =      2.84 TIME LEFT: 172797.15
 STEP:  72 TIME =     0.04 SECS, INTEGRAL =      2.88 TIME LEFT: 172797.11
 STEP:  73 TIME =     0.04 SECS, INTEGRAL =      2.92 TIME LEFT: 172797.07
 STEP:  74 TIME =     0.04 SECS, INTEGRAL =      2.96 TIME LEFT: 172797.03
 STEP:  75 TIME =     0.04 SECS, INTEGRAL =      3.00 TIME LEFT: 172796.98
 STEP:  76 TIME =     0.04 SECS, INTEGRAL =      3.04 TIME LEFT: 172796.95
 STEP:  77 TIME =     0.04 SECS, INTEGRAL =      3.08 TIME LEFT: 172796.91
 STEP:  78 TIME =     0.04 SECS, INTEGRAL =      3.12 TIME LEFT: 172796.86
 STEP:  79 TIME =     0.04 SECS, INTEGRAL =      3.16 TIME LEFT: 172796.82
 STEP:  80 TIME =     0.04 SECS, INTEGRAL =      3.20 TIME LEFT: 172796.79
 STEP:  81 TIME =     0.04 SECS, INTEGRAL =      3.25 TIME LEFT: 172796.74
 STEP:  82 TIME =     0.04 SECS, INTEGRAL =      3.29 TIME LEFT: 172796.70
 STEP:  83 TIME =     0.04 SECS, INTEGRAL =      3.33 TIME LEFT: 172796.66
 STEP:  84 TIME =     0.04 SECS, INTEGRAL =      3.37 TIME LEFT: 172796.62
 STEP:  85 TIME =     0.04 SECS, INTEGRAL =      3.41 TIME LEFT: 172796.58
 STEP:  86 TIME =     0.04 SECS, INTEGRAL =      3.45 TIME LEFT: 172796.54
 STEP:  87 TIME =     0.04 SECS, INTEGRAL =      3.49 TIME LEFT: 172796.50
 STEP:  88 TIME =     0.04 SECS, INTEGRAL =      3.53 TIME LEFT: 172796.46
 STEP:  89 TIME =     0.04 SECS, INTEGRAL =      3.57 TIME LEFT: 172796.42
 STEP:  90 TIME =     0.05 SECS, INTEGRAL =      3.62 TIME LEFT: 172796.37
 STEP:  91 TIME =     0.04 SECS, INTEGRAL =      3.66 TIME LEFT: 172796.33
 STEP:  92 TIME =     0.04 SECS, INTEGRAL =      3.70 TIME LEFT: 172796.29
 STEP:  93 TIME =     0.04 SECS, INTEGRAL =      3.74 TIME LEFT: 172796.25
 STEP:  94 TIME =     0.04 SECS, INTEGRAL =      3.78 TIME LEFT: 172796.21
 STEP:  95 TIME =     0.04 SECS, INTEGRAL =      3.82 TIME LEFT: 172796.17
 STEP:  96 TIME =     0.04 SECS, INTEGRAL =      3.86 TIME LEFT: 172796.13
 STEP:  97 TIME =     0.04 SECS, INTEGRAL =      3.90 TIME LEFT: 172796.09
 STEP:  98 TIME =     0.04 SECS, INTEGRAL =      3.94 TIME LEFT: 172796.05
 STEP:  99 TIME =     0.04 SECS, INTEGRAL =      3.98 TIME LEFT: 172796.01
 STEP: 100 TIME =     0.04 SECS, INTEGRAL =      4.02 TIME LEFT: 172795.96
 STEP: 101 TIME =     0.04 SECS, INTEGRAL =      4.06 TIME LEFT: 172795.93
 STEP: 102 TIME =     0.04 SECS, INTEGRAL =      4.11 TIME LEFT: 172795.88

(To convert to Hartree/Bohr^2, multiply by (10^(-21) x N x a0^2)/(4.184 x 627.51) =  0.0642)


           FORCE MATRIX IN MILLIDYNES/ANGSTROM


                  C  1       C  2       C  3       C  4       C  5       C  6
 ------------------------------------------------------------------------------
     C    1  14.289183
     C    2   3.121255  14.385837
     C    3   3.954163   0.501013  14.294032
     C    4   1.804281   3.492683   0.040659  14.467676
     C    5   3.415192   1.818754   0.522818   3.808824  14.425368
     C    6   0.522017   4.286034   0.034531   0.556989   0.041435  14.486260
     C    7   0.640834   0.047697   3.732438   0.005275   0.054367   0.006711
     C    8   0.647265   0.043045   4.166298   0.004815   0.050551   0.002647
     C    9   0.026255   0.648739   0.001821   0.050926   0.004854   4.483248
     C   10   0.003815   0.000754   0.019771   0.000175   0.000299   0.000342
     C   11   0.050580   0.008500   0.665309   0.000824   0.002794   0.001782
     C   12   0.006885   0.001123   0.041147   0.000323   0.000911   0.000359
     H   13   0.436699   4.387578   0.029605   0.427602   0.026760   0.430749
     H   14   4.382747   0.437369   0.434178   0.026426   0.428558   0.030660
     H   15   0.432047   0.021796   4.203053   0.001750   0.024071   0.001143
     H   16   0.024365   0.450350   0.001547   0.020532   0.001957   4.436080
     H   17   0.046377   0.432064   0.006123   0.022241   0.003586   4.446856
     H   18   0.029707   0.452841   0.001336   4.666927   0.445721   0.033671
     H   19   0.030232   0.443400   0.003612   4.703704   0.446137   0.033847
     H   20   0.441925   0.030683   0.033586   0.446000   4.702400   0.003805
     H   21   0.452095   0.029809   0.026254   0.445324   4.652737   0.001769
     H   22   0.014149   0.000978   0.457814   0.000456   0.002468   0.000391
     H   23   0.064202   0.002364   0.440605   0.001187   0.030769   0.000589
     H   24   0.002035   0.052256   0.000492   0.008778   0.000624   0.451204
     H   25   0.006294   0.017783   0.003073   0.001843   0.000546   0.463207
     H   26   0.002074   0.024298   0.000762   0.001739   0.000438   0.464470
     H   27   0.051300   0.003095   0.457852   0.000600   0.008775   0.000397
     H   28   0.023449   0.003020   0.468869   0.000476   0.001609   0.000872
     H   29   0.023049   0.016409   0.455459   0.000559   0.002183   0.003596
     H   30   0.000263   0.000061   0.002411   0.000065   0.000067   0.000090
     H   31   0.000188   0.000066   0.000565   0.000032   0.000076   0.000039
     H   32   0.000902   0.000206   0.003405   0.000070   0.000071   0.000123
     H   33   0.001982   0.000426   0.008313   0.000271   0.000516   0.000224
     H   34   0.002146   0.000617   0.023321   0.000277   0.000574   0.000218


                  C  7       C  8       C  9       C 10       C 11       C 12
 ------------------------------------------------------------------------------
     C    7  14.577379
     C    8   0.648794  14.319255
     C    9   0.000491   0.028299  14.355332
     C   10   0.147905   0.000751   0.000115  14.718002
     C   11   4.960126   0.053020   0.000480   0.847167  18.161915
     C   12   0.828556   0.003190   0.000089   5.268600  10.675796  18.179055
     H   13   0.002857   0.014533   0.031544   0.000096   0.000940   0.000200
     H   14   0.024845   0.024288   0.007208   0.000223   0.001355   0.000600
     H   15   0.428437   0.420370   0.000356   0.001113   0.041814   0.003134
     H   16   0.000551   0.000381   0.437099   0.000057   0.000176   0.000069
     H   17   0.001522   0.000391   0.439472   0.000102   0.000545   0.000100
     H   18   0.000445   0.000394   0.002874   0.000041   0.000202   0.000061
     H   19   0.000844   0.000751   0.006290   0.000046   0.000236   0.000105
     H   20   0.002378   0.006661   0.000770   0.000102   0.000599   0.000229
     H   21   0.016137   0.002959   0.000490   0.000302   0.001140   0.000588
     H   22   4.401976   0.040692   0.000164   0.020525   0.412158   0.031388
     H   23   4.396009   0.047393   0.000073   0.003393   0.458726   0.054225
     H   24   0.000268   0.001941   4.756448   0.000034   0.000155   0.000039
     H   25   0.000488   0.009565   4.675468   0.000121   0.000343   0.000076
     H   26   0.000296   0.006960   4.707420   0.000055   0.000243   0.000037
     H   27   0.023738   4.706334   0.001690   0.000429   0.025256   0.001510
     H   28   0.023359   4.686351   0.009207   0.000232   0.002756   0.000497
     H   29   0.050690   4.682682   0.007596   0.000272   0.002687   0.000551
     H   30   0.020603   0.000244   0.000044   4.704653   0.034465   0.439443
     H   31   0.002379   0.000158   0.000018   4.723898   0.041254   0.480843
     H   32   0.019911   0.000358   0.000040   4.706416   0.036594   0.439104
     H   33   0.084942   0.000849   0.000102   0.424452   0.471111   4.771948
     H   34   0.430934   0.021719   0.000176   0.085061   4.731106   0.467731


                  H 13       H 14       H 15       H 16       H 17       H 18
 ------------------------------------------------------------------------------
     H   13   4.896925
     H   14   0.029216   4.890675
     H   15   0.021163   0.041261   4.682685
     H   16   0.043106   0.026735   0.000515   5.053226
     H   17   0.024182   0.003089   0.000409   0.571714   5.055798
     H   18   0.031067   0.002627   0.000549   0.015956   0.014616   5.298440
     H   19   0.026984   0.001217   0.000936   0.001236   0.001964   0.557354
     H   20   0.001212   0.026794   0.001475   0.000990   0.000696   0.023107
     H   21   0.002684   0.031474   0.021380   0.000538   0.000592   0.032741
     H   22   0.000449   0.007907   0.041907   0.000130   0.000128   0.000098
     H   23   0.000584   0.004422   0.015431   0.000138   0.000163   0.000438
     H   24   0.002052   0.000509   0.000153   0.029830   0.030224   0.000673
     H   25   0.002085   0.008401   0.000309   0.025329   0.049098   0.000416
     H   26   0.023194   0.000497   0.000208   0.048266   0.023709   0.000443
     H   27   0.000681   0.001746   0.028375   0.000156   0.000154   0.000106
     H   28   0.000566   0.018168   0.045464   0.000276   0.000252   0.000116
     H   29   0.023137   0.001789   0.029780   0.000382   0.000342   0.000331
     H   30   0.000023   0.000061   0.000210   0.000020   0.000029   0.000017
     H   31   0.000031   0.000049   0.000176   0.000010   0.000012   0.000013
     H   32   0.000037   0.000084   0.000289   0.000023   0.000035   0.000015
     H   33   0.000107   0.000224   0.000663   0.000043   0.000062   0.000077
     H   34   0.000345   0.000671   0.005528   0.000069   0.000091   0.000100


                  H 19       H 20       H 21       H 22       H 23       H 24
 ------------------------------------------------------------------------------
     H   19   5.324542
     H   20   0.033474   5.324091
     H   21   0.023859   0.556351   5.282480
     H   22   0.000147   0.000342   0.000522   5.008035
     H   23   0.000380   0.002728   0.024047   0.564720   5.013939
     H   24   0.001197   0.000123   0.000091   0.000067   0.000111   5.488586
     H   25   0.000412   0.000244   0.000274   0.000168   0.000189   0.565309
     H   26   0.000340   0.000194   0.000098   0.000083   0.000117   0.570454
     H   27   0.000128   0.001340   0.000676   0.003388   0.002236   0.000303
     H   28   0.000208   0.000361   0.000507   0.026146   0.002075   0.000340
     H   29   0.000290   0.000420   0.000444   0.002891   0.008420   0.000651
     H   30   0.000019   0.000020   0.000088   0.003489   0.000857   0.000011
     H   31   0.000015   0.000036   0.000082   0.000483   0.000498   0.000007
     H   32   0.000028   0.000040   0.000097   0.002412   0.000319   0.000011
     H   33   0.000092   0.000221   0.000372   0.010010   0.030073   0.000035
     H   34   0.000115   0.000266   0.000457   0.016823   0.039101   0.000069


                  H 25       H 26       H 27       H 28       H 29       H 30
 ------------------------------------------------------------------------------
     H   25   5.417774
     H   26   0.578403   5.451151
     H   27   0.000701   0.000299   5.423742
     H   28   0.017132   0.000265   0.568074   5.431244
     H   29   0.022115   0.011795   0.562146   0.574928   5.423982
     H   30   0.000041   0.000018   0.000134   0.000077   0.000071   5.424743
     H   31   0.000020   0.000011   0.000173   0.000050   0.000044   0.566501
     H   32   0.000044   0.000020   0.000162   0.000095   0.000097   0.576807
     H   33   0.000086   0.000045   0.000448   0.000193   0.000283   0.023151
     H   34   0.000158   0.000095   0.052151   0.000891   0.001294   0.009734


                  H 31       H 32       H 33       H 34
 ------------------------------------------------------
     H   31   5.451076
     H   32   0.566348   5.426184
     H   33   0.041736   0.024456   5.150616
     H   34   0.029715   0.009628   0.106798   5.098226


          HEAT OF FORMATION =     -23.075655 KCALS/MOLE

          ZERO POINT ENERGY     194.494 KCAL/MOL


           NORMAL COORDINATE ANALYSIS (Total motion = 1 Angstrom)


   Root No.       1         2         3         4         5         6         7         8

                 1 A       2 A       3 A       4 A       5 A       6 A       7 A       8 A   

                   8.3      29.9      62.0      89.6     108.6     118.1     129.4     195.7
  
           1   -0.0059   -0.0030   -0.0031   -0.0044   -0.0042   -0.0036   -0.0050   -0.0113
           2    0.0052   -0.0077   -0.0075    0.0029   -0.0042   -0.0008   -0.0092   -0.0177
           3   -0.0069   -0.0009   -0.0067    0.0109    0.0131   -0.0103    0.0033    0.0042
           4   -0.0059   -0.0029   -0.0028   -0.0046   -0.0044   -0.0032   -0.0047   -0.0111
           5    0.0070    0.0017    0.0002   -0.0112   -0.0012    0.0068    0.0039    0.0005
           6    0.0058    0.0040   -0.0001   -0.0091    0.0010   -0.0122   -0.0044   -0.0058
           7   -0.0078   -0.0101   -0.0053    0.0002   -0.0077   -0.0059   -0.0085   -0.0017
           8    0.0045   -0.0112   -0.0087    0.0052   -0.0067   -0.0017   -0.0116   -0.0123
           9   -0.0215    0.0053   -0.0128    0.0008    0.0035    0.0075    0.0051    0.0032
          10   -0.0162   -0.0028   -0.0052    0.0060    0.0076    0.0022    0.0083    0.0063
          11    0.0165   -0.0087   -0.0014   -0.0078   -0.0015    0.0287    0.0162    0.0173
          12    0.0109   -0.0016   -0.0010   -0.0072    0.0008   -0.0006    0.0020    0.0027
          13   -0.0163   -0.0029   -0.0052    0.0067    0.0077    0.0017    0.0079    0.0052
          14    0.0146   -0.0168   -0.0056    0.0202    0.0097   -0.0106   -0.0047   -0.0199
          15   -0.0019   -0.0057   -0.0057    0.0200    0.0204   -0.0155    0.0055    0.0025
          16    0.0041    0.0061    0.0093   -0.0238   -0.0113   -0.0048   -0.0046   -0.0061
          17   -0.0002    0.0147    0.0067   -0.0180    0.0050   -0.0142    0.0017    0.0049
          18    0.0167    0.0003    0.0027   -0.0158   -0.0072    0.0010   -0.0028   -0.0055
          19   -0.0096   -0.0090   -0.0014   -0.0000   -0.0112   -0.0058   -0.0118   -0.0046
          20    0.0040   -0.0186   -0.0003    0.0050   -0.0103   -0.0055   -0.0071    0.0140
          21   -0.0313    0.0068    0.0158    0.0008   -0.0185    0.0060   -0.0115   -0.0080
          22    0.0018   -0.0152   -0.0276    0.0023    0.0071   -0.0047    0.0038    0.0235
          23   -0.0049   -0.0049   -0.0274   -0.0050   -0.0023    0.0158    0.0002   -0.0228
          24   -0.0247    0.0077   -0.0277   -0.0042    0.0090    0.0174    0.0140    0.0020
          25    0.0129    0.0087    0.0299    0.0346   -0.0088    0.0275    0.0032   -0.0010
          26   -0.0101    0.0261    0.0170    0.0127    0.0180   -0.0208    0.0043    0.0094
          27    0.0110    0.0067    0.0082    0.0008   -0.0001   -0.0031   -0.0015   -0.0037
          28    0.0248    0.0207    0.0064   -0.0130    0.0242    0.0002    0.0267   -0.0177
          29   -0.0191    0.0202    0.0137   -0.0056    0.0027    0.0047    0.0104   -0.0016
          30    0.0357   -0.0142    0.0057    0.0009    0.0004   -0.0004    0.0073    0.0029
          31   -0.0080   -0.0168    0.0154   -0.0067   -0.0081   -0.0087    0.0059    0.0063
          32   -0.0024   -0.0134    0.0058    0.0026   -0.0097   -0.0050   -0.0034    0.0173
          33   -0.0103   -0.0186    0.0215   -0.0017   -0.0165    0.0006    0.0027    0.0016
          34    0.0227    0.0251   -0.0120    0.0005    0.0056    0.0021   -0.0302    0.0114
          35   -0.0125    0.0140    0.0061    0.0000   -0.0039    0.0026   -0.0069    0.0115
          36    0.0133    0.0100    0.0012    0.0040   -0.0070    0.0080   -0.0240    0.0062
          37   -0.0075   -0.0095   -0.0092    0.0046   -0.0066   -0.0051   -0.0122   -0.0227
          38    0.0079    0.0040    0.0028   -0.0147   -0.0001    0.0085    0.0077    0.0065
          39    0.0022    0.0134    0.0039   -0.0145    0.0008   -0.0321   -0.0144   -0.0157
          40    0.0014    0.0032    0.0024   -0.0185   -0.0085   -0.0043   -0.0060   -0.0147
          41   -0.0008   -0.0050   -0.0108   -0.0053   -0.0139    0.0070   -0.0128   -0.0183
          42   -0.0062   -0.0062   -0.0070    0.0244    0.0228   -0.0156    0.0069    0.0069
          43   -0.0143   -0.0124    0.0098    0.0003   -0.0210   -0.0069   -0.0164   -0.0003
          44    0.0107   -0.0121    0.0024    0.0107   -0.0062   -0.0123   -0.0176   -0.0170
          45   -0.0226    0.0071   -0.0286   -0.0034    0.0104    0.0158    0.0141    0.0060
          46    0.0067    0.0116    0.0080   -0.0677   -0.0172   -0.0241   -0.0088   -0.0023
          47   -0.0019    0.0133    0.0091    0.0077    0.0090   -0.0045    0.0042    0.0039
          48    0.0203   -0.0106   -0.0116   -0.0458   -0.0157    0.0008   -0.0056   -0.0108
          49    0.0022    0.0059    0.0047   -0.0390   -0.0121   -0.0131   -0.0065   -0.0066
          50    0.0038    0.0175    0.0014   -0.0736   -0.0039   -0.0347   -0.0035    0.0076
          51    0.0265    0.0033    0.0151   -0.0038   -0.0112    0.0151    0.0001   -0.0014
          52   -0.0147    0.0024   -0.0026   -0.0135   -0.0008    0.0301    0.0226    0.0328
          53    0.0170   -0.0062   -0.0003   -0.0166   -0.0051    0.0409    0.0225    0.0292
          54    0.0217   -0.0081   -0.0010   -0.0140   -0.0064    0.0228    0.0109    0.0175
          55   -0.0237   -0.0079   -0.0091    0.0317    0.0231   -0.0219    0.0022   -0.0090
          56    0.0229   -0.0126   -0.0014   -0.0157   -0.0062    0.0571    0.0312    0.0421
          57    0.0110    0.0040    0.0013   -0.0168   -0.0050   -0.0056   -0.0044   -0.0049
          58   -0.0150    0.0022   -0.0027   -0.0123   -0.0001    0.0292    0.0224    0.0322
          59    0.0140   -0.0192   -0.0068    0.0293    0.0135   -0.0239   -0.0117   -0.0329
          60    0.0010   -0.0136   -0.0056    0.0427    0.0379   -0.0302    0.0089   -0.0023
          61   -0.0239   -0.0080   -0.0087    0.0325    0.0224   -0.0229    0.0005   -0.0120
          62    0.0197   -0.0246   -0.0055    0.0404    0.0228   -0.0312   -0.0090   -0.0349
          63   -0.0095   -0.0030   -0.0076    0.0200    0.0193   -0.0147    0.0044    0.0033
          64   -0.0065   -0.0057   -0.0207    0.0013    0.0004   -0.0036   -0.0070   -0.0049
          65    0.0218   -0.0405   -0.0008    0.0019   -0.0029   -0.0101    0.0122    0.0335
          66   -0.0393    0.0129    0.0265    0.0011   -0.0273    0.0065   -0.0209   -0.0149
          67   -0.0153   -0.0030    0.0066    0.0018   -0.0210   -0.0044   -0.0255   -0.0212
          68   -0.0088   -0.0055    0.0042    0.0056   -0.0152   -0.0033   -0.0159    0.0078
          69   -0.0465    0.0223    0.0225    0.0021   -0.0264    0.0087   -0.0248   -0.0187
          70    0.0198    0.0163    0.0448    0.0273   -0.0078    0.0053   -0.0011    0.0529
          71   -0.0152    0.0360    0.0244    0.0096    0.0254   -0.0454    0.0014    0.0374
          72    0.0191    0.0045    0.0124   -0.0017   -0.0047    0.0005   -0.0022    0.0105
          73    0.0151    0.0093    0.0351    0.0496   -0.0080    0.0356    0.0053    0.0005
          74   -0.0144    0.0227    0.0167    0.0627    0.0215    0.0199    0.0142   -0.0401
          75    0.0017    0.0029   -0.0078   -0.0160   -0.0002   -0.0045   -0.0020   -0.0364
          76    0.0106    0.0024    0.0262    0.0734   -0.0083    0.0665    0.0117   -0.0509
          77   -0.0087    0.0284    0.0176   -0.0101    0.0169   -0.0407   -0.0002    0.0339
          78    0.0075    0.0178    0.0242    0.0330    0.0101   -0.0072    0.0007    0.0155
          79    0.0053   -0.0233   -0.0365    0.0007   -0.0017   -0.0011   -0.0053    0.0351
          80   -0.0037   -0.0086   -0.0317   -0.0061   -0.0064    0.0179   -0.0038   -0.0178
          81   -0.0356    0.0114   -0.0375   -0.0142    0.0039    0.0323    0.0162   -0.0126
          82    0.0061   -0.0109   -0.0329    0.0061    0.0250   -0.0076    0.0197    0.0296
          83   -0.0100   -0.0049   -0.0444   -0.0129   -0.0038    0.0292    0.0035   -0.0252
          84   -0.0234    0.0058   -0.0140   -0.0007    0.0019    0.0100    0.0046    0.0007
          85    0.0034   -0.0164   -0.0308    0.0026    0.0083   -0.0044    0.0045    0.0272
          86   -0.0089    0.0040   -0.0207   -0.0040    0.0083    0.0135    0.0113   -0.0343
          87   -0.0189    0.0086   -0.0423   -0.0019    0.0259    0.0175    0.0287    0.0145
          88    0.0252    0.0218    0.0044   -0.0115    0.0212   -0.0004    0.0243   -0.0158
          89   -0.0277   -0.0003    0.0460   -0.0297    0.0540    0.0177    0.0320   -0.0284
          90    0.0656    0.0364   -0.0436    0.0384   -0.1112   -0.0481    0.1096   -0.0045
          91    0.0004   -0.0224    0.0588   -0.0525    0.1261    0.0372   -0.0149   -0.0343
          92   -0.0143   -0.0004    0.0213   -0.0113    0.0231    0.0097   -0.0048    0.0041
          93    0.0316   -0.0602    0.0383   -0.0235    0.0714    0.0221   -0.0311    0.0036
          94    0.0513    0.0605   -0.0308    0.0154   -0.0652   -0.0407    0.1267   -0.0310
          95   -0.0208    0.0670   -0.0202    0.0196   -0.0647   -0.0120    0.0208    0.0066
          96    0.0283   -0.0370    0.0246   -0.0134    0.0424    0.0154   -0.0242    0.0047
          97    0.0479    0.0656   -0.0500    0.0166    0.0031    0.0112   -0.0919    0.0278
          98   -0.0163    0.0338    0.0011    0.0011   -0.0025    0.0079   -0.0179    0.0091
          99    0.0173    0.0536   -0.0204    0.0117   -0.0061    0.0190   -0.0632    0.0092
         100   -0.0342   -0.0564    0.0521   -0.0214   -0.0098   -0.0184    0.0623   -0.0023
         101    0.0020   -0.0331    0.0109    0.0014   -0.0112   -0.0099    0.0079    0.0184
         102   -0.0134   -0.0624    0.0426   -0.0086   -0.0196   -0.0104    0.0398    0.0008


   Root No.       9        10        11        12        13        14        15        16

                 9 A      10 A      11 A      12 A      13 A      14 A      15 A      16 A   

                 212.7     225.7     236.1     259.5     290.6     318.8     344.6     431.3
  
           1   -0.0025   -0.0001   -0.0024   -0.0103    0.0084   -0.0138   -0.0096   -0.0160
           2    0.0023    0.0037   -0.0052   -0.0121    0.0196   -0.0071    0.0130   -0.0041
           3    0.0007   -0.0012    0.0059   -0.0080    0.0055   -0.0054    0.0191    0.0167
           4   -0.0011    0.0007    0.0008   -0.0107    0.0084   -0.0168   -0.0151   -0.0180
           5   -0.0009   -0.0013    0.0041   -0.0037    0.0132   -0.0021    0.0295   -0.0196
           6   -0.0066   -0.0052   -0.0001   -0.0074    0.0075   -0.0090    0.0106   -0.0094
           7   -0.0075   -0.0032   -0.0101   -0.0059    0.0007    0.0112   -0.0015    0.0185
           8    0.0013    0.0031   -0.0063   -0.0118    0.0160    0.0029    0.0094    0.0198
           9    0.0040    0.0042    0.0035   -0.0085    0.0007    0.0038    0.0152    0.0085
          10    0.0023    0.0007    0.0084   -0.0100    0.0022   -0.0204   -0.0053    0.0022
          11   -0.0108   -0.0084   -0.0158    0.0049   -0.0046    0.0121   -0.0085    0.0008
          12   -0.0114   -0.0088   -0.0103   -0.0025   -0.0015    0.0001   -0.0064    0.0008
          13    0.0032    0.0013    0.0087   -0.0094    0.0018   -0.0200   -0.0055    0.0018
          14    0.0110    0.0042   -0.0075    0.0197   -0.0092    0.0128   -0.0115   -0.0181
          15    0.0053   -0.0012    0.0041    0.0091   -0.0117    0.0036    0.0062    0.0150
          16    0.0151    0.0102    0.0227    0.0122   -0.0138    0.0053   -0.0248    0.0132
          17    0.0024   -0.0027    0.0161    0.0074    0.0038    0.0133    0.0306   -0.0027
          18    0.0000    0.0008    0.0038   -0.0010    0.0000   -0.0063    0.0052   -0.0032
          19   -0.0093   -0.0048   -0.0150   -0.0057   -0.0023    0.0186    0.0041    0.0168
          20   -0.0009    0.0024    0.0108   -0.0081   -0.0003   -0.0064   -0.0032    0.0260
          21    0.0011    0.0004   -0.0082   -0.0100   -0.0057    0.0312    0.0012   -0.0077
          22   -0.0000   -0.0030    0.0050    0.0073    0.0281    0.0313   -0.0108   -0.0158
          23    0.0054    0.0067   -0.0150    0.0088   -0.0177   -0.0118   -0.0054    0.0097
          24    0.0082    0.0065    0.0017    0.0064   -0.0141    0.0012    0.0047   -0.0073
          25    0.0188    0.0109    0.0085    0.0033   -0.0020    0.0037    0.0120    0.0037
          26   -0.0164   -0.0169   -0.0100    0.0008   -0.0023    0.0028   -0.0158    0.0021
          27   -0.0102   -0.0067   -0.0099   -0.0049   -0.0034   -0.0138   -0.0210   -0.0011
          28    0.0012   -0.0040   -0.0114   -0.0018    0.0060    0.0068    0.0100    0.0124
          29    0.0077    0.0045    0.0067    0.0037    0.0171   -0.0034   -0.0173   -0.0041
          30    0.0059    0.0045    0.0140   -0.0249   -0.0110    0.0050   -0.0140   -0.0123
          31   -0.0156   -0.0065   -0.0133    0.0203   -0.0234   -0.0085    0.0266   -0.0142
          32   -0.0024    0.0020    0.0138   -0.0125   -0.0216   -0.0073    0.0037    0.0028
          33   -0.0011    0.0019   -0.0057    0.0320    0.0222   -0.0090   -0.0033    0.0002
          34   -0.0119   -0.0036   -0.0059    0.0118   -0.0202   -0.0086    0.0198   -0.0079
          35    0.0022    0.0044    0.0135   -0.0078   -0.0112   -0.0052   -0.0105   -0.0201
          36    0.0014    0.0041    0.0005    0.0248    0.0245   -0.0089   -0.0094    0.0069
          37   -0.0032    0.0001   -0.0089   -0.0220    0.0214   -0.0255   -0.0171   -0.0277
          38   -0.0003   -0.0013    0.0074    0.0016    0.0065    0.0024    0.0288   -0.0136
          39    0.0002   -0.0028    0.0104   -0.0070    0.0139   -0.0091    0.0236   -0.0188
          40   -0.0050   -0.0018    0.0003   -0.0115    0.0134   -0.0226   -0.0088   -0.0428
          41   -0.0009    0.0035   -0.0090   -0.0235    0.0288   -0.0069    0.0186    0.0024
          42    0.0049   -0.0002    0.0076    0.0024   -0.0055   -0.0002    0.0135    0.0264
          43   -0.0104   -0.0078   -0.0144   -0.0078   -0.0104    0.0233   -0.0056    0.0321
          44   -0.0015    0.0020   -0.0056   -0.0213    0.0289    0.0002    0.0174    0.0214
          45    0.0076    0.0073    0.0052    0.0006   -0.0040   -0.0003    0.0115   -0.0015
          46    0.0326    0.0214    0.0491    0.0356   -0.0364    0.0285   -0.0389    0.0514
          47   -0.0070   -0.0090    0.0012   -0.0043    0.0143    0.0019    0.0353   -0.0202
          48    0.0059    0.0074    0.0168    0.0007    0.0031   -0.0063    0.0171   -0.0087
          49    0.0165    0.0113    0.0287    0.0158   -0.0173    0.0083   -0.0303    0.0188
          50    0.0230    0.0113    0.0482    0.0335   -0.0201    0.0388    0.0187    0.0380
          51    0.0124    0.0085    0.0083    0.0062   -0.0059    0.0030    0.0173    0.0095
          52   -0.0146   -0.0090    0.0005   -0.0224    0.0063   -0.0222   -0.0065    0.0196
          53   -0.0184   -0.0128   -0.0193   -0.0007   -0.0027    0.0114   -0.0088    0.0087
[...]
 REDUCED MASS        0.4587         C  7 -- C 11          +0.7% (  8.1%)     30.3%
 EFFECTIVE MASS      1.2825
 FORCE CONSTANT      2.4565

 VIBRATION         81   81A           ATOM PAIR      ENERGY CONTRIBUTION    RADIAL
 FREQUENCY          3024.86         C 11 -- H 34         +92.9% ( 97.7%)    100.0%
 TRANSITION DIPOLE   0.2736         C  7 -- H 23          +1.5% ( 12.3%)     99.3%
 TRAVEL (Ang.)       0.1621         C 11 -- C 12          +1.4% ( 11.9%)     39.7%
 REDUCED MASS        0.8486         C  8 -- H 27          +1.3% ( 11.5%)     99.8%
 EFFECTIVE MASS      1.5019
 FORCE CONSTANT      4.5745

 VIBRATION         82   82A           ATOM PAIR      ENERGY CONTRIBUTION    RADIAL
 FREQUENCY          3026.50         C  5 -- H 21         +32.7% ( 59.8%)     97.6%
 TRANSITION DIPOLE   0.0196         C  5 -- H 20         +23.1% ( 50.2%)     95.5%
 TRAVEL (Ang.)       0.2899         C  4 -- H 18         +21.8% ( 48.8%)     97.3%
 REDUCED MASS        0.2651         C  4 -- H 19         +17.4% ( 43.6%)     95.9%
 EFFECTIVE MASS      1.5505
 FORCE CONSTANT      1.4306

 VIBRATION         83   83A           ATOM PAIR      ENERGY CONTRIBUTION    RADIAL
 FREQUENCY          3029.60         C  6 -- H 17         +50.4% ( 69.9%)     97.9%
 TRANSITION DIPOLE   0.0191         C  6 -- H 16         +47.6% ( 68.0%)     97.6%
 TRAVEL (Ang.)       0.2159         C  6 -- C  9          +0.6% (  7.8%)     25.8%
 REDUCED MASS        0.4775         C  2 -- C  6          +0.6% (  7.7%)     28.8%
 EFFECTIVE MASS      1.2752
 FORCE CONSTANT      2.5820

 VIBRATION         84   84A           ATOM PAIR      ENERGY CONTRIBUTION    RADIAL
 FREQUENCY          3038.40         C 12 -- H 33         +94.4% ( 98.7%)    100.0%
 TRANSITION DIPOLE   0.2248         C 11 -- C 12          +1.5% ( 12.5%)     38.9%
 TRAVEL (Ang.)       0.1587         C 10 -- H 31          +1.4% ( 12.2%)     98.0%
 REDUCED MASS        0.8816         C 10 -- C 12          +1.4% ( 12.0%)     11.0%
 EFFECTIVE MASS      1.5209
 FORCE CONSTANT      4.7952

 VIBRATION         85   85A           ATOM PAIR      ENERGY CONTRIBUTION    RADIAL
 FREQUENCY          3041.27         C  4 -- H 18         +32.5% ( 59.2%)     97.7%
 TRANSITION DIPOLE   0.0941         C  4 -- H 19         +24.4% ( 51.3%)     96.0%
 TRAVEL (Ang.)       0.2853         C  5 -- H 21         +24.0% ( 50.9%)     98.0%
 REDUCED MASS        0.2724         C  5 -- H 20         +15.4% ( 40.8%)     95.5%
 EFFECTIVE MASS      1.5301
 FORCE CONSTANT      1.4844

 VIBRATION         86   86A           ATOM PAIR      ENERGY CONTRIBUTION    RADIAL
 FREQUENCY          3064.96         C  8 -- H 28         +33.0% ( 59.3%)     97.3%
 TRANSITION DIPOLE   0.0531         C  8 -- H 29         +31.0% ( 57.5%)     96.8%
 TRAVEL (Ang.)       0.2803         C  9 -- H 25         +20.8% ( 47.1%)     98.2%
 REDUCED MASS        0.2800         C  9 -- H 26         +12.7% ( 36.8%)     94.9%
 EFFECTIVE MASS      1.5031
 FORCE CONSTANT      1.5496

 VIBRATION         87   87A           ATOM PAIR      ENERGY CONTRIBUTION    RADIAL
 FREQUENCY          3068.38         C  9 -- H 25         +39.0% ( 64.4%)     98.6%
 TRANSITION DIPOLE   0.0165         C  8 -- H 29         +26.4% ( 53.0%)     98.9%
 TRAVEL (Ang.)       0.2806         C  9 -- H 26         +18.2% ( 44.0%)     93.1%
 REDUCED MASS        0.2791         C  8 -- H 28          +8.3% ( 29.7%)     87.9%
 EFFECTIVE MASS      1.5023
 FORCE CONSTANT      1.5481

 VIBRATION         88   88A           ATOM PAIR      ENERGY CONTRIBUTION    RADIAL
 FREQUENCY          3069.94         C 10 -- H 30         +50.5% ( 73.3%)     97.2%
 TRANSITION DIPOLE   0.0174         C 10 -- H 32         +47.6% ( 71.1%)     96.8%
 TRAVEL (Ang.)       0.2077         C 10 -- C 12          +1.0% ( 10.2%)      0.0%
 REDUCED MASS        0.5094         C 10 -- H 31          +0.9% ( 10.0%)      0.9%
 EFFECTIVE MASS      1.5009
 FORCE CONSTANT      2.8285

 VIBRATION         89   89A           ATOM PAIR      ENERGY CONTRIBUTION    RADIAL
 FREQUENCY          3070.91         C  8 -- H 27         +58.8% ( 79.1%)     98.8%
 TRANSITION DIPOLE   0.0437         C  8 -- H 28         +24.1% ( 50.6%)     90.9%
 TRAVEL (Ang.)       0.2237         C  8 -- H 29          +9.2% ( 31.2%)     73.4%
 REDUCED MASS        0.4386         C  9 -- H 26          +2.9% ( 17.6%)     97.3%
 EFFECTIVE MASS      1.5070
 FORCE CONSTANT      2.4371

 VIBRATION         90   90A           ATOM PAIR      ENERGY CONTRIBUTION    RADIAL
 FREQUENCY          3075.75         C 10 -- H 31         +62.4% ( 81.5%)     98.9%
 TRANSITION DIPOLE   0.0546         C 10 -- H 32         +18.5% ( 44.3%)     86.2%
 TRAVEL (Ang.)       0.2144         C 10 -- H 30         +15.9% ( 41.1%)     83.6%
 REDUCED MASS        0.4770         C 12 -- H 33          +2.0% ( 14.6%)    100.0%
 EFFECTIVE MASS      1.5082
 FORCE CONSTANT      2.6589

 VIBRATION         91   91A           ATOM PAIR      ENERGY CONTRIBUTION    RADIAL
 FREQUENCY          3082.83         C  9 -- H 24         +56.0% ( 77.1%)     98.4%
 TRANSITION DIPOLE   0.0064         C  9 -- H 26         +32.8% ( 59.0%)     93.4%
 TRAVEL (Ang.)       0.2185         C  9 -- H 25          +9.2% ( 31.3%)     71.2%
 REDUCED MASS        0.4581         C  6 -- C  9          +1.0% ( 10.3%)      0.0%
 EFFECTIVE MASS      1.5026
 FORCE CONSTANT      2.5649

 VIBRATION         92   92A           ATOM PAIR      ENERGY CONTRIBUTION    RADIAL
 FREQUENCY          3101.14         C  5 -- H 20         +53.1% ( 72.3%)     98.3%
 TRANSITION DIPOLE   0.0682         C  5 -- H 21         +34.3% ( 58.1%)     95.5%
 TRAVEL (Ang.)       0.2312         C  4 -- H 19          +6.3% ( 25.0%)     98.2%
 REDUCED MASS        0.4067         C  4 -- H 18          +4.2% ( 20.2%)     95.5%
 EFFECTIVE MASS      1.2837
 FORCE CONSTANT      2.3046

 VIBRATION         93   93A           ATOM PAIR      ENERGY CONTRIBUTION    RADIAL
 FREQUENCY          3103.78         C  4 -- H 19         +49.5% ( 69.8%)     98.0%
 TRANSITION DIPOLE   0.0713         C  4 -- H 18         +37.9% ( 61.0%)     96.2%
 TRAVEL (Ang.)       0.2338         C  5 -- H 20          +6.1% ( 24.5%)     98.1%
 REDUCED MASS        0.3974         C  5 -- H 21          +4.4% ( 20.8%)     96.0%
 EFFECTIVE MASS      1.2878
 FORCE CONSTANT      2.2558

 VIBRATION         94   94A           ATOM PAIR      ENERGY CONTRIBUTION    RADIAL
 FREQUENCY          3165.02         C  8 -- H 27         +32.8% ( 55.2%)     97.0%
 TRANSITION DIPOLE   0.0263         C  8 -- H 28         +32.7% ( 55.0%)     97.1%
 TRAVEL (Ang.)       0.2628         C  8 -- H 29         +31.2% ( 53.8%)     96.9%
 REDUCED MASS        0.3085         C  9 -- H 24          +1.4% ( 11.5%)     98.8%
 EFFECTIVE MASS      1.1362
 FORCE CONSTANT      1.8210

 VIBRATION         95   95A           ATOM PAIR      ENERGY CONTRIBUTION    RADIAL
 FREQUENCY          3169.81         C 10 -- H 31         +34.6% ( 56.7%)     97.3%
 TRANSITION DIPOLE   0.0641         C 10 -- H 32         +32.7% ( 55.0%)     97.1%
 TRAVEL (Ang.)       0.2550         C 10 -- H 30         +32.4% ( 54.8%)     97.0%
 REDUCED MASS        0.3272         C 10 -- C 12          +0.3% (  5.4%)    100.0%
 EFFECTIVE MASS      1.1394
 FORCE CONSTANT      1.9371

 VIBRATION         96   96A           ATOM PAIR      ENERGY CONTRIBUTION    RADIAL
 FREQUENCY          3174.48         C  9 -- H 24         +39.6% ( 60.6%)     98.0%
 TRANSITION DIPOLE   0.0231         C  9 -- H 26         +31.5% ( 54.0%)     96.9%
 TRAVEL (Ang.)       0.2589         C  9 -- H 25         +25.8% ( 48.9%)     95.7%
 REDUCED MASS        0.3168         C  8 -- H 29          +1.0% (  9.8%)     97.6%
 EFFECTIVE MASS      1.1388
 FORCE CONSTANT      1.8809

      SYMMETRY NUMBER FOR POINT-GROUP C1  =  1


          SYSTEM IS A GROUND STATE



 InChI=1S/C12H22/c1-4-6-7-10(3)12-9-8-11(12)5-2/h4,6,10-12H,5,7-9H2,1-3H3


          MOLECULE IS NOT LINEAR

          THERE ARE 96 GENUINE VIBRATIONS IN THIS SYSTEM
          THIS THERMODYNAMICS CALCULATION IS LIMITED TO
          MOLECULES WHICH HAVE NO INTERNAL ROTATIONS




                    CALCULATED THERMODYNAMIC PROPERTIES
                                          *
   TEMP. (K)   PARTITION FUNCTION   H.O.F.    ENTHALPY  HEAT CAPACITY ENTROPY
                                   KCAL/MOL   CAL/MOLE    CAL/K/MOL  CAL/K/MOL


 298.00  VIB.     0.9364D+06                  7380.8005    47.8595    52.0914
         ROT.     0.1742D+07                   888.2803     2.9808    31.5379
         INT.     0.1631D+13                  8269.0808    50.8403    83.6294
         TRA.     0.2073D+28                  1480.4672     4.9680    41.2320
         TOT.                      -23.076    9749.5480    55.8083   124.8614

 200.00  VIB.     0.1426D+05                  3500.7650    32.0150    36.5123
         ROT.     0.9578D+06                   596.1613     2.9808    30.3493
         INT.     0.1366D+11                  4096.9263    34.9958    66.8616
         TRA.     0.1140D+28                   993.6021     4.9680    39.2509
         TOT.                      -27.735    5090.5284    39.9638   106.1124

 210.00  VIB.     0.2212D+05                  3827.9485    33.4295    38.1084
         ROT.     0.1030D+07                   625.9693     2.9808    30.4947
         INT.     0.2279D+11                  4453.9178    36.4103    68.6031
         TRA.     0.1227D+28                  1043.2822     4.9680    39.4932
         TOT.                      -27.328    5497.2001    41.3783   108.0963

 220.00  VIB.     0.3417D+05                  4169.5149    34.8921    39.6971
         ROT.     0.1105D+07                   655.7774     2.9808    30.6334
         INT.     0.3776D+11                  4825.2923    37.8729    70.3304
         TRA.     0.1315D+28                  1092.9623     4.9680    39.7244
         TOT.                      -26.907    5918.2546    42.8409   110.0548

 230.00  VIB.     0.5264D+05                  4525.9568    36.4047    41.2813
         ROT.     0.1181D+07                   685.5855     2.9808    30.7659
         INT.     0.6217D+11                  5211.5423    39.3855    72.0471
         TRA.     0.1406D+28                  1142.6424     4.9680    39.9452
         TOT.                      -26.471    6354.1848    44.3535   111.9923

 240.00  VIB.     0.8085D+05                  4897.7752    37.9672    42.8635
         ROT.     0.1259D+07                   715.3935     2.9808    30.8927
         INT.     0.1018D+12                  5613.1688    40.9480    73.7562
         TRA.     0.1499D+28                  1192.3226     4.9680    40.1566
         TOT.                      -26.020    6805.4913    45.9160   113.9128

 250.00  VIB.     0.1239D+06                  5285.4615    39.5779    44.4459
         ROT.     0.1338D+07                   745.2016     2.9808    31.0144
         INT.     0.1658D+12                  6030.6631    42.5587    75.4603
         TRA.     0.1593D+28                  1242.0027     4.9680    40.3594
         TOT.                      -25.553    7272.6658    47.5267   115.8197

 260.00  VIB.     0.1894D+06                  5689.4831    41.2337    46.0302
         ROT.     0.1420D+07                   775.0097     2.9808    31.1313
         INT.     0.2689D+12                  6464.4927    44.2145    77.1616
         TRA.     0.1690D+28                  1291.6828     4.9680    40.5543
         TOT.                      -25.069    7756.1755    49.1825   117.7159

 270.00  VIB.     0.2890D+06                  6110.2721    42.9306    47.6181
         ROT.     0.1502D+07                   804.8177     2.9808    31.2438
         INT.     0.4342D+12                  6915.0898    45.9114    78.8619
         TRA.     0.1788D+28                  1341.3629     4.9680    40.7418
         TOT.                      -24.569    8256.4527    50.8794   119.6037

 280.00  VIB.     0.4403D+06                  6548.2171    44.6640    49.2106
         ROT.     0.1587D+07                   834.6258     2.9808    31.3522
         INT.     0.6985D+12                  7382.8429    47.6448    80.5629
         TRA.     0.1888D+28                  1391.0430     4.9680    40.9225
         TOT.                      -24.051    8773.8859    52.6129   121.4853

 290.00  VIB.     0.6699D+06                  7003.6574    46.4288    50.8086
         ROT.     0.1672D+07                   864.4339     2.9808    31.4568
         INT.     0.1120D+13                  7868.0913    49.4096    82.2655
         TRA.     0.1990D+28                  1440.7231     4.9680    41.0968
         TOT.                      -23.516    9308.8143    54.3776   123.3623

 300.00  VIB.     0.1018D+07                  7476.8794    48.2195    52.4128
         ROT.     0.1760D+07                   894.2419     2.9808    31.5579
         INT.     0.1791D+13                  8371.1213    51.2003    83.9707
         TRA.     0.2094D+28                  1490.4032     4.9680    41.2652
         TOT.                      -22.964    9861.5245    56.1683   125.2359

 310.00  VIB.     0.1546D+07                  7968.1154    50.0307    54.0234
         ROT.     0.1848D+07                   924.0500     2.9808    31.6556
         INT.     0.2857D+13                  8892.1654    53.0115    85.6790
         TRA.     0.2200D+28                  1540.0833     4.9680    41.4281
         TOT.                      -22.393   10432.2487    57.9795   127.1071

 320.00  VIB.     0.2345D+07                  8477.5437    51.8571    55.6406
         ROT.     0.1938D+07                   953.8580     2.9808    31.7503
         INT.     0.4546D+13                  9431.4017    54.8379    87.3908
         TRA.     0.2307D+28                  1589.7634     4.9680    41.5859
         TOT.                      -21.804   11021.1652    59.8059   128.9767

 330.00  VIB.     0.3557D+07                  9005.2898    53.6934    57.2644
         ROT.     0.2030D+07                   983.6661     2.9808    31.8420
         INT.     0.7220D+13                  9988.9559    56.6742    89.1064
         TRA.     0.2416D+28                  1639.4435     4.9680    41.7387
         TOT.                      -21.197   11628.3995    61.6422   130.8451

 340.00  VIB.     0.5391D+07                  9551.4290    55.5349    58.8946
         ROT.     0.2123D+07                  1013.4742     2.9808    31.9310
         INT.     0.1144D+14                 10564.9032    58.5157    90.8256
         TRA.     0.2527D+28                  1689.1236     4.9680    41.8870
         TOT.                      -20.571   12254.0268    63.4837   132.7126

 350.00  VIB.     0.8170D+07                 10115.9890    57.3769    60.5310
         ROT.     0.2217D+07                  1043.2822     2.9808    32.0174
         INT.     0.1811D+14                 11159.2713    60.3577    92.5484
         TRA.     0.2639D+28                  1738.8037     4.9680    42.0310
         TOT.                      -19.927   12898.0750    65.3257   134.5795

 360.00  VIB.     0.1238D+08                 10698.9539    59.2152    62.1732
         ROT.     0.2313D+07                  1073.0903     2.9808    32.1013
         INT.     0.2863D+14                 11772.0442    62.1960    94.2745
         TRA.     0.2753D+28                  1788.4838     4.9680    42.1710
         TOT.                      -19.265   13560.5281    67.1640   136.4455

 370.00  VIB.     0.1875D+08                 11300.2676    61.0460    63.8206
         ROT.     0.2410D+07                  1102.8984     2.9808    32.1830
         INT.     0.4519D+14                 12403.1660    64.0268    96.0036
         TRA.     0.2869D+28                  1838.1639     4.9680    42.3071
         TOT.                      -18.584   14241.3299    68.9948   138.3107

 380.00  VIB.     0.2841D+08                 11919.8379    62.8660    65.4728
         ROT.     0.2508D+07                  1132.7064     2.9808    32.2625
         INT.     0.7126D+14                 13052.5443    65.8468    97.7353
         TRA.     0.2986D+28                  1887.8440     4.9680    42.4396
         TOT.                      -17.885   14940.3884    70.8148   140.1749

 390.00  VIB.     0.4304D+08                 12557.5403    64.6720    67.1291
         ROT.     0.2608D+07                  1162.5145     2.9808    32.3399
         INT.     0.1122D+15                 13720.0548    67.6528    99.4691
         TRA.     0.3104D+28                  1937.5242     4.9680    42.5687
         TOT.                      -17.168   15657.5790    72.6208   142.0377

 400.00  VIB.     0.6521D+08                 13213.2221    66.4614    68.7891
         ROT.     0.2709D+07                  1192.3226     2.9808    32.4154
         INT.     0.1767D+15                 14405.5447    69.4422   101.2045
         TRA.     0.3224D+28                  1987.2043     4.9680    42.6944
         TOT.                      -16.432   16392.7489    74.4102   143.8989

   *: NOTE: HEATS OF FORMATION ARE RELATIVE TO THE
            ELEMENTS IN THEIR STANDARD STATE AT 298K
              (=  Standard Enthalpy of Formation).

            Hvib:  Zero-point energy is not included.
                   frequencies of less than zero cm-1 are not included.
            Hrot = (3/2)RT
            Htra = (3/2)RT + pV = (5/2)RT

            Heat capacity is Cp, not Cv

          For more information, see: HTTP://OpenMOPAC.net/Manual/thermochemistry.html


           FORCE CONSTANT IN CARTESIAN COORDINATES (Millidynes/A)

    ATOM   CHEMICAL       X               Y               Z
   NUMBER   SYMBOL  FORCE CONSTANT  FORCE CONSTANT  FORCE CONSTANT

      1       C        7.852119        8.289719        8.264114
      2       C        7.676995        8.623825        8.226349
      3       C        8.044725        8.305558        8.402513
      4       C        8.155711        8.387580        8.067684
      5       C        8.159828        8.431668        7.942965
      6       C        8.277017        8.353652        8.457422
      7       C        7.912535        8.964497        8.312840
      8       C        8.406906        8.331360        8.058199
      9       C        8.209126        8.254590        8.396848
     10       C        8.222918        8.930462        8.297358
     11       C        7.260701        9.075007       10.787284
     12       C        7.076517        9.258921       10.812511
     13       H        1.371316        4.133150        0.750313
     14       H        1.356818        1.990093        2.890425
     15       H        1.328505        1.856969        2.851336
     16       H        1.628732        3.974537        0.790856
     17       H        4.526733        0.824240        1.017942
     18       H        1.420255        4.472126        0.729551
     19       H        1.509575        1.912244        3.205146
     20       H        1.504531        4.413500        0.706081
     21       H        1.399584        1.971760        3.235749
     22       H        1.577981        0.987232        3.720638
     23       H        0.877393        2.830566        2.687979
     24       H        1.682679        2.044914        3.060097
     25       H        4.812263        0.824192        1.098627
     26       H        1.689878        4.309822        0.769203
     27       H        1.545271        4.448860        0.698962
     28       H        1.307019        2.001144        3.454253
     29       H        5.171170        0.770420        0.810252
     30       H        5.296055        0.719926        0.645456
     31       H        1.002156        3.436373        2.328181
     32       H        1.034616        0.868380        4.760928
     33       H        0.694685        3.547309        1.970551
     34       H        0.671464        3.533418        1.920460

 **********************
 *                    *
 * JOB ENDED NORMALLY *
 *                    *
 **********************



 TOTAL JOB TIME:             9.85 SECONDS

 == MOPAC DONE ==
