 *******************************************************************************
 **                                                                           **
 **                              MOPAC v23.1.2                                **
 **                                                                           **
 *******************************************************************************
 **          Digital Object Identifier (DOI): 10.5281/zenodo.6511958          **
 **    Visit the DOI location for information on how to cite this program.    **
 *******************************************************************************

                              PM3 CALCULATION RESULTS

 *******************************************************************************
 *  CALCULATION DONE: (MAX THREADS = 1)              Tue Jun  3 16:30:55 2025  *
 *  PM3        - The PM3 Hamiltonian to be used
 *  PRECISE    - TIGHTER CRITERIA TO BE USED
 *  NOSYM      - POINT-GROUP SYMMETRY SET TO C1
 *  THREADS=1  - MULTI-THREADING NOT USED
 *  T=         - A TIME OF 172800.0 SECONDS REQUESTED
 *  DUMP=N     - RESTART FILE WRITTEN EVERY 7200.0 SECONDS REQUESTED
 *******************************************************************************
pm3  precise nosym THREADS=1
 InChI=1S/C6H10/c1-2-4-6-5-3-1/h1-2H,3-6H2

   ATOM   CHEMICAL          X               Y               Z
  NUMBER   SYMBOL      (ANGSTROMS)     (ANGSTROMS)     (ANGSTROMS)

     1       C         -0.05640000  *  -1.29170000  *   0.32480000  *
     2       C         -1.18530000  *  -0.50430000  *  -0.34330000  *
     3       C          1.30640000  *  -0.72200000  *  -0.08690000  *
     4       C         -1.13780000  *   0.96600000  *   0.08940000  *
     5       C          1.35810000  *   0.78260000  *   0.01760000  *
     6       C          0.25260000  *   1.54700000  *   0.00650000  *
     7       H         -0.16660000  *  -1.23850000  *   1.43050000  *
     8       H         -0.11730000  *  -2.35950000  *   0.02290000  *
     9       H         -2.16560000  *  -0.94260000  *  -0.05710000  *
    10       H         -1.08590000  *  -0.57310000  *  -1.44920000  *
    11       H          2.09690000  *  -1.16060000  *   0.55860000  *
    12       H          1.52300000  *  -1.00870000  *  -1.13850000  *
    13       H         -1.82100000  *   1.55960000  *  -0.55440000  *
    14       H         -1.49270000  *   1.05260000  *   1.13890000  *
    15       H          2.32960000  *   1.26680000  *  -0.00730000  *
    16       H          0.36210000  *   2.62650000  *   0.04760000  *



          CARTESIAN COORDINATES 

    NO.       ATOM           X           Y           Z

     1         C         -0.0564     -1.2917      0.3248
     2         C         -1.1853     -0.5043     -0.3433
     3         C          1.3064     -0.7220     -0.0869
     4         C         -1.1378      0.9660      0.0894
     5         C          1.3581      0.7826      0.0176
     6         C          0.2526      1.5470      0.0065
     7         H         -0.1666     -1.2385      1.4305
     8         H         -0.1173     -2.3595      0.0229
     9         H         -2.1656     -0.9426     -0.0571
    10         H         -1.0859     -0.5731     -1.4492
    11         H          2.0969     -1.1606      0.5586
    12         H          1.5230     -1.0087     -1.1385
    13         H         -1.8210      1.5596     -0.5544
    14         H         -1.4927      1.0526      1.1389
    15         H          2.3296      1.2668     -0.0073
    16         H          0.3621      2.6265      0.0476

  H: (PM3): J. J. P. STEWART, J. COMP. CHEM. 10, 209 (1989).
  C: (PM3): J. J. P. STEWART, J. COMP. CHEM. 10, 209 (1989).

           Empirical Formula: C6 H10  =    16 atoms



      MOLECULAR POINT GROUP   :   C1  


      RHF CALCULATION, NO. OF DOUBLY OCCUPIED LEVELS = 17


          Geometry optimization using EF

          DIAGONAL MATRIX USED AS START HESSIAN

 CYCLE:     1 TIME:   0.004 TIME LEFT:  2.00D  GRAD.:    54.422 HEAT: -3.212690
 CYCLE:     2 TIME:   0.008 TIME LEFT:  2.00D  GRAD.:    76.487 HEAT: -3.307166
 CYCLE:     3 TIME:   0.008 TIME LEFT:  2.00D  GRAD.:    33.947 HEAT: -4.395539
 CYCLE:     4 TIME:   0.004 TIME LEFT:  2.00D  GRAD.:    27.329 HEAT: -4.541055
 CYCLE:     5 TIME:   0.008 TIME LEFT:  2.00D  GRAD.:    14.699 HEAT: -4.690782
 CYCLE:     6 TIME:   0.004 TIME LEFT:  2.00D  GRAD.:     9.908 HEAT: -4.779974
 CYCLE:     7 TIME:   0.008 TIME LEFT:  2.00D  GRAD.:     8.255 HEAT: -4.815414
 CYCLE:     8 TIME:   0.004 TIME LEFT:  2.00D  GRAD.:    12.212 HEAT: -4.824468
 CYCLE:     9 TIME:   0.004 TIME LEFT:  2.00D  GRAD.:     9.027 HEAT: -4.862647
 CYCLE:    10 TIME:   0.008 TIME LEFT:  2.00D  GRAD.:     6.916 HEAT: -4.885874
 CYCLE:    11 TIME:   0.004 TIME LEFT:  2.00D  GRAD.:     4.843 HEAT: -4.902978
 CYCLE:    12 TIME:   0.004 TIME LEFT:  2.00D  GRAD.:     6.249 HEAT: -4.911929
 CYCLE:    13 TIME:   0.004 TIME LEFT:  2.00D  GRAD.:     6.430 HEAT: -4.912779
 CYCLE:    14 TIME:   0.008 TIME LEFT:  2.00D  GRAD.:     5.637 HEAT: -4.920410
 CYCLE:    15 TIME:   0.004 TIME LEFT:  2.00D  GRAD.:     4.610 HEAT: -4.925572
 CYCLE:    16 TIME:   0.004 TIME LEFT:  2.00D  GRAD.:     4.413 HEAT: -4.929998
 CYCLE:    17 TIME:   0.004 TIME LEFT:  2.00D  GRAD.:     4.789 HEAT: -4.931353
 CYCLE:    18 TIME:   0.004 TIME LEFT:  2.00D  GRAD.:     2.545 HEAT: -4.939532
 CYCLE:    19 TIME:   0.008 TIME LEFT:  2.00D  GRAD.:     3.208 HEAT: -4.941754
 CYCLE:    20 TIME:   0.004 TIME LEFT:  2.00D  GRAD.:     1.725 HEAT: -4.946707
 CYCLE:    21 TIME:   0.004 TIME LEFT:  2.00D  GRAD.:     1.146 HEAT: -4.950123
 CYCLE:    22 TIME:   0.004 TIME LEFT:  2.00D  GRAD.:     0.917 HEAT: -4.951491
 CYCLE:    23 TIME:   0.008 TIME LEFT:  2.00D  GRAD.:     0.581 HEAT: -4.952323
 CYCLE:    24 TIME:   0.004 TIME LEFT:  2.00D  GRAD.:     0.597 HEAT: -4.953106
 CYCLE:    25 TIME:   0.004 TIME LEFT:  2.00D  GRAD.:     0.449 HEAT: -4.953492
 CYCLE:    26 TIME:   0.008 TIME LEFT:  2.00D  GRAD.:     0.333 HEAT: -4.953658
 CYCLE:    27 TIME:   0.004 TIME LEFT:  2.00D  GRAD.:     0.408 HEAT: -4.953813
 CYCLE:    28 TIME:   0.004 TIME LEFT:  2.00D  GRAD.:     0.380 HEAT: -4.954062
 CYCLE:    29 TIME:   0.004 TIME LEFT:  2.00D  GRAD.:     0.300 HEAT: -4.954278
 CYCLE:    30 TIME:   0.008 TIME LEFT:  2.00D  GRAD.:     0.279 HEAT: -4.954426
 CYCLE:    31 TIME:   0.008 TIME LEFT:  2.00D  GRAD.:     0.285 HEAT: -4.954587
 CYCLE:    32 TIME:   0.004 TIME LEFT:  2.00D  GRAD.:     0.257 HEAT: -4.954706
 CYCLE:    33 TIME:   0.004 TIME LEFT:  2.00D  GRAD.:     0.167 HEAT: -4.954788
 CYCLE:    34 TIME:   0.008 TIME LEFT:  2.00D  GRAD.:     0.137 HEAT: -4.954836
 CYCLE:    35 TIME:   0.004 TIME LEFT:  2.00D  GRAD.:     0.124 HEAT: -4.954873
 CYCLE:    36 TIME:   0.004 TIME LEFT:  2.00D  GRAD.:     0.079 HEAT: -4.954890
 CYCLE:    37 TIME:   0.004 TIME LEFT:  2.00D  GRAD.:     0.057 HEAT: -4.954901
 CYCLE:    38 TIME:   0.008 TIME LEFT:  2.00D  GRAD.:     0.042 HEAT: -4.954906

     GRADIENT =  0.04208 IS LESS THAN CUTOFF =  0.05000



 -------------------------------------------------------------------------------
 pm3  precise nosym THREADS=1
 InChI=1S/C6H10/c1-2-4-6-5-3-1/h1-2H,3-6H2



     GEOMETRY OPTIMISED USING EIGENVECTOR FOLLOWING (EF).     
     SCF FIELD WAS ACHIEVED                                   


                              PM3 CALCULATION
                                                       MOPAC v23.1.2 MacOS
                                                       Tue Jun  3 16:30:55 2025




          FINAL HEAT OF FORMATION =         -4.95491 KCAL/MOL =     -20.73133 KJ/MOL


          COSMO AREA              =        128.40 SQUARE ANGSTROMS
          COSMO VOLUME            =        120.13 CUBIC ANGSTROMS

          GRADIENT NORM           =          0.04208          =       0.01052 PER ATOM
          IONIZATION POTENTIAL    =          9.592742 EV
          HOMO LUMO ENERGIES (EV) =         -9.593  1.170
          NO. OF FILLED LEVELS    =         17
          MOLECULAR WEIGHT        =         82.1450         POINT GROUP:  C1  

          MOLECULAR DIMENSIONS (Angstroms)

            Atom       Atom       Distance
            H    16    H     8     4.98863
            H     9    H    11     4.30012
            H    12    H     7     2.75850


          SCF CALCULATIONS        =         46

          WALL-CLOCK TIME         =      0.211 SECONDS
          COMPUTATION TIME        =      0.109 SECONDS




   ATOM   CHEMICAL          X               Y               Z
  NUMBER   SYMBOL      (ANGSTROMS)     (ANGSTROMS)     (ANGSTROMS)

     1       C         -0.05111638  *  -1.28084376  *   0.31599922  *
     2       C         -1.17698008  *  -0.49543526  *  -0.33453916  *
     3       C          1.30390860  *  -0.71412082  *  -0.08062091  *
     4       C         -1.12939588  *   0.96647683  *   0.08381261  *
     5       C          1.34292445  *   0.77105009  *  -0.02059774  *
     6       C          0.24665329  *   1.52837638  *   0.04393577  *
     7       H         -0.16561597  *  -1.25535003  *   1.41768107  *
     8       H         -0.11311031  *  -2.34861415  *   0.03142250  *
     9       H         -2.15686284  *  -0.93450949  *  -0.06626269  *
    10       H         -1.10129167  *  -0.57749110  *  -1.43679729  *
    11       H          2.09485888  *  -1.13332681  *   0.57160823  *
    12       H          1.56591467  *  -1.02462362  *  -1.11260663  *
    13       H         -1.79537490  *   1.56772178  *  -0.56558853  *
    14       H         -1.52139081  *   1.08675702  *   1.11430086  *
    15       H          2.33823147  *   1.22852023  *  -0.04650013  *
    16       H          0.32268550  *   2.62065360  *   0.08512306  *

                             CARTESIAN COORDINATES

   1    C       -0.051116378    -1.280843760     0.315999224
   2    C       -1.176980079    -0.495435257    -0.334539160
   3    C        1.303908601    -0.714120818    -0.080620905
   4    C       -1.129395881     0.966476829     0.083812605
   5    C        1.342924451     0.771050088    -0.020597742
   6    C        0.246653292     1.528376376     0.043935769
   7    H       -0.165615974    -1.255350032     1.417681067
   8    H       -0.113110308    -2.348614151     0.031422498
   9    H       -2.156862839    -0.934509488    -0.066262688
  10    H       -1.101291671    -0.577491095    -1.436797286
  11    H        2.094858884    -1.133326806     0.571608229
  12    H        1.565914666    -1.024623617    -1.112606633
  13    H       -1.795374903     1.567721778    -0.565588533
  14    H       -1.521390808     1.086757018     1.114300858
  15    H        2.338231471     1.228520226    -0.046500128
  16    H        0.322685504     2.620653601     0.085123064


           Empirical Formula: C6 H10  =    16 atoms



      MOLECULAR POINT GROUP   :   C1  


                  EIGENVALUES  
 -40.24169 -30.59742 -30.20152 -22.31044 -21.56878 -17.71396 -17.43330 -15.12389
 -15.05093 -14.52656 -13.95338 -13.55624 -13.22900 -11.92380 -11.55592 -11.42577
  -9.59274   1.16968   3.46632   3.62335   3.65045   3.85876   3.88279   3.89087
   4.11796   4.27048   4.37655   4.55888   4.77669   4.92514   4.96869   5.12731
   5.77522   6.00921


              NET ATOMIC CHARGES AND DIPOLE CONTRIBUTIONS

  ATOM NO.   TYPE          CHARGE      No. of ELECS.   s-Pop       p-Pop       
    1          C          -0.095382        4.0954     1.15866     2.93672
    2          C          -0.095385        4.0954     1.15866     2.93673
    3          C          -0.057919        4.0579     1.14615     2.91177
    4          C          -0.057943        4.0579     1.14615     2.91179
    5          C          -0.148761        4.1488     1.19392     2.95484
    6          C          -0.148777        4.1488     1.19392     2.95486
    7          H           0.051021        0.9490     0.94898
    8          H           0.047841        0.9522     0.95216
    9          H           0.047857        0.9521     0.95214
   10          H           0.051030        0.9490     0.94897
   11          H           0.052484        0.9475     0.94752
   12          H           0.054567        0.9454     0.94543
   13          H           0.052488        0.9475     0.94751
   14          H           0.054582        0.9454     0.94542
   15          H           0.096141        0.9039     0.90386
   16          H           0.096158        0.9038     0.90384
 DIPOLE           X         Y         Z       TOTAL
 POINT-CHG.    -0.138    -0.200    -0.002     0.243
 HYBRID         0.039     0.056     0.001     0.068
 SUM           -0.099    -0.144    -0.001     0.175


          ATOMIC ORBITAL ELECTRON POPULATIONS

     Atom    s        px        py        pz   
    1  C   1.15866   0.95089   0.98240   1.00343
    2  C   1.15866   0.97918   0.95466   1.00289
    3  C   1.14615   0.96713   0.93829   1.00635
    4  C   1.14615   0.94963   0.95613   1.00603
    5  C   1.19392   0.97610   0.96122   1.01752
    6  C   1.19392   0.95354   0.98376   1.01756
    7  H   0.94898
    8  H   0.95216
    9  H   0.95214
   10  H   0.94897
   11  H   0.94752
   12  H   0.94543
   13  H   0.94751
   14  H   0.94542
   15  H   0.90386
   16  H   0.90384
 *******************************************************************************
 **                                                                           **
 **                              MOPAC v23.1.2                                **
 **                                                                           **
 *******************************************************************************
 **          Digital Object Identifier (DOI): 10.5281/zenodo.6511958          **
 **    Visit the DOI location for information on how to cite this program.    **
 *******************************************************************************

                              PM3 CALCULATION RESULTS

 *******************************************************************************
 *  CALCULATION DONE: (MAX THREADS = 1)              Tue Jun  3 16:30:55 2025  *
 *  PM3        - The PM3 Hamiltonian to be used
 *  OLDGEO     - PREVIOUS GEOMETRY TO BE USED
 *  PRECISE    - TIGHTER CRITERIA TO BE USED
 *  NOSYM      - POINT-GROUP SYMMETRY SET TO C1
 *  THREADS=1  - MULTI-THREADING NOT USED
 *  T=         - A TIME OF 172800.0 SECONDS REQUESTED
 *  DUMP=N     - RESTART FILE WRITTEN EVERY 7200.0 SECONDS REQUESTED
 *  THERMO     - THERMODYNAMIC QUANTITIES TO BE CALCULATED
 *******************************************************************************
oldgeo thermo nosym precise THREADS=1  pm3
 InChI=1S/C6H10/c1-2-4-6-5-3-1/h1-2H,3-6H2

   ATOM   CHEMICAL          X               Y               Z
  NUMBER   SYMBOL      (ANGSTROMS)     (ANGSTROMS)     (ANGSTROMS)

     1       C         -0.05111638  *  -1.28084376  *   0.31599922  *
     2       C         -1.17698008  *  -0.49543526  *  -0.33453916  *
     3       C          1.30390860  *  -0.71412082  *  -0.08062091  *
     4       C         -1.12939588  *   0.96647683  *   0.08381261  *
     5       C          1.34292445  *   0.77105009  *  -0.02059774  *
     6       C          0.24665329  *   1.52837638  *   0.04393577  *
     7       H         -0.16561597  *  -1.25535003  *   1.41768107  *
     8       H         -0.11311031  *  -2.34861415  *   0.03142250  *
     9       H         -2.15686284  *  -0.93450949  *  -0.06626269  *
    10       H         -1.10129167  *  -0.57749110  *  -1.43679729  *
    11       H          2.09485888  *  -1.13332681  *   0.57160823  *
    12       H          1.56591467  *  -1.02462362  *  -1.11260663  *
    13       H         -1.79537490  *   1.56772178  *  -0.56558853  *
    14       H         -1.52139081  *   1.08675702  *   1.11430086  *
    15       H          2.33823147  *   1.22852023  *  -0.04650013  *
    16       H          0.32268550  *   2.62065360  *   0.08512306  *



          CARTESIAN COORDINATES 

    NO.       ATOM           X           Y           Z

     1         C         -0.0511     -1.2808      0.3160
     2         C         -1.1770     -0.4954     -0.3345
     3         C          1.3039     -0.7141     -0.0806
     4         C         -1.1294      0.9665      0.0838
     5         C          1.3429      0.7711     -0.0206
     6         C          0.2467      1.5284      0.0439
     7         H         -0.1656     -1.2554      1.4177
     8         H         -0.1131     -2.3486      0.0314
     9         H         -2.1569     -0.9345     -0.0663
    10         H         -1.1013     -0.5775     -1.4368
    11         H          2.0949     -1.1333      0.5716
    12         H          1.5659     -1.0246     -1.1126
    13         H         -1.7954      1.5677     -0.5656
    14         H         -1.5214      1.0868      1.1143
    15         H          2.3382      1.2285     -0.0465
    16         H          0.3227      2.6207      0.0851

  H: (PM3): J. J. P. STEWART, J. COMP. CHEM. 10, 209 (1989).
  C: (PM3): J. J. P. STEWART, J. COMP. CHEM. 10, 209 (1989).

           Empirical Formula: C6 H10  =    16 atoms



      MOLECULAR POINT GROUP   :   C1  


      RHF CALCULATION, NO. OF DOUBLY OCCUPIED LEVELS = 17



          HEAT OF FORMATION =      -4.954906 KCALS/MOLE


          CARTESIAN COORDINATE DERIVATIVES

   NUMBER  ATOM         X            Y            Z

     1       C      0.010857    -0.000501    -0.008392
     2       C      0.001176     0.006677    -0.006535
     3       C     -0.003353     0.000934    -0.000651
     4       C      0.001746    -0.001281     0.003860
     5       C      0.010938    -0.017052     0.008374
     6       C      0.002640     0.008389     0.000332
     7       H     -0.016107    -0.004722     0.004834
     8       H      0.004884    -0.000646    -0.003722
     9       H     -0.003696     0.006547    -0.002894
    10       H     -0.006616     0.008807    -0.009438
    11       H      0.004166    -0.004748     0.005376
    12       H     -0.007011     0.001232     0.001758
    13       H      0.002261     0.000155     0.002169
    14       H     -0.005616    -0.000051     0.004671
    15       H      0.003406     0.003316    -0.004011
    16       H      0.000324    -0.007055     0.004269



          GRADIENT NORM =   0.04217

          MOLECULAR WEIGHT =   82.15



          ROTATIONAL CONSTANTS IN CM(-1)

          A =    0.15925090   B =    0.15372420   C =    0.08617903



           PRINCIPAL MOMENTS OF INERTIA IN UNITS OF 10**(-40)*GRAM-CM**2

          A =      175.7777   B =      182.0972   C =      324.8209


          ORIENTATION OF MOLECULE IN FORCE CALCULATION

    NO.       ATOM         X         Y         Z

     1          C      -0.7597   -1.0463    0.6000
     2          C       0.7594   -1.0463    0.6000
     3          C      -1.3011    0.3755    0.6000
     4          C       1.3008   -0.3288   -0.6274
     5          C      -0.5879    1.2595   -0.3595
     6          C       0.5886    0.9465   -0.9050
     7          H      -1.1334   -1.5949   -0.2870
     8          H      -1.1440   -1.5979    1.4792
     9          H       1.1437   -2.0837    0.6326
    10          H       1.1329   -0.5572    1.5212
    11          H      -2.3834    0.3681    0.3646
    12          H      -1.2139    0.8225    1.6113
    13          H       2.3834   -0.1304   -0.5029
    14          H       1.2122   -0.9756   -1.5239
    15          H      -1.0779    2.2110   -0.5940
    16          H       1.0793    1.6298   -1.6071


    FIRST DERIVATIVES WILL BE USED IN THE CALCULATION OF SECOND DERIVATIVES

          ESTIMATED TIME TO COMPLETE CALCULATION =        0.75 SECONDS

    FOR POINT-GROUP C1   THERE ARE   1 UNIQUE SYMMETRY FUNCTIONS.

 STEP:   1 TIME =     0.01 SECS, INTEGRAL =      0.01 TIME LEFT: 172799.98
 STEP:   2 TIME =     0.01 SECS, INTEGRAL =      0.02 TIME LEFT: 172799.97
 STEP:   3 TIME =     0.01 SECS, INTEGRAL =      0.04 TIME LEFT: 172799.96
 STEP:   4 TIME =     0.01 SECS, INTEGRAL =      0.04 TIME LEFT: 172799.95
 STEP:   5 TIME =     0.01 SECS, INTEGRAL =      0.05 TIME LEFT: 172799.94
 STEP:   6 TIME =     0.01 SECS, INTEGRAL =      0.06 TIME LEFT: 172799.93
 STEP:   7 TIME =     0.01 SECS, INTEGRAL =      0.07 TIME LEFT: 172799.92
 STEP:   8 TIME =     0.01 SECS, INTEGRAL =      0.09 TIME LEFT: 172799.91
 STEP:   9 TIME =     0.01 SECS, INTEGRAL =      0.10 TIME LEFT: 172799.90
 STEP:  10 TIME =     0.01 SECS, INTEGRAL =      0.11 TIME LEFT: 172799.89
 STEP:  11 TIME =     0.01 SECS, INTEGRAL =      0.11 TIME LEFT: 172799.88
 STEP:  12 TIME =     0.01 SECS, INTEGRAL =      0.12 TIME LEFT: 172799.87
 STEP:  13 TIME =     0.01 SECS, INTEGRAL =      0.14 TIME LEFT: 172799.86
 STEP:  14 TIME =     0.01 SECS, INTEGRAL =      0.15 TIME LEFT: 172799.85
 STEP:  15 TIME =     0.01 SECS, INTEGRAL =      0.16 TIME LEFT: 172799.84
 STEP:  16 TIME =     0.01 SECS, INTEGRAL =      0.17 TIME LEFT: 172799.82
 STEP:  17 TIME =     0.01 SECS, INTEGRAL =      0.18 TIME LEFT: 172799.81
 STEP:  18 TIME =     0.01 SECS, INTEGRAL =      0.20 TIME LEFT: 172799.80
 STEP:  19 TIME =     0.01 SECS, INTEGRAL =      0.21 TIME LEFT: 172799.79
 STEP:  20 TIME =     0.01 SECS, INTEGRAL =      0.22 TIME LEFT: 172799.78
 STEP:  21 TIME =     0.01 SECS, INTEGRAL =      0.23 TIME LEFT: 172799.77
 STEP:  22 TIME =     0.01 SECS, INTEGRAL =      0.24 TIME LEFT: 172799.75
 STEP:  23 TIME =     0.01 SECS, INTEGRAL =      0.25 TIME LEFT: 172799.75
 STEP:  24 TIME =     0.01 SECS, INTEGRAL =      0.26 TIME LEFT: 172799.74
 STEP:  25 TIME =     0.01 SECS, INTEGRAL =      0.27 TIME LEFT: 172799.73
 STEP:  26 TIME =     0.01 SECS, INTEGRAL =      0.27 TIME LEFT: 172799.72
 STEP:  27 TIME =     0.01 SECS, INTEGRAL =      0.29 TIME LEFT: 172799.71
 STEP:  28 TIME =     0.01 SECS, INTEGRAL =      0.30 TIME LEFT: 172799.70
 STEP:  29 TIME =     0.01 SECS, INTEGRAL =      0.31 TIME LEFT: 172799.69
 STEP:  30 TIME =     0.01 SECS, INTEGRAL =      0.32 TIME LEFT: 172799.68
 STEP:  31 TIME =     0.01 SECS, INTEGRAL =      0.33 TIME LEFT: 172799.67
 STEP:  32 TIME =     0.01 SECS, INTEGRAL =      0.34 TIME LEFT: 172799.66
 STEP:  33 TIME =     0.01 SECS, INTEGRAL =      0.35 TIME LEFT: 172799.64
 STEP:  34 TIME =     0.01 SECS, INTEGRAL =      0.36 TIME LEFT: 172799.63
 STEP:  35 TIME =     0.01 SECS, INTEGRAL =      0.38 TIME LEFT: 172799.62
 STEP:  36 TIME =     0.01 SECS, INTEGRAL =      0.38 TIME LEFT: 172799.61
 STEP:  37 TIME =     0.01 SECS, INTEGRAL =      0.39 TIME LEFT: 172799.61
 STEP:  38 TIME =     0.01 SECS, INTEGRAL =      0.40 TIME LEFT: 172799.59
 STEP:  39 TIME =     0.01 SECS, INTEGRAL =      0.41 TIME LEFT: 172799.58
 STEP:  40 TIME =     0.01 SECS, INTEGRAL =      0.43 TIME LEFT: 172799.57
 STEP:  41 TIME =     0.01 SECS, INTEGRAL =      0.44 TIME LEFT: 172799.56
 STEP:  42 TIME =     0.01 SECS, INTEGRAL =      0.45 TIME LEFT: 172799.55
 STEP:  43 TIME =     0.01 SECS, INTEGRAL =      0.46 TIME LEFT: 172799.54
 STEP:  44 TIME =     0.01 SECS, INTEGRAL =      0.47 TIME LEFT: 172799.53
 STEP:  45 TIME =     0.01 SECS, INTEGRAL =      0.48 TIME LEFT: 172799.52
 STEP:  46 TIME =     0.01 SECS, INTEGRAL =      0.49 TIME LEFT: 172799.50
 STEP:  47 TIME =     0.01 SECS, INTEGRAL =      0.50 TIME LEFT: 172799.49
 STEP:  48 TIME =     0.01 SECS, INTEGRAL =      0.52 TIME LEFT: 172799.48

(To convert to Hartree/Bohr^2, multiply by (10^(-21) x N x a0^2)/(4.184 x 627.51) =  0.0642)


           FORCE MATRIX IN MILLIDYNES/ANGSTROM


                  C  1       C  2       C  3       C  4       C  5       C  6
 ------------------------------------------------------------------------------
     C    1  14.428636
     C    2   4.220468  14.424224
     C    3   4.159358   0.676648  14.715036
     C    4   0.676612   4.158181   0.099393  14.714738
     C    5   0.688442   0.062332   4.984345   0.838954  18.179896
     C    6   0.062358   0.689072   0.838682   4.984872  10.677755  18.179792
     H    7   4.465026   0.445009   0.442348   0.021801   0.009093   0.006667
     H    8   4.498010   0.438572   0.434078   0.052322   0.051512   0.004774
     H    9   0.438461   4.498564   0.052301   0.433955   0.004774   0.051415
     H   10   0.444664   4.465063   0.021834   0.442453   0.006671   0.009204
     H   11   0.432104   0.049808   4.464504   0.009528   0.432755   0.043487
     H   12   0.444865   0.012437   4.408327   0.014359   0.412982   0.030980
     H   13   0.049650   0.432150   0.009623   4.464485   0.043670   0.432806
     H   14   0.012466   0.445378   0.014605   4.408644   0.030903   0.412633
     H   15   0.043317   0.004019   0.426904   0.123740   4.822767   0.444895
     H   16   0.004052   0.043422   0.124924   0.426896   0.445005   4.823060


                  H  7       H  8       H  9       H 10       H 11       H 12
 ------------------------------------------------------------------------------
     H    7   5.075856
     H    8   0.569591   5.115497
     H    9   0.028702   0.032017   5.115899
     H   10   0.046758   0.028738   0.568761   5.076025
     H   11   0.035641   0.023251   0.008599   0.002233   5.062440
     H   12   0.044790   0.034655   0.001339   0.007811   0.568877   5.006106
     H   13   0.002229   0.008607   0.023316   0.035714   0.000360   0.001095
     H   14   0.007825   0.001340   0.034766   0.044458   0.001107   0.002181
     H   15   0.001268   0.007286   0.000841   0.000493   0.034934   0.019593
     H   16   0.000528   0.000838   0.007289   0.001259   0.014720   0.017901


                  H 13       H 14       H 15       H 16
 ------------------------------------------------------
     H   13   5.062359
     H   14   0.568717   5.006105
     H   15   0.014609   0.017945   5.198939
     H   16   0.034844   0.019548   0.070649   5.199280


          HEAT OF FORMATION =      -4.954906 KCALS/MOLE

          ZERO POINT ENERGY      89.942 KCAL/MOL


           NORMAL COORDINATE ANALYSIS (Total motion = 1 Angstrom)


   Root No.       1         2         3         4         5         6         7         8

                 1 A       2 A       3 A       4 A       5 A       6 A       7 A       8 A   

                 133.3     253.0     364.3     486.3     504.6     681.0     757.2     817.4
  
           1   -0.0094    0.0002    0.0001    0.0411   -0.0054    0.0060    0.0003   -0.0074
           2    0.0034    0.0076    0.0060    0.0372    0.0438   -0.0031    0.0110    0.0034
           3   -0.0188    0.0456    0.0027   -0.0208   -0.0072   -0.0081    0.0146   -0.0167
           4   -0.0094   -0.0003   -0.0002    0.0411    0.0051    0.0060    0.0003    0.0074
           5   -0.0178   -0.0356    0.0008   -0.0367    0.0287   -0.0054    0.0069    0.0161
           6   -0.0063   -0.0297   -0.0066    0.0213   -0.0344   -0.0066    0.0168    0.0057
           7    0.0214   -0.0101   -0.0187   -0.0132   -0.0565    0.0047   -0.0122   -0.0209
           8    0.0145    0.0035   -0.0003    0.0209    0.0180    0.0033   -0.0073   -0.0065
           9    0.0305   -0.0170   -0.0059   -0.0084    0.0330   -0.0203    0.0041   -0.0178
          10    0.0214    0.0103    0.0187   -0.0128    0.0566    0.0046   -0.0124    0.0208
          11    0.0189    0.0166    0.0049   -0.0179   -0.0193   -0.0192    0.0071    0.0121
          12    0.0279    0.0058    0.0032    0.0136   -0.0324   -0.0073   -0.0043    0.0146
          13   -0.0147   -0.0080    0.0279   -0.0270   -0.0111   -0.0223    0.0035    0.0015
          14   -0.0092   -0.0020    0.0192    0.0264   -0.0493    0.0273   -0.0344   -0.0060
          15   -0.0182   -0.0174    0.0486   -0.0054    0.0092   -0.0084   -0.0133    0.0076
          16   -0.0148    0.0079   -0.0277   -0.0269    0.0113   -0.0224    0.0034   -0.0015
          17   -0.0112    0.0139   -0.0320   -0.0182   -0.0328   -0.0211    0.0059   -0.0095
          18   -0.0173    0.0104   -0.0412    0.0202    0.0377    0.0191   -0.0367    0.0011
          19   -0.0135   -0.0550   -0.0016    0.0878   -0.0149   -0.0191    0.0524   -0.0209
          20    0.0452   -0.0493   -0.0044    0.0843    0.0744   -0.0546    0.0625   -0.0695
          21   -0.0427    0.1042    0.0097   -0.0726   -0.0226    0.0369   -0.0418    0.0365
          22   -0.0250    0.0426    0.0089   -0.0131    0.0286    0.0281   -0.0406    0.0279
          23   -0.0228    0.0693    0.0099   -0.0022    0.0011    0.0512   -0.0438    0.0586
          24   -0.0422    0.1042    0.0092   -0.0710   -0.0200    0.0373   -0.0398    0.0355
          25   -0.0247   -0.0426   -0.0089   -0.0133   -0.0284    0.0282   -0.0404   -0.0283
          26   -0.0246   -0.0549   -0.0028   -0.0603    0.0184    0.0064   -0.0123   -0.0013
          27   -0.0401   -0.1122   -0.0130   -0.0380    0.0094    0.0630   -0.0576   -0.0686
          28   -0.0139    0.0545    0.0015    0.0881    0.0141   -0.0192    0.0524    0.0216
          29   -0.0589   -0.1147   -0.0102   -0.1051    0.0579    0.0594   -0.0674   -0.0670
          30    0.0175   -0.0101   -0.0012    0.0356   -0.0531   -0.0284    0.0326    0.0417
          31    0.0050   -0.0046    0.0033   -0.0073   -0.0558   -0.0125   -0.0191   -0.0412
          32    0.0425   -0.0213   -0.0149   -0.0337    0.0083    0.0151   -0.0066    0.0528
          33    0.1068   -0.0441   -0.1129   -0.0387    0.0270    0.0687    0.0363    0.0835
          34    0.1048   -0.0447   -0.1277   -0.0644   -0.0716    0.0973    0.0199    0.0973
          35    0.0076    0.0377   -0.0220    0.0246    0.0348    0.0026    0.0305   -0.0330
          36    0.0264   -0.0291    0.0117   -0.0071    0.0265   -0.0256   -0.0145   -0.0133
          37    0.0051    0.0047   -0.0031   -0.0070    0.0558   -0.0125   -0.0196    0.0408
          38    0.0707    0.0280    0.0896   -0.0161   -0.0187    0.0519    0.0353   -0.0451
          39    0.0905    0.0415    0.0697   -0.0484   -0.0202    0.0478    0.0136   -0.0874
          40    0.1047    0.0458    0.1273   -0.0633    0.0726    0.0974    0.0209   -0.0969
          41    0.0186    0.0443   -0.0213   -0.0184   -0.0053   -0.0239   -0.0280   -0.0052
          42    0.0199   -0.0178    0.0129    0.0173   -0.0434   -0.0105    0.0188    0.0353
          43   -0.0375   -0.0168    0.0734   -0.0173    0.0024    0.0456    0.0885    0.0463
          44   -0.0302   -0.0103    0.0581    0.0250   -0.0560    0.0830    0.0506    0.0288
          45   -0.0550   -0.0341    0.1096   -0.0291   -0.0488    0.0768    0.1536    0.0560
          46   -0.0378    0.0166   -0.0736   -0.0175   -0.0019    0.0458    0.0895   -0.0458
          47   -0.0324    0.0240   -0.0652   -0.0378    0.0145    0.0242    0.1074   -0.0330
          48   -0.0545    0.0259   -0.1061    0.0071    0.0736    0.1106    0.1225   -0.0525


   Root No.       9        10        11        12        13        14        15        16

                 9 A      10 A      11 A      12 A      13 A      14 A      15 A      16 A   

                 932.8     935.9     946.5     966.2     971.1    1008.5    1054.9    1055.3
  
           1    0.0003    0.0180   -0.0210    0.0228   -0.0055    0.0102    0.0015    0.0106
           2    0.0044    0.0221   -0.0222    0.0209    0.0301   -0.0037    0.0026    0.0085
           3    0.0149   -0.0292    0.0364   -0.0006   -0.0099    0.0050    0.0011    0.0122
           4    0.0008   -0.0180   -0.0210   -0.0227   -0.0060   -0.0102    0.0000   -0.0108
           5    0.0096    0.0366    0.0427    0.0114   -0.0236   -0.0062   -0.0012   -0.0060
           6    0.0114   -0.0039   -0.0008   -0.0182    0.0205    0.0007    0.0009   -0.0138
           7   -0.0185    0.0236    0.0407    0.0139    0.0298   -0.0292   -0.0002   -0.0043
           8   -0.0130   -0.0123   -0.0108   -0.0141   -0.0127   -0.0093    0.0018   -0.0083
           9   -0.0230    0.0033   -0.0089   -0.0020   -0.0118    0.0159    0.0085   -0.0225
          10   -0.0179   -0.0243    0.0406   -0.0144    0.0295    0.0292    0.0004    0.0043
          11   -0.0130   -0.0095   -0.0022   -0.0052   -0.0039   -0.0185    0.0085    0.0139
          12   -0.0232    0.0082   -0.0138    0.0136   -0.0166   -0.0001    0.0083    0.0172
          13    0.0127    0.0071   -0.0189   -0.0125   -0.0100   -0.0057   -0.0049    0.0200
          14    0.0052   -0.0048    0.0330   -0.0153   -0.0190    0.0449   -0.0022    0.0065
          15    0.0169    0.0149   -0.0116   -0.0170    0.0145   -0.0083   -0.0103    0.0349
          16    0.0131   -0.0066   -0.0189    0.0126   -0.0097    0.0057   -0.0076   -0.0189
          17    0.0125   -0.0147   -0.0267    0.0065    0.0223    0.0299   -0.0114   -0.0251
          18    0.0134   -0.0029    0.0227    0.0218   -0.0085   -0.0345   -0.0102   -0.0216
          19    0.0982   -0.0127    0.0493    0.0128   -0.0096    0.0108    0.0803    0.0344
          20   -0.0083   -0.0484    0.0403    0.0458   -0.0021   -0.0078   -0.0565    0.0438
          21   -0.0199    0.0281   -0.0368   -0.0135    0.0118    0.0067    0.0050   -0.0210
          22   -0.0616    0.0833   -0.0947    0.0552   -0.1012    0.0774   -0.0436   -0.0183
          23   -0.0046    0.0739   -0.0971   -0.0037    0.1359   -0.0559    0.0354   -0.0060
          24   -0.0189    0.0344   -0.0439   -0.0023    0.0166    0.0045    0.0025   -0.0115
          25   -0.0591   -0.0856   -0.0950   -0.0528   -0.1021   -0.0778   -0.0404    0.0253
          26   -0.0142    0.0069    0.0111    0.0012   -0.0541   -0.0322   -0.0145    0.0095
          27   -0.0111   -0.0813   -0.1065    0.0021    0.1259    0.0460    0.0330    0.0053
          28    0.0977    0.0163    0.0496   -0.0133   -0.0100   -0.0105    0.0744   -0.0476
          29   -0.0113   -0.0490   -0.0525    0.0346    0.0123   -0.0097    0.0380    0.0341
          30   -0.0182    0.0269    0.0164   -0.0326    0.0032    0.0033   -0.0494   -0.0190
          31   -0.0374    0.0315    0.0543    0.0097    0.0346   -0.0476    0.0092   -0.0213
          32    0.0276   -0.0347   -0.0394   -0.1096   -0.0302   -0.0923    0.0841   -0.0825
          33    0.0724   -0.0318   -0.0682    0.0197   -0.0405    0.0994   -0.0346    0.0625
          34    0.0925   -0.0136   -0.0008    0.0074    0.0123   -0.0254   -0.0204    0.0701
          35   -0.0248   -0.0665    0.0035    0.0450   -0.0045   -0.0722   -0.1435    0.1168
          36   -0.0252    0.0304   -0.0144   -0.0278   -0.0128    0.0446    0.0753   -0.0841
          37   -0.0366   -0.0327    0.0541   -0.0103    0.0343    0.0476    0.0120    0.0194
          38    0.0482    0.0114   -0.0389   -0.0719   -0.0215   -0.1325   -0.0847   -0.0818
          39    0.0597    0.0483   -0.0685    0.0852   -0.0445    0.0294    0.0601    0.0296
          40    0.0924    0.0167   -0.0010   -0.0080    0.0121    0.0254   -0.0297   -0.0656
          41   -0.0073   -0.0598   -0.0143    0.0467   -0.0074   -0.0749    0.1543    0.1066
          42   -0.0357    0.0407   -0.0040   -0.0243   -0.0112    0.0396   -0.0931   -0.0430
          43   -0.0357   -0.0636   -0.0163    0.0479   -0.1015   -0.0618    0.0398   -0.0392
          44   -0.0390   -0.0620    0.0391    0.0529   -0.0461    0.0174    0.0214   -0.0500
          45   -0.0604   -0.0644    0.0045    0.1369    0.0894   -0.0092   -0.0052   -0.0671
          46   -0.0379    0.0617   -0.0165   -0.0455   -0.1027    0.0616    0.0446    0.0318
          47   -0.0334    0.0226   -0.0162   -0.0924    0.0984    0.0168   -0.0108    0.0342
          48   -0.0675    0.0829    0.0357   -0.1140    0.0026   -0.0104    0.0262    0.0729


   Root No.      17        18        19        20        21        22        23        24

                17 A      18 A      19 A      20 A      21 A      22 A      23 A      24 A   

                1100.4    1103.7    1122.7    1139.5    1148.4    1176.9    1241.0    1312.2
  
           1   -0.0054    0.0062   -0.0165   -0.0037    0.0251   -0.0090    0.0137   -0.0255
           2    0.0081   -0.0064    0.0169   -0.0226    0.0187   -0.0004   -0.0067    0.0268
           3    0.0106    0.0039    0.0086   -0.0141    0.0280   -0.0033    0.0009   -0.0054
           4    0.0055    0.0060    0.0165   -0.0036   -0.0251    0.0090    0.0138   -0.0256
           5   -0.0049    0.0067    0.0011   -0.0007   -0.0147    0.0027    0.0042   -0.0182
           6   -0.0124   -0.0032   -0.0189   -0.0265   -0.0304    0.0021   -0.0053    0.0205
           7    0.0019   -0.0002    0.0010   -0.0003   -0.0009    0.0057   -0.0006    0.0069
           8   -0.0147    0.0125   -0.0121    0.0182   -0.0017   -0.0063   -0.0199   -0.0094
           9   -0.0176   -0.0129   -0.0034    0.0177   -0.0107   -0.0029    0.0057    0.0021
          10   -0.0019   -0.0002   -0.0010   -0.0003    0.0009   -0.0057   -0.0006    0.0069
          11    0.0074   -0.0176   -0.0032    0.0060    0.0084   -0.0006    0.0149    0.0066
          12    0.0217    0.0038    0.0122    0.0247    0.0071    0.0069   -0.0143   -0.0071
          13    0.0034   -0.0084   -0.0040   -0.0019    0.0003    0.0022   -0.0148   -0.0108
          14   -0.0004   -0.0075    0.0032   -0.0055   -0.0062    0.0008   -0.0075   -0.0082
          15    0.0031    0.0074   -0.0001    0.0048   -0.0020   -0.0011    0.0142    0.0116
          16   -0.0035   -0.0084    0.0040   -0.0019   -0.0003   -0.0022   -0.0148   -0.0108
          17   -0.0027    0.0102    0.0017    0.0069   -0.0013    0.0014    0.0161    0.0141
          18   -0.0013   -0.0027   -0.0027   -0.0023    0.0063   -0.0001    0.0008   -0.0011
          19   -0.0985    0.0018   -0.0241    0.1380    0.1458   -0.1000   -0.0521    0.0721
          20    0.1104    0.0175    0.0466   -0.1433    0.0110    0.0526    0.0432   -0.0185
          21   -0.0142   -0.0076   -0.0063   -0.0012   -0.0177    0.0015   -0.0016   -0.0159
          22    0.0861    0.0656   -0.1434   -0.0531   -0.0216   -0.0385   -0.0672    0.1185
          23   -0.0850   -0.0577    0.0843    0.0295   -0.0019    0.0224    0.0510   -0.0264
          24   -0.0089   -0.0049   -0.0060   -0.0049   -0.0059   -0.0018    0.0017    0.0214
          25   -0.0849    0.0671    0.1436   -0.0533    0.0212    0.0387   -0.0672    0.1186
          26   -0.0348    0.0255    0.0478   -0.0191    0.0040    0.0130   -0.0243    0.0318
          27    0.0769   -0.0538   -0.0699    0.0231    0.0047   -0.0185    0.0449   -0.0121
          28    0.0987   -0.0005    0.0242    0.1391   -0.1451    0.0999   -0.0521    0.0721
          29    0.0678   -0.0170    0.0289    0.0712    0.0212    0.0252   -0.0232   -0.0043
          30   -0.0880    0.0133   -0.0371   -0.1244   -0.0013   -0.0461    0.0364   -0.0241
          31    0.0044    0.0134   -0.0062    0.0075    0.0005   -0.0008    0.0116    0.0285
          32    0.0776    0.1769   -0.0325   -0.0007    0.0514   -0.0876    0.0744   -0.0366
          33   -0.0301   -0.0757    0.0195   -0.0150   -0.0083    0.0282   -0.0474   -0.0713
          34    0.0396    0.0302   -0.0030   -0.0249    0.0320   -0.0056    0.0232    0.0723
          35   -0.0514    0.0305   -0.0719    0.1482   -0.1243   -0.0477    0.0534    0.0008
          36   -0.0056   -0.0243    0.0252   -0.0381    0.0414    0.0157   -0.0299   -0.0135
          37   -0.0041    0.0134    0.0062    0.0074   -0.0005    0.0007    0.0115    0.0285
          38    0.0620   -0.1562   -0.0339   -0.0129    0.0331   -0.0684   -0.0786   -0.0431
          39   -0.0494    0.1155    0.0186   -0.0078   -0.0403    0.0613    0.0403   -0.0677
          40   -0.0390    0.0310    0.0030   -0.0247   -0.0322    0.0056    0.0232    0.0723
          41   -0.0216   -0.0356   -0.0583   -0.1070   -0.0990   -0.0374   -0.0528   -0.0121
          42    0.0473    0.0128    0.0494    0.1081    0.0869    0.0330    0.0310   -0.0061
          43   -0.0368   -0.0812   -0.0959    0.0026    0.0672    0.1376    0.1036    0.0587
          44   -0.0186   -0.0284   -0.0264   -0.0015    0.0163    0.0436    0.0285    0.0128
          45    0.0139    0.0624    0.0720    0.0080   -0.0475   -0.1057   -0.0830   -0.0446
          46    0.0351   -0.0824    0.0955    0.0027   -0.0671   -0.1375    0.1034    0.0587
          47   -0.0201    0.0692   -0.0754    0.0076    0.0493    0.1134   -0.0860   -0.0450
          48    0.0090    0.0070   -0.0137    0.0027    0.0100    0.0159   -0.0174   -0.0115


   Root No.      25        26        27        28        29        30        31        32

                25 A      26 A      27 A      28 A      29 A      30 A      31 A      32 A   

                1342.8    1368.1    1383.3    1395.0    1409.9    1417.5    1437.6    1878.9
  
           1    0.0351    0.0286    0.0138   -0.0329   -0.0000   -0.0322    0.0008    0.0045
           2   -0.0178   -0.0215    0.0015    0.0188   -0.0237   -0.0219    0.0287    0.0005
           3   -0.0055    0.0003    0.0014    0.0032    0.0010    0.0004   -0.0078   -0.0021
           4   -0.0351   -0.0286    0.0139    0.0328   -0.0007    0.0322    0.0007   -0.0045
           5   -0.0042   -0.0110    0.0004    0.0069    0.0129   -0.0112   -0.0212    0.0021
           6    0.0181    0.0184    0.0020   -0.0180   -0.0201    0.0184    0.0207    0.0006
           7   -0.0062    0.0126   -0.0134    0.0242   -0.0173    0.0014   -0.0186   -0.0235
           8   -0.0226    0.0456    0.0217   -0.0243    0.0059    0.0172   -0.0533   -0.0147
           9    0.0090   -0.0331    0.0029   -0.0093    0.0130   -0.0045    0.0363    0.0225
          10    0.0062   -0.0125   -0.0135   -0.0243   -0.0171   -0.0018   -0.0186    0.0235
          11   -0.0192    0.0516   -0.0084   -0.0042    0.0081    0.0130    0.0582   -0.0269
          12    0.0150   -0.0227    0.0202    0.0257    0.0117   -0.0124   -0.0275    0.0013
          13   -0.0034    0.0052   -0.0009    0.0025    0.0087    0.0017    0.0233    0.2126
          14    0.0103   -0.0206   -0.0075    0.0013    0.0075   -0.0044    0.0355   -0.0244
          15   -0.0033    0.0078    0.0045   -0.0012   -0.0100    0.0008   -0.0342   -0.1173
          16    0.0034   -0.0052   -0.0009   -0.0024    0.0087   -0.0015    0.0232   -0.2125
          17    0.0081   -0.0171    0.0077    0.0017   -0.0124   -0.0034   -0.0475    0.0890
          18   -0.0072    0.0138   -0.0042   -0.0005    0.0014    0.0034    0.0132    0.0803
          19   -0.0225   -0.0526   -0.0613    0.0592    0.0311    0.0893   -0.0211   -0.0027
          20    0.0869    0.0154   -0.0577   -0.0270    0.0848    0.0943   -0.0551   -0.0003
          21   -0.0397    0.0101    0.0606   -0.0065   -0.0684   -0.1057    0.0467    0.0013
          22   -0.0170   -0.0071   -0.0627    0.0316    0.0138    0.0994   -0.0124   -0.0090
          23    0.1093   -0.0192   -0.0622   -0.0254    0.0931    0.0889   -0.0219    0.0137
          24    0.0450   -0.0124   -0.0625    0.0025    0.0699    0.1115   -0.0378    0.0007
          25    0.0169    0.0070   -0.0630   -0.0311    0.0155   -0.0990   -0.0120    0.0090
          26    0.0163    0.0010   -0.0227   -0.0147    0.0142   -0.0512   -0.0214    0.0063
          27   -0.1172    0.0228   -0.0853    0.0221    0.1175   -0.1305   -0.0373   -0.0122
          28    0.0223    0.0526   -0.0615   -0.0585    0.0329   -0.0886   -0.0209    0.0027
          29    0.0782   -0.0009    0.0815   -0.0094   -0.1038    0.1367    0.0675   -0.0013
          30   -0.0550   -0.0184   -0.0192    0.0270    0.0390   -0.0273   -0.0239   -0.0003
          31   -0.0158   -0.0286    0.0160   -0.0167    0.0085    0.0041    0.0034   -0.0198
          32    0.1050   -0.0121   -0.0705    0.0645   -0.0406   -0.0521    0.0563   -0.0236
          33    0.0296    0.1218   -0.0886    0.1227   -0.0738   -0.0084   -0.0552    0.0230
          34   -0.0545   -0.1009    0.1120   -0.1448    0.0821    0.0169    0.0331   -0.0019
          35    0.0483   -0.0567   -0.0332    0.0345   -0.0139   -0.0276    0.0613   -0.0101
          36   -0.0133    0.0306    0.0068   -0.0077    0.0051    0.0121   -0.0222    0.0126
          37    0.0157    0.0284    0.0160    0.0165    0.0084   -0.0039    0.0034    0.0198
          38    0.0276   -0.1112   -0.0413   -0.0734   -0.0425   -0.0201   -0.0762   -0.0318
          39   -0.1055   -0.0508   -0.1060   -0.1178   -0.0725    0.0479    0.0203    0.0088
          40    0.0544    0.1005    0.1126    0.1449    0.0815   -0.0152    0.0334    0.0019
          41    0.0358   -0.0551    0.0225    0.0240    0.0115   -0.0243   -0.0500   -0.0159
          42   -0.0350    0.0335   -0.0254   -0.0260   -0.0096    0.0177    0.0416    0.0023
          43    0.0076   -0.0300    0.0025    0.0216   -0.0307   -0.0065   -0.0678    0.0186
          44    0.0147   -0.0333   -0.0061    0.0061   -0.0042   -0.0071    0.0069   -0.1252
          45   -0.0143    0.0386    0.0037   -0.0173    0.0222    0.0087    0.0352    0.0628
          46   -0.0076    0.0299    0.0024   -0.0218   -0.0306    0.0056   -0.0678   -0.0188
          47    0.0198   -0.0502    0.0062    0.0182    0.0214   -0.0106    0.0270   -0.1175
          48   -0.0054    0.0091   -0.0033    0.0035    0.0076    0.0020    0.0238    0.0761


   Root No.      33        34        35        36        37        38        39        40

                33 A      34 A      35 A      36 A      37 A      38 A      39 A      40 A   

                2944.6    2945.0    2960.9    2968.3    3026.0    3026.0    3040.2    3045.7
  
           1    0.0004    0.0003    0.0007   -0.0001    0.0016    0.0020    0.0096   -0.0100
           2    0.0007    0.0003    0.0012   -0.0004    0.0024    0.0035    0.0135   -0.0149
           3    0.0086    0.0059    0.0227   -0.0241    0.0002    0.0007   -0.0009    0.0029
           4   -0.0003    0.0003   -0.0007   -0.0001    0.0024   -0.0006    0.0096    0.0101
           5   -0.0065    0.0057   -0.0186   -0.0210   -0.0015    0.0003   -0.0076   -0.0101
           6   -0.0046    0.0038   -0.0122   -0.0127    0.0037   -0.0015    0.0112    0.0114
           7   -0.0144   -0.0139    0.0054   -0.0043   -0.0093   -0.0191    0.0027   -0.0025
           8   -0.0067   -0.0064    0.0022   -0.0015    0.0033    0.0067   -0.0005    0.0004
           9   -0.0177   -0.0170    0.0059   -0.0045    0.0054    0.0110   -0.0012    0.0008
          10    0.0129   -0.0155   -0.0053   -0.0044   -0.0181    0.0099    0.0027    0.0027
          11    0.0106   -0.0127   -0.0039   -0.0032    0.0058   -0.0031   -0.0008   -0.0005
          12    0.0131   -0.0157   -0.0048   -0.0037    0.0108   -0.0059   -0.0010   -0.0008
          13    0.0003    0.0001   -0.0001    0.0000    0.0011    0.0018   -0.0016    0.0011
          14   -0.0001   -0.0002    0.0001   -0.0002   -0.0023   -0.0036    0.0031   -0.0018
          15   -0.0000   -0.0001   -0.0000   -0.0000    0.0006    0.0009   -0.0008    0.0003
          16   -0.0003    0.0002    0.0001    0.0000    0.0019   -0.0008   -0.0016   -0.0006
          17   -0.0000    0.0001    0.0001    0.0001    0.0028   -0.0011   -0.0022   -0.0005
          18    0.0001   -0.0003   -0.0001   -0.0001   -0.0028    0.0011    0.0023    0.0007
          19   -0.0268   -0.0184   -0.0631    0.0664   -0.0102   -0.0154   -0.0538    0.0537
          20   -0.0367   -0.0235   -0.0962    0.0947   -0.0142   -0.0218   -0.0790    0.0786
          21   -0.0615   -0.0407   -0.1518    0.1491   -0.0261   -0.0403   -0.1472    0.1496
          22    0.0190    0.0145    0.0556   -0.0634   -0.0086   -0.0134   -0.0587    0.0728
          23    0.0267    0.0201    0.0795   -0.0915   -0.0116   -0.0155   -0.0868    0.1019
          24   -0.0415   -0.0315   -0.1208    0.1392    0.0232    0.0325    0.1577   -0.1835
          25   -0.0173    0.0166   -0.0545   -0.0644   -0.0144    0.0057   -0.0590   -0.0731
          26    0.0447   -0.0426    0.1415    0.1689    0.0410   -0.0135    0.1807    0.2106
          27   -0.0019    0.0017   -0.0076   -0.0089    0.0030   -0.0014    0.0047    0.0046
          28    0.0245   -0.0213    0.0620    0.0676   -0.0168    0.0064   -0.0539   -0.0538
          29    0.0318   -0.0271    0.0812    0.0826   -0.0257    0.0101   -0.0874   -0.0897
          30    0.0577   -0.0476    0.1570    0.1602   -0.0425    0.0165   -0.1429   -0.1437
          31    0.1564    0.1521   -0.0630    0.0476    0.1278    0.2640   -0.0391    0.0342
          32   -0.0007   -0.0008    0.0008   -0.0005    0.0041    0.0084    0.0006   -0.0006
          33    0.0304    0.0296   -0.0124    0.0092    0.0357    0.0736   -0.0108    0.0094
          34    0.0150    0.0142   -0.0037    0.0022   -0.0169   -0.0349    0.0047   -0.0036
          35    0.0814    0.0778   -0.0272    0.0217   -0.0440   -0.0903    0.0109   -0.0086
          36    0.1844    0.1761   -0.0572    0.0439   -0.1003   -0.2060    0.0243   -0.0186
          37   -0.1393    0.1695    0.0621    0.0486    0.2508   -0.1376   -0.0393   -0.0361
          38   -0.0236    0.0287    0.0109    0.0083    0.0561   -0.0307   -0.0097   -0.0087
          39   -0.0130    0.0158    0.0054    0.0043    0.0420   -0.0230   -0.0049   -0.0045
          40   -0.0136    0.0161    0.0037    0.0023   -0.0334    0.0183    0.0048    0.0038
          41   -0.1053    0.1257    0.0349    0.0273   -0.1258    0.0687    0.0155    0.0125
          42   -0.1458    0.1742    0.0514    0.0415   -0.1734    0.0946    0.0217    0.0179
          43   -0.0020   -0.0021    0.0003   -0.0005   -0.0127   -0.0223    0.0192   -0.0117
          44    0.0026    0.0023    0.0001    0.0001    0.0243    0.0407   -0.0380    0.0226
          45   -0.0008   -0.0012   -0.0001   -0.0001   -0.0057   -0.0089    0.0096   -0.0055
          46    0.0018   -0.0024   -0.0003   -0.0005   -0.0226    0.0104    0.0192    0.0058
          47    0.0017   -0.0024    0.0001   -0.0002   -0.0295    0.0124    0.0273    0.0077
          48   -0.0017    0.0016   -0.0000    0.0000    0.0315   -0.0138   -0.0278   -0.0081


   Root No.      41        42

                41 A      42 A   

                3046.1    3066.2
  
           1    0.0020    0.0007
           2    0.0029    0.0012
           3   -0.0005   -0.0006
           4    0.0014   -0.0007
           5   -0.0013    0.0011
           6    0.0016   -0.0007
           7    0.0034    0.0033
           8   -0.0010   -0.0009
           9   -0.0014   -0.0015
          10    0.0032   -0.0033
          11   -0.0007    0.0008
          12   -0.0016    0.0015
          13    0.0120    0.0182
          14   -0.0234   -0.0278
          15    0.0058    0.0045
          16    0.0119   -0.0183
          17    0.0168   -0.0181
          18   -0.0171    0.0218
          19   -0.0102   -0.0026
          20   -0.0152   -0.0038
          21   -0.0285   -0.0076
          22   -0.0124   -0.0052
          23   -0.0184   -0.0074
          24    0.0332    0.0130
          25   -0.0084    0.0052
          26    0.0262   -0.0150
          27    0.0006   -0.0002
          28   -0.0072    0.0026
          29   -0.0119    0.0047
          30   -0.0195    0.0071
          31   -0.0489   -0.0407
          32   -0.0026   -0.0027
          33   -0.0120   -0.0095
          34    0.0056    0.0047
          35    0.0128    0.0104
          36    0.0320    0.0262
          37   -0.0464    0.0409
          38   -0.0083    0.0069
          39   -0.0080    0.0071
          40    0.0054   -0.0047
          41    0.0202   -0.0174
          42    0.0259   -0.0222
          43   -0.1407   -0.1630
          44    0.2797    0.3166
          45   -0.0711   -0.0782
          46   -0.1405    0.1644
          47   -0.2021    0.2291
          48    0.2046   -0.2350


           MASS-WEIGHTED COORDINATE ANALYSIS (NORMAL COORDINATES)


   Root No.       1         2         3         4         5         6         7         8

                 1 A       2 A       3 A       4 A       5 A       6 A       7 A       8 A   

                 133.3     253.0     364.3     486.3     504.6     681.0     757.2     817.4
  
           1   -0.0875    0.0016    0.0006    0.3145   -0.0360    0.0589    0.0029   -0.0767
           2    0.0319    0.0669    0.0470    0.2852    0.2918   -0.0299    0.0986    0.0355
           3   -0.1744    0.4015    0.0210   -0.1590   -0.0481   -0.0795    0.1310   -0.1740
           4   -0.0876   -0.0030   -0.0013    0.3148    0.0337    0.0587    0.0023    0.0773
           5   -0.1648   -0.3136    0.0065   -0.2811    0.1911   -0.0526    0.0617    0.1675
           6   -0.0588   -0.2618   -0.0514    0.1631   -0.2287   -0.0650    0.1508    0.0590
           7    0.1986   -0.0888   -0.1459   -0.1012   -0.3759    0.0460   -0.1092   -0.2180
           8    0.1342    0.0306   -0.0026    0.1602    0.1199    0.0328   -0.0652   -0.0679
           9    0.2829   -0.1494   -0.0458   -0.0645    0.2198   -0.1989    0.0363   -0.1858
          10    0.1984    0.0907    0.1458   -0.0979    0.3766    0.0449   -0.1116    0.2163
          11    0.1752    0.1457    0.0383   -0.1371   -0.1283   -0.1882    0.0641    0.1259
          12    0.2586    0.0507    0.0249    0.1041   -0.2154   -0.0718   -0.0383    0.1520
          13   -0.1367   -0.0705    0.2176   -0.2065   -0.0740   -0.2185    0.0318    0.0156
          14   -0.0852   -0.0175    0.1499    0.2020   -0.3283    0.2674   -0.3083   -0.0629
          15   -0.1688   -0.1535    0.3794   -0.0413    0.0615   -0.0820   -0.1194    0.0787
          16   -0.1375    0.0696   -0.2164   -0.2062    0.0750   -0.2201    0.0305   -0.0152
          17   -0.1035    0.1228   -0.2501   -0.1394   -0.2184   -0.2069    0.0527   -0.0986
          18   -0.1603    0.0917   -0.3213    0.1550    0.2509    0.1871   -0.3287    0.0117
          19   -0.0364   -0.1402   -0.0037    0.1948   -0.0287   -0.0542    0.1361   -0.0630
          20    0.1216   -0.1257   -0.0098    0.1869    0.1435   -0.1553    0.1622   -0.2095
          21   -0.1148    0.2658    0.0219   -0.1610   -0.0436    0.1048   -0.1086    0.1101
          22   -0.0673    0.1088    0.0202   -0.0290    0.0551    0.0800   -0.1054    0.0842
          23   -0.0613    0.1766    0.0223   -0.0048    0.0022    0.1456   -0.1137    0.1767
          24   -0.1135    0.2657    0.0209   -0.1575   -0.0385    0.1060   -0.1033    0.1070
          25   -0.0665   -0.1086   -0.0200   -0.0295   -0.0548    0.0802   -0.1049   -0.0853
          26   -0.0661   -0.1402   -0.0063   -0.1338    0.0354    0.0183   -0.0320   -0.0039
          27   -0.1079   -0.2863   -0.0294   -0.0842    0.0181    0.1792   -0.1496   -0.2070
          28   -0.0375    0.1389    0.0033    0.1955    0.0272   -0.0546    0.1360    0.0650
          29   -0.1583   -0.2926   -0.0231   -0.2330    0.1117    0.1689   -0.1749   -0.2020
          30    0.0471   -0.0258   -0.0028    0.0790   -0.1023   -0.0807    0.0845    0.1257
          31    0.0134   -0.0117    0.0074   -0.0162   -0.1075   -0.0354   -0.0497   -0.1241
          32    0.1143   -0.0544   -0.0336   -0.0748    0.0160    0.0430   -0.0172    0.1592
          33    0.2873   -0.1125   -0.2553   -0.0858    0.0521    0.1953    0.0944    0.2519
          34    0.2818   -0.1141   -0.2887   -0.1429   -0.1381    0.2766    0.0517    0.2933
          35    0.0204    0.0961   -0.0498    0.0545    0.0670    0.0074    0.0792   -0.0996
          36    0.0709   -0.0742    0.0265   -0.0158    0.0510   -0.0728   -0.0376   -0.0401
          37    0.0136    0.0119   -0.0070   -0.0156    0.1075   -0.0356   -0.0508    0.1229
          38    0.1900    0.0714    0.2025   -0.0357   -0.0361    0.1477    0.0918   -0.1359
          39    0.2434    0.1060    0.1575   -0.1073   -0.0389    0.1360    0.0353   -0.2636
          40    0.2816    0.1169    0.2878   -0.1405    0.1399    0.2770    0.0542   -0.2922
          41    0.0500    0.1131   -0.0481   -0.0408   -0.0103   -0.0678   -0.0726   -0.0158
          42    0.0535   -0.0454    0.0292    0.0383   -0.0837   -0.0299    0.0488    0.1065
          43   -0.1008   -0.0428    0.1659   -0.0385    0.0047    0.1298    0.2298    0.1397
          44   -0.0812   -0.0263    0.1313    0.0554   -0.1079    0.2358    0.1313    0.0868
          45   -0.1479   -0.0869    0.2477   -0.0646   -0.0941    0.2183    0.3989    0.1690
          46   -0.1017    0.0423   -0.1663   -0.0388   -0.0037    0.1303    0.2323   -0.1381
          47   -0.0873    0.0612   -0.1474   -0.0838    0.0279    0.0688    0.2790   -0.0994
          48   -0.1464    0.0660   -0.2398    0.0157    0.1418    0.3143    0.3181   -0.1582


   Root No.       9        10        11        12        13        14        15        16

                 9 A      10 A      11 A      12 A      13 A      14 A      15 A      16 A   

                 932.8     935.9     946.5     966.2     971.1    1008.5    1054.9    1055.3
  
           1    0.0033    0.1666   -0.1582    0.2125   -0.0455    0.0861    0.0155    0.0961
           2    0.0444    0.2041   -0.1676    0.1947    0.2479   -0.0313    0.0267    0.0772
           3    0.1502   -0.2701    0.2741   -0.0053   -0.0816    0.0420    0.0112    0.1102
           4    0.0076   -0.1662   -0.1584   -0.2111   -0.0497   -0.0863    0.0003   -0.0974
           5    0.0962    0.3382    0.3222    0.1063   -0.1941   -0.0521   -0.0126   -0.0543
           6    0.1144   -0.0359   -0.0064   -0.1694    0.1691    0.0060    0.0094   -0.1254
           7   -0.1856    0.2187    0.3064    0.1291    0.2458   -0.2468   -0.0017   -0.0387
           8   -0.1311   -0.1138   -0.0817   -0.1308   -0.1042   -0.0784    0.0180   -0.0749
           9   -0.2314    0.0307   -0.0671   -0.0187   -0.0973    0.1346    0.0862   -0.2040
          10   -0.1800   -0.2246    0.3062   -0.1340    0.2428    0.2469    0.0044    0.0387
          11   -0.1312   -0.0878   -0.0166   -0.0486   -0.0323   -0.1562    0.0855    0.1261
          12   -0.2329    0.0757   -0.1039    0.1263   -0.1369   -0.0008    0.0837    0.1562
          13    0.1282    0.0654   -0.1425   -0.1158   -0.0827   -0.0482   -0.0490    0.1813
          14    0.0524   -0.0446    0.2488   -0.1418   -0.1568    0.3799   -0.0226    0.0588
          15    0.1704    0.1378   -0.0872   -0.1585    0.1197   -0.0704   -0.1040    0.3159
          16    0.1316   -0.0608   -0.1426    0.1169   -0.0801    0.0483   -0.0762   -0.1716
          17    0.1260   -0.1363   -0.2012    0.0604    0.1838    0.2529   -0.1147   -0.2277
          18    0.1347   -0.0269    0.1711    0.2026   -0.0701   -0.2919   -0.1032   -0.1956
          19    0.2860   -0.0342    0.1077    0.0345   -0.0230    0.0264    0.2347    0.0902
          20   -0.0242   -0.1296    0.0880    0.1234   -0.0049   -0.0192   -0.1649    0.1150
          21   -0.0581    0.0754   -0.0803   -0.0364    0.0282    0.0164    0.0145   -0.0552
          22   -0.1794    0.2233   -0.2067    0.1486   -0.2413    0.1898   -0.1275   -0.0480
          23   -0.0135    0.1980   -0.2121   -0.0100    0.3241   -0.1370    0.1033   -0.0157
          24   -0.0551    0.0923   -0.0958   -0.0061    0.0397    0.0111    0.0073   -0.0301
          25   -0.1721   -0.2293   -0.2075   -0.1421   -0.2435   -0.1907   -0.1180    0.0665
          26   -0.0413    0.0184    0.0243    0.0033   -0.1291   -0.0790   -0.0423    0.0248
          27   -0.0323   -0.2178   -0.2326    0.0058    0.3003    0.1129    0.0964    0.0140
          28    0.2845    0.0437    0.1082   -0.0359   -0.0240   -0.0257    0.2174   -0.1250
          29   -0.0331   -0.1314   -0.1146    0.0932    0.0294   -0.0238    0.1110    0.0896
          30   -0.0531    0.0720    0.0359   -0.0877    0.0077    0.0080   -0.1443   -0.0498
          31   -0.1091    0.0844    0.1185    0.0262    0.0826   -0.1168    0.0269   -0.0559
          32    0.0805   -0.0931   -0.0860   -0.2952   -0.0721   -0.2263    0.2458   -0.2165
          33    0.2110   -0.0853   -0.1488    0.0530   -0.0967    0.2437   -0.1010    0.1639
          34    0.2695   -0.0365   -0.0019    0.0200    0.0294   -0.0622   -0.0597    0.1839
          35   -0.0724   -0.1783    0.0076    0.1212   -0.0108   -0.1770   -0.4192    0.3066
          36   -0.0734    0.0814   -0.0314   -0.0748   -0.0305    0.1093    0.2199   -0.2207
          37   -0.1066   -0.0876    0.1182   -0.0278    0.0818    0.1166    0.0349    0.0508
          38    0.1404    0.0306   -0.0849   -0.1938   -0.0512   -0.3248   -0.2474   -0.2147
          39    0.1738    0.1293   -0.1495    0.2295   -0.1063    0.0721    0.1756    0.0776
          40    0.2691    0.0447   -0.0023   -0.0215    0.0288    0.0623   -0.0869   -0.1721
          41   -0.0213   -0.1604   -0.0312    0.1257   -0.0176   -0.1836    0.4508    0.2798
          42   -0.1040    0.1090   -0.0087   -0.0654   -0.0266    0.0972   -0.2719   -0.1129
          43   -0.1039   -0.1703   -0.0356    0.1291   -0.2420   -0.1515    0.1161   -0.1028
          44   -0.1137   -0.1662    0.0853    0.1426   -0.1100    0.0427    0.0626   -0.1312
          45   -0.1758   -0.1726    0.0097    0.3688    0.2132   -0.0227   -0.0151   -0.1760
          46   -0.1104    0.1653   -0.0361   -0.1225   -0.2450    0.1511    0.1302    0.0834
          47   -0.0974    0.0607   -0.0354   -0.2490    0.2347    0.0411   -0.0314    0.0897
          48   -0.1965    0.2223    0.0779   -0.3070    0.0063   -0.0255    0.0765    0.1914


   Root No.      17        18        19        20        21        22        23        24

                17 A      18 A      19 A      20 A      21 A      22 A      23 A      24 A   

                1100.4    1103.7    1122.7    1139.5    1148.4    1176.9    1241.0    1312.2
  
           1   -0.0548    0.0590   -0.1611   -0.0313    0.2269   -0.0896    0.1419   -0.2509
           2    0.0817   -0.0601    0.1645   -0.1898    0.1690   -0.0040   -0.0688    0.2643
           3    0.1069    0.0369    0.0838   -0.1186    0.2525   -0.0333    0.0098   -0.0529
           4    0.0560    0.0570    0.1613   -0.0301   -0.2269    0.0894    0.1421   -0.2518
           5   -0.0497    0.0629    0.0110   -0.0058   -0.1324    0.0268    0.0431   -0.1794
           6   -0.1250   -0.0303   -0.1848   -0.2221   -0.2748    0.0206   -0.0543    0.2016
           7    0.0196   -0.0021    0.0098   -0.0027   -0.0080    0.0568   -0.0057    0.0681
           8   -0.1490    0.1183   -0.1177    0.1531   -0.0155   -0.0627   -0.2051   -0.0928
           9   -0.1778   -0.1218   -0.0329    0.1484   -0.0968   -0.0294    0.0586    0.0208
          10   -0.0196   -0.0017   -0.0097   -0.0029    0.0078   -0.0568   -0.0057    0.0683
          11    0.0746   -0.1661   -0.0314    0.0504    0.0759   -0.0064    0.1543    0.0650
          12    0.2190    0.0358    0.1187    0.2069    0.0637    0.0688   -0.1474   -0.0697
          13    0.0341   -0.0795   -0.0389   -0.0162    0.0024    0.0220   -0.1528   -0.1063
          14   -0.0039   -0.0709    0.0310   -0.0460   -0.0555    0.0084   -0.0770   -0.0803
          15    0.0317    0.0697   -0.0008    0.0400   -0.0183   -0.0114    0.1469    0.1143
          16   -0.0357   -0.0790    0.0387   -0.0163   -0.0024   -0.0219   -0.1525   -0.1062
          17   -0.0270    0.0964    0.0168    0.0578   -0.0121    0.0136    0.1660    0.1393
          18   -0.0132   -0.0258   -0.0264   -0.0197    0.0570   -0.0015    0.0080   -0.0113
          19   -0.2884    0.0049   -0.0682    0.3354    0.3812   -0.2889   -0.1560    0.2057
          20    0.3234    0.0477    0.1315   -0.3482    0.0288    0.1519    0.1291   -0.0528
          21   -0.0417   -0.0208   -0.0178   -0.0029   -0.0462    0.0044   -0.0049   -0.0453
          22    0.2520    0.1796   -0.4051   -0.1292   -0.0565   -0.1112   -0.2009    0.3382
          23   -0.2489   -0.1579    0.2382    0.0717   -0.0048    0.0648    0.1527   -0.0753
          24   -0.0260   -0.0135   -0.0170   -0.0119   -0.0155   -0.0053    0.0051    0.0610
          25   -0.2485    0.1834    0.4056   -0.1296    0.0554    0.1117   -0.2010    0.3384
          26   -0.1018    0.0697    0.1351   -0.0465    0.0106    0.0375   -0.0727    0.0907
          27    0.2253   -0.1472   -0.1976    0.0561    0.0122   -0.0535    0.1344   -0.0345
          28    0.2889   -0.0015    0.0683    0.3380   -0.3794    0.2886   -0.1558    0.2057
          29    0.1985   -0.0464    0.0817    0.1732    0.0554    0.0728   -0.0694   -0.0122
          30   -0.2577    0.0363   -0.1047   -0.3023   -0.0034   -0.1331    0.1090   -0.0687
          31    0.0129    0.0367   -0.0175    0.0182    0.0014   -0.0024    0.0346    0.0814
          32    0.2273    0.4838   -0.0918   -0.0017    0.1343   -0.2531    0.2225   -0.1043
          33   -0.0881   -0.2071    0.0551   -0.0364   -0.0216    0.0814   -0.1417   -0.2033
          34    0.1160    0.0827   -0.0085   -0.0604    0.0836   -0.0162    0.0695    0.2062
          35   -0.1505    0.0836   -0.2031    0.3602   -0.3249   -0.1379    0.1596    0.0024
          36   -0.0163   -0.0664    0.0713   -0.0926    0.1082    0.0454   -0.0893   -0.0384
          37   -0.0121    0.0368    0.0176    0.0181   -0.0014    0.0022    0.0345    0.0812
          38    0.1817   -0.4272   -0.0958   -0.0313    0.0865   -0.1977   -0.2350   -0.1230
          39   -0.1447    0.3160    0.0525   -0.0190   -0.1053    0.1772    0.1206   -0.1931
          40   -0.1141    0.0847    0.0085   -0.0601   -0.0841    0.0161    0.0694    0.2063
          41   -0.0632   -0.0973   -0.1647   -0.2600   -0.2588   -0.1081   -0.1580   -0.0347
          42    0.1384    0.0350    0.1397    0.2627    0.2272    0.0954    0.0927   -0.0174
          43   -0.1077   -0.2222   -0.2709    0.0064    0.1757    0.3977    0.3099    0.1675
          44   -0.0543   -0.0777   -0.0746   -0.0037    0.0426    0.1260    0.0852    0.0364
          45    0.0407    0.1706    0.2033    0.0194   -0.1242   -0.3055   -0.2483   -0.1272
          46    0.1029   -0.2254    0.2699    0.0065   -0.1755   -0.3973    0.3092    0.1675
          47   -0.0590    0.1892   -0.2129    0.0186    0.1290    0.3276   -0.2572   -0.1283
          48    0.0264    0.0191   -0.0386    0.0065    0.0261    0.0460   -0.0521   -0.0329


   Root No.      25        26        27        28        29        30        31        32

                25 A      26 A      27 A      28 A      29 A      30 A      31 A      32 A   

                1342.8    1368.1    1383.3    1395.0    1409.9    1417.5    1437.6    1878.9
  
           1    0.3242    0.2223    0.1364   -0.2821   -0.0001   -0.2718    0.0056    0.0127
           2   -0.1641   -0.1671    0.0153    0.1614   -0.2403   -0.1851    0.1985    0.0015
           3   -0.0504    0.0020    0.0138    0.0271    0.0098    0.0032   -0.0538   -0.0058
           4   -0.3239   -0.2224    0.1378    0.2813   -0.0074    0.2715    0.0050   -0.0127
           5   -0.0392   -0.0860    0.0044    0.0591    0.1311   -0.0944   -0.1462    0.0058
           6    0.1670    0.1430    0.0200   -0.1546   -0.2039    0.1549    0.1432    0.0016
           7   -0.0575    0.0981   -0.1333    0.2078   -0.1753    0.0121   -0.1287   -0.0663
           8   -0.2091    0.3553    0.2149   -0.2085    0.0597    0.1454   -0.3686   -0.0414
           9    0.0835   -0.2575    0.0289   -0.0801    0.1316   -0.0384    0.2510    0.0636
          10    0.0574   -0.0976   -0.1343   -0.2081   -0.1735   -0.0155   -0.1286    0.0662
          11   -0.1777    0.4019   -0.0831   -0.0358    0.0821    0.1097    0.4027   -0.0759
          12    0.1382   -0.1766    0.2007    0.2207    0.1183   -0.1048   -0.1904    0.0037
          13   -0.0316    0.0403   -0.0086    0.0213    0.0877    0.0146    0.1609    0.6004
          14    0.0955   -0.1602   -0.0748    0.0114    0.0757   -0.0370    0.2452   -0.0689
          15   -0.0307    0.0604    0.0443   -0.0106   -0.1010    0.0071   -0.2366   -0.3313
          16    0.0317   -0.0403   -0.0087   -0.0209    0.0880   -0.0124    0.1604   -0.6003
          17    0.0746   -0.1333    0.0759    0.0142   -0.1252   -0.0284   -0.3283    0.2514
          18   -0.0669    0.1076   -0.0419   -0.0043    0.0137    0.0290    0.0916    0.2268
          19   -0.0601   -0.1186   -0.1761    0.1472    0.0912    0.2184   -0.0423   -0.0022
          20    0.2325    0.0348   -0.1658   -0.0671    0.2489    0.2304   -0.1104   -0.0003
          21   -0.1061    0.0228    0.1741   -0.0161   -0.2007   -0.2584    0.0936    0.0010
          22   -0.0455   -0.0159   -0.1802    0.0786    0.0404    0.2430   -0.0249   -0.0073
          23    0.2924   -0.0433   -0.1787   -0.0632    0.2732    0.2172   -0.0438    0.0112
          24    0.1203   -0.0280   -0.1796    0.0062    0.2050    0.2726   -0.0756    0.0006
          25    0.0451    0.0158   -0.1808   -0.0773    0.0454   -0.2421   -0.0241    0.0073
          26    0.0435    0.0023   -0.0652   -0.0366    0.0418   -0.1251   -0.0428    0.0051
          27   -0.3134    0.0515   -0.2450    0.0549    0.3447   -0.3189   -0.0746   -0.0100
          28    0.0597    0.1185   -0.1766   -0.1455    0.0964   -0.2165   -0.0418    0.0022
          29    0.2092   -0.0021    0.2342   -0.0232   -0.3046    0.3341    0.1353   -0.0010
          30   -0.1472   -0.0416   -0.0552    0.0671    0.1143   -0.0668   -0.0478   -0.0003
          31   -0.0423   -0.0644    0.0459   -0.0414    0.0250    0.0101    0.0069   -0.0162
          32    0.2809   -0.0274   -0.2025    0.1604   -0.1192   -0.1274    0.1127   -0.0193
          33    0.0791    0.2748   -0.2546    0.3051   -0.2165   -0.0206   -0.1106    0.0188
          34   -0.1457   -0.2276    0.3216   -0.3599    0.2408    0.0413    0.0663   -0.0016
          35    0.1292   -0.1280   -0.0954    0.0858   -0.0407   -0.0675    0.1229   -0.0082
          36   -0.0356    0.0690    0.0194   -0.0191    0.0149    0.0295   -0.0445    0.0103
          37    0.0421    0.0640    0.0458    0.0410    0.0247   -0.0096    0.0069    0.0162
          38    0.0737   -0.2508   -0.1187   -0.1826   -0.1247   -0.0492   -0.1526   -0.0260
          39   -0.2821   -0.1145   -0.3045   -0.2929   -0.2126    0.1171    0.0407    0.0072
          40    0.1455    0.2266    0.3234    0.3603    0.2392   -0.0371    0.0668    0.0015
          41    0.0959   -0.1244    0.0648    0.0597    0.0338   -0.0593   -0.1002   -0.0130
          42   -0.0935    0.0755   -0.0729   -0.0648   -0.0282    0.0433    0.0833    0.0019
          43    0.0204   -0.0677    0.0071    0.0538   -0.0900   -0.0159   -0.1357    0.0152
          44    0.0392   -0.0751   -0.0174    0.0153   -0.0122   -0.0174    0.0139   -0.1025
          45   -0.0383    0.0872    0.0106   -0.0431    0.0652    0.0212    0.0705    0.0513
          46   -0.0204    0.0674    0.0070   -0.0542   -0.0898    0.0137   -0.1358   -0.0153
          47    0.0530   -0.1132    0.0179    0.0452    0.0627   -0.0258    0.0541   -0.0961
          48   -0.0144    0.0206   -0.0096    0.0087    0.0223    0.0049    0.0478    0.0623


   Root No.      33        34        35        36        37        38        39        40

                33 A      34 A      35 A      36 A      37 A      38 A      39 A      40 A   

                2944.6    2945.0    2960.9    2968.3    3026.0    3026.0    3040.2    3045.7
  
           1    0.0034    0.0024    0.0066   -0.0007    0.0140    0.0165    0.0859   -0.0830
           2    0.0064    0.0030    0.0105   -0.0031    0.0208    0.0291    0.1205   -0.1228
           3    0.0769    0.0504    0.2034   -0.2068    0.0014    0.0057   -0.0079    0.0239
           4   -0.0031    0.0028   -0.0066   -0.0008    0.0210   -0.0053    0.0861    0.0832
           5   -0.0578    0.0485   -0.1671   -0.1801   -0.0132    0.0026   -0.0680   -0.0830
           6   -0.0408    0.0326   -0.1098   -0.1092    0.0315   -0.0120    0.1003    0.0942
           7   -0.1292   -0.1188    0.0484   -0.0371   -0.0796   -0.1565    0.0244   -0.0210
           8   -0.0598   -0.0549    0.0197   -0.0132    0.0280    0.0550   -0.0043    0.0032
           9   -0.1588   -0.1454    0.0525   -0.0387    0.0461    0.0899   -0.0104    0.0069
          10    0.1154   -0.1327   -0.0476   -0.0379   -0.1555    0.0812    0.0245    0.0221
          11    0.0953   -0.1089   -0.0346   -0.0271    0.0500   -0.0258   -0.0069   -0.0045
          12    0.1175   -0.1347   -0.0428   -0.0315    0.0927   -0.0483   -0.0090   -0.0068
          13    0.0028    0.0011   -0.0006    0.0001    0.0093    0.0145   -0.0146    0.0093
          14   -0.0010   -0.0020    0.0010   -0.0014   -0.0196   -0.0298    0.0279   -0.0148
          15   -0.0003   -0.0007   -0.0002   -0.0001    0.0052    0.0078   -0.0068    0.0028
          16   -0.0026    0.0015    0.0006    0.0001    0.0159   -0.0063   -0.0145   -0.0052
          17   -0.0002    0.0005    0.0007    0.0006    0.0242   -0.0092   -0.0199   -0.0041
          18    0.0008   -0.0022   -0.0007   -0.0013   -0.0241    0.0093    0.0205    0.0054
          19   -0.0694   -0.0457   -0.1641    0.1649   -0.0252   -0.0365   -0.1392    0.1286
          20   -0.0951   -0.0583   -0.2499    0.2354   -0.0353   -0.0519   -0.2044    0.1881
          21   -0.1594   -0.1011   -0.3944    0.3704   -0.0648   -0.0959   -0.3808    0.3580
          22    0.0494    0.0361    0.1445   -0.1575   -0.0214   -0.0318   -0.1518    0.1741
          23    0.0693    0.0500    0.2066   -0.2273   -0.0288   -0.0369   -0.2245    0.2437
          24   -0.1076   -0.0781   -0.3138    0.3458    0.0576    0.0772    0.4079   -0.4390
          25   -0.0448    0.0411   -0.1416   -0.1600   -0.0359    0.0135   -0.1526   -0.1748
          26    0.1160   -0.1057    0.3676    0.4198    0.1018   -0.0321    0.4674    0.5039
          27   -0.0050    0.0043   -0.0196   -0.0221    0.0076   -0.0033    0.0120    0.0111
          28    0.0636   -0.0530    0.1611    0.1679   -0.0417    0.0151   -0.1395   -0.1288
          29    0.0824   -0.0673    0.2111    0.2052   -0.0639    0.0240   -0.2262   -0.2147
          30    0.1498   -0.1183    0.4080    0.3981   -0.1056    0.0393   -0.3695   -0.3439
          31    0.4057    0.3777   -0.1638    0.1182    0.3175    0.6274   -0.1013    0.0819
          32   -0.0019   -0.0019    0.0022   -0.0012    0.0102    0.0199    0.0017   -0.0015
          33    0.0790    0.0735   -0.0322    0.0228    0.0886    0.1749   -0.0280    0.0224
          34    0.0389    0.0353   -0.0095    0.0056   -0.0419   -0.0830    0.0122   -0.0085
          35    0.2113    0.1932   -0.0707    0.0538   -0.1093   -0.2147    0.0281   -0.0206
          36    0.4784    0.4374   -0.1485    0.1090   -0.2492   -0.4897    0.0627   -0.0445
          37   -0.3614    0.4210    0.1612    0.1207    0.6228   -0.3270   -0.1017   -0.0864
          38   -0.0612    0.0713    0.0283    0.0206    0.1392   -0.0730   -0.0250   -0.0208
          39   -0.0338    0.0393    0.0140    0.0106    0.1044   -0.0546   -0.0127   -0.0108
          40   -0.0353    0.0400    0.0096    0.0058   -0.0829    0.0436    0.0124    0.0091
          41   -0.2730    0.3122    0.0907    0.0680   -0.3124    0.1632    0.0401    0.0299
          42   -0.3783    0.4327    0.1336    0.1032   -0.4305    0.2248    0.0562    0.0427
          43   -0.0052   -0.0053    0.0008   -0.0012   -0.0315   -0.0531    0.0498   -0.0279
          44    0.0067    0.0056    0.0002    0.0003    0.0603    0.0967   -0.0983    0.0540
          45   -0.0020   -0.0030   -0.0001   -0.0004   -0.0142   -0.0211    0.0247   -0.0133
          46    0.0045   -0.0059   -0.0008   -0.0012   -0.0561    0.0248    0.0497    0.0138
          47    0.0044   -0.0060    0.0003   -0.0005   -0.0732    0.0295    0.0707    0.0185
          48   -0.0044    0.0039   -0.0001    0.0001    0.0782   -0.0327   -0.0719   -0.0193


   Root No.      41        42

                41 A      42 A   

                3046.1    3066.2
  
           1    0.0139    0.0047
           2    0.0205    0.0074
           3   -0.0034   -0.0038
           4    0.0099   -0.0047
           5   -0.0093    0.0071
           6    0.0115   -0.0044
           7    0.0245    0.0206
           8   -0.0074   -0.0058
           9   -0.0102   -0.0091
          10    0.0231   -0.0207
          11   -0.0048    0.0049
          12   -0.0112    0.0096
          13    0.0852    0.1145
          14   -0.1666   -0.1751
          15    0.0415    0.0284
          16    0.0849   -0.1153
          17    0.1196   -0.1138
          18   -0.1222    0.1375
          19   -0.0211   -0.0047
          20   -0.0314   -0.0069
          21   -0.0588   -0.0139
          22   -0.0257   -0.0095
          23   -0.0381   -0.0135
          24    0.0685    0.0238
          25   -0.0173    0.0095
          26    0.0542   -0.0274
          27    0.0012   -0.0004
          28   -0.0149    0.0047
          29   -0.0246    0.0085
          30   -0.0402    0.0130
          31   -0.1009   -0.0743
          32   -0.0055   -0.0048
          33   -0.0247   -0.0173
          34    0.0116    0.0085
          35    0.0265    0.0189
          36    0.0660    0.0478
          37   -0.0958    0.0745
          38   -0.0172    0.0125
          39   -0.0164    0.0129
          40    0.0112   -0.0085
          41    0.0416   -0.0317
          42    0.0535   -0.0404
          43   -0.2906   -0.2971
          44    0.5776    0.5772
          45   -0.1469   -0.1425
          46   -0.2902    0.2997
          47   -0.4174    0.4177
          48    0.4225   -0.4285


          DESCRIPTION OF VIBRATIONS


 VIBRATION          1    1A           ATOM PAIR      ENERGY CONTRIBUTION    RADIAL
 FREQUENCY           133.32         C  1 -- C  3         +11.9% (350.1%)      0.0%
 TRANSITION DIPOLE   0.0519         C  2 -- C  4         +11.8% (348.4%)      0.0%
 TRAVEL (Ang.)       0.9187         C  3 -- C  5         +11.0% (337.1%)      0.0%
 REDUCED MASS        0.5993         C  4 -- C  6         +11.0% (336.9%)      0.0%
 EFFECTIVE MASS    167.6560
 FORCE CONSTANT      0.0063

 VIBRATION          2    2A           ATOM PAIR      ENERGY CONTRIBUTION    RADIAL
 FREQUENCY           253.00         C  1 -- C  2         +21.0% (260.1%)      0.0%
 TRANSITION DIPOLE   0.0156         C  2 -- C  4         +12.1% (197.4%)      0.0%
 TRAVEL (Ang.)       0.5927         C  1 -- C  3         +12.0% (196.4%)      0.0%
 REDUCED MASS        0.7587         C  2 -- H  9         +10.7% (185.7%)     95.6%
 EFFECTIVE MASS     55.4811         C  1 -- H  8         +10.7% (185.4%)     95.1%
 FORCE CONSTANT      0.0286

 VIBRATION          3    3A           ATOM PAIR      ENERGY CONTRIBUTION    RADIAL
 FREQUENCY           364.33         C  5 -- C  6         +21.5% (125.8%)      0.0%
 TRANSITION DIPOLE   0.0022         C  3 -- C  5         +11.9% ( 93.6%)      0.0%
 TRAVEL (Ang.)       0.4009         C  4 -- C  6         +11.8% ( 93.3%)      0.0%
 REDUCED MASS        1.1516         C  3 -- H 12         +10.1% ( 85.9%)      4.6%
 EFFECTIVE MASS     17.1146
 FORCE CONSTANT      0.0901

 VIBRATION          4    4A           ATOM PAIR      ENERGY CONTRIBUTION    RADIAL
 FREQUENCY           486.32         C  1 -- C  2         +14.6% (134.8%)      0.0%
 TRANSITION DIPOLE   0.1293         C  1 -- H  7          +9.4% (108.1%)     34.3%
 TRAVEL (Ang.)       0.3334         C  2 -- H 10          +9.4% (108.0%)     33.5%
 REDUCED MASS        1.2470         C  1 -- C  3          +9.3% (107.2%)      0.5%
 EFFECTIVE MASS     19.3006
 FORCE CONSTANT      0.1738

 VIBRATION          5    5A           ATOM PAIR      ENERGY CONTRIBUTION    RADIAL
 FREQUENCY           504.59         C  3 -- C  5         +10.5% (113.4%)      0.1%
 TRANSITION DIPOLE   0.0137         C  4 -- C  6         +10.5% (113.4%)      0.1%
 TRAVEL (Ang.)       0.2960         C  2 -- C  4          +9.5% (107.7%)      0.7%
 REDUCED MASS        1.5256         C  1 -- C  3          +9.4% (107.3%)      0.7%
 EFFECTIVE MASS     20.6392
 FORCE CONSTANT      0.2289

 VIBRATION          6    6A           ATOM PAIR      ENERGY CONTRIBUTION    RADIAL
 FREQUENCY           681.05         C  5 -- C  6         +14.7% ( 80.6%)      0.0%
 TRANSITION DIPOLE   0.3522         C  3 -- C  5         +11.6% ( 71.6%)      2.8%
 TRAVEL (Ang.)       0.4539         C  4 -- C  6         +11.6% ( 71.6%)      2.8%
 REDUCED MASS        0.4806         C  6 -- H 16         +10.4% ( 67.6%)     28.5%
 EFFECTIVE MASS      7.7629         C  5 -- H 15         +10.3% ( 67.5%)     28.8%
 FORCE CONSTANT      0.1313

 VIBRATION          7    7A           ATOM PAIR      ENERGY CONTRIBUTION    RADIAL
 FREQUENCY           757.22         C  6 -- H 16         +17.0% ( 69.9%)      6.6%
[...]
 TRAVEL (Ang.)       0.3139         C  1 -- C  2          +9.8% ( 38.7%)      0.0%
 REDUCED MASS        0.5217         C  2 -- H 10          +9.5% ( 38.0%)      0.0%
 EFFECTIVE MASS      4.3377
 FORCE CONSTANT      0.5293

 VIBRATION         25   25A           ATOM PAIR      ENERGY CONTRIBUTION    RADIAL
 FREQUENCY          1342.81         C  1 -- C  2         +14.6% ( 48.2%)     87.0%
 TRANSITION DIPOLE   0.0481         C  1 -- H  8         +11.0% ( 41.8%)      0.4%
 TRAVEL (Ang.)       0.3005         C  2 -- H  9         +11.0% ( 41.8%)      0.4%
 REDUCED MASS        0.5561         C  1 -- H  7          +9.3% ( 38.4%)      0.2%
 EFFECTIVE MASS      4.8531
 FORCE CONSTANT      0.5908

 VIBRATION         26   26A           ATOM PAIR      ENERGY CONTRIBUTION    RADIAL
 FREQUENCY          1368.13         C  1 -- C  3         +10.3% ( 46.3%)     79.7%
 TRANSITION DIPOLE   0.0020         C  2 -- C  4         +10.3% ( 46.3%)     79.7%
 TRAVEL (Ang.)       0.2049         C  3 -- H 11         +10.0% ( 45.6%)      0.5%
 REDUCED MASS        1.1736         C  4 -- H 13         +10.0% ( 45.6%)      0.5%
 EFFECTIVE MASS      7.5619
 FORCE CONSTANT      1.2942

 VIBRATION         27   27A           ATOM PAIR      ENERGY CONTRIBUTION    RADIAL
 FREQUENCY          1383.27         C  4 -- H 14         +12.0% ( 35.5%)      3.2%
 TRANSITION DIPOLE   0.0470         C  3 -- H 12         +11.9% ( 35.3%)      3.2%
 TRAVEL (Ang.)       0.4983         C  4 -- H 13         +11.5% ( 34.8%)      4.4%
 REDUCED MASS        0.1963         C  3 -- H 11         +11.4% ( 34.6%)      4.4%
 EFFECTIVE MASS      2.7172
 FORCE CONSTANT      0.2213

 VIBRATION         28   28A           ATOM PAIR      ENERGY CONTRIBUTION    RADIAL
 FREQUENCY          1395.05         C  1 -- C  2         +10.7% ( 40.8%)     88.0%
 TRANSITION DIPOLE   0.0026         C  2 -- C  4         +10.4% ( 40.2%)     69.9%
 TRAVEL (Ang.)       0.2965         C  4 -- H 14         +10.3% ( 40.2%)      4.1%
 REDUCED MASS        0.5499         C  1 -- C  3         +10.3% ( 40.2%)     69.7%
 EFFECTIVE MASS      5.1604         C  3 -- H 12         +10.3% ( 40.1%)      4.1%
 FORCE CONSTANT      0.6305

 VIBRATION         29   29A           ATOM PAIR      ENERGY CONTRIBUTION    RADIAL
 FREQUENCY          1409.85         C  2 -- H  9         +10.1% ( 35.4%)      4.5%
 TRANSITION DIPOLE   0.0796         C  1 -- H  8          +9.8% ( 34.9%)      4.4%
 TRAVEL (Ang.)       0.4579         C  2 -- H 10          +9.7% ( 34.7%)      3.8%
 REDUCED MASS        0.2282         C  1 -- H  7          +9.4% ( 34.1%)      3.7%
 EFFECTIVE MASS      3.6493
 FORCE CONSTANT      0.2672

 VIBRATION         30   30A           ATOM PAIR      ENERGY CONTRIBUTION    RADIAL
 FREQUENCY          1417.53         C  1 -- H  8         +15.8% ( 44.2%)      5.5%
 TRANSITION DIPOLE   0.0455         C  2 -- H  9         +15.5% ( 43.8%)      5.5%
 TRAVEL (Ang.)       0.3408         C  1 -- H  7         +15.1% ( 43.3%)      5.4%
 REDUCED MASS        0.4096         C  2 -- H 10         +14.8% ( 42.8%)      5.4%
 EFFECTIVE MASS      3.6538         C  1 -- C  2         +13.5% ( 40.9%)     90.4%
 FORCE CONSTANT      0.4850

 VIBRATION         31   31A           ATOM PAIR      ENERGY CONTRIBUTION    RADIAL
 FREQUENCY          1437.64         C  3 -- C  5         +14.8% ( 58.5%)     95.9%
 TRANSITION DIPOLE   0.0617         C  4 -- C  6         +14.7% ( 58.4%)     96.0%
 TRAVEL (Ang.)       0.1689         C  1 -- C  3          +8.1% ( 43.3%)     53.8%
 REDUCED MASS        1.6437         C  2 -- C  4          +8.1% ( 43.2%)     53.6%
 EFFECTIVE MASS      9.6668
 FORCE CONSTANT      2.0016

 VIBRATION         32   32A           ATOM PAIR      ENERGY CONTRIBUTION    RADIAL
 FREQUENCY          1878.92         C  5 -- C  6         +44.4% ( 98.1%)    100.0%
 TRANSITION DIPOLE   0.1071         C  4 -- C  6         +14.2% ( 55.5%)     51.9%
 TRAVEL (Ang.)       0.0814         C  3 -- C  5         +14.2% ( 55.5%)     51.8%
 REDUCED MASS        5.4213         C  5 -- H 15         +13.1% ( 53.3%)      4.6%
 EFFECTIVE MASS     11.8665         C  6 -- H 16         +13.1% ( 53.3%)      4.6%
 FORCE CONSTANT     11.2764

 VIBRATION         33   33A           ATOM PAIR      ENERGY CONTRIBUTION    RADIAL
 FREQUENCY          2944.57         C  3 -- H 12         +29.1% ( 56.1%)     97.5%
 TRANSITION DIPOLE   0.0182         C  4 -- H 14         +23.2% ( 50.0%)     97.5%
 TRAVEL (Ang.)       0.3248         C  3 -- H 11         +18.8% ( 45.1%)     95.1%
 REDUCED MASS        0.2171         C  4 -- H 13         +14.9% ( 40.2%)     95.1%
 EFFECTIVE MASS      1.5482
 FORCE CONSTANT      1.1088

 VIBRATION         34   34A           ATOM PAIR      ENERGY CONTRIBUTION    RADIAL
 FREQUENCY          2944.97         C  4 -- H 14         +30.3% ( 57.2%)     97.4%
 TRANSITION DIPOLE   0.0163         C  3 -- H 12         +24.4% ( 51.3%)     97.4%
 TRAVEL (Ang.)       0.3101         C  4 -- H 13         +20.2% ( 46.7%)     95.2%
 REDUCED MASS        0.2381         C  3 -- H 11         +16.3% ( 41.9%)     95.2%
 EFFECTIVE MASS      1.5367
 FORCE CONSTANT      1.2166

 VIBRATION         35   35A           ATOM PAIR      ENERGY CONTRIBUTION    RADIAL
 FREQUENCY          2960.89         C  1 -- H  7         +26.1% ( 53.0%)     97.4%
 TRANSITION DIPOLE   0.0061         C  2 -- H 10         +25.2% ( 52.1%)     97.4%
 TRAVEL (Ang.)       0.3281         C  1 -- H  8         +17.8% ( 43.8%)     95.3%
 REDUCED MASS        0.2115         C  2 -- H  9         +17.1% ( 42.9%)     95.3%
 EFFECTIVE MASS      1.5385
 FORCE CONSTANT      1.0926

 VIBRATION         36   36A           ATOM PAIR      ENERGY CONTRIBUTION    RADIAL
 FREQUENCY          2968.29         C  2 -- H 10         +24.5% ( 51.3%)     96.9%
 TRANSITION DIPOLE   0.0105         C  1 -- H  7         +23.6% ( 50.3%)     96.9%
 TRAVEL (Ang.)       0.3155         C  2 -- H  9         +22.0% ( 48.6%)     96.3%
 REDUCED MASS        0.2282         C  1 -- H  8         +21.3% ( 47.8%)     96.3%
 EFFECTIVE MASS      1.5379
 FORCE CONSTANT      1.1846

 VIBRATION         37   37A           ATOM PAIR      ENERGY CONTRIBUTION    RADIAL
 FREQUENCY          3025.96         C  4 -- H 13         +43.7% ( 65.2%)     98.6%
 TRANSITION DIPOLE   0.0498         C  4 -- H 14         +29.6% ( 53.7%)     96.3%
 TRAVEL (Ang.)       0.2747         C  3 -- H 11         +11.4% ( 33.3%)     98.6%
 REDUCED MASS        0.2954         C  3 -- H 12          +7.7% ( 27.4%)     96.3%
 EFFECTIVE MASS      1.2885
 FORCE CONSTANT      1.5934

 VIBRATION         38   38A           ATOM PAIR      ENERGY CONTRIBUTION    RADIAL
 FREQUENCY          3026.04         C  3 -- H 11         +44.4% ( 65.7%)     98.6%
 TRANSITION DIPOLE   0.0402         C  3 -- H 12         +29.9% ( 53.9%)     96.3%
 TRAVEL (Ang.)       0.2704         C  4 -- H 13         +12.0% ( 34.2%)     98.6%
 REDUCED MASS        0.3047         C  4 -- H 14          +8.1% ( 28.0%)     96.3%
 EFFECTIVE MASS      1.2820
 FORCE CONSTANT      1.6437

 VIBRATION         39   39A           ATOM PAIR      ENERGY CONTRIBUTION    RADIAL
 FREQUENCY          3040.18         C  2 -- H  9         +25.2% ( 49.5%)     98.2%
 TRANSITION DIPOLE   0.0234         C  1 -- H  8         +25.0% ( 49.3%)     98.2%
 TRAVEL (Ang.)       0.3209         C  2 -- H 10         +21.3% ( 45.5%)     97.0%
 REDUCED MASS        0.2154         C  1 -- H  7         +21.2% ( 45.4%)     97.1%
 EFFECTIVE MASS      1.2765
 FORCE CONSTANT      1.1728

 VIBRATION         40   40A           ATOM PAIR      ENERGY CONTRIBUTION    RADIAL
 FREQUENCY          3045.73         C  2 -- H  9         +29.7% ( 53.7%)     98.7%
 TRANSITION DIPOLE   0.0441         C  1 -- H  8         +29.5% ( 53.5%)     98.7%
 TRAVEL (Ang.)       0.3036         C  2 -- H 10         +18.4% ( 42.3%)     96.0%
 REDUCED MASS        0.2402         C  1 -- H  7         +18.4% ( 42.2%)     96.0%
 EFFECTIVE MASS      1.2792
 FORCE CONSTANT      1.3126

 VIBRATION         41   41A           ATOM PAIR      ENERGY CONTRIBUTION    RADIAL
 FREQUENCY          3046.13         C  5 -- H 15         +46.7% ( 69.2%)    100.0%
 TRANSITION DIPOLE   0.2917         C  6 -- H 16         +46.4% ( 69.0%)    100.0%
 TRAVEL (Ang.)       0.2296         C  3 -- H 11          +1.1% ( 10.4%)     99.0%
 REDUCED MASS        0.4198         C  5 -- C  6          +1.0% ( 10.3%)      0.0%
 EFFECTIVE MASS      1.4469
 FORCE CONSTANT      2.2950

 VIBRATION         42   42A           ATOM PAIR      ENERGY CONTRIBUTION    RADIAL
 FREQUENCY          3066.18         C  6 -- H 16         +47.6% ( 69.9%)     99.9%
 TRANSITION DIPOLE   0.2574         C  5 -- H 15         +46.9% ( 69.5%)     99.9%
 TRAVEL (Ang.)       0.2217         C  5 -- C  6          +2.0% ( 14.3%)    100.0%
 REDUCED MASS        0.4473         C  4 -- C  6          +0.8% (  9.0%)     16.4%
 EFFECTIVE MASS      1.5843
 FORCE CONSTANT      2.4779

      SYMMETRY NUMBER FOR POINT-GROUP C1  =  1


          SYSTEM IS A GROUND STATE



 InChI=1S/C6H10/c1-2-4-6-5-3-1/h1-2H,3-6H2


          MOLECULE IS NOT LINEAR

          THERE ARE 42 GENUINE VIBRATIONS IN THIS SYSTEM
          THIS THERMODYNAMICS CALCULATION IS LIMITED TO
          MOLECULES WHICH HAVE NO INTERNAL ROTATIONS




                    CALCULATED THERMODYNAMIC PROPERTIES
                                          *
   TEMP. (K)   PARTITION FUNCTION   H.O.F.    ENTHALPY  HEAT CAPACITY ENTROPY
                                   KCAL/MOL   CAL/MOLE    CAL/K/MOL  CAL/K/MOL


 298.00  VIB.     0.5306D+01                  1737.2674    15.7569     9.1462
         ROT.     0.1150D+06                   888.2803     2.9808    26.1375
         INT.     0.6104D+06                  2625.5477    18.7377    35.2837
         TRA.     0.7198D+27                  1480.4672     4.9680    39.1295
         TOT.                       -4.955    4106.0148    23.7057    74.4132

 200.00  VIB.     0.2264D+01                   599.1127     7.8612     4.6194
         ROT.     0.6324D+05                   596.1613     2.9808    24.9489
         INT.     0.1432D+06                  1195.2740    10.8420    29.5683
         TRA.     0.3957D+27                   993.6021     4.9680    37.1484
         TOT.                       -6.872    2188.8761    15.8100    66.7166

 210.00  VIB.     0.2444D+01                   681.1112     8.5442     5.0193
         ROT.     0.6805D+05                   625.9693     2.9808    25.0943
         INT.     0.1663D+06                  1307.0805    11.5250    30.1136
         TRA.     0.4258D+27                  1043.2822     4.9680    37.3907
         TOT.                       -6.711    2350.3627    16.4930    67.5044

 220.00  VIB.     0.2645D+01                   770.1101     9.2611     5.4332
         ROT.     0.7296D+05                   655.7774     2.9808    25.2330
         INT.     0.1930D+06                  1425.8875    12.2419    30.6662
         TRA.     0.4566D+27                  1092.9623     4.9680    37.6219
         TOT.                       -6.542    2518.8498    17.2099    68.2881

 230.00  VIB.     0.2869D+01                   866.4414    10.0104     5.8613
         ROT.     0.7799D+05                   685.5855     2.9808    25.3655
         INT.     0.2237D+06                  1552.0268    12.9912    31.2268
         TRA.     0.4880D+27                  1142.6424     4.9680    37.8427
         TOT.                       -6.366    2694.6693    17.9592    69.0695

 240.00  VIB.     0.3119D+01                   970.4184    10.7899     6.3037
         ROT.     0.8314D+05                   715.3935     2.9808    25.4923
         INT.     0.2593D+06                  1685.8119    13.7707    31.7960
         TRA.     0.5202D+27                  1192.3226     4.9680    38.0541
         TOT.                       -6.183    2878.1345    18.7387    69.8502

 250.00  VIB.     0.3399D+01                  1082.3305    11.5969     6.7605
         ROT.     0.8839D+05                   745.2016     2.9808    25.6140
         INT.     0.3004D+06                  1827.5321    14.5777    32.3745
         TRA.     0.5531D+27                  1242.0027     4.9680    38.2569
         TOT.                       -5.991    3069.5348    19.5457    70.6314

 260.00  VIB.     0.3713D+01                  1202.4390    12.4286     7.2314
         ROT.     0.9374D+05                   775.0097     2.9808    25.7309
         INT.     0.3480D+06                  1977.4487    15.4094    32.9623
         TRA.     0.5866D+27                  1291.6828     4.9680    38.4518
         TOT.                       -5.792    3269.1314    20.3774    71.4141

 270.00  VIB.     0.4065D+01                  1330.9745    13.2818     7.7164
         ROT.     0.9920D+05                   804.8177     2.9808    25.8434
         INT.     0.4033D+06                  2135.7922    16.2626    33.5598
         TRA.     0.6208D+27                  1341.3629     4.9680    38.6393
         TOT.                       -5.584    3477.1551    21.2306    72.1991

 280.00  VIB.     0.4461D+01                  1468.1352    14.1531     8.2152
         ROT.     0.1048D+06                   834.6258     2.9808    25.9518
         INT.     0.4674D+06                  2302.7610    17.1339    34.1670
         TRA.     0.6556D+27                  1391.0430     4.9680    38.8200
         TOT.                       -5.367    3693.8040    22.1019    72.9869

 290.00  VIB.     0.4908D+01                  1614.0866    15.0394     8.7272
         ROT.     0.1104D+06                   864.4339     2.9808    26.0564
         INT.     0.5420D+06                  2478.5205    18.0202    34.7836
         TRA.     0.6910D+27                  1440.7231     4.9680    38.9943
         TOT.                       -5.142    3919.2436    22.9882    73.7779

 300.00  VIB.     0.5412D+01                  1768.9615    15.9373     9.2522
         ROT.     0.1162D+06                   894.2419     2.9808    26.1575
         INT.     0.6288D+06                  2663.2034    18.9181    35.4097
         TRA.     0.7270D+27                  1490.4032     4.9680    39.1627
         TOT.                       -4.907    4153.6066    23.8861    74.5724

 310.00  VIB.     0.5982D+01                  1932.8610    16.8438     9.7895
         ROT.     0.1220D+06                   924.0500     2.9808    26.2552
         INT.     0.7300D+06                  2856.9109    19.8246    36.0447
         TRA.     0.7637D+27                  1540.0833     4.9680    39.3256
         TOT.                       -4.664    4396.9942    24.7926    75.3704

 320.00  VIB.     0.6626D+01                  2105.8560    17.7559    10.3387
         ROT.     0.1280D+06                   953.8580     2.9808    26.3498
         INT.     0.8481D+06                  3059.7140    20.7367    36.6885
         TRA.     0.8009D+27                  1589.7634     4.9680    39.4834
         TOT.                       -4.411    4649.4774    25.7047    76.1719

 330.00  VIB.     0.7357D+01                  2287.9892    18.6710    10.8991
         ROT.     0.1340D+06                   983.6661     2.9808    26.4416
         INT.     0.9862D+06                  3271.6553    21.6518    37.3406
         TRA.     0.8388D+27                  1639.4435     4.9680    39.6362
         TOT.                       -4.150    4911.0988    26.6198    76.9769

 340.00  VIB.     0.8186D+01                  2479.2768    19.5864    11.4701
         ROT.     0.1402D+06                  1013.4742     2.9808    26.5306
         INT.     0.1148D+07                  3492.7510    22.5672    38.0006
         TRA.     0.8772D+27                  1689.1236     4.9680    39.7845
         TOT.                       -3.879    5181.8746    27.5352    77.7851

 350.00  VIB.     0.9129D+01                  2679.7113    20.5000    12.0510
         ROT.     0.1464D+06                  1043.2822     2.9808    26.6170
         INT.     0.1337D+07                  3722.9935    23.4808    38.6680
         TRA.     0.9162D+27                  1738.8037     4.9680    39.9285
         TOT.                       -3.599    5461.7972    28.4488    78.5965

 360.00  VIB.     0.1020D+02                  2889.2631    21.4096    12.6413
         ROT.     0.1527D+06                  1073.0903     2.9808    26.7009
         INT.     0.1558D+07                  3962.3534    24.3904    39.3422
         TRA.     0.9557D+27                  1788.4838     4.9680    40.0685
         TOT.                       -3.310    5750.8373    29.3584    79.4107

 370.00  VIB.     0.1143D+02                  3107.8837    22.3134    13.2402
         ROT.     0.1591D+06                  1102.8984     2.9808    26.7826
         INT.     0.1818D+07                  4210.7820    25.2942    40.0228
         TRA.     0.9958D+27                  1838.1639     4.9680    40.2046
         TOT.                       -3.012    6048.9460    30.2622    80.2274

 380.00  VIB.     0.1282D+02                  3335.5070    23.2099    13.8472
         ROT.     0.1656D+06                  1132.7064     2.9808    26.8621
         INT.     0.2124D+07                  4468.2134    26.1907    40.7093
         TRA.     0.1036D+28                  1887.8440     4.9680    40.3371
         TOT.                       -2.705    6356.0575    31.1587    81.0464

 390.00  VIB.     0.1442D+02                  3572.0524    24.0976    14.4616
         ROT.     0.1722D+06                  1162.5145     2.9808    26.9395
         INT.     0.2483D+07                  4734.5669    27.0784    41.4011
         TRA.     0.1078D+28                  1937.5242     4.9680    40.4662
         TOT.                       -2.389    6672.0911    32.0464    81.8673

 400.00  VIB.     0.1624D+02                  3817.4263    24.9754    15.0828
         ROT.     0.1789D+06                  1192.3226     2.9808    27.0150
         INT.     0.2905D+07                  5009.7489    27.9562    42.0978
         TRA.     0.1119D+28                  1987.2043     4.9680    40.5919
         TOT.                       -2.064    6996.9531    32.9242    82.6897

   *: NOTE: HEATS OF FORMATION ARE RELATIVE TO THE
            ELEMENTS IN THEIR STANDARD STATE AT 298K
              (=  Standard Enthalpy of Formation).

            Hvib:  Zero-point energy is not included.
                   frequencies of less than zero cm-1 are not included.
            Hrot = (3/2)RT
            Htra = (3/2)RT + pV = (5/2)RT

            Heat capacity is Cp, not Cv

          For more information, see: HTTP://OpenMOPAC.net/Manual/thermochemistry.html


           FORCE CONSTANT IN CARTESIAN COORDINATES (Millidynes/A)

    ATOM   CHEMICAL       X               Y               Z
   NUMBER   SYMBOL  FORCE CONSTANT  FORCE CONSTANT  FORCE CONSTANT

      1       C        8.201320        8.356468        8.411373
      2       C        8.201021        8.565631        8.194756
      3       C        8.786318        8.402366        8.259318
      4       C        8.786858        8.555807        8.104714
      5       C       12.379979        8.599956        6.214785
      6       C       12.379555        8.382474        6.432036
      7       H        1.182597        1.689115        3.527246
      8       H        1.208012        1.721863        3.517691
      9       H        1.208319        4.524825        0.715376
     10       H        1.181796        1.601882        3.615767
     11       H        4.727062        0.729977        0.891376
     12       H        0.694536        1.378664        4.181845
     13       H        4.729409        0.835262        0.783852
     14       H        0.695516        2.113563        3.445832
     15       H        1.534771        3.989155        0.724202
     16       H        1.537422        2.401487        2.307728

 **********************
 *                    *
 * JOB ENDED NORMALLY *
 *                    *
 **********************



 TOTAL JOB TIME:             1.04 SECONDS

 == MOPAC DONE ==
