 *******************************************************************************
 **                                                                           **
 **                              MOPAC v23.1.2                                **
 **                                                                           **
 *******************************************************************************
 **          Digital Object Identifier (DOI): 10.5281/zenodo.6511958          **
 **    Visit the DOI location for information on how to cite this program.    **
 *******************************************************************************

                              PM3 CALCULATION RESULTS

 *******************************************************************************
 *  CALCULATION DONE: (MAX THREADS = 1)              Tue Jun  3 16:33:32 2025  *
 *  PM3        - The PM3 Hamiltonian to be used
 *  PRECISE    - TIGHTER CRITERIA TO BE USED
 *  NOSYM      - POINT-GROUP SYMMETRY SET TO C1
 *  THREADS=1  - MULTI-THREADING NOT USED
 *  T=         - A TIME OF 172800.0 SECONDS REQUESTED
 *  DUMP=N     - RESTART FILE WRITTEN EVERY 7200.0 SECONDS REQUESTED
 *******************************************************************************
pm3  precise nosym THREADS=1
 InChI=1S/C10H8/c1-3-9-7-5-6-8-10(9)4-2/h5-8H,1-2H2

   ATOM   CHEMICAL          X               Y               Z
  NUMBER   SYMBOL      (ANGSTROMS)     (ANGSTROMS)     (ANGSTROMS)

     1       C          0.01920000  *   0.70860000  *  -0.06590000  *
     2       C         -0.11440000  *  -0.69840000  *   0.06740000  *
     3       C         -1.12290000  *   1.52150000  *   0.02020000  *
     4       C         -1.38640000  *  -1.25350000  *   0.28320000  *
     5       C         -2.38060000  *   0.95290000  *   0.23520000  *
     6       C         -2.51200000  *  -0.43020000  *   0.36630000  *
     7       C          2.34320000  *   1.84060000  *  -0.46990000  *
     8       C          1.95000000  *  -2.29920000  *  -0.07760000  *
     9       C          1.18540000  *   1.27820000  *  -0.26880000  *
    10       C          0.92120000  *  -1.50330000  *  -0.00520000  *
    11       H         -1.04530000  *   2.59900000  *  -0.07860000  *
    12       H         -1.51300000  *  -2.32570000  *   0.38810000  *
    13       H         -3.25580000  *   1.58650000  *   0.30040000  *
    14       H         -3.48870000  *  -0.86600000  *   0.53280000  *
    15       H          3.23420000  *   1.23170000  *  -0.53910000  *
    16       H          2.41240000  *   2.91530000  *  -0.56730000  *
    17       H          2.93760000  *  -1.89100000  *  -0.24320000  *
    18       H          1.81580000  *  -3.36700000  *   0.02800000  *



          CARTESIAN COORDINATES 

    NO.       ATOM           X           Y           Z

     1         C          0.0192      0.7086     -0.0659
     2         C         -0.1144     -0.6984      0.0674
     3         C         -1.1229      1.5215      0.0202
     4         C         -1.3864     -1.2535      0.2832
     5         C         -2.3806      0.9529      0.2352
     6         C         -2.5120     -0.4302      0.3663
     7         C          2.3432      1.8406     -0.4699
     8         C          1.9500     -2.2992     -0.0776
     9         C          1.1854      1.2782     -0.2688
    10         C          0.9212     -1.5033     -0.0052
    11         H         -1.0453      2.5990     -0.0786
    12         H         -1.5130     -2.3257      0.3881
    13         H         -3.2558      1.5865      0.3004
    14         H         -3.4887     -0.8660      0.5328
    15         H          3.2342      1.2317     -0.5391
    16         H          2.4124      2.9153     -0.5673
    17         H          2.9376     -1.8910     -0.2432
    18         H          1.8158     -3.3670      0.0280

  H: (PM3): J. J. P. STEWART, J. COMP. CHEM. 10, 209 (1989).
  C: (PM3): J. J. P. STEWART, J. COMP. CHEM. 10, 209 (1989).

           Empirical Formula: C10 H8  =    18 atoms



      MOLECULAR POINT GROUP   :   C1  


      RHF CALCULATION, NO. OF DOUBLY OCCUPIED LEVELS = 24


          Geometry optimization using EF

          DIAGONAL MATRIX USED AS START HESSIAN

 CYCLE:     1 TIME:   0.008 TIME LEFT:  2.00D  GRAD.:   208.107 HEAT:  205.5306
 CYCLE:     2 TIME:   0.016 TIME LEFT:  2.00D  GRAD.:    54.206 HEAT:  200.4953
 CYCLE:     3 TIME:   0.008 TIME LEFT:  2.00D  GRAD.:    38.757 HEAT:  199.6277
 CYCLE:     4 TIME:   0.008 TIME LEFT:  2.00D  GRAD.:    41.976 HEAT:  199.0523
 CYCLE:     5 TIME:   0.008 TIME LEFT:  2.00D  GRAD.:    60.141 HEAT:  198.8139
 CYCLE:     6 TIME:   0.008 TIME LEFT:  2.00D  GRAD.:    41.283 HEAT:  198.3543
 CYCLE:     7 TIME:   0.004 TIME LEFT:  2.00D  GRAD.:    20.639 HEAT:  197.9521
 CYCLE:     8 TIME:   0.008 TIME LEFT:  2.00D  GRAD.:    27.544 HEAT:  197.7651
 CYCLE:     9 TIME:   0.012 TIME LEFT:  2.00D  GRAD.:    25.908 HEAT:  197.6500
 CYCLE:    10 TIME:   0.008 TIME LEFT:  2.00D  GRAD.:    20.283 HEAT:  197.5943
 CYCLE:    11 TIME:   0.004 TIME LEFT:  2.00D  GRAD.:    11.944 HEAT:  197.4798
 CYCLE:    12 TIME:   0.012 TIME LEFT:  2.00D  GRAD.:    19.554 HEAT:  197.4555
 CYCLE:    13 TIME:   0.004 TIME LEFT:  2.00D  GRAD.:    18.551 HEAT:  197.1601
 CYCLE:    14 TIME:   0.023 TIME LEFT:  2.00D  GRAD.:    26.407 HEAT:  197.0977
 CYCLE:    15 TIME:   0.008 TIME LEFT:  2.00D  GRAD.:    22.845 HEAT:  196.9325
 CYCLE:    16 TIME:   0.008 TIME LEFT:  2.00D  GRAD.:    22.057 HEAT:  196.4567
 CYCLE:    17 TIME:   0.012 TIME LEFT:  2.00D  GRAD.:    26.701 HEAT:  195.8369
 CYCLE:    18 TIME:   0.008 TIME LEFT:  2.00D  GRAD.:    43.395 HEAT:  194.4671
 CYCLE:    19 TIME:   0.008 TIME LEFT:  2.00D  GRAD.:    60.101 HEAT:  192.5799
 CYCLE:    20 TIME:   0.012 TIME LEFT:  2.00D  GRAD.:   146.095 HEAT:  192.3402
 CYCLE:    21 TIME:   0.008 TIME LEFT:  2.00D  GRAD.:    64.012 HEAT:  187.5057
 CYCLE:    22 TIME:   0.008 TIME LEFT:  2.00D  GRAD.:    57.911 HEAT:  181.9978
 CYCLE:    23 TIME:   0.008 TIME LEFT:  2.00D  GRAD.:    65.109 HEAT:  174.8844
 CYCLE:    24 TIME:   0.008 TIME LEFT:  2.00D  GRAD.:   184.062 HEAT:  167.2051
 CYCLE:    25 TIME:   0.008 TIME LEFT:  2.00D  GRAD.:   200.208 HEAT:  165.2499
 CYCLE:    26 TIME:   0.008 TIME LEFT:  2.00D  GRAD.:   210.601 HEAT:  159.1794
 CYCLE:    27 TIME:   0.012 TIME LEFT:  2.00D  GRAD.:   211.253 HEAT:  154.8636
 CYCLE:    28 TIME:   0.008 TIME LEFT:  2.00D  GRAD.:   141.701 HEAT:  146.4114
 CYCLE:    29 TIME:   0.012 TIME LEFT:  2.00D  GRAD.:    95.322 HEAT:  142.4512
 CYCLE:    30 TIME:   0.004 TIME LEFT:  2.00D  GRAD.:    47.895 HEAT:  138.5316
 CYCLE:    31 TIME:   0.008 TIME LEFT:  2.00D  GRAD.:    81.004 HEAT:  136.1142
 CYCLE:    32 TIME:   0.008 TIME LEFT:  2.00D  GRAD.:    70.071 HEAT:  131.6425
 CYCLE:    33 TIME:   0.012 TIME LEFT:  2.00D  GRAD.:    68.005 HEAT:  130.1892
 CYCLE:    34 TIME:   0.004 TIME LEFT:  2.00D  GRAD.:    56.767 HEAT:  127.6993
 CYCLE:    35 TIME:   0.008 TIME LEFT:  2.00D  GRAD.:    96.807 HEAT:  127.2855
 CYCLE:    36 TIME:   0.008 TIME LEFT:  2.00D  GRAD.:    49.187 HEAT:  125.1287
 CYCLE:    37 TIME:   0.016 TIME LEFT:  2.00D  GRAD.:    35.044 HEAT:  124.8692
 CYCLE:    38 TIME:   0.004 TIME LEFT:  2.00D  GRAD.:    13.602 HEAT:  124.4547
 CYCLE:    39 TIME:   0.008 TIME LEFT:  2.00D  GRAD.:    24.998 HEAT:  124.4255
 CYCLE:    40 TIME:   0.008 TIME LEFT:  2.00D  GRAD.:    14.557 HEAT:  124.2811
 CYCLE:    41 TIME:   0.012 TIME LEFT:  2.00D  GRAD.:    11.181 HEAT:  124.2433
 CYCLE:    42 TIME:   0.004 TIME LEFT:  2.00D  GRAD.:     5.443 HEAT:  124.2152
 CYCLE:    43 TIME:   0.008 TIME LEFT:  2.00D  GRAD.:     5.168 HEAT:  124.1909
 CYCLE:    44 TIME:   0.008 TIME LEFT:  2.00D  GRAD.:     4.234 HEAT:  124.1583
 CYCLE:    45 TIME:   0.008 TIME LEFT:  2.00D  GRAD.:     3.434 HEAT:  124.1277
 CYCLE:    46 TIME:   0.004 TIME LEFT:  2.00D  GRAD.:     2.880 HEAT:  124.1089
 CYCLE:    47 TIME:   0.008 TIME LEFT:  2.00D  GRAD.:     2.741 HEAT:  124.0937
 CYCLE:    48 TIME:   0.004 TIME LEFT:  2.00D  GRAD.:     2.737 HEAT:  124.0852
 CYCLE:    49 TIME:   0.008 TIME LEFT:  2.00D  GRAD.:     1.455 HEAT:  124.0806
 CYCLE:    50 TIME:   0.008 TIME LEFT:  2.00D  GRAD.:     1.393 HEAT:  124.0763
 CYCLE:    51 TIME:   0.004 TIME LEFT:  2.00D  GRAD.:     1.438 HEAT:  124.0701
 CYCLE:    52 TIME:   0.008 TIME LEFT:  2.00D  GRAD.:     1.357 HEAT:  124.0661
 CYCLE:    53 TIME:   0.004 TIME LEFT:  2.00D  GRAD.:     1.363 HEAT:  124.0605
 CYCLE:    54 TIME:   0.008 TIME LEFT:  2.00D  GRAD.:     1.420 HEAT:  124.0554
 CYCLE:    55 TIME:   0.008 TIME LEFT:  2.00D  GRAD.:     1.191 HEAT:  124.0515
 CYCLE:    56 TIME:   0.004 TIME LEFT:  2.00D  GRAD.:     0.901 HEAT:  124.0499
 CYCLE:    57 TIME:   0.008 TIME LEFT:  2.00D  GRAD.:     0.420 HEAT:  124.0491
 CYCLE:    58 TIME:   0.004 TIME LEFT:  2.00D  GRAD.:     0.257 HEAT:  124.0488
 CYCLE:    59 TIME:   0.008 TIME LEFT:  2.00D  GRAD.:     0.221 HEAT:  124.0486
 CYCLE:    60 TIME:   0.004 TIME LEFT:  2.00D  GRAD.:     0.206 HEAT:  124.0485
 CYCLE:    61 TIME:   0.008 TIME LEFT:  2.00D  GRAD.:     0.182 HEAT:  124.0485
 CYCLE:    62 TIME:   0.004 TIME LEFT:  2.00D  GRAD.:     0.188 HEAT:  124.0484
 CYCLE:    63 TIME:   0.008 TIME LEFT:  2.00D  GRAD.:     0.180 HEAT:  124.0483
 CYCLE:    64 TIME:   0.004 TIME LEFT:  2.00D  GRAD.:     0.171 HEAT:  124.0482
 CYCLE:    65 TIME:   0.008 TIME LEFT:  2.00D  GRAD.:     0.178 HEAT:  124.0482
 CYCLE:    66 TIME:   0.004 TIME LEFT:  2.00D  GRAD.:     0.229 HEAT:  124.0481
 CYCLE:    67 TIME:   0.008 TIME LEFT:  2.00D  GRAD.:     0.171 HEAT:  124.0480
 CYCLE:    68 TIME:   0.004 TIME LEFT:  2.00D  GRAD.:     0.214 HEAT:  124.0480
 CYCLE:    69 TIME:   0.008 TIME LEFT:  2.00D  GRAD.:     0.118 HEAT:  124.0479
 CYCLE:    70 TIME:   0.004 TIME LEFT:  2.00D  GRAD.:     0.085 HEAT:  124.0479
 CYCLE:    71 TIME:   0.008 TIME LEFT:  2.00D  GRAD.:     0.164 HEAT:  124.0479
 CYCLE:    72 TIME:   0.004 TIME LEFT:  2.00D  GRAD.:     0.126 HEAT:  124.0478
 CYCLE:    73 TIME:   0.008 TIME LEFT:  2.00D  GRAD.:     0.189 HEAT:  124.0478
 CYCLE:    74 TIME:   0.008 TIME LEFT:  2.00D  GRAD.:     0.104 HEAT:  124.0478
 CYCLE:    75 TIME:   0.004 TIME LEFT:  2.00D  GRAD.:     0.086 HEAT:  124.0477
 CYCLE:    76 TIME:   0.008 TIME LEFT:  2.00D  GRAD.:     0.100 HEAT:  124.0477
 CYCLE:    77 TIME:   0.008 TIME LEFT:  2.00D  GRAD.:     0.085 HEAT:  124.0477
 CYCLE:    78 TIME:   0.004 TIME LEFT:  2.00D  GRAD.:     0.058 HEAT:  124.0477
 CYCLE:    79 TIME:   0.004 TIME LEFT:  2.00D  GRAD.:     0.045 HEAT:  124.0477

     GRADIENT =  0.04535 IS LESS THAN CUTOFF =  0.05000



 -------------------------------------------------------------------------------
 pm3  precise nosym THREADS=1
 InChI=1S/C10H8/c1-3-9-7-5-6-8-10(9)4-2/h5-8H,1-2H2



     GEOMETRY OPTIMISED USING EIGENVECTOR FOLLOWING (EF).     
     SCF FIELD WAS ACHIEVED                                   


                              PM3 CALCULATION
                                                       MOPAC v23.1.2 MacOS
                                                       Tue Jun  3 16:33:32 2025




          FINAL HEAT OF FORMATION =        124.04766 KCAL/MOL =     519.01542 KJ/MOL


          COSMO AREA              =        181.06 SQUARE ANGSTROMS
          COSMO VOLUME            =        177.20 CUBIC ANGSTROMS

          GRADIENT NORM           =          0.04535          =       0.01069 PER ATOM
          IONIZATION POTENTIAL    =          8.118753 EV
          HOMO LUMO ENERGIES (EV) =         -8.119 -0.719
          NO. OF FILLED LEVELS    =         24
          MOLECULAR WEIGHT        =        128.1732         POINT GROUP:  C1  

          MOLECULAR DIMENSIONS (Angstroms)

            Atom       Atom       Distance
            H    16    H    14     7.19180
            H    13    H    17     6.43982
            H    18    H    15     2.96948


          SCF CALCULATIONS        =         94

          WALL-CLOCK TIME         =      0.609 SECONDS
          COMPUTATION TIME        =      0.381 SECONDS




   ATOM   CHEMICAL          X               Y               Z
  NUMBER   SYMBOL      (ANGSTROMS)     (ANGSTROMS)     (ANGSTROMS)

     1       C          0.03834559  *   0.73039955  *  -0.07152179  *
     2       C         -0.09946805  *  -0.72343158  *   0.06748598  *
     3       C         -1.16757016  *   1.54245169  *   0.04502664  *
     4       C         -1.43277725  *  -1.26018764  *   0.31539664  *
     5       C         -2.36817305  *   0.97999500  *   0.27396199  *
     6       C         -2.50362661  *  -0.45144762  *   0.41242833  *
     7       C          2.34313017  *   1.87767051  *  -0.51265219  *
     8       C          1.94130634  *  -2.34350556  *  -0.11503581  *
     9       C          1.20371800  *   1.30714341  *  -0.29456689  *
    10       C          0.93339074  *  -1.53896288  *  -0.02499920  *
    11       H         -1.05651307  *   2.62702485  *  -0.06105570  *
    12       H         -1.52671832  *  -2.34660930  *   0.41913684  *
    13       H         -3.27250736  *   1.59084451  *   0.36125025  *
    14       H         -3.50394409  *  -0.85563121  *   0.59847747  *
    15       H          2.99347067  *   2.20704651  *   0.29410764  *
    16       H          2.72089914  *   2.06041471  *  -1.51574934  *
    17       H          2.53533243  *  -2.63228451  *   0.74868183  *
    18       H          2.25697436  *  -2.77810251  *  -1.06042286  *

                             CARTESIAN COORDINATES

   1    C        0.038345588     0.730399549    -0.071521786
   2    C       -0.099468051    -0.723431585     0.067485983
   3    C       -1.167570155     1.542451692     0.045026636
   4    C       -1.432777253    -1.260187640     0.315396638
   5    C       -2.368173050     0.979995003     0.273961993
   6    C       -2.503626613    -0.451447621     0.412428328
   7    C        2.343130168     1.877670512    -0.512652188
   8    C        1.941306343    -2.343505558    -0.115035811
   9    C        1.203717996     1.307143414    -0.294566886
  10    C        0.933390744    -1.538962877    -0.024999198
  11    H       -1.056513066     2.627024845    -0.061055702
  12    H       -1.526718316    -2.346609299     0.419136837
  13    H       -3.272507356     1.590844512     0.361250246
  14    H       -3.503944088    -0.855631205     0.598477465
  15    H        2.993470671     2.207046508     0.294107638
  16    H        2.720899140     2.060414710    -1.515749344
  17    H        2.535332433    -2.632284514     0.748681826
  18    H        2.256974363    -2.778102509    -1.060422863


           Empirical Formula: C10 H8  =    18 atoms



      MOLECULAR POINT GROUP   :   C1  


                  EIGENVALUES  
 -39.60297 -33.34479 -32.76268 -29.07998 -28.18992 -23.53029 -21.91873 -19.62217
 -18.01378 -17.09568 -16.59872 -16.31971 -15.42949 -15.37147 -15.11947 -14.70466
 -13.13682 -12.98221 -12.57919 -10.76001 -10.52798 -10.49359 -10.34801  -8.11875
  -0.71942   0.95875   1.12592   1.18141   1.19899   2.76693   2.85204   2.94740
   3.35586   3.61612   3.62971   3.78704   4.04842   4.12725   4.60684   4.82700
   4.88271   5.02944   5.04297   5.25635   5.82681   6.26240   6.29108   6.70742


              NET ATOMIC CHARGES AND DIPOLE CONTRIBUTIONS

  ATOM NO.   TYPE          CHARGE      No. of ELECS.   s-Pop       p-Pop       
    1          C           0.030589        3.9694     1.12936     2.84005
    2          C           0.030539        3.9695     1.12938     2.84008
    3          C          -0.082083        4.0821     1.17916     2.90292
    4          C          -0.082099        4.0821     1.17917     2.90293
    5          C          -0.105118        4.1051     1.17936     2.92576
    6          C          -0.105097        4.1051     1.17935     2.92574
    7          C          -0.080883        4.0809     1.14653     2.93435
    8          C          -0.080897        4.0809     1.14653     2.93436
    9          C          -0.162020        4.1620     1.21317     2.94885
   10          C          -0.162039        4.1620     1.21317     2.94887
   11          H           0.104791        0.8952     0.89521
   12          H           0.104797        0.8952     0.89520
   13          H           0.102379        0.8976     0.89762
   14          H           0.102397        0.8976     0.89760
   15          H           0.096171        0.9038     0.90383
   16          H           0.096196        0.9038     0.90380
   17          H           0.096197        0.9038     0.90380
   18          H           0.096180        0.9038     0.90382
 DIPOLE           X         Y         Z       TOTAL
 POINT-CHG.     0.369    -0.041    -0.053     0.375
 HYBRID         0.143    -0.015    -0.021     0.146
 SUM            0.512    -0.056    -0.073     0.521


          ATOMIC ORBITAL ELECTRON POPULATIONS

     Atom    s        px        py        pz   
    1  C   1.12936   0.90192   0.91105   1.02708
    2  C   1.12938   0.90992   0.90197   1.02818
    3  C   1.17916   0.92753   0.97630   0.99909
    4  C   1.17917   0.92328   0.98120   0.99845
    5  C   1.17936   0.96999   0.95033   1.00544
    6  C   1.17935   0.97634   0.94304   1.00636
    7  C   1.14653   0.93477   0.99727   1.00231
    8  C   1.14653   0.95207   0.97759   1.00471
    9  C   1.21317   0.96789   0.98701   0.99396
   10  C   1.21317   0.97377   0.98030   0.99479
   11  H   0.89521
   12  H   0.89520
   13  H   0.89762
   14  H   0.89760
   15  H   0.90383
   16  H   0.90380
   17  H   0.90380
   18  H   0.90382
 *******************************************************************************
 **                                                                           **
 **                              MOPAC v23.1.2                                **
 **                                                                           **
 *******************************************************************************
 **          Digital Object Identifier (DOI): 10.5281/zenodo.6511958          **
 **    Visit the DOI location for information on how to cite this program.    **
 *******************************************************************************

                              PM3 CALCULATION RESULTS

 *******************************************************************************
 *  CALCULATION DONE: (MAX THREADS = 1)              Tue Jun  3 16:33:32 2025  *
 *  PM3        - The PM3 Hamiltonian to be used
 *  OLDGEO     - PREVIOUS GEOMETRY TO BE USED
 *  PRECISE    - TIGHTER CRITERIA TO BE USED
 *  NOSYM      - POINT-GROUP SYMMETRY SET TO C1
 *  THREADS=1  - MULTI-THREADING NOT USED
 *  T=         - A TIME OF 172800.0 SECONDS REQUESTED
 *  DUMP=N     - RESTART FILE WRITTEN EVERY 7200.0 SECONDS REQUESTED
 *  THERMO     - THERMODYNAMIC QUANTITIES TO BE CALCULATED
 *******************************************************************************
oldgeo thermo nosym precise THREADS=1  pm3
 InChI=1S/C10H8/c1-3-9-7-5-6-8-10(9)4-2/h5-8H,1-2H2

   ATOM   CHEMICAL          X               Y               Z
  NUMBER   SYMBOL      (ANGSTROMS)     (ANGSTROMS)     (ANGSTROMS)

     1       C          0.03834559  *   0.73039955  *  -0.07152179  *
     2       C         -0.09946805  *  -0.72343158  *   0.06748598  *
     3       C         -1.16757016  *   1.54245169  *   0.04502664  *
     4       C         -1.43277725  *  -1.26018764  *   0.31539664  *
     5       C         -2.36817305  *   0.97999500  *   0.27396199  *
     6       C         -2.50362661  *  -0.45144762  *   0.41242833  *
     7       C          2.34313017  *   1.87767051  *  -0.51265219  *
     8       C          1.94130634  *  -2.34350556  *  -0.11503581  *
     9       C          1.20371800  *   1.30714341  *  -0.29456689  *
    10       C          0.93339074  *  -1.53896288  *  -0.02499920  *
    11       H         -1.05651307  *   2.62702485  *  -0.06105570  *
    12       H         -1.52671832  *  -2.34660930  *   0.41913684  *
    13       H         -3.27250736  *   1.59084451  *   0.36125025  *
    14       H         -3.50394409  *  -0.85563121  *   0.59847747  *
    15       H          2.99347067  *   2.20704651  *   0.29410764  *
    16       H          2.72089914  *   2.06041471  *  -1.51574934  *
    17       H          2.53533243  *  -2.63228451  *   0.74868183  *
    18       H          2.25697436  *  -2.77810251  *  -1.06042286  *



          CARTESIAN COORDINATES 

    NO.       ATOM           X           Y           Z

     1         C          0.0383      0.7304     -0.0715
     2         C         -0.0995     -0.7234      0.0675
     3         C         -1.1676      1.5425      0.0450
     4         C         -1.4328     -1.2602      0.3154
     5         C         -2.3682      0.9800      0.2740
     6         C         -2.5036     -0.4514      0.4124
     7         C          2.3431      1.8777     -0.5127
     8         C          1.9413     -2.3435     -0.1150
     9         C          1.2037      1.3071     -0.2946
    10         C          0.9334     -1.5390     -0.0250
    11         H         -1.0565      2.6270     -0.0611
    12         H         -1.5267     -2.3466      0.4191
    13         H         -3.2725      1.5908      0.3613
    14         H         -3.5039     -0.8556      0.5985
    15         H          2.9935      2.2070      0.2941
    16         H          2.7209      2.0604     -1.5157
    17         H          2.5353     -2.6323      0.7487
    18         H          2.2570     -2.7781     -1.0604

  H: (PM3): J. J. P. STEWART, J. COMP. CHEM. 10, 209 (1989).
  C: (PM3): J. J. P. STEWART, J. COMP. CHEM. 10, 209 (1989).

           Empirical Formula: C10 H8  =    18 atoms



      MOLECULAR POINT GROUP   :   C1  


      RHF CALCULATION, NO. OF DOUBLY OCCUPIED LEVELS = 24



          HEAT OF FORMATION =     124.047662 KCALS/MOLE


          CARTESIAN COORDINATE DERIVATIVES

   NUMBER  ATOM         X            Y            Z

     1       C     -0.007167    -0.008707     0.000230
     2       C      0.001017    -0.006904    -0.001587
     3       C      0.001002     0.004493     0.004255
     4       C      0.002637     0.004879    -0.000624
     5       C     -0.004336    -0.008407    -0.002193
     6       C      0.016780    -0.004184     0.000535
     7       C      0.000372    -0.011552    -0.002693
     8       C     -0.000002    -0.002460    -0.000757
     9       C     -0.003537     0.001688     0.004228
    10       C     -0.010030     0.002188    -0.004602
    11       H     -0.000226     0.022909    -0.000350
    12       H      0.002602    -0.007429    -0.003675
    13       H      0.006380    -0.008567     0.001285
    14       H     -0.006599     0.009988    -0.000323
    15       H      0.004338     0.004733     0.004381
    16       H     -0.006471    -0.014465    -0.002345
    17       H      0.006994     0.006929     0.007066
    18       H     -0.003755     0.014869    -0.002832



          GRADIENT NORM =   0.05016

          MOLECULAR WEIGHT =  128.17



          ROTATIONAL CONSTANTS IN CM(-1)

          A =    0.06127306   B =    0.04327941   C =    0.02562600



           PRINCIPAL MOMENTS OF INERTIA IN UNITS OF 10**(-40)*GRAM-CM**2

          A =      456.8525   B =      646.7915   C =     1092.3576


          ORIENTATION OF MOLECULE IN FORCE CALCULATION

    NO.       ATOM         X         Y         Z

     1          C      -0.7337   -0.0656    0.0000
     2          C       0.7332   -0.0656    0.0000
     3          C      -1.4142    1.2244    0.0000
     4          C       1.4139    1.2243   -0.0024
     5          C      -0.7223    2.3783   -0.0014
     6          C       0.7222    2.3783   -0.0030
     7          C      -2.1290   -2.2738   -0.0009
     8          C       2.1298   -2.2729    0.0052
     9          C      -1.4359   -1.1825   -0.0002
    10          C       1.4357   -1.1823    0.0024
    11          H      -2.5095    1.2160    0.0012
    12          H       2.5093    1.2154   -0.0036
    13          H      -1.2344    3.3459   -0.0015
    14          H       1.2344    3.3459   -0.0048
    15          H      -2.4401   -2.7655   -0.9194
    16          H      -2.4407   -2.7669    0.9167
    17          H       2.4420   -2.7673   -0.9115
    18          H       2.4413   -2.7627    0.9247


    FIRST DERIVATIVES WILL BE USED IN THE CALCULATION OF SECOND DERIVATIVES

          ESTIMATED TIME TO COMPLETE CALCULATION =        0.84 SECONDS

    FOR POINT-GROUP C1   THERE ARE   1 UNIQUE SYMMETRY FUNCTIONS.

 STEP:   1 TIME =     0.02 SECS, INTEGRAL =      0.02 TIME LEFT: 172799.98
 STEP:   2 TIME =     0.02 SECS, INTEGRAL =      0.04 TIME LEFT: 172799.96
 STEP:   3 TIME =     0.02 SECS, INTEGRAL =      0.06 TIME LEFT: 172799.94
 STEP:   4 TIME =     0.02 SECS, INTEGRAL =      0.07 TIME LEFT: 172799.92
 STEP:   5 TIME =     0.02 SECS, INTEGRAL =      0.09 TIME LEFT: 172799.90
 STEP:   6 TIME =     0.02 SECS, INTEGRAL =      0.11 TIME LEFT: 172799.88
 STEP:   7 TIME =     0.02 SECS, INTEGRAL =      0.13 TIME LEFT: 172799.87
 STEP:   8 TIME =     0.02 SECS, INTEGRAL =      0.14 TIME LEFT: 172799.85
 STEP:   9 TIME =     0.02 SECS, INTEGRAL =      0.16 TIME LEFT: 172799.83
 STEP:  10 TIME =     0.02 SECS, INTEGRAL =      0.18 TIME LEFT: 172799.82
 STEP:  11 TIME =     0.02 SECS, INTEGRAL =      0.20 TIME LEFT: 172799.80
 STEP:  12 TIME =     0.02 SECS, INTEGRAL =      0.22 TIME LEFT: 172799.78
 STEP:  13 TIME =     0.02 SECS, INTEGRAL =      0.24 TIME LEFT: 172799.76
 STEP:  14 TIME =     0.02 SECS, INTEGRAL =      0.25 TIME LEFT: 172799.74
 STEP:  15 TIME =     0.02 SECS, INTEGRAL =      0.27 TIME LEFT: 172799.72
 STEP:  16 TIME =     0.02 SECS, INTEGRAL =      0.29 TIME LEFT: 172799.71
 STEP:  17 TIME =     0.02 SECS, INTEGRAL =      0.30 TIME LEFT: 172799.69
 STEP:  18 TIME =     0.02 SECS, INTEGRAL =      0.32 TIME LEFT: 172799.67
 STEP:  19 TIME =     0.02 SECS, INTEGRAL =      0.34 TIME LEFT: 172799.65
 STEP:  20 TIME =     0.02 SECS, INTEGRAL =      0.36 TIME LEFT: 172799.64
 STEP:  21 TIME =     0.02 SECS, INTEGRAL =      0.38 TIME LEFT: 172799.62
 STEP:  22 TIME =     0.02 SECS, INTEGRAL =      0.39 TIME LEFT: 172799.60
 STEP:  23 TIME =     0.02 SECS, INTEGRAL =      0.41 TIME LEFT: 172799.59
 STEP:  24 TIME =     0.02 SECS, INTEGRAL =      0.43 TIME LEFT: 172799.57
 STEP:  25 TIME =     0.02 SECS, INTEGRAL =      0.45 TIME LEFT: 172799.55
 STEP:  26 TIME =     0.02 SECS, INTEGRAL =      0.47 TIME LEFT: 172799.53
 STEP:  27 TIME =     0.02 SECS, INTEGRAL =      0.49 TIME LEFT: 172799.50
 STEP:  28 TIME =     0.02 SECS, INTEGRAL =      0.51 TIME LEFT: 172799.48
 STEP:  29 TIME =     0.02 SECS, INTEGRAL =      0.53 TIME LEFT: 172799.46
 STEP:  30 TIME =     0.02 SECS, INTEGRAL =      0.55 TIME LEFT: 172799.45
 STEP:  31 TIME =     0.02 SECS, INTEGRAL =      0.57 TIME LEFT: 172799.43
 STEP:  32 TIME =     0.02 SECS, INTEGRAL =      0.59 TIME LEFT: 172799.41
 STEP:  33 TIME =     0.02 SECS, INTEGRAL =      0.61 TIME LEFT: 172799.39
 STEP:  34 TIME =     0.02 SECS, INTEGRAL =      0.62 TIME LEFT: 172799.38
 STEP:  35 TIME =     0.02 SECS, INTEGRAL =      0.64 TIME LEFT: 172799.36
 STEP:  36 TIME =     0.02 SECS, INTEGRAL =      0.66 TIME LEFT: 172799.34
 STEP:  37 TIME =     0.02 SECS, INTEGRAL =      0.67 TIME LEFT: 172799.32
 STEP:  38 TIME =     0.02 SECS, INTEGRAL =      0.69 TIME LEFT: 172799.31
 STEP:  39 TIME =     0.02 SECS, INTEGRAL =      0.71 TIME LEFT: 172799.29
 STEP:  40 TIME =     0.02 SECS, INTEGRAL =      0.72 TIME LEFT: 172799.27
 STEP:  41 TIME =     0.02 SECS, INTEGRAL =      0.74 TIME LEFT: 172799.25
 STEP:  42 TIME =     0.02 SECS, INTEGRAL =      0.76 TIME LEFT: 172799.23
 STEP:  43 TIME =     0.02 SECS, INTEGRAL =      0.79 TIME LEFT: 172799.21
 STEP:  44 TIME =     0.02 SECS, INTEGRAL =      0.80 TIME LEFT: 172799.19
 STEP:  45 TIME =     0.02 SECS, INTEGRAL =      0.82 TIME LEFT: 172799.18
 STEP:  46 TIME =     0.02 SECS, INTEGRAL =      0.84 TIME LEFT: 172799.16
 STEP:  47 TIME =     0.02 SECS, INTEGRAL =      0.86 TIME LEFT: 172799.14
 STEP:  48 TIME =     0.02 SECS, INTEGRAL =      0.88 TIME LEFT: 172799.12
 STEP:  49 TIME =     0.02 SECS, INTEGRAL =      0.90 TIME LEFT: 172799.10
 STEP:  50 TIME =     0.02 SECS, INTEGRAL =      0.92 TIME LEFT: 172799.07
 STEP:  51 TIME =     0.02 SECS, INTEGRAL =      0.94 TIME LEFT: 172799.06
 STEP:  52 TIME =     0.02 SECS, INTEGRAL =      0.96 TIME LEFT: 172799.04
 STEP:  53 TIME =     0.02 SECS, INTEGRAL =      0.98 TIME LEFT: 172799.02
 STEP:  54 TIME =     0.02 SECS, INTEGRAL =      1.00 TIME LEFT: 172799.00

(To convert to Hartree/Bohr^2, multiply by (10^(-21) x N x a0^2)/(4.184 x 627.51) =  0.0642)


           FORCE MATRIX IN MILLIDYNES/ANGSTROM


                  C  1       C  2       C  3       C  4       C  5       C  6
 ------------------------------------------------------------------------------
     C    1  18.945477
     C    2   4.996258  18.946011
     C    3   5.250186   0.695987  18.193881
     C    4   0.695735   5.249960   0.312926  18.194970
     C    5   1.154487   0.264599   9.780618   1.262985  18.159024
     C    6   0.264629   1.154448   1.262691   9.781158   5.696835  18.158918
     C    7   0.795848   0.111016   0.110826   0.016185   0.042339   0.024299
     C    8   0.111007   0.795833   0.016181   0.110781   0.024292   0.042335
     C    9  10.281684   1.072385   1.282816   0.091400   0.228391   0.129020
     C   10   1.072024  10.282490   0.091386   1.283511   0.128999   0.228372
     H   11   0.441985   0.044539   4.846447   0.010934   0.439667   0.121350
     H   12   0.044538   0.441996   0.010976   4.846296   0.121276   0.439700
     H   13   0.116696   0.004114   0.439912   0.050431   4.860307   0.435805
     H   14   0.004118   0.116734   0.050429   0.439929   0.435808   4.859878
     H   15   0.044002   0.068603   0.072904   0.002505   0.006202   0.005528
     H   16   0.044066   0.068581   0.072884   0.002498   0.006199   0.005529
     H   17   0.068555   0.044056   0.002477   0.073087   0.005521   0.006197
     H   18   0.068572   0.044000   0.002483   0.073098   0.005522   0.006201


                  C  7       C  8       C  9       C 10       H 11       H 12
 ------------------------------------------------------------------------------
     C    7  18.084559
     C    8   0.008034  18.085422
     C    9  11.898377   0.038601  24.403780
     C   10   0.038617  11.899166   0.187127  24.405431
     H   11   0.005045   0.001977   0.037921   0.008596   5.214302
     H   12   0.001972   0.005048   0.008595   0.038113   0.008806   5.214165
     H   13   0.005741   0.000608   0.008046   0.001558   0.063091   0.007243
     H   14   0.000609   0.005743   0.001559   0.008046   0.007270   0.063049
     H   15   4.988914   0.004031   0.480127   0.004810   0.001499   0.001878
     H   16   4.988804   0.004034   0.480158   0.004810   0.001502   0.001877
     H   17   0.004034   4.989306   0.004806   0.480155   0.001907   0.001470
     H   18   0.004031   4.989135   0.004807   0.480132   0.001908   0.001462


                  H 13       H 14       H 15       H 16       H 17       H 18
 ------------------------------------------------------------------------------
     H   13   5.223410
     H   14   0.031454   5.223015
     H   15   0.005444   0.000355   5.373124
     H   16   0.005443   0.000353   0.410114   5.373055
     H   17   0.000352   0.005457   0.001991   0.003292   5.373429
     H   18   0.000353   0.005457   0.003290   0.001992   0.409969   5.373230


          HEAT OF FORMATION =     124.047662 KCALS/MOLE

          ZERO POINT ENERGY      88.638 KCAL/MOL


           NORMAL COORDINATE ANALYSIS (Total motion = 1 Angstrom)


   Root No.       1         2         3         4         5         6         7         8

                 1 A       2 A       3 A       4 A       5 A       6 A       7 A       8 A   

                  50.8     111.6     139.6     191.2     275.7     309.3     410.3     428.1
  
           1    0.0000   -0.0005    0.0000   -0.0394   -0.0000   -0.0000    0.0246    0.0000
           2   -0.0000    0.0186    0.0001    0.0167   -0.0000    0.0000    0.0439    0.0000
           3    0.0114    0.0000    0.0524    0.0000   -0.0315   -0.0083    0.0001    0.0221
           4    0.0000    0.0006    0.0000   -0.0394    0.0000   -0.0000    0.0246    0.0000
           5   -0.0000    0.0186    0.0000   -0.0167    0.0001   -0.0000   -0.0439   -0.0000
           6   -0.0112   -0.0001    0.0524    0.0000    0.0315   -0.0082    0.0002   -0.0221
           7    0.0000   -0.0022   -0.0000   -0.0059    0.0000    0.0000   -0.0286   -0.0000
           8    0.0000    0.0158    0.0000    0.0342    0.0000    0.0000    0.0197    0.0000
           9    0.0597    0.0001    0.0253   -0.0000    0.0016    0.0501   -0.0002    0.0275
          10   -0.0000    0.0022   -0.0000   -0.0059   -0.0000    0.0000   -0.0286   -0.0000
          11   -0.0001    0.0158    0.0000   -0.0342    0.0000    0.0000   -0.0197   -0.0001
          12   -0.0596   -0.0002    0.0254    0.0000   -0.0018    0.0501   -0.0001   -0.0275
          13    0.0000   -0.0002   -0.0001    0.0247    0.0000   -0.0000   -0.0506   -0.0001
          14   -0.0000    0.0151   -0.0000    0.0170    0.0000   -0.0000    0.0278   -0.0001
          15    0.0366    0.0001   -0.0456    0.0000    0.0242   -0.0248    0.0001   -0.0447
          16   -0.0000    0.0002   -0.0001    0.0247   -0.0000   -0.0000   -0.0506    0.0000
          17   -0.0001    0.0151   -0.0001   -0.0170   -0.0000   -0.0000   -0.0278    0.0000
          18   -0.0368   -0.0001   -0.0455    0.0000   -0.0241   -0.0248    0.0001    0.0447
          19   -0.0001    0.0974    0.0001    0.0396   -0.0000    0.0000    0.0385    0.0000
          20    0.0000   -0.0433    0.0001   -0.0336   -0.0000   -0.0000    0.0520    0.0000
          21   -0.0481    0.0000   -0.0396   -0.0000    0.0255    0.0140    0.0000    0.0011
          22    0.0001   -0.0974    0.0001    0.0395    0.0000    0.0000    0.0385   -0.0000
          23    0.0001   -0.0434   -0.0001    0.0337   -0.0001    0.0001   -0.0520   -0.0000
          24    0.0480    0.0000   -0.0398   -0.0001   -0.0255    0.0139    0.0001   -0.0011
          25   -0.0000    0.0260    0.0000   -0.0347    0.0000   -0.0000    0.0128    0.0000
          26    0.0000    0.0018    0.0001    0.0137   -0.0000    0.0000    0.0610    0.0000
          27   -0.0167    0.0000    0.0229    0.0000   -0.0717   -0.0475   -0.0003   -0.0276
          28    0.0000   -0.0260    0.0000   -0.0348   -0.0000   -0.0000    0.0129    0.0000
          29    0.0000    0.0019   -0.0000   -0.0137    0.0001   -0.0001   -0.0610    0.0001
          30    0.0168   -0.0000    0.0230    0.0000    0.0718   -0.0474   -0.0002    0.0275
          31    0.0001   -0.0020    0.0000   -0.0059    0.0000    0.0001   -0.0283    0.0000
          32    0.0000    0.0152    0.0001    0.0633    0.0000    0.0001   -0.0236    0.0000
          33    0.1124    0.0003    0.0486   -0.0001    0.0225    0.1322   -0.0006    0.0345
          34   -0.0001    0.0020    0.0000   -0.0059   -0.0000    0.0001   -0.0283   -0.0000
          35   -0.0002    0.0152    0.0000   -0.0633   -0.0000    0.0001    0.0235   -0.0000
          36   -0.1124   -0.0003    0.0490   -0.0000   -0.0229    0.1323   -0.0006   -0.0344
          37    0.0001    0.0006   -0.0001    0.0496    0.0001   -0.0000   -0.0366   -0.0002
          38    0.0000    0.0156   -0.0000    0.0302    0.0001   -0.0000    0.0344   -0.0001
          39    0.0716    0.0002   -0.0921    0.0000    0.0759   -0.0423    0.0000   -0.1589
          40   -0.0001   -0.0007   -0.0001    0.0496   -0.0001   -0.0000   -0.0366    0.0002
          41   -0.0001    0.0156   -0.0001   -0.0303   -0.0001   -0.0001   -0.0344    0.0002
          42   -0.0719   -0.0002   -0.0919    0.0001   -0.0757   -0.0425   -0.0000    0.1589
          43   -0.0110    0.1286    0.0349    0.0726   -0.0340   -0.0676    0.0524   -0.0875
          44    0.0337   -0.0630    0.0356   -0.0546   -0.0846   -0.0286    0.0483    0.0125
          45   -0.0624    0.0000   -0.0707    0.0000    0.0832    0.0529   -0.0019    0.0247
          46    0.0109    0.1288   -0.0348    0.0725    0.0338    0.0676    0.0520    0.0875
          47   -0.0335   -0.0631   -0.0355   -0.0546    0.0844    0.0284    0.0494   -0.0125
          48   -0.0625    0.0001   -0.0708   -0.0001    0.0834    0.0530    0.0025    0.0247
          49   -0.0111   -0.1288   -0.0348    0.0724   -0.0341    0.0677    0.0521   -0.0876
          50   -0.0334   -0.0632    0.0355    0.0546    0.0843   -0.0280   -0.0494   -0.0128
          51    0.0623    0.0000   -0.0711   -0.0002   -0.0836    0.0529    0.0026   -0.0247
          52    0.0112   -0.1286    0.0349    0.0725    0.0342   -0.0676    0.0523    0.0876
          53    0.0337   -0.0631   -0.0359    0.0547   -0.0847    0.0284   -0.0483    0.0127
          54    0.0622    0.0001   -0.0709   -0.0001   -0.0832    0.0527   -0.0018   -0.0247


   Root No.       9        10        11        12        13        14        15        16

                 9 A      10 A      11 A      12 A      13 A      14 A      15 A      16 A   

                 466.6     509.7     541.2     554.2     569.7     627.2     717.0     771.6
  
           1   -0.0001    0.0085    0.0000   -0.0000    0.0062   -0.0315    0.0000   -0.0000
           2   -0.0001    0.0254   -0.0000   -0.0000   -0.0185    0.0171   -0.0000    0.0000
           3    0.0510   -0.0000   -0.0280   -0.0037   -0.0000   -0.0001    0.0831    0.0237
           4   -0.0001   -0.0084    0.0000    0.0000   -0.0062   -0.0315   -0.0000   -0.0000
           5    0.0002    0.0254   -0.0000   -0.0000   -0.0185   -0.0170   -0.0002    0.0000
           6    0.0510    0.0000   -0.0280    0.0036    0.0001   -0.0001   -0.0830    0.0239
           7    0.0000   -0.0432    0.0000    0.0001    0.0618   -0.0288    0.0001   -0.0001
           8   -0.0000   -0.0136   -0.0000    0.0000    0.0213    0.0427    0.0000   -0.0000
           9   -0.0134   -0.0000    0.0117   -0.0196    0.0000    0.0000   -0.0046   -0.0279
          10    0.0000    0.0432    0.0000   -0.0001   -0.0618   -0.0287   -0.0001   -0.0001
          11    0.0000   -0.0136    0.0000    0.0001    0.0212   -0.0427    0.0000    0.0000
          12   -0.0134    0.0001    0.0116    0.0197   -0.0001    0.0001    0.0045   -0.0280
          13    0.0001   -0.0032   -0.0000    0.0000    0.0028    0.0012    0.0000    0.0000
          14   -0.0001   -0.0392   -0.0000    0.0001    0.0653    0.0318    0.0001   -0.0001
          15    0.0076    0.0001   -0.0058    0.0155   -0.0001   -0.0000    0.0264   -0.0208
          16    0.0001    0.0031   -0.0000   -0.0000   -0.0029    0.0012   -0.0000    0.0000
          17    0.0001   -0.0392   -0.0000    0.0001    0.0652   -0.0318    0.0000    0.0001
          18    0.0076   -0.0000   -0.0058   -0.0156   -0.0000    0.0000   -0.0264   -0.0208
          19   -0.0001    0.0112    0.0000   -0.0000   -0.0164   -0.0061    0.0000    0.0000
          20   -0.0001    0.0406    0.0000   -0.0001   -0.0166    0.0012    0.0000    0.0000
          21    0.0004    0.0000    0.0013   -0.0001   -0.0000    0.0000   -0.0093   -0.0030
          22   -0.0001   -0.0113    0.0000    0.0000    0.0164   -0.0060   -0.0000    0.0000
          23    0.0001    0.0406   -0.0000   -0.0001   -0.0166   -0.0012    0.0000   -0.0001
          24    0.0003   -0.0001    0.0013    0.0002    0.0000    0.0000    0.0093   -0.0030
          25    0.0000    0.0977   -0.0000   -0.0001    0.0565    0.0727    0.0001   -0.0000
          26   -0.0002   -0.0216    0.0000   -0.0000   -0.0581   -0.0481   -0.0000    0.0000
          27   -0.0437    0.0000    0.0118    0.0023    0.0000    0.0000   -0.0168   -0.0031
          28    0.0001   -0.0977   -0.0000    0.0001   -0.0565    0.0727   -0.0001    0.0000
          29    0.0001   -0.0217   -0.0000   -0.0000   -0.0581    0.0481    0.0000   -0.0000
          30   -0.0437    0.0000    0.0117   -0.0023    0.0001   -0.0001    0.0168   -0.0031
          31   -0.0000   -0.0422    0.0001    0.0000    0.0617   -0.0282   -0.0001    0.0001
          32    0.0001   -0.0221   -0.0000    0.0000    0.0206    0.0686   -0.0000    0.0001
          33   -0.0850   -0.0002    0.0973   -0.0535    0.0003    0.0004   -0.1972    0.1252
          34   -0.0001    0.0422    0.0001   -0.0000   -0.0617   -0.0282    0.0002    0.0001
          35   -0.0002   -0.0221    0.0002    0.0001    0.0206   -0.0685    0.0003    0.0002
          36   -0.0852    0.0002    0.0972    0.0541   -0.0003    0.0005    0.1975    0.1250
          37    0.0001    0.0209   -0.0000    0.0000   -0.0359    0.0529    0.0000    0.0003
          38   -0.0001   -0.0265    0.0000    0.0001    0.0451    0.0596    0.0001    0.0000
          39   -0.0156    0.0002    0.0340    0.0587   -0.0002    0.0001    0.0230    0.2314
          40    0.0001   -0.0210   -0.0000   -0.0000    0.0359    0.0528   -0.0000    0.0003
          41    0.0001   -0.0265    0.0000   -0.0000    0.0450   -0.0596   -0.0000    0.0004
          42   -0.0156   -0.0002    0.0343   -0.0585    0.0001    0.0002   -0.0225    0.2317
          43    0.0714   -0.0349    0.1405   -0.1442   -0.0607   -0.0578    0.0048   -0.0314
          44   -0.1160    0.0753   -0.0660    0.0948    0.0072    0.0334   -0.0650    0.0019
          45    0.0393   -0.0022   -0.0113   -0.0021    0.0017    0.0002    0.0252    0.0070
          46   -0.0718   -0.0339   -0.1403    0.1442   -0.0611   -0.0580   -0.0049    0.0315
          47    0.1157    0.0747    0.0660   -0.0950    0.0073    0.0334    0.0650   -0.0019
          48    0.0394    0.0023   -0.0113   -0.0022   -0.0018   -0.0003    0.0253    0.0071
          49   -0.0714    0.0338   -0.1394   -0.1450    0.0610   -0.0579    0.0049    0.0316
          50   -0.1156    0.0747   -0.0655   -0.0956    0.0073   -0.0335    0.0650    0.0018
          51    0.0396   -0.0024   -0.0112    0.0023    0.0018   -0.0002   -0.0254    0.0071
          52    0.0710    0.0349    0.1395    0.1450    0.0608   -0.0578   -0.0048   -0.0315
          53    0.1160    0.0754    0.0655    0.0954    0.0073   -0.0335   -0.0650   -0.0018
          54    0.0391    0.0021   -0.0114    0.0020   -0.0017    0.0003   -0.0251    0.0071


   Root No.      17        18        19        20        21        22        23        24

                17 A      18 A      19 A      20 A      21 A      22 A      23 A      24 A   

                 788.5     827.5     857.9     913.6     916.4     968.7     986.3     989.3
  
           1   -0.0322    0.0249   -0.0000    0.0000    0.0000   -0.0000    0.0009    0.0006
           2    0.0131   -0.0160   -0.0000    0.0000   -0.0000   -0.0000   -0.0008    0.0001
           3    0.0000    0.0001    0.0315    0.0081    0.0199    0.0113   -0.0000    0.0000
           4    0.0322    0.0249    0.0000    0.0000   -0.0000   -0.0000    0.0009   -0.0005
           5    0.0131    0.0160   -0.0001    0.0000   -0.0000    0.0000    0.0008    0.0001
           6   -0.0001    0.0001   -0.0315    0.0084   -0.0198    0.0114   -0.0000   -0.0000
           7   -0.0640    0.0550   -0.0000    0.0000    0.0000   -0.0000   -0.0044   -0.0014
           8    0.0397    0.0182   -0.0000    0.0000   -0.0000   -0.0000    0.0020    0.0008
           9    0.0001   -0.0001   -0.0310    0.0022   -0.0043   -0.0446    0.0000    0.0000
          10    0.0640    0.0550    0.0000    0.0000   -0.0000   -0.0000   -0.0044    0.0013
          11    0.0397   -0.0182    0.0000    0.0000    0.0000   -0.0001   -0.0020    0.0008
          12   -0.0001   -0.0001    0.0311    0.0022    0.0043   -0.0447    0.0000   -0.0000
          13   -0.0060   -0.0468   -0.0000   -0.0000   -0.0000    0.0000    0.0010   -0.0010
          14    0.0119    0.0793   -0.0000    0.0000   -0.0000    0.0000    0.0007    0.0022
          15    0.0000   -0.0001   -0.0286   -0.0038   -0.0084    0.0316   -0.0000   -0.0000
          16    0.0060   -0.0468    0.0000   -0.0000    0.0000    0.0000    0.0010    0.0010
          17    0.0119   -0.0793    0.0000   -0.0000    0.0000    0.0000   -0.0007    0.0022
          18   -0.0000    0.0001    0.0286   -0.0039    0.0083    0.0318   -0.0000   -0.0000
          19   -0.0245   -0.0170    0.0000   -0.0000   -0.0000   -0.0000   -0.0420   -0.0445
          20   -0.0378   -0.0274    0.0000   -0.0000   -0.0000    0.0000    0.0259    0.0272
          21   -0.0000   -0.0000   -0.0098    0.0426    0.0397    0.0034    0.0000    0.0000
          22    0.0245   -0.0170   -0.0000   -0.0000    0.0000   -0.0000   -0.0427    0.0438
          23   -0.0378    0.0274    0.0000    0.0001   -0.0001   -0.0000   -0.0264    0.0268
          24    0.0001   -0.0001    0.0098    0.0431   -0.0393    0.0034    0.0000   -0.0001
          25   -0.0043   -0.0166    0.0000    0.0000    0.0000    0.0000    0.0156    0.0168
          26   -0.0303   -0.0121    0.0000    0.0000    0.0000    0.0000   -0.0103   -0.0111
          27    0.0000   -0.0000    0.0012   -0.0384   -0.0383   -0.0053    0.0000   -0.0000
          28    0.0042   -0.0165   -0.0000    0.0000   -0.0000    0.0000    0.0158   -0.0165
          29   -0.0304    0.0121    0.0000   -0.0001    0.0001   -0.0000    0.0105   -0.0110
          30    0.0001   -0.0000   -0.0013   -0.0389    0.0378   -0.0054   -0.0000    0.0000
          31   -0.0650    0.0562    0.0002   -0.0000    0.0000    0.0002   -0.0045   -0.0014
          32    0.0886   -0.0459    0.0001   -0.0000    0.0000    0.0001    0.0050   -0.0021
          33   -0.0000    0.0003    0.1673   -0.0170    0.0111    0.2117   -0.0000    0.0000
          34    0.0651    0.0562   -0.0002   -0.0000   -0.0000    0.0002   -0.0045    0.0013
          35    0.0885    0.0459   -0.0002   -0.0000   -0.0000    0.0003   -0.0050   -0.0022
          36   -0.0002    0.0001   -0.1671   -0.0168   -0.0112    0.2118   -0.0000    0.0000
          37    0.0465   -0.0150    0.0002    0.0000    0.0000   -0.0002    0.0130   -0.0014
          38    0.0421    0.0969    0.0001    0.0000    0.0000   -0.0001    0.0071    0.0022
          39   -0.0002    0.0004    0.1421    0.0244    0.0442   -0.1590   -0.0000    0.0000
          40   -0.0466   -0.0151   -0.0002    0.0000   -0.0000   -0.0002    0.0129    0.0016
          41    0.0422   -0.0969   -0.0002    0.0000   -0.0001   -0.0002   -0.0071    0.0021
          42   -0.0001    0.0006   -0.1416    0.0250   -0.0440   -0.1595    0.0000   -0.0000
          43   -0.0443   -0.0180   -0.0227    0.0885    0.0851   -0.0013    0.1685    0.1775
          44   -0.0454   -0.0444   -0.0340    0.1419    0.1308    0.0154   -0.1072   -0.1140
          45    0.0087    0.0075    0.0172   -0.0676   -0.0631   -0.0047   -0.0000    0.0003
          46   -0.0445   -0.0178    0.0227   -0.0884   -0.0851    0.0014    0.1685    0.1775
          47   -0.0454   -0.0444    0.0340   -0.1418   -0.1307   -0.0154   -0.1073   -0.1140
          48   -0.0088   -0.0076    0.0173   -0.0678   -0.0633   -0.0047    0.0000   -0.0004
          49    0.0446   -0.0179   -0.0227   -0.0895    0.0842    0.0013    0.1710   -0.1747
          50   -0.0453    0.0443    0.0340    0.1431   -0.1290    0.0155    0.1091   -0.1124
          51    0.0089   -0.0076   -0.0174   -0.0688    0.0628   -0.0048   -0.0002    0.0005
          52    0.0445   -0.0181    0.0227    0.0896   -0.0842   -0.0013    0.1710   -0.1747
          53   -0.0454    0.0444   -0.0341   -0.1434    0.1293   -0.0155    0.1091   -0.1124
          54   -0.0087    0.0075   -0.0172   -0.0680    0.0621   -0.0047   -0.0002   -0.0001


   Root No.      25        26        27        28        29        30        31        32

                25 A      26 A      27 A      28 A      29 A      30 A      31 A      32 A   

                1002.3    1078.0    1108.5    1153.8    1186.6    1211.3    1231.2    1324.2
  
           1    0.0000   -0.0041    0.0294   -0.0110   -0.0387    0.0109   -0.0067    0.0357
           2    0.0000   -0.0039   -0.0069    0.0038    0.0101    0.0204   -0.0274   -0.0097
           3   -0.0168   -0.0000    0.0000   -0.0000    0.0000   -0.0000   -0.0000    0.0000
           4   -0.0000    0.0041    0.0294    0.0110   -0.0387    0.0109    0.0066    0.0357
           5    0.0000   -0.0039    0.0069    0.0038   -0.0101   -0.0205   -0.0273    0.0097
           6    0.0168    0.0000   -0.0000    0.0000    0.0000    0.0000    0.0001   -0.0000
           7    0.0000    0.0233   -0.0332    0.0005    0.0147   -0.0081   -0.0131   -0.0283
           8    0.0000    0.0031   -0.0024   -0.0025   -0.0005    0.0152    0.0012    0.0299
           9    0.0426   -0.0000    0.0000   -0.0000   -0.0000   -0.0000    0.0000    0.0000
          10   -0.0000   -0.0233   -0.0332   -0.0005    0.0147   -0.0081    0.0132   -0.0282
          11   -0.0001    0.0031    0.0025   -0.0025    0.0005   -0.0152    0.0013   -0.0299
          12   -0.0425    0.0000    0.0000    0.0000   -0.0000    0.0000   -0.0000    0.0001
          13   -0.0001    0.0389    0.0037   -0.0015    0.0110    0.0130   -0.0139    0.0195
          14   -0.0000   -0.0273   -0.0039   -0.0061    0.0054   -0.0011    0.0122    0.0094
          15   -0.0550   -0.0000    0.0000    0.0000   -0.0000   -0.0000    0.0000   -0.0000
          16    0.0001   -0.0389    0.0037    0.0015    0.0110    0.0130    0.0139    0.0195
          17    0.0001   -0.0273    0.0039   -0.0061   -0.0054    0.0011    0.0122   -0.0094
          18    0.0550    0.0001    0.0000    0.0000   -0.0000   -0.0000   -0.0000   -0.0000
          19   -0.0000    0.0020   -0.0033    0.0003    0.0024   -0.0035   -0.0006   -0.0147
          20   -0.0000    0.0049   -0.0102    0.0011    0.0070   -0.0048   -0.0014   -0.0252
          21   -0.0023    0.0000   -0.0000   -0.0000    0.0000    0.0000   -0.0000   -0.0000
          22    0.0000   -0.0020   -0.0033   -0.0003    0.0024   -0.0035    0.0006   -0.0147
          23   -0.0000    0.0049    0.0102    0.0011   -0.0070    0.0048   -0.0014    0.0252
          24    0.0023   -0.0000   -0.0000   -0.0000    0.0000   -0.0000    0.0000   -0.0001
          25   -0.0000    0.0024   -0.0077    0.0009    0.0040    0.0055   -0.0077   -0.0092
          26   -0.0000   -0.0003    0.0036   -0.0006   -0.0062    0.0064   -0.0114   -0.0062
          27    0.0052   -0.0000    0.0000    0.0000   -0.0000    0.0000   -0.0000    0.0000
          28    0.0000   -0.0024   -0.0077   -0.0009    0.0040    0.0055    0.0077   -0.0092
          29   -0.0000   -0.0003   -0.0036   -0.0006    0.0062   -0.0064   -0.0114    0.0062
          30   -0.0052    0.0000    0.0000    0.0000   -0.0000    0.0000    0.0000   -0.0000
          31   -0.0002    0.0255   -0.0335   -0.0013    0.0158   -0.0084   -0.0147   -0.0299
          32   -0.0001    0.2255   -0.0972    0.1802   -0.2826   -0.0718    0.0238   -0.0308
          33   -0.1583   -0.0001    0.0001   -0.0001    0.0001    0.0001   -0.0000    0.0001
          34    0.0002   -0.0254   -0.0335    0.0014    0.0158   -0.0083    0.0147   -0.0299
          35    0.0002    0.2252    0.0973    0.1801    0.2828    0.0719    0.0236    0.0309
          36    0.1576   -0.0003   -0.0001   -0.0002   -0.0004   -0.0001   -0.0000   -0.0000
          37    0.0002    0.1533    0.2097   -0.2482   -0.0012   -0.0831    0.0079   -0.0934
          38    0.0001    0.0322    0.1045   -0.1385   -0.0026   -0.0526    0.0261   -0.0497
          39    0.2017   -0.0002   -0.0003    0.0004    0.0000    0.0001   -0.0000    0.0001
          40   -0.0002   -0.1535    0.2095    0.2483   -0.0012   -0.0831   -0.0075   -0.0934
          41   -0.0003    0.0323   -0.1044   -0.1385    0.0026    0.0526    0.0259    0.0497
          42   -0.2011    0.0001   -0.0001   -0.0001    0.0000    0.0000   -0.0000    0.0001
          43   -0.0022    0.0105   -0.0223    0.0033    0.0319   -0.0605    0.0854    0.0438
          44   -0.0086    0.0110   -0.0268    0.0048    0.0496   -0.0970    0.1348    0.0688
          45    0.0032   -0.0053    0.0135   -0.0026   -0.0298    0.0628   -0.0939   -0.0672
          46    0.0021    0.0105   -0.0223    0.0033    0.0319   -0.0605    0.0854    0.0438
          47    0.0086    0.0109   -0.0268    0.0048    0.0496   -0.0970    0.1347    0.0688
          48    0.0032    0.0053   -0.0136    0.0027    0.0299   -0.0630    0.0942    0.0673
          49   -0.0022   -0.0105   -0.0224   -0.0033    0.0320   -0.0608   -0.0853    0.0438
          50    0.0085    0.0109    0.0268    0.0048   -0.0495    0.0971    0.1341   -0.0685
          51   -0.0032   -0.0054   -0.0136   -0.0027    0.0300   -0.0634   -0.0942    0.0674
          52    0.0022   -0.0105   -0.0224   -0.0033    0.0320   -0.0608   -0.0854    0.0438
          53   -0.0086    0.0109    0.0268    0.0048   -0.0497    0.0974    0.1346   -0.0688
          54   -0.0032    0.0053    0.0135    0.0027   -0.0297    0.0629    0.0935   -0.0670


   Root No.      33        34        35        36        37        38        39        40

                33 A      34 A      35 A      36 A      37 A      38 A      39 A      40 A   

                1356.8    1518.5    1530.9    1561.9    1799.6    1845.8    2223.5    2244.4
  
           1    0.0266   -0.0266    0.0116   -0.1429    0.0003   -0.0043   -0.0475    0.0449
           2   -0.0371    0.0729    0.0993   -0.0308   -0.0213    0.0332   -0.0692    0.0754
           3   -0.0000    0.0000   -0.0000   -0.0000    0.0000   -0.0000   -0.0000    0.0000
           4   -0.0266    0.0265    0.0117    0.1430   -0.0003   -0.0043    0.0474    0.0451
           5   -0.0372    0.0735   -0.0988   -0.0310   -0.0212   -0.0332   -0.0689   -0.0756
           6    0.0001   -0.0001    0.0002    0.0001    0.0000    0.0001    0.0001    0.0002
           7   -0.0173    0.0296    0.0252    0.0162    0.0620   -0.0447   -0.0033   -0.0004
           8   -0.0205   -0.0606   -0.0162   -0.0139    0.1380   -0.1293   -0.0047    0.0008
           9    0.0000    0.0000   -0.0000   -0.0000   -0.0001    0.0001    0.0000   -0.0000
          10    0.0173   -0.0298    0.0250   -0.0162   -0.0620   -0.0447    0.0033   -0.0004
          11   -0.0205   -0.0607    0.0158   -0.0139    0.1380    0.1293   -0.0047   -0.0008
          12    0.0000    0.0001   -0.0001    0.0000   -0.0001   -0.0001    0.0000   -0.0000
          13   -0.0466   -0.0640   -0.0205   -0.0080   -0.1267    0.0647    0.0066   -0.0010
          14    0.0197    0.0006   -0.0299    0.0061   -0.1103    0.1048    0.0066   -0.0037
          15    0.0000    0.0001    0.0000    0.0000    0.0002   -0.0001   -0.0000    0.0000
          16    0.0466    0.0641   -0.0201    0.0080    0.1266    0.0647   -0.0066   -0.0010
          17    0.0197    0.0004    0.0299    0.0061   -0.1103   -0.1048    0.0066    0.0037
          18   -0.0001   -0.0001   -0.0000   -0.0000   -0.0000    0.0001   -0.0000   -0.0000
          19    0.0153   -0.0204   -0.0378    0.0370   -0.0014   -0.0046   -0.0439    0.0440
          20    0.0225   -0.0308   -0.0577    0.0614   -0.0019   -0.0071   -0.0690    0.0693
          21    0.0000   -0.0000   -0.0000    0.0000   -0.0000   -0.0000   -0.0000    0.0000
          22   -0.0154    0.0207   -0.0377   -0.0371    0.0014   -0.0046    0.0438    0.0442
          23    0.0224   -0.0311    0.0574    0.0615   -0.0019    0.0071   -0.0688   -0.0696
          24   -0.0001    0.0001   -0.0001   -0.0002    0.0000   -0.0000    0.0002    0.0002
          25    0.0008    0.0033    0.0112   -0.0038    0.0062    0.0020    0.0901   -0.0910
          26    0.0075    0.0035    0.0067   -0.0159    0.0021    0.0056    0.1414   -0.1455
          27   -0.0000    0.0000    0.0000   -0.0000    0.0000    0.0000    0.0001   -0.0001
          28   -0.0008   -0.0033    0.0112    0.0039   -0.0062    0.0020   -0.0899   -0.0914
          29    0.0075    0.0035   -0.0066   -0.0159    0.0021   -0.0056    0.1408    0.1460
          30   -0.0000   -0.0000    0.0000    0.0000   -0.0000    0.0000   -0.0003   -0.0003
          31   -0.0202    0.0306    0.0289    0.0144    0.0842   -0.0655   -0.0092    0.0016
          32    0.1223    0.0709    0.0311   -0.0590   -0.0257    0.0440   -0.0066    0.0081
          33   -0.0001   -0.0000   -0.0000    0.0000   -0.0001    0.0001    0.0000    0.0000
          34    0.0203   -0.0308    0.0287   -0.0144   -0.0842   -0.0655    0.0092    0.0017
          35    0.1223    0.0711   -0.0307   -0.0590   -0.0257   -0.0440   -0.0066   -0.0081
          36   -0.0002   -0.0001    0.0000    0.0001    0.0002    0.0001    0.0000    0.0000
          37    0.0288    0.0541    0.0597    0.0175    0.0313   -0.0890   -0.0024    0.0026
          38    0.0655    0.0663    0.0084    0.0211   -0.0500    0.0440    0.0060   -0.0050
          39   -0.0001   -0.0001   -0.0001   -0.0000   -0.0000    0.0001   -0.0000    0.0000
          40   -0.0288   -0.0545    0.0594   -0.0175   -0.0313   -0.0891    0.0024    0.0026
          41    0.0655    0.0663   -0.0080    0.0211   -0.0500   -0.0440    0.0060    0.0051
          42   -0.0000   -0.0000   -0.0001    0.0000    0.0001    0.0002   -0.0000   -0.0000
          43   -0.0280    0.0093    0.0165   -0.0157   -0.0007   -0.0006   -0.0190    0.0193
          44   -0.0459    0.0170    0.0272   -0.0215   -0.0016   -0.0003   -0.0302    0.0309
          45    0.0499   -0.0379   -0.0682    0.0679    0.0002   -0.0070   -0.0570    0.0592
          46   -0.0280    0.0092    0.0165   -0.0156   -0.0007   -0.0007   -0.0191    0.0193
          47   -0.0458    0.0169    0.0271   -0.0214   -0.0016   -0.0003   -0.0303    0.0310
          48   -0.0500    0.0379    0.0683   -0.0680   -0.0002    0.0070    0.0570   -0.0592
          49    0.0280   -0.0094    0.0164    0.0156    0.0007   -0.0007    0.0191    0.0194
          50   -0.0457    0.0170   -0.0268   -0.0213   -0.0016    0.0003   -0.0303   -0.0312
          51    0.0501   -0.0384    0.0680    0.0681    0.0002    0.0069   -0.0567   -0.0593
          52    0.0281   -0.0094    0.0165    0.0157    0.0007   -0.0006    0.0190    0.0194
          53   -0.0459    0.0172   -0.0271   -0.0216   -0.0016    0.0003   -0.0300   -0.0309
          54   -0.0498    0.0383   -0.0678   -0.0680   -0.0002   -0.0069    0.0568    0.0595


   Root No.      41        42        43        44        45        46        47        48

                41 A      42 A      43 A      44 A      45 A      46 A      47 A      48 A   

                3051.8    3054.6    3067.9    3077.3    3111.4    3111.5    3115.0    3115.1
  
           1    0.0002   -0.0002    0.0001    0.0003    0.0003   -0.0001   -0.0000    0.0000
           2    0.0002   -0.0003   -0.0004    0.0007    0.0003    0.0001   -0.0000    0.0000
           3   -0.0000    0.0000   -0.0000   -0.0000   -0.0000   -0.0000   -0.0002   -0.0001
           4    0.0002    0.0002    0.0001   -0.0003    0.0003   -0.0000   -0.0000    0.0000
           5   -0.0001   -0.0003    0.0004    0.0007   -0.0002    0.0002    0.0000   -0.0000
           6    0.0000    0.0000   -0.0000   -0.0000    0.0000   -0.0000    0.0000   -0.0002
           7   -0.0184   -0.0239   -0.0215    0.0170   -0.0000    0.0001    0.0000   -0.0000
           8   -0.0000   -0.0003   -0.0024    0.0025    0.0002    0.0002   -0.0000   -0.0000
           9    0.0000    0.0000    0.0000   -0.0000   -0.0000   -0.0000   -0.0000   -0.0000
          10   -0.0189    0.0234   -0.0216   -0.0168   -0.0001   -0.0001    0.0000    0.0000
          11    0.0000   -0.0003    0.0024    0.0025   -0.0001    0.0003    0.0000   -0.0000
          12    0.0000   -0.0000    0.0000    0.0000    0.0000   -0.0000    0.0000   -0.0000
          13    0.0096    0.0079   -0.0069    0.0103    0.0000   -0.0000   -0.0000    0.0000
          14   -0.0178   -0.0132    0.0185   -0.0231   -0.0002   -0.0003    0.0000    0.0000
          15    0.0000   -0.0000   -0.0000    0.0000    0.0000    0.0000   -0.0000   -0.0000
          16    0.0098   -0.0077   -0.0070   -0.0103    0.0000    0.0000   -0.0000   -0.0000
          17    0.0182   -0.0128   -0.0187   -0.0229    0.0001   -0.0003   -0.0000    0.0000
          18   -0.0000    0.0000    0.0000    0.0000   -0.0000    0.0000   -0.0000   -0.0000
          19   -0.0000   -0.0000   -0.0000   -0.0001    0.0146    0.0110   -0.0000   -0.0000
          20   -0.0000   -0.0000    0.0000   -0.0001    0.0230    0.0173   -0.0000   -0.0000
          21   -0.0000   -0.0000   -0.0000   -0.0000   -0.0001   -0.0000   -0.0517   -0.0132
          22   -0.0000    0.0000   -0.0000    0.0001    0.0111   -0.0145   -0.0001    0.0002
          23    0.0000   -0.0000   -0.0000   -0.0001   -0.0174    0.0228    0.0001   -0.0004
          24   -0.0000    0.0000    0.0000    0.0000    0.0003   -0.0004    0.0132   -0.0517
          25   -0.0001   -0.0000    0.0000   -0.0001   -0.0026   -0.0019    0.0000    0.0000
          26    0.0001    0.0003    0.0003   -0.0003   -0.0041   -0.0029    0.0000    0.0000
          27    0.0000    0.0000    0.0000   -0.0000   -0.0000   -0.0000   -0.0004   -0.0001
          28   -0.0001    0.0000    0.0000    0.0001   -0.0020    0.0025    0.0000   -0.0000
          29   -0.0001    0.0003   -0.0003   -0.0003    0.0032   -0.0039   -0.0000    0.0001
          30    0.0000   -0.0000    0.0000    0.0000   -0.0000    0.0000    0.0001   -0.0004
          31    0.2155    0.2805    0.2382   -0.1795   -0.0002   -0.0015   -0.0000    0.0000
          32   -0.0007   -0.0001    0.0021   -0.0020    0.0000   -0.0000   -0.0000    0.0000
          33   -0.0002   -0.0003   -0.0002    0.0002    0.0000    0.0000   -0.0000   -0.0000
          34    0.2216   -0.2748    0.2401    0.1779    0.0002    0.0015    0.0000   -0.0000
          35    0.0006   -0.0000   -0.0022   -0.0020   -0.0000   -0.0000    0.0000    0.0000
          36   -0.0002    0.0003   -0.0003   -0.0002    0.0000   -0.0000   -0.0000   -0.0000
          37   -0.1116   -0.0894    0.0992   -0.1293   -0.0007   -0.0012    0.0000    0.0000
          38    0.2104    0.1625   -0.1921    0.2419    0.0014    0.0022   -0.0000   -0.0000
          39   -0.0000   -0.0000    0.0000   -0.0000   -0.0000   -0.0000    0.0000    0.0000
          40   -0.1140    0.0868    0.1002    0.1282   -0.0004    0.0013    0.0000   -0.0000
          41   -0.2147    0.1576    0.1940    0.2397   -0.0007    0.0024    0.0000   -0.0000
          42    0.0004   -0.0003   -0.0003   -0.0004    0.0000   -0.0000   -0.0000    0.0000
          43    0.0002    0.0000   -0.0002    0.0006   -0.0726   -0.0548    0.1092    0.0279
          44    0.0003    0.0000   -0.0003    0.0010   -0.1147   -0.0865    0.1726    0.0441
          45    0.0006    0.0001   -0.0005    0.0020   -0.2293   -0.1731    0.3121    0.0798
          46    0.0002    0.0000   -0.0002    0.0006   -0.0731   -0.0551   -0.1089   -0.0278
          47    0.0003    0.0000   -0.0003    0.0010   -0.1156   -0.0872   -0.1723   -0.0440
          48   -0.0006   -0.0001    0.0005   -0.0020    0.2301    0.1737    0.3103    0.0792
          49    0.0002   -0.0000   -0.0002   -0.0006   -0.0549    0.0720    0.0282   -0.1103
          50   -0.0003   -0.0000    0.0003    0.0010    0.0869   -0.1139   -0.0446    0.1746
          51   -0.0006    0.0001    0.0006    0.0020    0.1725   -0.2263   -0.0801    0.3136
          52    0.0002   -0.0000   -0.0002   -0.0006   -0.0558    0.0732   -0.0277    0.1082
          53   -0.0003   -0.0000    0.0003    0.0010    0.0876   -0.1150    0.0434   -0.1701
          54    0.0006   -0.0001   -0.0006   -0.0020   -0.1759    0.2308   -0.0789    0.3087


           MASS-WEIGHTED COORDINATE ANALYSIS (NORMAL COORDINATES)


   Root No.       1         2         3         4         5         6         7         8

                 1 A       2 A       3 A       4 A       5 A       6 A       7 A       8 A   

                  50.8     111.6     139.6     191.2     275.7     309.3     410.3     428.1
  
           1    0.0000   -0.0030    0.0000   -0.2784   -0.0000   -0.0001    0.1361    0.0000
           2   -0.0002    0.1028    0.0004    0.1176   -0.0001    0.0001    0.2428    0.0001
           3    0.0804    0.0002    0.3754    0.0001   -0.2177   -0.0629    0.0006    0.1785
           4    0.0000    0.0031    0.0000   -0.2784    0.0000   -0.0001    0.1361    0.0000
           5   -0.0003    0.1029    0.0003   -0.1176    0.0004   -0.0002   -0.2429   -0.0003
           6   -0.0792   -0.0003    0.3759    0.0003    0.2175   -0.0624    0.0012   -0.1785
           7    0.0004   -0.0123   -0.0001   -0.0416    0.0001    0.0003   -0.1583   -0.0000
           8    0.0001    0.0871    0.0003    0.2416    0.0000    0.0003    0.1092    0.0001
           9    0.4227    0.0007    0.1810   -0.0003    0.0114    0.3815   -0.0009    0.2228
          10   -0.0003    0.0123   -0.0001   -0.0416   -0.0000    0.0003   -0.1583   -0.0000
          11   -0.0007    0.0872    0.0000   -0.2417    0.0000    0.0004   -0.1093   -0.0004
          12   -0.4220   -0.0009    0.1824    0.0001   -0.0124    0.3814   -0.0006   -0.2224
          13    0.0003   -0.0011   -0.0005    0.1743    0.0002   -0.0001   -0.2801   -0.0005
          14   -0.0001    0.0836   -0.0001    0.1198    0.0001   -0.0001    0.1537   -0.0004
          15    0.2593    0.0004   -0.3265    0.0002    0.1674   -0.1884    0.0005   -0.3620
          16   -0.0003    0.0010   -0.0005    0.1743   -0.0002   -0.0001   -0.2801    0.0004
          17   -0.0006    0.0837   -0.0005   -0.1199   -0.0002   -0.0002   -0.1537    0.0002
          18   -0.2604   -0.0006   -0.3258    0.0003   -0.1666   -0.1891    0.0006    0.3618
          19   -0.0004    0.5385    0.0004    0.2794   -0.0003    0.0001    0.2129    0.0001
          20    0.0003   -0.2394    0.0005   -0.2373   -0.0003   -0.0002    0.2878    0.0001
          21   -0.3406    0.0002   -0.2839   -0.0001    0.1761    0.1064    0.0003    0.0091
          22    0.0004   -0.5384    0.0005    0.2789    0.0003    0.0001    0.2130   -0.0000
          23    0.0010   -0.2399   -0.0010    0.2376   -0.0006    0.0004   -0.2877   -0.0001
          24    0.3398    0.0002   -0.2851   -0.0006   -0.1761    0.1059    0.0008   -0.0090
          25   -0.0002    0.1438    0.0001   -0.2453    0.0001   -0.0003    0.0708    0.0000
          26    0.0000    0.0102    0.0004    0.0966   -0.0000    0.0003    0.3376    0.0003
          27   -0.1185    0.0002    0.1645    0.0000   -0.4959   -0.3617   -0.0015   -0.2231
          28    0.0002   -0.1437    0.0001   -0.2454   -0.0001   -0.0003    0.0713    0.0000
          29    0.0003    0.0103   -0.0001   -0.0967    0.0009   -0.0010   -0.3375    0.0006
          30    0.1190   -0.0002    0.1646    0.0002    0.4965   -0.3606   -0.0009    0.2228
          31    0.0002   -0.0033    0.0000   -0.0121    0.0001    0.0003   -0.0454    0.0000
          32    0.0001    0.0243    0.0001    0.1295    0.0000    0.0002   -0.0378    0.0000
          33    0.2304    0.0004    0.1008   -0.0002    0.0450    0.2915   -0.0010    0.0809
          34   -0.0002    0.0033    0.0000   -0.0121   -0.0001    0.0003   -0.0454   -0.0000
          35   -0.0003    0.0244    0.0000   -0.1295   -0.0001    0.0003    0.0377   -0.0001
          36   -0.2303   -0.0004    0.1017   -0.0000   -0.0458    0.2918   -0.0010   -0.0807
          37    0.0002    0.0010   -0.0002    0.1015    0.0002   -0.0000   -0.0587   -0.0004
          38    0.0000    0.0250   -0.0001    0.0619    0.0001   -0.0000    0.0552   -0.0003
          39    0.1468    0.0002   -0.1912    0.0001    0.1520   -0.0932    0.0000   -0.3723
          40   -0.0002   -0.0011   -0.0002    0.1015   -0.0002   -0.0000   -0.0587    0.0004
          41   -0.0002    0.0250   -0.0003   -0.0619   -0.0002   -0.0001   -0.0552    0.0004
          42   -0.1475   -0.0003   -0.1909    0.0002   -0.1516   -0.0938   -0.0000    0.3725
          43   -0.0226    0.2060    0.0725    0.1485   -0.0680   -0.1490    0.0840   -0.2050
          44    0.0690   -0.1009    0.0740   -0.1116   -0.1694   -0.0630    0.0775    0.0294
          45   -0.1280    0.0000   -0.1468    0.0000    0.1667    0.1167   -0.0031    0.0579
          46    0.0223    0.2062   -0.0722    0.1482    0.0677    0.1491    0.0834    0.2050
          47   -0.0687   -0.1010   -0.0736   -0.1116    0.1691    0.0627    0.0792   -0.0294
          48   -0.1281    0.0001   -0.1469   -0.0001    0.1670    0.1168    0.0040    0.0580
          49   -0.0227   -0.2062   -0.0722    0.1481   -0.0683    0.1493    0.0835   -0.2052
          50   -0.0684   -0.1012    0.0737    0.1118    0.1688   -0.0618   -0.0792   -0.0300
          51    0.1277    0.0001   -0.1476   -0.0003   -0.1674    0.1166    0.0042   -0.0579
          52    0.0230   -0.2059    0.0726    0.1483    0.0685   -0.1492    0.0839    0.2052
          53    0.0692   -0.1011   -0.0746    0.1118   -0.1697    0.0626   -0.0775    0.0297
          54    0.1274    0.0001   -0.1472   -0.0002   -0.1665    0.1161   -0.0029   -0.0578


   Root No.       9        10        11        12        13        14        15        16

                 9 A      10 A      11 A      12 A      13 A      14 A      15 A      16 A   

                 466.6     509.7     541.2     554.2     569.7     627.2     717.0     771.6
  
           1   -0.0005    0.0455    0.0002   -0.0001    0.0332   -0.1861    0.0001   -0.0002
           2   -0.0007    0.1355   -0.0000   -0.0003   -0.0994    0.1008   -0.0001    0.0001
           3    0.3856   -0.0001   -0.2555   -0.0328   -0.0002   -0.0006    0.5338    0.1899
           4   -0.0005   -0.0451    0.0002    0.0001   -0.0331   -0.1860   -0.0001   -0.0001
           5    0.0014    0.1355   -0.0004   -0.0003   -0.0996   -0.1005   -0.0011    0.0003
           6    0.3857    0.0001   -0.2555    0.0319    0.0003   -0.0003   -0.5332    0.1912
           7    0.0003   -0.2305    0.0002    0.0006    0.3320   -0.1699    0.0004   -0.0007
           8   -0.0003   -0.0727   -0.0001    0.0002    0.1143    0.2525    0.0001   -0.0004
           9   -0.1013   -0.0002    0.1063   -0.1759    0.0001    0.0001   -0.0297   -0.2238
          10    0.0002    0.2305    0.0003   -0.0006   -0.3322   -0.1693   -0.0004   -0.0005
          11    0.0002   -0.0726    0.0003    0.0005    0.1140   -0.2524    0.0001    0.0001
          12   -0.1011    0.0003    0.1054    0.1764   -0.0003    0.0006    0.0288   -0.2243
          13    0.0010   -0.0170   -0.0004    0.0002    0.0152    0.0069    0.0002    0.0002
          14   -0.0005   -0.2095   -0.0001    0.0009    0.3511    0.1877    0.0004   -0.0009
          15    0.0573    0.0006   -0.0531    0.1394   -0.0006   -0.0003    0.1696   -0.1667
          16    0.0010    0.0168   -0.0004   -0.0002   -0.0154    0.0069   -0.0003    0.0003
          17    0.0007   -0.2095   -0.0002    0.0006    0.3508   -0.1880    0.0001    0.0006
          18    0.0575   -0.0001   -0.0526   -0.1397   -0.0000    0.0001   -0.1695   -0.1669
          19   -0.0008    0.0599    0.0001   -0.0003   -0.0883   -0.0358    0.0001    0.0001
          20   -0.0010    0.2168    0.0001   -0.0007   -0.0895    0.0069    0.0001    0.0002
          21    0.0027    0.0001    0.0122   -0.0013   -0.0000    0.0000   -0.0599   -0.0242
          22   -0.0008   -0.0601    0.0001    0.0003    0.0883   -0.0356   -0.0001    0.0002
          23    0.0009    0.2167   -0.0000   -0.0006   -0.0894   -0.0071    0.0002   -0.0004
          24    0.0026   -0.0005    0.0122    0.0014    0.0002    0.0000    0.0598   -0.0243
          25    0.0001    0.5219   -0.0005   -0.0009    0.3040    0.4297    0.0004   -0.0000
          26   -0.0012   -0.1153    0.0004   -0.0001   -0.3123   -0.2839   -0.0001    0.0002
          27   -0.3303    0.0000    0.1071    0.0210    0.0001    0.0001   -0.1079   -0.0247
          28    0.0004   -0.5218   -0.0004    0.0010   -0.3037    0.4296   -0.0003    0.0000
          29    0.0006   -0.1158   -0.0001   -0.0001   -0.3124    0.2841    0.0001   -0.0004
          30   -0.3306    0.0000    0.1069   -0.0209    0.0005   -0.0004    0.1078   -0.0248
          31   -0.0001   -0.0652    0.0003    0.0001    0.0961   -0.0483   -0.0003    0.0002
          32    0.0001   -0.0342   -0.0001    0.0001    0.0321    0.1174   -0.0001    0.0003
          33   -0.1862   -0.0003    0.2570   -0.1390    0.0005    0.0006   -0.3670    0.2905
          34   -0.0001    0.0652    0.0003   -0.0001   -0.0961   -0.0482    0.0003    0.0002
          35   -0.0005   -0.0342    0.0005    0.0003    0.0320   -0.1173    0.0006    0.0004
          36   -0.1866    0.0003    0.2565    0.1406   -0.0005    0.0008    0.3676    0.2902
          37    0.0002    0.0323   -0.0000    0.0001   -0.0559    0.0904    0.0000    0.0006
          38   -0.0002   -0.0410    0.0000    0.0003    0.0703    0.1020    0.0001    0.0001
          39   -0.0342    0.0004    0.0899    0.1527   -0.0003    0.0002    0.0427    0.5371
          40    0.0002   -0.0324   -0.0000   -0.0001    0.0559    0.0903   -0.0000    0.0006
          41    0.0002   -0.0410    0.0001   -0.0000    0.0701   -0.1021   -0.0000    0.0010
          42   -0.0342   -0.0003    0.0906   -0.1522    0.0002    0.0004   -0.0419    0.5378
          43    0.1565   -0.0540    0.3709   -0.3750   -0.0946   -0.0989    0.0089   -0.0730
          44   -0.2542    0.1165   -0.1742    0.2464    0.0112    0.0572   -0.1209    0.0044
          45    0.0861   -0.0034   -0.0299   -0.0056    0.0026    0.0004    0.0469    0.0163
          46   -0.1572   -0.0524   -0.3705    0.3749   -0.0952   -0.0993   -0.0091    0.0731
          47    0.2535    0.1155    0.1742   -0.2469    0.0114    0.0572    0.1210   -0.0043
          48    0.0864    0.0035   -0.0299   -0.0057   -0.0028   -0.0005    0.0471    0.0164
          49   -0.1565    0.0523   -0.3681   -0.3770    0.0950   -0.0991    0.0091    0.0733
          50   -0.2533    0.1155   -0.1730   -0.2485    0.0114   -0.0573    0.1209    0.0041
          51    0.0868   -0.0037   -0.0297    0.0060    0.0027   -0.0004   -0.0473    0.0166
          52    0.1557    0.0540    0.3683    0.3770    0.0947   -0.0989   -0.0090   -0.0731
          53    0.2541    0.1167    0.1729    0.2480    0.0114   -0.0574   -0.1210   -0.0042
          54    0.0857    0.0032   -0.0302    0.0051   -0.0027    0.0005   -0.0467    0.0165


   Root No.      17        18        19        20        21        22        23        24

                17 A      18 A      19 A      20 A      21 A      22 A      23 A      24 A   

                 788.5     827.5     857.9     913.6     916.4     968.7     986.3     989.3
  
           1   -0.2071    0.1402   -0.0000    0.0001    0.0000   -0.0000    0.0062    0.0039
           2    0.0847   -0.0898   -0.0000    0.0000   -0.0000   -0.0000   -0.0056    0.0008
           3    0.0002    0.0007    0.2619    0.0606    0.1536    0.0838   -0.0000    0.0000
           4    0.2071    0.1401    0.0000    0.0001   -0.0000   -0.0001    0.0062   -0.0038
           5    0.0847    0.0899   -0.0006    0.0001   -0.0003    0.0002    0.0056    0.0008
           6   -0.0005    0.0006   -0.2618    0.0624   -0.1529    0.0843   -0.0001   -0.0000
           7   -0.4120    0.3091   -0.0003    0.0000    0.0000   -0.0003   -0.0317   -0.0094
           8    0.2557    0.1020   -0.0001    0.0000   -0.0001   -0.0002    0.0141    0.0056
           9    0.0003   -0.0007   -0.2580    0.0165   -0.0335   -0.3306    0.0001    0.0000
          10    0.4120    0.3092    0.0003    0.0000   -0.0000   -0.0003   -0.0319    0.0088
          11    0.2558   -0.1021    0.0003    0.0000    0.0000   -0.0004   -0.0142    0.0054
          12   -0.0007   -0.0005    0.2582    0.0161    0.0336   -0.3315    0.0001   -0.0000
          13   -0.0386   -0.2633   -0.0003   -0.0000   -0.0001    0.0003    0.0074   -0.0070
          14    0.0767    0.4459   -0.0002    0.0000   -0.0000    0.0001    0.0051    0.0151
          15    0.0000   -0.0003   -0.2381   -0.0284   -0.0648    0.2341   -0.0000   -0.0000
          16    0.0385   -0.2633    0.0003   -0.0000    0.0001    0.0003    0.0072    0.0071
          17    0.0768   -0.4459    0.0003   -0.0001    0.0001    0.0003   -0.0054    0.0150
          18   -0.0001    0.0005    0.2375   -0.0293    0.0645    0.2355   -0.0000   -0.0000
          19   -0.1577   -0.0954    0.0001   -0.0001   -0.0000   -0.0000   -0.3021   -0.3077
          20   -0.2434   -0.1542    0.0001   -0.0002   -0.0001    0.0001    0.1863    0.1880
          21   -0.0001   -0.0002   -0.0811    0.3174    0.3073    0.0251    0.0000    0.0000
          22    0.1579   -0.0955   -0.0001   -0.0001    0.0000   -0.0000   -0.3067    0.3028
          23   -0.2433    0.1542    0.0003    0.0008   -0.0007   -0.0000   -0.1894    0.1854
          24    0.0006   -0.0005    0.0812    0.3208   -0.3037    0.0253    0.0003   -0.0004
          25   -0.0277   -0.0932    0.0001    0.0000    0.0001    0.0000    0.1120    0.1163
          26   -0.1953   -0.0679    0.0000    0.0001    0.0001    0.0001   -0.0740   -0.0771
          27    0.0000   -0.0000    0.0103   -0.2862   -0.2958   -0.0396    0.0000   -0.0000
          28    0.0273   -0.0930   -0.0000    0.0000   -0.0001    0.0000    0.1138   -0.1145
          29   -0.1956    0.0680    0.0000   -0.0006    0.0007   -0.0001    0.0753   -0.0761
          30    0.0004   -0.0002   -0.0104   -0.2895    0.2925   -0.0398   -0.0001    0.0002
          31   -0.1213    0.0915    0.0004   -0.0000    0.0000    0.0005   -0.0093   -0.0028
          32    0.1652   -0.0748    0.0003   -0.0000    0.0000    0.0002    0.0105   -0.0042
          33   -0.0001    0.0004    0.4027   -0.0367    0.0248    0.4545   -0.0001    0.0000
          34    0.1214    0.0916   -0.0004   -0.0000   -0.0000    0.0005   -0.0094    0.0027
          35    0.1652    0.0747   -0.0005   -0.0000   -0.0000    0.0006   -0.0104   -0.0043
          36   -0.0004    0.0002   -0.4023   -0.0363   -0.0250    0.4547   -0.0000    0.0000
          37    0.0868   -0.0245    0.0004    0.0001    0.0001   -0.0005    0.0270   -0.0027
          38    0.0786    0.1578    0.0002    0.0000    0.0000   -0.0003    0.0148    0.0044
          39   -0.0003    0.0007    0.3421    0.0526    0.0991   -0.3413   -0.0000    0.0000
          40   -0.0869   -0.0245   -0.0004    0.0001   -0.0001   -0.0005    0.0269    0.0032
          41    0.0786   -0.1578   -0.0004    0.0001   -0.0001   -0.0003   -0.0149    0.0041
          42   -0.0001    0.0009   -0.3410    0.0539   -0.0986   -0.3425    0.0000   -0.0000
          43   -0.0827   -0.0293   -0.0546    0.1910    0.1907   -0.0028    0.3507    0.3558
          44   -0.0848   -0.0723   -0.0819    0.3062    0.2931    0.0332   -0.2232   -0.2285
          45    0.0163    0.0123    0.0415   -0.1459   -0.1413   -0.0102   -0.0001    0.0006
          46   -0.0830   -0.0289    0.0546   -0.1908   -0.1905    0.0029    0.3509    0.3559
          47   -0.0847   -0.0723    0.0819   -0.3060   -0.2927   -0.0331   -0.2233   -0.2286
          48   -0.0165   -0.0123    0.0416   -0.1464   -0.1418   -0.0102    0.0000   -0.0007
          49    0.0831   -0.0291   -0.0547   -0.1932    0.1885    0.0029    0.3560   -0.3502
          50   -0.0846    0.0722    0.0819    0.3089   -0.2889    0.0333    0.2271   -0.2254
          51    0.0166   -0.0124   -0.0418   -0.1485    0.1407   -0.0103   -0.0004    0.0011
          52    0.0829   -0.0294    0.0547    0.1933   -0.1887   -0.0027    0.3560   -0.3502
          53   -0.0846    0.0723   -0.0820   -0.3095    0.2897   -0.0333    0.2271   -0.2254
          54   -0.0161    0.0122   -0.0414   -0.1468    0.1391   -0.0101   -0.0005   -0.0002


   Root No.      25        26        27        28        29        30        31        32

                25 A      26 A      27 A      28 A      29 A      30 A      31 A      32 A   

                1002.3    1078.0    1108.5    1153.8    1186.6    1211.3    1231.2    1324.2
  
           1    0.0000   -0.0299    0.2333   -0.0791   -0.2803    0.1064   -0.0554    0.2920
           2    0.0000   -0.0284   -0.0550    0.0275    0.0732    0.1998   -0.2255   -0.0796
[...]
 REDUCED MASS        0.1821         C  8 -- H 18          +7.0% ( 30.8%)      0.1%
 EFFECTIVE MASS      3.1899
 FORCE CONSTANT      0.1574

 VIBRATION         31   31A           ATOM PAIR      ENERGY CONTRIBUTION    RADIAL
 FREQUENCY          1231.21         C  1 -- C  2         +11.7% ( 37.7%)    100.0%
 TRANSITION DIPOLE   0.1414         C  7 -- H 16         +10.9% ( 36.5%)      0.2%
 TRAVEL (Ang.)       0.4750         C  7 -- H 15         +10.9% ( 36.5%)      0.2%
 REDUCED MASS        0.2427         C  8 -- H 17         +10.9% ( 36.5%)      0.2%
 EFFECTIVE MASS      3.3132         C  8 -- H 18         +10.9% ( 36.5%)      0.2%
 FORCE CONSTANT      0.2168

 VIBRATION         32   32A           ATOM PAIR      ENERGY CONTRIBUTION    RADIAL
 FREQUENCY          1324.18         C  1 -- C  3         +11.9% ( 48.7%)     74.4%
 TRANSITION DIPOLE   0.0150         C  2 -- C  4         +11.9% ( 48.7%)     74.4%
 TRAVEL (Ang.)       0.2829         C  3 -- C  5          +5.9% ( 34.3%)      1.8%
 REDUCED MASS        0.6364         C  4 -- C  6          +5.9% ( 34.3%)      1.8%
 EFFECTIVE MASS      7.5610
 FORCE CONSTANT      0.6575

 VIBRATION         33   33A           ATOM PAIR      ENERGY CONTRIBUTION    RADIAL
 FREQUENCY          1356.77         C  5 -- C  6         +15.9% ( 58.4%)    100.0%
 TRANSITION DIPOLE   0.0806         C  1 -- C  2         +10.3% ( 47.0%)    100.0%
 TRAVEL (Ang.)       0.2291         C  3 -- C  5          +7.0% ( 38.9%)     15.1%
 REDUCED MASS        0.9467         C  4 -- C  6          +7.0% ( 38.9%)     15.1%
 EFFECTIVE MASS      8.9128
 FORCE CONSTANT      1.0267

 VIBRATION         34   34A           ATOM PAIR      ENERGY CONTRIBUTION    RADIAL
 FREQUENCY          1518.51         C  2 -- C  4         +13.6% ( 55.9%)     99.2%
 TRANSITION DIPOLE   0.0961         C  1 -- C  3         +13.4% ( 55.7%)     99.2%
 TRAVEL (Ang.)       0.1728         C  1 -- C  2         +11.0% ( 50.4%)    100.0%
 REDUCED MASS        1.4875         C  5 -- C  6         +10.5% ( 49.1%)    100.0%
 EFFECTIVE MASS     11.1990
 FORCE CONSTANT      2.0209

 VIBRATION         35   35A           ATOM PAIR      ENERGY CONTRIBUTION    RADIAL
 FREQUENCY          1530.86         C  1 -- C  2         +20.1% ( 72.1%)      0.0%
 TRANSITION DIPOLE   0.0334         C  1 -- C  3         +11.1% ( 53.7%)     87.0%
 TRAVEL (Ang.)       0.1419         C  2 -- C  4         +11.0% ( 53.3%)     86.9%
 REDUCED MASS        2.1868         C  1 -- C  9          +8.2% ( 46.2%)     72.1%
 EFFECTIVE MASS     11.4378
 FORCE CONSTANT      3.0195

 VIBRATION         36   36A           ATOM PAIR      ENERGY CONTRIBUTION    RADIAL
 FREQUENCY          1561.87         C  1 -- C  2         +30.6% ( 86.3%)    100.0%
 TRANSITION DIPOLE   0.0068         C  2 -- C  4         +12.2% ( 54.5%)     13.7%
 TRAVEL (Ang.)       0.1103         C  1 -- C  3         +12.2% ( 54.4%)     13.7%
 REDUCED MASS        3.5484         C  2 -- C 10         +10.4% ( 50.3%)     38.5%
 EFFECTIVE MASS     11.6645         C  1 -- C  9         +10.4% ( 50.3%)     38.4%
 FORCE CONSTANT      5.1000

 VIBRATION         37   37A           ATOM PAIR      ENERGY CONTRIBUTION    RADIAL
 FREQUENCY          1799.57         C  3 -- C  5         +21.6% ( 70.2%)     98.8%
 TRANSITION DIPOLE   0.3559         C  4 -- C  6         +21.6% ( 70.2%)     98.8%
 TRAVEL (Ang.)       0.1142         C  5 -- C  6         +16.6% ( 61.5%)    100.0%
 REDUCED MASS        2.8712         C  5 -- H 13          +7.2% ( 40.5%)      1.6%
 EFFECTIVE MASS     11.9816
 FORCE CONSTANT      5.4783

 VIBRATION         38   38A           ATOM PAIR      ENERGY CONTRIBUTION    RADIAL
 FREQUENCY          1845.76         C  4 -- C  6         +21.6% ( 67.9%)     98.9%
 TRANSITION DIPOLE   0.4115         C  3 -- C  5         +21.6% ( 67.8%)     98.9%
 TRAVEL (Ang.)       0.1179         C  5 -- C  6         +11.7% ( 49.9%)      0.0%
 REDUCED MASS        2.6262         C  2 -- C  4          +8.5% ( 42.6%)     55.6%
 EFFECTIVE MASS     11.7884
 FORCE CONSTANT      5.2715

 VIBRATION         39   39A           ATOM PAIR      ENERGY CONTRIBUTION    RADIAL
 FREQUENCY          2223.49         C  7 -- C  9         +21.3% ( 61.1%)    100.0%
 TRANSITION DIPOLE   0.6293         C  8 -- C 10         +21.1% ( 60.9%)    100.0%
 TRAVEL (Ang.)       0.1021         C  1 -- C  9         +20.6% ( 60.2%)    100.0%
 REDUCED MASS        2.9074         C  2 -- C 10         +20.5% ( 60.0%)    100.0%
 EFFECTIVE MASS     11.9061
 FORCE CONSTANT      8.4687

 VIBRATION         40   40A           ATOM PAIR      ENERGY CONTRIBUTION    RADIAL
 FREQUENCY          2244.45         C  8 -- C 10         +21.1% ( 60.3%)    100.0%
 TRANSITION DIPOLE   0.8901         C  7 -- C  9         +20.9% ( 60.1%)    100.0%
 TRAVEL (Ang.)       0.1014         C  2 -- C 10         +20.9% ( 60.0%)    100.0%
 REDUCED MASS        2.9193         C  1 -- C  9         +20.7% ( 59.7%)    100.0%
 EFFECTIVE MASS     11.9008
 FORCE CONSTANT      8.6645

 VIBRATION         41   41A           ATOM PAIR      ENERGY CONTRIBUTION    RADIAL
 FREQUENCY          3051.77         C  6 -- H 14         +27.3% ( 53.1%)    100.0%
 TRANSITION DIPOLE   0.2438         C  5 -- H 13         +26.2% ( 52.0%)    100.0%
 TRAVEL (Ang.)       0.3068         C  4 -- H 12         +22.6% ( 48.3%)    100.0%
 REDUCED MASS        0.2347         C  3 -- H 11         +21.4% ( 47.0%)    100.0%
 EFFECTIVE MASS      1.4778
 FORCE CONSTANT      1.2880

 VIBRATION         42   42A           ATOM PAIR      ENERGY CONTRIBUTION    RADIAL
 FREQUENCY          3054.60         C  3 -- H 11         +34.7% ( 59.8%)    100.0%
 TRANSITION DIPOLE   0.2823         C  4 -- H 12         +33.3% ( 58.6%)    100.0%
 TRAVEL (Ang.)       0.2863         C  5 -- H 13         +15.1% ( 39.5%)     99.9%
 REDUCED MASS        0.2693         C  6 -- H 14         +14.2% ( 38.3%)     99.9%
 EFFECTIVE MASS      1.4667
 FORCE CONSTANT      1.4805

 VIBRATION         43   43A           ATOM PAIR      ENERGY CONTRIBUTION    RADIAL
 FREQUENCY          3067.87         C  4 -- H 12         +26.6% ( 52.4%)     99.9%
 TRANSITION DIPOLE   0.4182         C  3 -- H 11         +26.2% ( 52.0%)     99.9%
 TRAVEL (Ang.)       0.3058         C  6 -- H 14         +22.0% ( 47.7%)     99.9%
 REDUCED MASS        0.2351         C  5 -- H 13         +21.6% ( 47.3%)     99.8%
 EFFECTIVE MASS      1.5709
 FORCE CONSTANT      1.3035

 VIBRATION         44   44A           ATOM PAIR      ENERGY CONTRIBUTION    RADIAL
 FREQUENCY          3077.25         C  5 -- H 13         +34.0% ( 59.1%)    100.0%
 TRANSITION DIPOLE   0.4442         C  6 -- H 14         +33.4% ( 58.6%)    100.0%
 TRAVEL (Ang.)       0.2849         C  3 -- H 11         +14.6% ( 38.8%)     99.9%
 REDUCED MASS        0.2700         C  4 -- H 12         +14.4% ( 38.4%)     99.9%
 EFFECTIVE MASS      1.6051
 FORCE CONSTANT      1.5064

 VIBRATION         45   45A           ATOM PAIR      ENERGY CONTRIBUTION    RADIAL
 FREQUENCY          3111.35         C  7 -- H 16         +31.3% ( 56.0%)     95.2%
 TRANSITION DIPOLE   0.3488         C  7 -- H 15         +31.0% ( 55.8%)     95.1%
 TRAVEL (Ang.)       0.2884         C  8 -- H 18         +18.2% ( 42.8%)     95.3%
 REDUCED MASS        0.2606         C  8 -- H 17         +17.6% ( 42.0%)     95.0%
 EFFECTIVE MASS      1.4135
 FORCE CONSTANT      1.4866

 VIBRATION         46   46A           ATOM PAIR      ENERGY CONTRIBUTION    RADIAL
 FREQUENCY          3111.48         C  8 -- H 18         +31.7% ( 56.4%)     95.4%
 TRANSITION DIPOLE   0.4227         C  8 -- H 17         +30.6% ( 55.4%)     95.0%
 TRAVEL (Ang.)       0.2883         C  7 -- H 16         +18.0% ( 42.5%)     95.3%
 REDUCED MASS        0.2607         C  7 -- H 15         +17.8% ( 42.3%)     95.2%
 EFFECTIVE MASS      1.4091
 FORCE CONSTANT      1.4869

 VIBRATION         47   47A           ATOM PAIR      ENERGY CONTRIBUTION    RADIAL
 FREQUENCY          3114.96         C  7 -- H 15         +46.6% ( 69.9%)     97.1%
 TRANSITION DIPOLE   0.1761         C  7 -- H 16         +46.2% ( 69.6%)     97.1%
 TRAVEL (Ang.)       0.2142         C  8 -- H 17          +3.1% ( 18.0%)     97.2%
 REDUCED MASS        0.4716         C  8 -- H 18          +3.0% ( 17.7%)     97.0%
 EFFECTIVE MASS      1.5924
 FORCE CONSTANT      2.6960

 VIBRATION         48   48A           ATOM PAIR      ENERGY CONTRIBUTION    RADIAL
 FREQUENCY          3115.10         C  8 -- H 17         +47.2% ( 70.3%)     97.2%
 TRANSITION DIPOLE   0.2970         C  8 -- H 18         +45.6% ( 69.1%)     97.0%
 TRAVEL (Ang.)       0.2142         C  7 -- H 15          +3.0% ( 17.9%)     97.2%
 REDUCED MASS        0.4717         C  7 -- H 16          +3.0% ( 17.8%)     97.1%
 EFFECTIVE MASS      1.5925
 FORCE CONSTANT      2.6969

      SYMMETRY NUMBER FOR POINT-GROUP C1  =  1


          SYSTEM IS A GROUND STATE



 InChI=1S/C10H8/c1-3-9-7-5-6-8-10(9)4-2/h5-8H,1-2H2


          MOLECULE IS NOT LINEAR

          THERE ARE 48 GENUINE VIBRATIONS IN THIS SYSTEM
          THIS THERMODYNAMICS CALCULATION IS LIMITED TO
          MOLECULES WHICH HAVE NO INTERNAL ROTATIONS




                    CALCULATED THERMODYNAMIC PROPERTIES
                                          *
   TEMP. (K)   PARTITION FUNCTION   H.O.F.    ENTHALPY  HEAT CAPACITY ENTROPY
                                   KCAL/MOL   CAL/MOLE    CAL/K/MOL  CAL/K/MOL


 298.00  VIB.     0.1689D+03                  3897.5915    28.5931    23.2720
         ROT.     0.6409D+06                   888.2803     2.9808    29.5510
         INT.     0.1082D+09                  4785.8718    31.5739    52.8230
         TRA.     0.1403D+28                  1480.4672     4.9680    40.4556
         TOT.                      124.048    6266.3390    36.5419    93.2787

 200.00  VIB.     0.2098D+02                  1618.3161    17.8771    14.1395
         ROT.     0.3524D+06                   596.1613     2.9808    28.3623
         INT.     0.7392D+07                  2214.4774    20.8579    42.5018
         TRA.     0.7713D+27                   993.6021     4.9680    38.4745
         TOT.                      120.989    3208.0795    25.8259    80.9763

 210.00  VIB.     0.2574D+02                  1802.5466    18.9702    15.0381
         ROT.     0.3791D+06                   625.9693     2.9808    28.5078
         INT.     0.9759D+07                  2428.5159    21.9510    43.5458
         TRA.     0.8299D+27                  1043.2822     4.9680    38.7169
         TOT.                      121.253    3471.7981    26.9191    82.2628

 220.00  VIB.     0.3165D+02                  1997.7416    20.0696    15.9459
         ROT.     0.4065D+06                   655.7774     2.9808    28.6464
         INT.     0.1287D+08                  2653.5190    23.0504    44.5924
         TRA.     0.8899D+27                  1092.9623     4.9680    38.9480
         TOT.                      121.528    3746.4814    28.0184    83.5404

 230.00  VIB.     0.3900D+02                  2203.9510    21.1727    16.8624
         ROT.     0.4346D+06                   685.5855     2.9808    28.7789
         INT.     0.1695D+08                  2889.5365    24.1535    45.6413
         TRA.     0.9512D+27                  1142.6424     4.9680    39.1689
         TOT.                      121.814    4032.1789    29.1215    84.8102

 240.00  VIB.     0.4814D+02                  2421.1993    22.2770    17.7868
         ROT.     0.4632D+06                   715.3935     2.9808    28.9058
         INT.     0.2230D+08                  3136.5928    25.2578    46.6926
         TRA.     0.1014D+28                  1192.3226     4.9680    39.3803
         TOT.                      122.110    4328.9154    30.2258    86.0729

 250.00  VIB.     0.5953D+02                  2649.4870    23.3802    18.7186
         ROT.     0.4925D+06                   745.2016     2.9808    29.0275
         INT.     0.2932D+08                  3394.6886    26.3610    47.7461
         TRA.     0.1078D+28                  1242.0027     4.9680    39.5831
         TOT.                      122.418    4636.6912    31.3290    87.3292

 260.00  VIB.     0.7375D+02                  2888.7913    24.4800    19.6570
         ROT.     0.5223D+06                   775.0097     2.9808    29.1444
         INT.     0.3852D+08                  3663.8010    27.4608    48.8014
         TRA.     0.1143D+28                  1291.6828     4.9680    39.7779
         TOT.                      122.737    4955.4837    32.4288    88.5793

 270.00  VIB.     0.9152D+02                  3139.0678    25.5743    20.6014
         ROT.     0.5527D+06                   804.8177     2.9808    29.2569
         INT.     0.5058D+08                  3943.8855    28.5551    49.8583
         TRA.     0.1210D+28                  1341.3629     4.9680    39.9654
         TOT.                      123.067    5285.2484    33.5231    89.8238

 280.00  VIB.     0.1138D+03                  3400.2516    26.6611    21.5512
         ROT.     0.5837D+06                   834.6258     2.9808    29.3653
         INT.     0.6640D+08                  4234.8774    29.6419    50.9165
         TRA.     0.1278D+28                  1391.0430     4.9680    40.1461
         TOT.                      123.407    5625.9203    34.6099    91.0626

 290.00  VIB.     0.1416D+03                  3672.2592    27.7387    22.5056
         ROT.     0.6153D+06                   864.4339     2.9808    29.4699
         INT.     0.8712D+08                  4536.6930    30.7195    51.9755
         TRA.     0.1347D+28                  1440.7231     4.9680    40.3205
         TOT.                      123.759    5977.4161    35.6876    92.2959

 300.00  VIB.     0.1765D+03                  3954.9903    28.8056    23.4640
         ROT.     0.6474D+06                   894.2419     2.9808    29.5709
         INT.     0.1143D+09                  4849.2322    31.7864    53.0349
         TRA.     0.1417D+28                  1490.4032     4.9680    40.4889
         TOT.                      124.121    6339.6354    36.7544    93.5238

 310.00  VIB.     0.2204D+03                  4248.3296    29.8602    24.4258
         ROT.     0.6800D+06                   924.0500     2.9808    29.6687
         INT.     0.1498D+09                  5172.3796    32.8410    54.0944
         TRA.     0.1488D+28                  1540.0833     4.9680    40.6518
         TOT.                      124.494    6712.4629    37.8090    94.7462

 320.00  VIB.     0.2754D+03                  4552.1485    30.9013    25.3903
         ROT.     0.7132D+06                   953.8580     2.9808    29.7633
         INT.     0.1964D+09                  5506.0066    33.8821    55.1536
         TRA.     0.1561D+28                  1589.7634     4.9680    40.8095
         TOT.                      124.877    7095.7700    38.8501    95.9631

 330.00  VIB.     0.3447D+03                  4866.3072    31.9279    26.3569
         ROT.     0.7469D+06                   983.6661     2.9808    29.8550
         INT.     0.2574D+09                  5849.9733    34.9087    56.2119
         TRA.     0.1635D+28                  1639.4435     4.9680    40.9624
         TOT.                      125.271    7489.4168    39.8768    97.1743

 340.00  VIB.     0.4318D+03                  5190.6559    32.9392    27.3251
         ROT.     0.7811D+06                  1013.4742     2.9808    29.9440
         INT.     0.3373D+09                  6204.1301    35.9200    57.2691
         TRA.     0.1710D+28                  1689.1236     4.9680    41.1107
         TOT.                      125.675    7893.2537    40.8880    98.3798

 350.00  VIB.     0.5416D+03                  5525.0369    33.9343    28.2943
         ROT.     0.8158D+06                  1043.2822     2.9808    30.0304
         INT.     0.4418D+09                  6568.3191    36.9151    58.3247
         TRA.     0.1786D+28                  1738.8037     4.9680    41.2547
         TOT.                      126.088    8307.1228    41.8831    99.5794

 360.00  VIB.     0.6799D+03                  5869.2859    34.9127    29.2640
         ROT.     0.8510D+06                  1073.0903     2.9808    30.1144
         INT.     0.5786D+09                  6942.3762    37.8935    59.3784
         TRA.     0.1863D+28                  1788.4838     4.9680    41.3947
         TOT.                      126.512    8730.8600    42.8615   100.7731

 370.00  VIB.     0.8543D+03                  6223.2335    35.8739    30.2337
         ROT.     0.8867D+06                  1102.8984     2.9808    30.1961
         INT.     0.7575D+09                  7326.1318    38.8547    60.4298
         TRA.     0.1941D+28                  1838.1639     4.9680    41.5308
         TOT.                      126.946    9164.2958    43.8228   101.9606

 380.00  VIB.     0.1074D+04                  6586.7064    36.8177    31.2030
         ROT.     0.9229D+06                  1132.7064     2.9808    30.2756
         INT.     0.9915D+09                  7719.4128    39.7985    61.4786
         TRA.     0.2020D+28                  1887.8440     4.9680    41.6633
         TOT.                      127.389    9607.2569    44.7665   103.1418

 390.00  VIB.     0.1352D+04                  6959.5286    37.7438    32.1714
         ROT.     0.9595D+06                  1162.5145     2.9808    30.3530
         INT.     0.1297D+10                  8122.0431    40.7246    62.5244
         TRA.     0.2100D+28                  1937.5242     4.9680    41.7923
         TOT.                      127.841   10059.5673    45.6926   104.3167

 400.00  VIB.     0.1703D+04                  7341.5226    38.6520    33.1385
         ROT.     0.9967D+06                  1192.3226     2.9808    30.4285
         INT.     0.1697D+10                  8533.8451    41.6328    63.5669
         TRA.     0.2182D+28                  1987.2043     4.9680    41.9181
         TOT.                      128.302   10521.0494    46.6009   105.4850

   *: NOTE: HEATS OF FORMATION ARE RELATIVE TO THE
            ELEMENTS IN THEIR STANDARD STATE AT 298K
              (=  Standard Enthalpy of Formation).

            Hvib:  Zero-point energy is not included.
                   frequencies of less than zero cm-1 are not included.
            Hrot = (3/2)RT
            Htra = (3/2)RT + pV = (5/2)RT

            Heat capacity is Cp, not Cv

          For more information, see: HTTP://OpenMOPAC.net/Manual/thermochemistry.html


           FORCE CONSTANT IN CARTESIAN COORDINATES (Millidynes/A)

    ATOM   CHEMICAL       X               Y               Z
   NUMBER   SYMBOL  FORCE CONSTANT  FORCE CONSTANT  FORCE CONSTANT

      1       C       11.766155       14.257129        2.303253
      2       C       11.769663       14.254403        2.303645
      3       C       11.587713       13.499330        2.177491
      4       C       11.586786       13.500745        2.180063
      5       C       11.481273       13.696624        2.199635
      6       C       11.479911       13.697779        2.198918
      7       C        5.896330       11.905328        8.321468
      8       C        5.907805       11.894228        8.322347
      9       C        8.400443       17.935469        1.550668
     10       C        8.411782       17.925743        1.550521
     11       H        5.145503        0.771610        0.342104
     12       H        5.145361        0.771751        0.341687
     13       H        1.729455        4.186421        0.343265
     14       H        1.729474        4.186034        0.343104
     15       H        0.762032        1.465632        4.000846
     16       H        0.763517        1.470771        3.994323
     17       H        0.765163        1.475551        3.988105
     18       H        0.763236        1.457629        4.007728

 **********************
 *                    *
 * JOB ENDED NORMALLY *
 *                    *
 **********************



 TOTAL JOB TIME:             2.36 SECONDS

 == MOPAC DONE ==
