 *******************************************************************************
 **                                                                           **
 **                              MOPAC v23.1.2                                **
 **                                                                           **
 *******************************************************************************
 **          Digital Object Identifier (DOI): 10.5281/zenodo.6511958          **
 **    Visit the DOI location for information on how to cite this program.    **
 *******************************************************************************

                              PM3 CALCULATION RESULTS

 *******************************************************************************
 *  CALCULATION DONE: (MAX THREADS = 1)              Tue Jun  3 16:28:21 2025  *
 *  PM3        - The PM3 Hamiltonian to be used
 *  PRECISE    - TIGHTER CRITERIA TO BE USED
 *  NOSYM      - POINT-GROUP SYMMETRY SET TO C1
 *  THREADS=1  - MULTI-THREADING NOT USED
 *  T=         - A TIME OF 172800.0 SECONDS REQUESTED
 *  DUMP=N     - RESTART FILE WRITTEN EVERY 7200.0 SECONDS REQUESTED
 *******************************************************************************
pm3  precise nosym THREADS=1
 InChI=1S/C7H10/c1-2-4-6-7-5-3-1/h1-2,5,7H,3-4,6H2

   ATOM   CHEMICAL          X               Y               Z
  NUMBER   SYMBOL      (ANGSTROMS)     (ANGSTROMS)     (ANGSTROMS)

     1       C         -1.26070000  *   0.51050000  *   0.62190000  *
     2       C         -1.34590000  *  -0.83950000  *  -0.09740000  *
     3       C          1.61750000  *   0.25940000  *   0.25300000  *
     4       C         -0.04380000  *  -1.58870000  *  -0.31250000  *
     5       C         -0.48040000  *   1.50590000  *  -0.18930000  *
     6       C          0.83560000  *   1.36950000  *  -0.38820000  *
     7       C          1.21360000  *  -1.10120000  *  -0.25220000  *
     8       H         -0.82250000  *   0.38900000  *   1.63550000  *
     9       H         -2.29240000  *   0.90080000  *   0.75680000  *
    10       H         -2.01930000  *  -1.49820000  *   0.49170000  *
    11       H         -1.82720000  *  -0.69090000  *  -1.08830000  *
    12       H          1.50000000  *   0.29760000  *   1.35660000  *
    13       H          2.69640000  *   0.41280000  *   0.03680000  *
    14       H         -0.99990000  *   2.34990000  *  -0.63360000  *
    15       H         -0.15180000  *  -2.60940000  *  -0.66830000  *
    16       H          2.02120000  *  -1.77240000  *  -0.53100000  *
    17       H          1.35960000  *   2.10490000  *  -0.99150000  *



          CARTESIAN COORDINATES 

    NO.       ATOM           X           Y           Z

     1         C         -1.2607      0.5105      0.6219
     2         C         -1.3459     -0.8395     -0.0974
     3         C          1.6175      0.2594      0.2530
     4         C         -0.0438     -1.5887     -0.3125
     5         C         -0.4804      1.5059     -0.1893
     6         C          0.8356      1.3695     -0.3882
     7         C          1.2136     -1.1012     -0.2522
     8         H         -0.8225      0.3890      1.6355
     9         H         -2.2924      0.9008      0.7568
    10         H         -2.0193     -1.4982      0.4917
    11         H         -1.8272     -0.6909     -1.0883
    12         H          1.5000      0.2976      1.3566
    13         H          2.6964      0.4128      0.0368
    14         H         -0.9999      2.3499     -0.6336
    15         H         -0.1518     -2.6094     -0.6683
    16         H          2.0212     -1.7724     -0.5310
    17         H          1.3596      2.1049     -0.9915

  H: (PM3): J. J. P. STEWART, J. COMP. CHEM. 10, 209 (1989).
  C: (PM3): J. J. P. STEWART, J. COMP. CHEM. 10, 209 (1989).

           Empirical Formula: C7 H10  =    17 atoms



      MOLECULAR POINT GROUP   :   C1  


      RHF CALCULATION, NO. OF DOUBLY OCCUPIED LEVELS = 19


          Geometry optimization using EF

          DIAGONAL MATRIX USED AS START HESSIAN

 CYCLE:     1 TIME:   0.008 TIME LEFT:  2.00D  GRAD.:    69.209 HEAT:  22.47503
 CYCLE:     2 TIME:   0.008 TIME LEFT:  2.00D  GRAD.:    43.222 HEAT:  21.28341
 CYCLE:     3 TIME:   0.008 TIME LEFT:  2.00D  GRAD.:    37.337 HEAT:  20.92311
 CYCLE:     4 TIME:   0.008 TIME LEFT:  2.00D  GRAD.:    22.130 HEAT:  20.70988
 CYCLE:     5 TIME:   0.004 TIME LEFT:  2.00D  GRAD.:    19.023 HEAT:  20.62257
 CYCLE:     6 TIME:   0.004 TIME LEFT:  2.00D  GRAD.:    19.697 HEAT:  20.57832
 CYCLE:     7 TIME:   0.004 TIME LEFT:  2.00D  GRAD.:    19.355 HEAT:  20.50928
 CYCLE:     8 TIME:   0.008 TIME LEFT:  2.00D  GRAD.:     8.306 HEAT:  20.42169
 CYCLE:     9 TIME:   0.008 TIME LEFT:  2.00D  GRAD.:    12.192 HEAT:  20.41130
 CYCLE:    10 TIME:   0.008 TIME LEFT:  2.00D  GRAD.:    15.444 HEAT:  20.41043
 CYCLE:    11 TIME:   0.004 TIME LEFT:  2.00D  GRAD.:    13.085 HEAT:  20.37557
 CYCLE:    12 TIME:   0.004 TIME LEFT:  2.00D  GRAD.:    13.635 HEAT:  20.37544
 CYCLE:    13 TIME:   0.008 TIME LEFT:  2.00D  GRAD.:    13.512 HEAT:  20.35454
 CYCLE:    14 TIME:   0.008 TIME LEFT:  2.00D  GRAD.:     6.480 HEAT:  20.31258
 CYCLE:    15 TIME:   0.008 TIME LEFT:  2.00D  GRAD.:     4.850 HEAT:  20.30371
 CYCLE:    16 TIME:   0.004 TIME LEFT:  2.00D  GRAD.:     3.277 HEAT:  20.29429
 CYCLE:    17 TIME:   0.004 TIME LEFT:  2.00D  GRAD.:     4.423 HEAT:  20.28414
 CYCLE:    18 TIME:   0.008 TIME LEFT:  2.00D  GRAD.:     3.616 HEAT:  20.26974
 CYCLE:    19 TIME:   0.004 TIME LEFT:  2.00D  GRAD.:     3.093 HEAT:  20.25866
 CYCLE:    20 TIME:   0.004 TIME LEFT:  2.00D  GRAD.:     3.021 HEAT:  20.25209
 CYCLE:    21 TIME:   0.008 TIME LEFT:  2.00D  GRAD.:     2.887 HEAT:  20.24707
 CYCLE:    22 TIME:   0.004 TIME LEFT:  2.00D  GRAD.:     3.735 HEAT:  20.24208
 CYCLE:    23 TIME:   0.004 TIME LEFT:  2.00D  GRAD.:     2.234 HEAT:  20.23600
 CYCLE:    24 TIME:   0.004 TIME LEFT:  2.00D  GRAD.:     1.924 HEAT:  20.23365
 CYCLE:    25 TIME:   0.008 TIME LEFT:  2.00D  GRAD.:     1.007 HEAT:  20.23131
 CYCLE:    26 TIME:   0.004 TIME LEFT:  2.00D  GRAD.:     0.936 HEAT:  20.22947
 CYCLE:    27 TIME:   0.008 TIME LEFT:  2.00D  GRAD.:     0.968 HEAT:  20.22769
 CYCLE:    28 TIME:   0.004 TIME LEFT:  2.00D  GRAD.:     0.868 HEAT:  20.22576
 CYCLE:    29 TIME:   0.004 TIME LEFT:  2.00D  GRAD.:     0.892 HEAT:  20.22387
 CYCLE:    30 TIME:   0.008 TIME LEFT:  2.00D  GRAD.:     0.970 HEAT:  20.22182
 CYCLE:    31 TIME:   0.004 TIME LEFT:  2.00D  GRAD.:     1.021 HEAT:  20.21928
 CYCLE:    32 TIME:   0.004 TIME LEFT:  2.00D  GRAD.:     1.032 HEAT:  20.21626
 CYCLE:    33 TIME:   0.008 TIME LEFT:  2.00D  GRAD.:     1.157 HEAT:  20.21277
 CYCLE:    34 TIME:   0.004 TIME LEFT:  2.00D  GRAD.:     1.142 HEAT:  20.20964
 CYCLE:    35 TIME:   0.008 TIME LEFT:  2.00D  GRAD.:     0.967 HEAT:  20.20669
 CYCLE:    36 TIME:   0.004 TIME LEFT:  2.00D  GRAD.:     0.683 HEAT:  20.20505
 CYCLE:    37 TIME:   0.008 TIME LEFT:  2.00D  GRAD.:     0.528 HEAT:  20.20393
 CYCLE:    38 TIME:   0.004 TIME LEFT:  2.00D  GRAD.:     0.476 HEAT:  20.20324
 CYCLE:    39 TIME:   0.004 TIME LEFT:  2.00D  GRAD.:     0.433 HEAT:  20.20260
 CYCLE:    40 TIME:   0.008 TIME LEFT:  2.00D  GRAD.:     0.386 HEAT:  20.20213
 CYCLE:    41 TIME:   0.004 TIME LEFT:  2.00D  GRAD.:     0.441 HEAT:  20.20170
 CYCLE:    42 TIME:   0.004 TIME LEFT:  2.00D  GRAD.:     0.522 HEAT:  20.20116
 CYCLE:    43 TIME:   0.004 TIME LEFT:  2.00D  GRAD.:     0.529 HEAT:  20.20050
 CYCLE:    44 TIME:   0.008 TIME LEFT:  2.00D  GRAD.:     0.478 HEAT:  20.19969
 CYCLE:    45 TIME:   0.004 TIME LEFT:  2.00D  GRAD.:     0.336 HEAT:  20.19936
 CYCLE:    46 TIME:   0.004 TIME LEFT:  2.00D  GRAD.:     0.273 HEAT:  20.19893
 CYCLE:    47 TIME:   0.004 TIME LEFT:  2.00D  GRAD.:     0.277 HEAT:  20.19877
 CYCLE:    48 TIME:   0.008 TIME LEFT:  2.00D  GRAD.:     0.220 HEAT:  20.19855
 CYCLE:    49 TIME:   0.004 TIME LEFT:  2.00D  GRAD.:     0.167 HEAT:  20.19846
 CYCLE:    50 TIME:   0.004 TIME LEFT:  2.00D  GRAD.:     0.145 HEAT:  20.19841
 CYCLE:    51 TIME:   0.008 TIME LEFT:  2.00D  GRAD.:     0.143 HEAT:  20.19836
 CYCLE:    52 TIME:   0.004 TIME LEFT:  2.00D  GRAD.:     0.085 HEAT:  20.19833
 CYCLE:    53 TIME:   0.004 TIME LEFT:  2.00D  GRAD.:     0.049 HEAT:  20.19832

     GRADIENT =  0.04947 IS LESS THAN CUTOFF =  0.05000



 -------------------------------------------------------------------------------
 pm3  precise nosym THREADS=1
 InChI=1S/C7H10/c1-2-4-6-7-5-3-1/h1-2,5,7H,3-4,6H2



     GEOMETRY OPTIMISED USING EIGENVECTOR FOLLOWING (EF).     
     SCF FIELD WAS ACHIEVED                                   


                              PM3 CALCULATION
                                                       MOPAC v23.1.2 MacOS
                                                       Tue Jun  3 16:28:21 2025




          FINAL HEAT OF FORMATION =         20.19832 KCAL/MOL =      84.50976 KJ/MOL


          COSMO AREA              =        139.26 SQUARE ANGSTROMS
          COSMO VOLUME            =        134.69 CUBIC ANGSTROMS

          GRADIENT NORM           =          0.04947          =       0.01200 PER ATOM
          IONIZATION POTENTIAL    =          9.590835 EV
          HOMO LUMO ENERGIES (EV) =         -9.591  1.028
          NO. OF FILLED LEVELS    =         19
          MOLECULAR WEIGHT        =         94.1560         POINT GROUP:  C1  

          MOLECULAR DIMENSIONS (Angstroms)

            Atom       Atom       Distance
            H    16    H     9     5.20037
            H    17    H    10     5.01222
            H    11    H    12     3.42948


          SCF CALCULATIONS        =         60

          WALL-CLOCK TIME         =      0.312 SECONDS
          COMPUTATION TIME        =      0.168 SECONDS




   ATOM   CHEMICAL          X               Y               Z
  NUMBER   SYMBOL      (ANGSTROMS)     (ANGSTROMS)     (ANGSTROMS)

     1       C         -1.26561613  *   0.49449028  *   0.60393273  *
     2       C         -1.34123140  *  -0.83686106  *  -0.12614728  *
     3       C          1.63752259  *   0.26234004  *   0.20019483  *
     4       C         -0.05647118  *  -1.55718903  *  -0.31517127  *
     5       C         -0.48475194  *   1.49518917  *  -0.17086359  *
     6       C          0.82984355  *   1.37775357  *  -0.36304143  *
     7       C          1.19022908  *  -1.10032603  *  -0.19463813  *
     8       H         -0.81119348  *   0.35856148  *   1.60686595  *
     9       H         -2.29064978  *   0.87112711  *   0.78732992  *
    10       H         -2.03395094  *  -1.50670669  *   0.42332470  *
    11       H         -1.79526550  *  -0.68863724  *  -1.12767108  *
    12       H          1.62808374  *   0.32890096  *   1.30960560  *
    13       H          2.69705547  *   0.39165168  *  -0.09670910  *
    14       H         -1.03791853  *   2.34120808  *  -0.59248526  *
    15       H         -0.18826628  *  -2.60718182  *  -0.61214934  *
    16       H          2.01349577  *  -1.80185645  *  -0.38457157  *
    17       H          1.37375965  *   2.12972785  *  -0.94526992  *

                             CARTESIAN COORDINATES

   1    C       -1.265616132     0.494490284     0.603932734
   2    C       -1.341231400    -0.836861057    -0.126147277
   3    C        1.637522590     0.262340037     0.200194826
   4    C       -0.056471179    -1.557189033    -0.315171267
   5    C       -0.484751944     1.495189174    -0.170863585
   6    C        0.829843549     1.377753574    -0.363041430
   7    C        1.190229078    -1.100326028    -0.194638128
   8    H       -0.811193479     0.358561482     1.606865951
   9    H       -2.290649778     0.871127109     0.787329919
  10    H       -2.033950941    -1.506706693     0.423324695
  11    H       -1.795265503    -0.688637237    -1.127671078
  12    H        1.628083739     0.328900959     1.309605598
  13    H        2.697055470     0.391651679    -0.096709104
  14    H       -1.037918528     2.341208084    -0.592485258
  15    H       -0.188266282    -2.607181824    -0.612149340
  16    H        2.013495771    -1.801856447    -0.384571573
  17    H        1.373759651     2.129727848    -0.945269921


           Empirical Formula: C7 H10  =    17 atoms



      MOLECULAR POINT GROUP   :   C1  


                  EIGENVALUES  
 -39.96372 -32.07747 -31.48746 -24.37082 -23.45064 -18.50625 -17.76191 -17.44710
 -16.09699 -15.38987 -14.82221 -14.26913 -13.33944 -13.00634 -12.54797 -11.91124
 -11.77498  -9.84649  -9.59083   1.02784   1.20336   3.40953   3.46182   3.64423
   3.74913   3.81366   3.83986   3.99582   4.14984   4.45687   4.52353   4.67165
   4.73685   4.80118   5.62962   5.67042   5.91961   6.09403


              NET ATOMIC CHARGES AND DIPOLE CONTRIBUTIONS

  ATOM NO.   TYPE          CHARGE      No. of ELECS.   s-Pop       p-Pop       
    1          C          -0.061637        4.0616     1.14613     2.91551
    2          C          -0.048483        4.0485     1.14395     2.90453
    3          C          -0.019369        4.0194     1.13176     2.88761
    4          C          -0.141968        4.1420     1.19362     2.94835
    5          C          -0.147347        4.1473     1.19549     2.95186
    6          C          -0.140690        4.1407     1.19495     2.94574
    7          C          -0.142131        4.1421     1.19171     2.95042
    8          H           0.058463        0.9415     0.94154
    9          H           0.049131        0.9509     0.95087
   10          H           0.049814        0.9502     0.95019
   11          H           0.057257        0.9427     0.94274
   12          H           0.062272        0.9377     0.93773
   13          H           0.050128        0.9499     0.94987
   14          H           0.098228        0.9018     0.90177
   15          H           0.088446        0.9116     0.91155
   16          H           0.090708        0.9093     0.90929
   17          H           0.097178        0.9028     0.90282
 DIPOLE           X         Y         Z       TOTAL
 POINT-CHG.    -0.121     0.003     0.194     0.229
 HYBRID         0.018    -0.047    -0.054     0.074
 SUM           -0.103    -0.044     0.140     0.179


          ATOMIC ORBITAL ELECTRON POPULATIONS

     Atom    s        px        py        pz   
    1  C   1.14613   0.99114   0.94382   0.98055
    2  C   1.14395   0.95199   0.95306   0.99948
    3  C   1.13176   0.97549   0.91738   0.99474
    4  C   1.19362   0.94806   0.98781   1.01248
    5  C   1.19549   0.95974   0.98927   1.00285
    6  C   1.19495   0.95912   0.98337   1.00325
    7  C   1.19171   0.96431   0.96912   1.01699
    8  H   0.94154
    9  H   0.95087
   10  H   0.95019
   11  H   0.94274
   12  H   0.93773
   13  H   0.94987
   14  H   0.90177
   15  H   0.91155
   16  H   0.90929
   17  H   0.90282
 *******************************************************************************
 **                                                                           **
 **                              MOPAC v23.1.2                                **
 **                                                                           **
 *******************************************************************************
 **          Digital Object Identifier (DOI): 10.5281/zenodo.6511958          **
 **    Visit the DOI location for information on how to cite this program.    **
 *******************************************************************************

                              PM3 CALCULATION RESULTS

 *******************************************************************************
 *  CALCULATION DONE: (MAX THREADS = 1)              Tue Jun  3 16:28:21 2025  *
 *  PM3        - The PM3 Hamiltonian to be used
 *  OLDGEO     - PREVIOUS GEOMETRY TO BE USED
 *  PRECISE    - TIGHTER CRITERIA TO BE USED
 *  NOSYM      - POINT-GROUP SYMMETRY SET TO C1
 *  THREADS=1  - MULTI-THREADING NOT USED
 *  T=         - A TIME OF 172800.0 SECONDS REQUESTED
 *  DUMP=N     - RESTART FILE WRITTEN EVERY 7200.0 SECONDS REQUESTED
 *  THERMO     - THERMODYNAMIC QUANTITIES TO BE CALCULATED
 *******************************************************************************
oldgeo thermo nosym precise THREADS=1  pm3
 InChI=1S/C7H10/c1-2-4-6-7-5-3-1/h1-2,5,7H,3-4,6H2

   ATOM   CHEMICAL          X               Y               Z
  NUMBER   SYMBOL      (ANGSTROMS)     (ANGSTROMS)     (ANGSTROMS)

     1       C         -1.26561613  *   0.49449028  *   0.60393273  *
     2       C         -1.34123140  *  -0.83686106  *  -0.12614728  *
     3       C          1.63752259  *   0.26234004  *   0.20019483  *
     4       C         -0.05647118  *  -1.55718903  *  -0.31517127  *
     5       C         -0.48475194  *   1.49518917  *  -0.17086359  *
     6       C          0.82984355  *   1.37775357  *  -0.36304143  *
     7       C          1.19022908  *  -1.10032603  *  -0.19463813  *
     8       H         -0.81119348  *   0.35856148  *   1.60686595  *
     9       H         -2.29064978  *   0.87112711  *   0.78732992  *
    10       H         -2.03395094  *  -1.50670669  *   0.42332470  *
    11       H         -1.79526550  *  -0.68863724  *  -1.12767108  *
    12       H          1.62808374  *   0.32890096  *   1.30960560  *
    13       H          2.69705547  *   0.39165168  *  -0.09670910  *
    14       H         -1.03791853  *   2.34120808  *  -0.59248526  *
    15       H         -0.18826628  *  -2.60718182  *  -0.61214934  *
    16       H          2.01349577  *  -1.80185645  *  -0.38457157  *
    17       H          1.37375965  *   2.12972785  *  -0.94526992  *



          CARTESIAN COORDINATES 

    NO.       ATOM           X           Y           Z

     1         C         -1.2656      0.4945      0.6039
     2         C         -1.3412     -0.8369     -0.1261
     3         C          1.6375      0.2623      0.2002
     4         C         -0.0565     -1.5572     -0.3152
     5         C         -0.4848      1.4952     -0.1709
     6         C          0.8298      1.3778     -0.3630
     7         C          1.1902     -1.1003     -0.1946
     8         H         -0.8112      0.3586      1.6069
     9         H         -2.2906      0.8711      0.7873
    10         H         -2.0340     -1.5067      0.4233
    11         H         -1.7953     -0.6886     -1.1277
    12         H          1.6281      0.3289      1.3096
    13         H          2.6971      0.3917     -0.0967
    14         H         -1.0379      2.3412     -0.5925
    15         H         -0.1883     -2.6072     -0.6121
    16         H          2.0135     -1.8019     -0.3846
    17         H          1.3738      2.1297     -0.9453

  H: (PM3): J. J. P. STEWART, J. COMP. CHEM. 10, 209 (1989).
  C: (PM3): J. J. P. STEWART, J. COMP. CHEM. 10, 209 (1989).

           Empirical Formula: C7 H10  =    17 atoms



      MOLECULAR POINT GROUP   :   C1  


      RHF CALCULATION, NO. OF DOUBLY OCCUPIED LEVELS = 19



          HEAT OF FORMATION =      20.198318 KCALS/MOLE


          CARTESIAN COORDINATE DERIVATIVES

   NUMBER  ATOM         X            Y            Z

     1       C      0.002744     0.011814    -0.001087
     2       C      0.003485     0.005280    -0.002084
     3       C      0.002277     0.006081     0.006754
     4       C      0.000463     0.001303    -0.001269
     5       C      0.000438     0.012498     0.000170
     6       C      0.007136     0.017316     0.003322
     7       C     -0.005830     0.003096     0.015000
     8       H      0.004080    -0.005101    -0.000972
     9       H      0.006193    -0.005048    -0.005704
    10       H     -0.002284    -0.000632     0.004176
    11       H     -0.009457    -0.005598    -0.005818
    12       H      0.003810     0.005267    -0.002730
    13       H      0.005387    -0.007864     0.007614
    14       H      0.001800    -0.014592     0.004310
    15       H     -0.012870    -0.002925    -0.003476
    16       H     -0.006746    -0.004288    -0.009254
    17       H     -0.000625    -0.016605    -0.008950



          GRADIENT NORM =   0.05014

          MOLECULAR WEIGHT =   94.16



          ROTATIONAL CONSTANTS IN CM(-1)

          A =    0.11673187   B =    0.11329389   C =    0.06433048



           PRINCIPAL MOMENTS OF INERTIA IN UNITS OF 10**(-40)*GRAM-CM**2

          A =      239.8038   B =      247.0809   C =      435.1398


          ORIENTATION OF MOLECULE IN FORCE CALCULATION

    NO.       ATOM         X         Y         Z

     1          C      -0.6642   -1.3838    0.2229
     2          C       0.8560   -1.3838    0.2229
     3          C      -0.4114    1.5456    0.2229
     4          C       1.5137   -0.0841    0.5120
     5          C      -1.2073   -0.5355   -0.8712
     6          C      -1.0776    0.7919   -0.8734
     7          C       0.9938    1.1435    0.4995
     8          H      -1.0494   -1.0276    1.2004
     9          H      -1.0311   -2.4231    0.1162
    10          H       1.2132   -2.1237    0.9681
    11          H       1.2298   -1.7397   -0.7594
    12          H      -1.0020    1.4290    1.1572
    13          H      -0.4348    2.6283   -0.0109
    14          H      -1.7182   -1.0486   -1.6930
    15          H       2.5824   -0.1828    0.7491
    16          H       1.6584    1.9838    0.7407
    17          H      -1.4836    1.3866   -1.6991


    FIRST DERIVATIVES WILL BE USED IN THE CALCULATION OF SECOND DERIVATIVES

          ESTIMATED TIME TO COMPLETE CALCULATION =        0.80 SECONDS

    FOR POINT-GROUP C1   THERE ARE   1 UNIQUE SYMMETRY FUNCTIONS.

 STEP:   1 TIME =     0.01 SECS, INTEGRAL =      0.01 TIME LEFT: 172799.98
 STEP:   2 TIME =     0.01 SECS, INTEGRAL =      0.02 TIME LEFT: 172799.97
 STEP:   3 TIME =     0.01 SECS, INTEGRAL =      0.04 TIME LEFT: 172799.96
 STEP:   4 TIME =     0.01 SECS, INTEGRAL =      0.05 TIME LEFT: 172799.95
 STEP:   5 TIME =     0.01 SECS, INTEGRAL =      0.06 TIME LEFT: 172799.94
 STEP:   6 TIME =     0.02 SECS, INTEGRAL =      0.07 TIME LEFT: 172799.92
 STEP:   7 TIME =     0.01 SECS, INTEGRAL =      0.09 TIME LEFT: 172799.91
 STEP:   8 TIME =     0.01 SECS, INTEGRAL =      0.10 TIME LEFT: 172799.90
 STEP:   9 TIME =     0.01 SECS, INTEGRAL =      0.11 TIME LEFT: 172799.89
 STEP:  10 TIME =     0.01 SECS, INTEGRAL =      0.12 TIME LEFT: 172799.88
 STEP:  11 TIME =     0.01 SECS, INTEGRAL =      0.13 TIME LEFT: 172799.86
 STEP:  12 TIME =     0.01 SECS, INTEGRAL =      0.14 TIME LEFT: 172799.85
 STEP:  13 TIME =     0.01 SECS, INTEGRAL =      0.16 TIME LEFT: 172799.84
 STEP:  14 TIME =     0.01 SECS, INTEGRAL =      0.17 TIME LEFT: 172799.83
 STEP:  15 TIME =     0.01 SECS, INTEGRAL =      0.18 TIME LEFT: 172799.82
 STEP:  16 TIME =     0.01 SECS, INTEGRAL =      0.19 TIME LEFT: 172799.80
 STEP:  17 TIME =     0.02 SECS, INTEGRAL =      0.21 TIME LEFT: 172799.79
 STEP:  18 TIME =     0.01 SECS, INTEGRAL =      0.22 TIME LEFT: 172799.78
 STEP:  19 TIME =     0.02 SECS, INTEGRAL =      0.23 TIME LEFT: 172799.76
 STEP:  20 TIME =     0.01 SECS, INTEGRAL =      0.25 TIME LEFT: 172799.75
 STEP:  21 TIME =     0.01 SECS, INTEGRAL =      0.26 TIME LEFT: 172799.74
 STEP:  22 TIME =     0.01 SECS, INTEGRAL =      0.27 TIME LEFT: 172799.73
 STEP:  23 TIME =     0.01 SECS, INTEGRAL =      0.28 TIME LEFT: 172799.71
 STEP:  24 TIME =     0.01 SECS, INTEGRAL =      0.29 TIME LEFT: 172799.70
 STEP:  25 TIME =     0.01 SECS, INTEGRAL =      0.30 TIME LEFT: 172799.69
 STEP:  26 TIME =     0.01 SECS, INTEGRAL =      0.32 TIME LEFT: 172799.68
 STEP:  27 TIME =     0.01 SECS, INTEGRAL =      0.33 TIME LEFT: 172799.67
 STEP:  28 TIME =     0.01 SECS, INTEGRAL =      0.34 TIME LEFT: 172799.66
 STEP:  29 TIME =     0.01 SECS, INTEGRAL =      0.35 TIME LEFT: 172799.64
 STEP:  30 TIME =     0.02 SECS, INTEGRAL =      0.37 TIME LEFT: 172799.63
 STEP:  31 TIME =     0.01 SECS, INTEGRAL =      0.38 TIME LEFT: 172799.62
 STEP:  32 TIME =     0.01 SECS, INTEGRAL =      0.39 TIME LEFT: 172799.61
 STEP:  33 TIME =     0.01 SECS, INTEGRAL =      0.40 TIME LEFT: 172799.59
 STEP:  34 TIME =     0.01 SECS, INTEGRAL =      0.41 TIME LEFT: 172799.58
 STEP:  35 TIME =     0.02 SECS, INTEGRAL =      0.43 TIME LEFT: 172799.57
 STEP:  36 TIME =     0.02 SECS, INTEGRAL =      0.45 TIME LEFT: 172799.55
 STEP:  37 TIME =     0.01 SECS, INTEGRAL =      0.46 TIME LEFT: 172799.54
 STEP:  38 TIME =     0.01 SECS, INTEGRAL =      0.47 TIME LEFT: 172799.53
 STEP:  39 TIME =     0.01 SECS, INTEGRAL =      0.48 TIME LEFT: 172799.52
 STEP:  40 TIME =     0.01 SECS, INTEGRAL =      0.49 TIME LEFT: 172799.50
 STEP:  41 TIME =     0.02 SECS, INTEGRAL =      0.51 TIME LEFT: 172799.49
 STEP:  42 TIME =     0.01 SECS, INTEGRAL =      0.52 TIME LEFT: 172799.48
 STEP:  43 TIME =     0.01 SECS, INTEGRAL =      0.53 TIME LEFT: 172799.46
 STEP:  44 TIME =     0.01 SECS, INTEGRAL =      0.54 TIME LEFT: 172799.45
 STEP:  45 TIME =     0.01 SECS, INTEGRAL =      0.55 TIME LEFT: 172799.44
 STEP:  46 TIME =     0.01 SECS, INTEGRAL =      0.57 TIME LEFT: 172799.43
 STEP:  47 TIME =     0.01 SECS, INTEGRAL =      0.58 TIME LEFT: 172799.42
 STEP:  48 TIME =     0.02 SECS, INTEGRAL =      0.59 TIME LEFT: 172799.40
 STEP:  49 TIME =     0.02 SECS, INTEGRAL =      0.61 TIME LEFT: 172799.39
 STEP:  50 TIME =     0.01 SECS, INTEGRAL =      0.62 TIME LEFT: 172799.38
 STEP:  51 TIME =     0.01 SECS, INTEGRAL =      0.63 TIME LEFT: 172799.36

(To convert to Hartree/Bohr^2, multiply by (10^(-21) x N x a0^2)/(4.184 x 627.51) =  0.0642)


           FORCE MATRIX IN MILLIDYNES/ANGSTROM


                  C  1       C  2       C  3       C  4       C  5       C  6
 ------------------------------------------------------------------------------
     C    1  14.707985
     C    2   4.153830  14.617895
     C    3   0.113496   0.091131  14.950483
     C    4   0.610214   5.029285   0.716401  18.102018
     C    5   5.009091   0.690894   0.817947   0.037489  18.149852
     C    6   0.839093   0.046662   4.954834   0.031938  10.696159  18.135434
     C    7   0.036425   0.712498   4.936490  10.672697   0.040706   0.665791
     H    8   4.399764   0.450269   0.027064   0.012222   0.431639   0.033570
     H    9   4.487797   0.434222   0.003187   0.052507   0.437177   0.051827
     H   10   0.429850   4.414248   0.011413   0.424351   0.049743   0.004557
     H   11   0.443327   4.397022   0.014662   0.412246   0.020791   0.004138
     H   12   0.027281   0.017085   4.316047   0.020780   0.030203   0.425967
     H   13   0.003545   0.005336   4.468988   0.047964   0.051752   0.433232
     H   14   0.432156   0.023368   0.121752   0.002833   4.843830   0.443626
     H   15   0.044844   0.422846   0.125560   4.718514   0.003426   0.011714
     H   16   0.005113   0.130201   0.430572   0.437162   0.003061   0.036041
     H   17   0.122482   0.017007   0.433445   0.002340   0.442382   4.833502


                  C  7       H  8       H  9       H 10       H 11       H 12
 ------------------------------------------------------------------------------
     C    7  18.032012
     H    8   0.009932   5.008814
     H    9   0.003847   0.565000   5.075503
     H   10   0.043350   0.026644   0.038639   4.998725
     H   11   0.031355   0.046408   0.027642   0.565994   4.990825
     H   12   0.417284   0.023729   0.000820   0.001611   0.002442   4.908062
     H   13   0.433722   0.000900   0.000469   0.000256   0.000803   0.570256
     H   14   0.014301   0.027920   0.034462   0.003947   0.002830   0.013293
     H   15   0.437509   0.002332   0.007419   0.040379   0.025990   0.016939
     H   16   4.748832   0.000525   0.000874   0.014864   0.018273   0.016248
     H   17   0.028483   0.010116   0.006829   0.002949   0.001109   0.022535


                  H 13       H 14       H 15       H 16       H 17
 ------------------------------------------------------------------
     H   13   5.023962
     H   14   0.006441   5.208752
     H   15   0.009232   0.000924   5.071993
     H   16   0.032461   0.001734   0.078224   5.091497
     H   17   0.033724   0.071536   0.001137   0.003031   5.192534


          HEAT OF FORMATION =      20.198318 KCALS/MOLE

          ZERO POINT ENERGY      92.943 KCAL/MOL


           NORMAL COORDINATE ANALYSIS (Total motion = 1 Angstrom)


   Root No.       1         2         3         4         5         6         7         8

                 1 A       2 A       3 A       4 A       5 A       6 A       7 A       8 A   

                 105.7     232.1     325.1     357.2     409.4     481.4     643.8     672.2
  
           1   -0.0092   -0.0093    0.0179   -0.0174    0.0048    0.0298   -0.0154   -0.0018
           2    0.0018    0.0343    0.0143   -0.0465    0.0244   -0.0008   -0.0088   -0.0110
           3   -0.0089    0.0401    0.0094    0.0019   -0.0159    0.0005    0.0228    0.0134
           4   -0.0092   -0.0079    0.0141   -0.0168    0.0093    0.0308   -0.0116   -0.0079
           5   -0.0046    0.0057   -0.0329    0.0025    0.0153   -0.0310    0.0257   -0.0092
           6    0.0426   -0.0279    0.0049   -0.0052    0.0163    0.0045    0.0148   -0.0077
           7   -0.0148   -0.0171   -0.0132    0.0044    0.0087   -0.0232   -0.0064    0.0172
           8   -0.0172   -0.0232    0.0285    0.0310   -0.0301    0.0070   -0.0139   -0.0088
           9    0.0355    0.0172   -0.0067    0.0030   -0.0104   -0.0048   -0.0146   -0.0227
          10    0.0046    0.0028   -0.0067   -0.0205    0.0402   -0.0102    0.0414   -0.0210
          11    0.0049   -0.0003   -0.0158    0.0163    0.0067   -0.0131   -0.0048    0.0050
          12   -0.0302   -0.0185   -0.0314   -0.0486   -0.0238    0.0067   -0.0004   -0.0187
          13    0.0188    0.0116    0.0389    0.0013   -0.0481   -0.0183    0.0215    0.0251
          14    0.0071   -0.0065    0.0079   -0.0078   -0.0014    0.0354    0.0177    0.0070
          15   -0.0193   -0.0037   -0.0066    0.0260   -0.0090    0.0446    0.0180    0.0123
          16    0.0057    0.0296   -0.0240    0.0529   -0.0089    0.0206   -0.0247   -0.0152
          17    0.0087   -0.0078    0.0139   -0.0125   -0.0056    0.0319    0.0204    0.0117
          18    0.0044   -0.0243    0.0113    0.0039   -0.0209   -0.0395   -0.0209   -0.0146
          19    0.0051   -0.0101   -0.0308   -0.0081    0.0031   -0.0298   -0.0067    0.0193
          20    0.0053   -0.0045   -0.0244    0.0219   -0.0102   -0.0200   -0.0268    0.0233
          21   -0.0295    0.0156    0.0167    0.0301    0.0483   -0.0178    0.0047    0.0021
          22   -0.0401    0.0363    0.0404   -0.0392   -0.0017    0.0527   -0.0879    0.0003
          23   -0.0040    0.1016    0.0604   -0.1036    0.0319   -0.0518   -0.1282   -0.0291
          24   -0.0187    0.0336    0.0021    0.0126   -0.0200    0.0281    0.0338    0.0210
          25   -0.0063   -0.0466   -0.0265    0.0149    0.0213    0.0233    0.0472   -0.0152
          26    0.0022    0.0408    0.0269   -0.0525    0.0166    0.0058   -0.0208   -0.0050
          27   -0.0246    0.1132    0.0439   -0.0551    0.0004   -0.0475   -0.1007   -0.0057
          28   -0.0397    0.0202    0.0032    0.0068   -0.0346    0.0207    0.0262    0.0020
          29    0.0452   -0.0175    0.0001    0.0416    0.0667   -0.0252   -0.0180    0.0287
          30    0.1071   -0.0654    0.0434    0.0230    0.0906    0.0160   -0.0494    0.0266
          31    0.0183   -0.0576    0.0145   -0.0184    0.0338    0.0492   -0.0694   -0.0140
          32   -0.0783    0.0296   -0.0856   -0.0310   -0.0726   -0.0392    0.0840   -0.0581
          33    0.0797   -0.0554    0.0251    0.0061    0.0591    0.0151   -0.0307    0.0085
          34    0.0091   -0.0294   -0.0358   -0.0279   -0.0246   -0.0410   -0.0277    0.0524
          35   -0.0891   -0.0726    0.1102    0.0661   -0.0177   -0.0694   -0.0080   -0.1360
          36    0.0416    0.0036   -0.0118   -0.0143   -0.0293   -0.0245   -0.0281   -0.0129
          37   -0.0601   -0.0434    0.0535    0.0180    0.0302   -0.0399    0.0346   -0.0613
          38   -0.0057   -0.0152    0.0184    0.0226   -0.0307    0.0222   -0.0111    0.0086
          39    0.0954    0.0588   -0.0638   -0.0389   -0.0168    0.0720   -0.0049    0.0761
          40    0.0480    0.0492    0.0848   -0.0078   -0.1235   -0.0958    0.0998    0.0245
          41    0.0120   -0.0304   -0.0044    0.0140   -0.0032    0.0321   -0.0064   -0.0069
          42   -0.0402   -0.0110   -0.0276    0.0172    0.0395    0.0940   -0.0165    0.0210
          43    0.0182    0.0064    0.0026   -0.0061    0.0499   -0.0118    0.0556   -0.0486
          44    0.0096   -0.0010    0.0081    0.0127    0.0089    0.0207   -0.0026   -0.0239
          45   -0.0890   -0.0375   -0.0625   -0.1117   -0.0676    0.0283   -0.0650    0.0943
          46    0.0165   -0.0212   -0.0283   -0.0025   -0.0346   -0.0227   -0.0267   -0.0145
          47    0.0135   -0.0008   -0.0367    0.0058   -0.0029   -0.0201   -0.0096    0.0011
          48   -0.0916    0.0316    0.0566    0.0703    0.1275   -0.0362   -0.0003    0.1714
          49    0.0248    0.0914   -0.0621    0.1122   -0.0246    0.0696   -0.0279   -0.1119
          50    0.0223   -0.0085    0.0052   -0.0335    0.0120    0.0137    0.0066    0.0052
          51    0.0052   -0.0541    0.0236   -0.0413   -0.0003   -0.0758   -0.0288    0.0287


   Root No.       9        10        11        12        13        14        15        16

                 9 A      10 A      11 A      12 A      13 A      14 A      15 A      16 A   

                 736.2     820.9     882.0     907.5     928.6     963.2     972.5     984.3
  
           1   -0.0055    0.0074   -0.0056   -0.0293    0.0204   -0.0019    0.0071    0.0057
           2    0.0036   -0.0052   -0.0081   -0.0457    0.0296    0.0200   -0.0107   -0.0257
           3   -0.0014   -0.0039   -0.0043   -0.0095   -0.0021    0.0098   -0.0060    0.0061
           4    0.0051    0.0103    0.0156    0.0010   -0.0124    0.0101   -0.0176    0.0035
           5    0.0092   -0.0227   -0.0248    0.0013    0.0239   -0.0298    0.0051    0.0190
           6   -0.0128   -0.0034    0.0409   -0.0197   -0.0100    0.0058   -0.0093    0.0132
           7   -0.0072    0.0133    0.0009   -0.0109    0.0048   -0.0147   -0.0164    0.0138
           8    0.0028   -0.0114    0.0272    0.0372    0.0456    0.0223    0.0029    0.0051
           9    0.0051   -0.0125   -0.0064   -0.0119   -0.0124    0.0092    0.0071    0.0049
          10    0.0220   -0.0253    0.0113    0.0525   -0.0086    0.0209    0.0100   -0.0164
          11   -0.0002    0.0028    0.0015    0.0049   -0.0207    0.0020   -0.0041   -0.0037
          12   -0.0078    0.0159   -0.0031    0.0174    0.0106   -0.0239    0.0071   -0.0236
          13   -0.0223   -0.0280   -0.0164   -0.0014   -0.0062   -0.0114    0.0530   -0.0082
          14    0.0006    0.0064   -0.0050   -0.0013   -0.0189   -0.0085   -0.0015   -0.0021
          15    0.0092    0.0122   -0.0198    0.0088   -0.0010   -0.0136   -0.0055   -0.0153
          16   -0.0137   -0.0411   -0.0085    0.0018    0.0009   -0.0045   -0.0494   -0.0179
          17   -0.0015    0.0096   -0.0000    0.0057   -0.0168   -0.0079    0.0086    0.0141
          18    0.0167   -0.0125    0.0072   -0.0045    0.0093   -0.0070   -0.0015   -0.0123
          19   -0.0016    0.0264    0.0022   -0.0001   -0.0064    0.0193    0.0209   -0.0063
          20   -0.0106    0.0284    0.0044   -0.0058   -0.0211    0.0180    0.0085   -0.0136
          21   -0.0253    0.0352   -0.0142    0.0117    0.0053    0.0287    0.0078    0.0133
          22    0.0072    0.0721   -0.0351    0.0483   -0.0244   -0.0658   -0.0106   -0.0231
          23   -0.0202   -0.0090    0.0379    0.0660   -0.0230   -0.0509    0.0287    0.0421
          24    0.0115    0.0230   -0.0331   -0.0164   -0.0014    0.0075   -0.0264   -0.0294
          25    0.0112   -0.0272   -0.0179   -0.1127    0.1134    0.0245   -0.0099    0.0816
          26   -0.0012    0.0069   -0.0065   -0.0277   -0.0009    0.0175   -0.0080   -0.0635
          27   -0.0140    0.0007    0.0300    0.1141   -0.0373   -0.0760    0.0188    0.1182
          28   -0.0309    0.0061    0.0779   -0.0402   -0.0617    0.0199   -0.0475    0.1112
          29    0.0493   -0.0228   -0.1095    0.0283    0.0327   -0.0646    0.0078    0.0719
          30    0.0462    0.0001   -0.0765    0.0271    0.0241   -0.0326    0.0083    0.0134
          31    0.0248    0.0467   -0.0396    0.0321    0.0112   -0.0816   -0.0233   -0.0136
          32   -0.0612   -0.0146    0.0953   -0.0499   -0.0015   -0.0622   -0.0230    0.0456
          33    0.0224    0.0075   -0.0264    0.0136    0.0078   -0.0192   -0.0015   -0.0031
          34    0.0390    0.0222    0.0565   -0.0486    0.0435   -0.0696    0.0342   -0.0139
          35    0.0360   -0.0315   -0.0323   -0.0541   -0.0800    0.0158    0.0397   -0.0142
          36    0.0376   -0.0102    0.0231   -0.0446   -0.0006   -0.0264    0.0430   -0.0151
          37    0.0007   -0.0036   -0.0588   -0.0550   -0.0758   -0.0527   -0.0341    0.1024
          38   -0.0018   -0.0109    0.0368    0.0564    0.0670    0.0214   -0.0048    0.0234
          39   -0.0198   -0.0036    0.0439    0.0807    0.1009    0.0046   -0.0269    0.0827
          40    0.1230    0.1601   -0.0312    0.0235    0.0300   -0.0019   -0.1766   -0.0099
          41   -0.0084   -0.0335    0.0153    0.0329   -0.0609   -0.0415   -0.0165   -0.0083
          42   -0.0755   -0.0807   -0.0238   -0.0286    0.0019   -0.0005    0.1464   -0.0103
          43   -0.0160    0.0103    0.0284    0.0560    0.0090   -0.0185    0.0096   -0.0415
          44   -0.0071   -0.0054    0.0386    0.0038   -0.0509   -0.0302   -0.0788   -0.0095
          45    0.1607   -0.1455   -0.0632    0.0067   -0.0783    0.1430   -0.0186    0.0889
          46   -0.0431    0.0633   -0.0310   -0.0040    0.0585    0.0577    0.0220    0.0704
          47   -0.0147    0.0309   -0.0153    0.0188   -0.0742    0.0248    0.0083   -0.0531
          48    0.1044   -0.0739    0.1490   -0.0610    0.0055   -0.0969    0.0062   -0.0630
          49    0.1603    0.0910    0.0573   -0.0613   -0.0143   -0.0230    0.1463    0.0418
          50   -0.0158   -0.0036   -0.0013   -0.0295   -0.0666   -0.0226   -0.0583    0.0468
          51   -0.0791   -0.0873   -0.0268    0.0005   -0.0177   -0.0088   -0.1460   -0.0190


   Root No.      17        18        19        20        21        22        23        24

                17 A      18 A      19 A      20 A      21 A      22 A      23 A      24 A   

                1020.7    1043.0    1061.6    1078.9    1099.7    1113.7    1123.8    1178.6
  
           1   -0.0164    0.0071   -0.0025   -0.0200    0.0050   -0.0252   -0.0122   -0.0017
           2    0.0057    0.0089   -0.0088    0.0077   -0.0039    0.0079   -0.0027    0.0054
           3    0.0148   -0.0218   -0.0044    0.0131    0.0120    0.0086    0.0305    0.0159
           4    0.0158   -0.0091   -0.0050    0.0082   -0.0067    0.0276    0.0070    0.0007
           5   -0.0079    0.0064    0.0067   -0.0011    0.0121    0.0031   -0.0100   -0.0037
           6   -0.0170    0.0197    0.0126   -0.0038    0.0114   -0.0096   -0.0144   -0.0004
           7    0.0209    0.0158   -0.0057    0.0126   -0.0074   -0.0101   -0.0005   -0.0050
           8   -0.0021   -0.0127    0.0066    0.0093    0.0034   -0.0043    0.0014   -0.0038
           9   -0.0220   -0.0298    0.0131    0.0066   -0.0130    0.0045   -0.0093    0.0084
          10    0.0006   -0.0010    0.0062   -0.0011    0.0021   -0.0091    0.0025   -0.0029
          11    0.0066    0.0030   -0.0001    0.0081   -0.0080   -0.0094   -0.0023    0.0027
          12    0.0102   -0.0339   -0.0215   -0.0035   -0.0016    0.0002   -0.0072   -0.0010
          13    0.0069    0.0138   -0.0054    0.0076   -0.0011    0.0036    0.0027    0.0002
          14    0.0006    0.0047    0.0008   -0.0153    0.0017    0.0050    0.0001    0.0008
          15   -0.0134    0.0239    0.0025   -0.0208   -0.0258    0.0074   -0.0159   -0.0107
          16   -0.0029   -0.0020    0.0075   -0.0134   -0.0001    0.0000   -0.0038   -0.0014
          17   -0.0007   -0.0072    0.0025   -0.0085   -0.0010   -0.0024    0.0078   -0.0037
          18    0.0137    0.0361   -0.0350    0.0013    0.0130    0.0005    0.0034   -0.0071
          19   -0.0279   -0.0168   -0.0091   -0.0051    0.0028    0.0129    0.0019    0.0032
          20   -0.0102   -0.0085   -0.0078   -0.0011   -0.0062   -0.0046    0.0042    0.0053
          21    0.0182    0.0209    0.0188   -0.0052    0.0036   -0.0010    0.0041    0.0008
          22   -0.0690    0.0072    0.0721    0.0658    0.1732   -0.1214   -0.0651    0.0494
          23   -0.0263    0.0578   -0.0120   -0.0812   -0.0806    0.0247   -0.0391   -0.0386
          24    0.0044   -0.0379    0.0268    0.0792    0.1067   -0.0360    0.0239    0.0524
          25   -0.0089   -0.0534   -0.0447   -0.1183   -0.0379   -0.0600    0.1272    0.0912
          26    0.0067    0.0326    0.0058    0.0524    0.0162    0.0264   -0.0588   -0.0277
          27   -0.0241   -0.0243   -0.0006   -0.0864   -0.0239   -0.0302    0.0751    0.0287
          28    0.0709   -0.0605   -0.0395   -0.0273    0.0767    0.1052   -0.1349   -0.0450
          29    0.0515   -0.0611   -0.0292   -0.0109    0.0588    0.0742   -0.0792   -0.0389
          30    0.0149   -0.0251   -0.0071    0.0023    0.0184    0.0216   -0.0111   -0.0105
          31   -0.0553    0.0445    0.0759    0.1048   -0.0294    0.1323    0.1729    0.0064
          32   -0.0963    0.1059    0.0898    0.0447    0.0198    0.0517    0.0405   -0.0162
          33   -0.0114    0.0040    0.0143    0.0183    0.0010    0.0137    0.0303    0.0057
          34    0.1592   -0.0171    0.1992   -0.0328   -0.0276   -0.0321   -0.0138    0.0350
          35   -0.0432   -0.0881    0.0632   -0.0156   -0.0170    0.0082   -0.0068    0.0100
          36    0.0610   -0.0589    0.1491   -0.0253   -0.0284   -0.0079   -0.0188    0.0346
          37   -0.0367   -0.0266   -0.0601    0.1376   -0.1122   -0.0781   -0.0572    0.0915
          38   -0.0014   -0.0107   -0.0067    0.0338   -0.0083   -0.0210   -0.0033    0.0030
          39   -0.0091   -0.0065   -0.0442    0.1082   -0.0590   -0.0603   -0.0314    0.0400
          40   -0.0468    0.0051    0.0248   -0.0440   -0.0486   -0.0103   -0.0288   -0.0566
          41    0.0363    0.0655   -0.0605   -0.0682    0.0840    0.0509    0.0250    0.2380
          42   -0.0020   -0.0069    0.0203    0.0415   -0.0473   -0.0125   -0.0102   -0.1231
          43    0.0125   -0.0270   -0.0113    0.0021   -0.0044   -0.0043    0.0007   -0.0030
          44    0.1163    0.0051   -0.0179    0.0817   -0.0891   -0.0056   -0.0116    0.0133
          45   -0.0033    0.0788    0.0510    0.0112    0.0006   -0.0092   -0.0025    0.0009
          46   -0.0391   -0.0146    0.0259    0.0187    0.0299    0.1051   -0.0238   -0.0028
          47    0.0299    0.0167   -0.0200   -0.0232   -0.0279   -0.0869    0.0281    0.0108
          48   -0.0898   -0.0773   -0.0381    0.0109   -0.0027    0.0254   -0.0078    0.0022
          49    0.0477    0.0498   -0.0750    0.0272    0.0435   -0.0313    0.0508   -0.0826
          50    0.0221   -0.0599   -0.0106   -0.0030    0.0677   -0.0660    0.1231   -0.1900
          51    0.0050   -0.0254   -0.0051   -0.0132    0.0391   -0.0300    0.0574   -0.1016


   Root No.      25        26        27        28        29        30        31        32

                25 A      26 A      27 A      28 A      29 A      30 A      31 A      32 A   

                1185.1    1224.5    1290.6    1339.3    1372.5    1389.6    1405.7    1423.7
  
           1    0.0039   -0.0129    0.0220   -0.0344    0.0130   -0.0273   -0.0267   -0.0468
           2   -0.0068    0.0046   -0.0009    0.0206    0.0026    0.0065   -0.0212    0.0212
           3   -0.0057   -0.0077    0.0079   -0.0222    0.0024   -0.0098    0.0257   -0.0376
           4   -0.0077   -0.0145   -0.0199   -0.0282   -0.0031    0.0346    0.0209    0.0594
           5    0.0058   -0.0079   -0.0037   -0.0240   -0.0377   -0.0186   -0.0003    0.0366
           6    0.0012    0.0011   -0.0045    0.0000   -0.0092   -0.0006   -0.0014    0.0144
           7   -0.0005    0.0142   -0.0027   -0.0326   -0.0324    0.0092    0.0257   -0.0167
           8   -0.0078    0.0026    0.0088   -0.0049    0.0138   -0.0253    0.0131    0.0220
           9    0.0032    0.0106    0.0033   -0.0220   -0.0014   -0.0197    0.0255    0.0105
          10    0.0022   -0.0031   -0.0038    0.0168    0.0108   -0.0027   -0.0022   -0.0273
          11    0.0071   -0.0159   -0.0220    0.0052   -0.0002    0.0077    0.0070   -0.0307
          12    0.0014   -0.0028   -0.0032    0.0036    0.0027    0.0004    0.0011   -0.0087
          13    0.0046   -0.0010    0.0022    0.0158   -0.0049    0.0053   -0.0002    0.0185
          14    0.0028    0.0125   -0.0178   -0.0037    0.0038    0.0062   -0.0072   -0.0161
          15    0.0033   -0.0129    0.0141    0.0226   -0.0057    0.0024   -0.0030    0.0276
          16   -0.0040    0.0028   -0.0114    0.0035    0.0074    0.0030   -0.0087   -0.0098
          17    0.0023    0.0126   -0.0136   -0.0137    0.0025   -0.0003    0.0044   -0.0176
          18   -0.0025    0.0099   -0.0217    0.0045    0.0077    0.0082   -0.0115   -0.0161
          19    0.0002    0.0140    0.0256    0.0038    0.0053   -0.0073   -0.0131    0.0300
          20   -0.0009   -0.0093   -0.0069    0.0125    0.0100    0.0045   -0.0027   -0.0128
          21   -0.0015    0.0005    0.0048    0.0042    0.0024   -0.0001   -0.0050    0.0051
          22    0.0460    0.0601   -0.0196    0.0949   -0.0333    0.0338    0.1029    0.0413
          23   -0.0050   -0.0258    0.0488    0.0651   -0.0353   -0.0090    0.2201   -0.0618
          24    0.0108    0.0321   -0.0289    0.0057    0.0016    0.0183   -0.0328    0.0322
          25    0.0252    0.0769   -0.0248    0.1445   -0.0088    0.0463    0.1041    0.0080
          26   -0.0193   -0.0327    0.0267   -0.0328    0.0033   -0.0218   -0.0227   -0.0133
          27    0.0289    0.0429   -0.0689   -0.0436    0.0328    0.0160   -0.2168    0.0778
          28   -0.1044    0.0596   -0.0028    0.1283   -0.0631   -0.0862   -0.0537   -0.0444
          29   -0.0527    0.0427    0.0611    0.0116    0.1134    0.0577    0.0038   -0.0338
          30   -0.0120    0.0145    0.0446   -0.0337    0.1470    0.1146    0.0338   -0.0069
          31   -0.0797    0.0338    0.0045    0.0719   -0.0580   -0.0967   -0.0375   -0.0810
          32   -0.0373    0.0394    0.0670   -0.0119    0.1636    0.1065    0.0174   -0.0283
          33   -0.0098    0.0035   -0.0166    0.0292   -0.0855   -0.0811   -0.0255   -0.0152
          34   -0.0296   -0.0484   -0.0139    0.0436    0.0471   -0.0173   -0.0197    0.0111
          35   -0.0067   -0.0042    0.0756    0.0010   -0.1594    0.1689   -0.0785   -0.0822
          36   -0.0159   -0.0296    0.0096    0.0268    0.0110    0.0050   -0.0210    0.0049
          37   -0.0588   -0.0728   -0.0437    0.0728    0.1270   -0.0778   -0.0080    0.0467
          38   -0.0248   -0.0111    0.0270    0.0113   -0.0201    0.0224   -0.0177    0.0005
          39   -0.0609   -0.0451    0.0630    0.0453   -0.1116    0.1459   -0.0872   -0.0638
          40    0.0006    0.0097   -0.0109    0.0067    0.0000    0.0047   -0.0062   -0.0009
          41    0.0117   -0.0898    0.0953    0.0105   -0.0124   -0.0174   -0.0033    0.0366
          42    0.0011    0.0434   -0.0478    0.0222    0.0014    0.0183   -0.0038    0.0084
          43    0.0173    0.0045    0.0049    0.0188    0.0130   -0.0050   -0.0054   -0.0246
          44    0.2401    0.1193    0.1247    0.0135    0.0097   -0.0424   -0.0382    0.0230
          45    0.0227    0.0148    0.0142    0.0065    0.0044   -0.0076   -0.0043   -0.0046
          46    0.1885   -0.0824   -0.0572    0.0540    0.0222    0.0211   -0.0181   -0.0588
          47   -0.1612    0.0704    0.0633   -0.0265   -0.0017   -0.0188   -0.0005    0.0615
          48    0.0363   -0.0088   -0.0051    0.0068    0.0035    0.0004   -0.0016   -0.0072
          49    0.0103   -0.0336    0.0207    0.0232    0.0012   -0.0013   -0.0069    0.0170
          50    0.0253   -0.0986    0.0788    0.0539    0.0006   -0.0169    0.0035    0.0663
          51    0.0062   -0.0516    0.0274    0.0453    0.0092    0.0001   -0.0146    0.0311


   Root No.      33        34        35        36        37        38        39        40

                33 A      34 A      35 A      36 A      37 A      38 A      39 A      40 A   

                1449.5    1880.1    1899.5    2923.4    2934.5    2947.9    3006.7    3010.9
  
           1   -0.0055    0.0079    0.0017    0.0007   -0.0013    0.0024    0.0013   -0.0001
           2    0.0294   -0.0259    0.0012   -0.0029    0.0086   -0.0332    0.0008    0.0013
           3   -0.0301    0.0189    0.0018   -0.0032    0.0088   -0.0292   -0.0012    0.0008
           4   -0.0208    0.0027   -0.0126   -0.0001    0.0007   -0.0007    0.0063   -0.0051
           5   -0.0333    0.0061   -0.0382   -0.0002    0.0096    0.0039   -0.0095    0.0076
           6   -0.0041   -0.0001   -0.0062    0.0014   -0.0448   -0.0118   -0.0024    0.0017
           7    0.0633    0.0168   -0.0317    0.0203    0.0007   -0.0010    0.0028    0.0088
           8    0.0148    0.0221    0.0196    0.0310    0.0014   -0.0025   -0.0062   -0.0226
           9    0.0454    0.0198   -0.0054   -0.0387   -0.0015    0.0022   -0.0026   -0.0080
          10    0.0171    0.0057   -0.0578    0.0001    0.0007    0.0003   -0.0242    0.0076
          11    0.0307   -0.0230    0.2299    0.0003   -0.0004    0.0000    0.0026   -0.0012
          12    0.0072   -0.0008    0.0077   -0.0001    0.0001    0.0000   -0.0054    0.0017
          13    0.0149    0.0037    0.0001   -0.0000    0.0001    0.0010   -0.0000   -0.0000
          14   -0.0246    0.2207    0.0234    0.0004   -0.0005    0.0013    0.0000   -0.0000
          15    0.0277   -0.0300   -0.0029   -0.0002   -0.0002    0.0013   -0.0001   -0.0001
          16   -0.0253   -0.0377   -0.0020    0.0005    0.0001   -0.0002   -0.0003   -0.0009
          17   -0.0188   -0.2179   -0.0254   -0.0016   -0.0000   -0.0000    0.0002    0.0013
          18   -0.0350   -0.0298   -0.0023    0.0009    0.0001   -0.0003   -0.0005   -0.0019
          19   -0.0407   -0.0127    0.1229   -0.0004   -0.0001    0.0001    0.0102    0.0028
          20    0.0045    0.0174   -0.2000   -0.0017   -0.0000    0.0001    0.0118    0.0042
          21   -0.0117   -0.0018    0.0105   -0.0004   -0.0002   -0.0000    0.0036    0.0011
          22   -0.0189   -0.0029   -0.0036   -0.0155    0.0385   -0.1331   -0.0068    0.0036
          23   -0.0961    0.0269    0.0012    0.0135   -0.0384    0.1190    0.0074   -0.0029
          24    0.0194   -0.0098   -0.0006    0.0396   -0.1058    0.3303    0.0178   -0.0083
          25    0.0102    0.0167    0.0171    0.0074   -0.0246    0.1017   -0.0037   -0.0057
          26    0.0032   -0.0279   -0.0047    0.0191   -0.0627    0.2756   -0.0160   -0.0129
          27    0.0933    0.0326    0.0032    0.0010   -0.0050    0.0223   -0.0029   -0.0013
          28    0.0478   -0.0096   -0.0117   -0.0029    0.1131    0.0359   -0.0376    0.0308
          29    0.0335    0.0009   -0.0294    0.0057   -0.2298   -0.0750    0.0766   -0.0646
          30    0.0248    0.0030   -0.0029   -0.0057    0.2259    0.0743   -0.0905    0.0749
          31    0.0137    0.0026   -0.0058    0.0038   -0.1221   -0.0298   -0.0417    0.0326
          32    0.0384    0.0001   -0.0098   -0.0038    0.1177    0.0256    0.0343   -0.0273
          33   -0.0139    0.0018   -0.0074   -0.0108    0.3149    0.0657    0.1196   -0.0952
          34   -0.0467   -0.0038   -0.0030   -0.2607   -0.0098    0.0126   -0.0340   -0.1114
          35   -0.0240   -0.0192   -0.0100   -0.0524   -0.0020    0.0027   -0.0121   -0.0416
          36   -0.0311   -0.0047    0.0010    0.4126    0.0153   -0.0198    0.0555    0.1812
          37   -0.0600    0.0252   -0.0375    0.0127    0.0005   -0.0006    0.0025    0.0044
          38   -0.0116    0.0237    0.0175   -0.3109   -0.0152    0.0285    0.0852    0.3107
          39   -0.0600    0.0342   -0.0044    0.0577    0.0030   -0.0061   -0.0229   -0.0834
          40   -0.0016    0.0644    0.0057   -0.0003    0.0028   -0.0091    0.0006    0.0015
          41    0.0758    0.0133    0.0021   -0.0016    0.0037   -0.0133    0.0006    0.0017
          42   -0.0240    0.1099    0.0127   -0.0018    0.0048   -0.0160    0.0006    0.0019
          43    0.0106    0.0103   -0.1104   -0.0006   -0.0086   -0.0005    0.2844   -0.0890
          44   -0.0647    0.0037   -0.0398   -0.0001    0.0018    0.0007   -0.0242    0.0090
          45    0.0004    0.0039   -0.0322   -0.0007   -0.0032   -0.0004    0.0632   -0.0197
          46    0.0004    0.0002   -0.1035    0.0099    0.0009   -0.0006   -0.1178   -0.0326
          47   -0.0330    0.0112   -0.0566    0.0158    0.0010   -0.0011   -0.1455   -0.0445
          48    0.0029    0.0026   -0.0271    0.0026   -0.0004   -0.0003   -0.0425   -0.0126
          49    0.0091    0.0587    0.0080   -0.0053   -0.0003    0.0006    0.0020    0.0100
          50    0.0470   -0.0256    0.0048    0.0138    0.0005   -0.0003   -0.0031   -0.0155
          51   -0.0058    0.1097    0.0194   -0.0148   -0.0004    0.0005    0.0036    0.0193


   Root No.      41        42        43        44        45

                41 A      42 A      43 A      44 A      45 A   

                3014.9    3028.7    3031.2    3046.5    3067.4
  
           1    0.0029   -0.0150    0.0034    0.0011   -0.0011
           2    0.0021   -0.0181    0.0046    0.0023   -0.0033
           3   -0.0033    0.0146   -0.0029   -0.0001   -0.0000
           4    0.0105    0.0015   -0.0034   -0.0002    0.0003
           5   -0.0156   -0.0033    0.0054    0.0003   -0.0005
           6   -0.0031    0.0007    0.0004   -0.0001    0.0001
           7    0.0020    0.0013    0.0012   -0.0004   -0.0001
           8   -0.0062   -0.0030   -0.0045    0.0028    0.0027
           9   -0.0017   -0.0015   -0.0007   -0.0003   -0.0001
          10    0.0103   -0.0040   -0.0202    0.0005    0.0006
          11   -0.0011    0.0013    0.0051   -0.0002   -0.0002
          12    0.0023   -0.0008   -0.0042    0.0001    0.0001
          13   -0.0001    0.0014   -0.0003    0.0140   -0.0184
          14    0.0000    0.0014   -0.0004    0.0132   -0.0233
          15   -0.0001    0.0023   -0.0005    0.0225   -0.0286
          16   -0.0003   -0.0004   -0.0004   -0.0140   -0.0107
          17    0.0005    0.0006    0.0009    0.0210    0.0220
          18   -0.0007   -0.0007   -0.0011   -0.0285   -0.0228
          19   -0.0071   -0.0046   -0.0146    0.0009    0.0006
          20   -0.0088   -0.0071   -0.0236    0.0012    0.0008
          21   -0.0026   -0.0017   -0.0058    0.0004    0.0003
          22   -0.0180    0.0826   -0.0165   -0.0022    0.0009
          23    0.0203   -0.1021    0.0212    0.0044   -0.0042
          24    0.0479   -0.2274    0.0462    0.0058   -0.0020
          25   -0.0129    0.1044   -0.0250   -0.0100    0.0116
          26   -0.0465    0.3174   -0.0744   -0.0338    0.0393
          27   -0.0081    0.0511   -0.0117   -0.0025    0.0025
          28   -0.0613   -0.0186    0.0215    0.0013   -0.0016
          29    0.1339    0.0325   -0.0474   -0.0022    0.0031
          30   -0.1528   -0.0366    0.0522    0.0026   -0.0035
          31   -0.0642   -0.0091    0.0184    0.0007   -0.0011
          32    0.0557    0.0069   -0.0165   -0.0004    0.0007
          33    0.1915    0.0284   -0.0574   -0.0018    0.0027
          34   -0.0264   -0.0172   -0.0139    0.0035    0.0026
          35   -0.0104   -0.0065   -0.0064    0.0032    0.0029
          36    0.0428    0.0278    0.0229   -0.0052   -0.0033
          37    0.0000   -0.0000   -0.0016   -0.0014   -0.0011
          38    0.0845    0.0405    0.0582   -0.0381   -0.0303
          39   -0.0226   -0.0112   -0.0155    0.0067    0.0053
          40    0.0005   -0.0168    0.0038   -0.1676    0.2113
          41    0.0004   -0.0169    0.0041   -0.1640    0.2124
          42    0.0003   -0.0256    0.0059   -0.2703    0.3398
          43   -0.1260    0.0447    0.2252   -0.0049   -0.0053
          44    0.0083   -0.0046   -0.0207    0.0006    0.0005
          45   -0.0287    0.0099    0.0501   -0.0011   -0.0012
          46    0.0867    0.0593    0.1912   -0.0101   -0.0061
          47    0.1069    0.0745    0.2414   -0.0126   -0.0076
          48    0.0308    0.0213    0.0690   -0.0036   -0.0022
          49    0.0039    0.0038    0.0069    0.1678    0.1322
          50   -0.0059   -0.0055   -0.0103   -0.2415   -0.1959
          51    0.0076    0.0082    0.0139    0.3413    0.2699


           MASS-WEIGHTED COORDINATE ANALYSIS (NORMAL COORDINATES)


   Root No.       1         2         3         4         5         6         7         8

                 1 A       2 A       3 A       4 A       5 A       6 A       7 A       8 A   

                 105.7     232.1     325.1     357.2     409.4     481.4     643.8     672.2
  
           1   -0.0804   -0.0811    0.1525   -0.1319    0.0375    0.2272   -0.1309   -0.0160
           2    0.0162    0.2976    0.1220   -0.3537    0.1918   -0.0061   -0.0744   -0.0990
           3   -0.0783    0.3482    0.0804    0.0144   -0.1251    0.0035    0.1933    0.1203
           4   -0.0808   -0.0682    0.1203   -0.1278    0.0730    0.2354   -0.0984   -0.0713
           5   -0.0407    0.0498   -0.2810    0.0190    0.1203   -0.2365    0.2186   -0.0826
           6    0.3741   -0.2419    0.0421   -0.0395    0.1279    0.0347    0.1255   -0.0695
           7   -0.1303   -0.1488   -0.1129    0.0334    0.0682   -0.1774   -0.0548    0.1543
           8   -0.1508   -0.2010    0.2432    0.2358   -0.2364    0.0531   -0.1180   -0.0786
           9    0.3116    0.1494   -0.0572    0.0231   -0.0818   -0.0368   -0.1239   -0.2040
          10    0.0403    0.0239   -0.0575   -0.1558    0.3159   -0.0780    0.3515   -0.1887
          11    0.0432   -0.0023   -0.1349    0.1236    0.0525   -0.1000   -0.0404    0.0450
          12   -0.2653   -0.1607   -0.2685   -0.3694   -0.1870    0.0508   -0.0033   -0.1682
          13    0.1653    0.1006    0.3321    0.0096   -0.3779   -0.1395    0.1823    0.2255
          14    0.0626   -0.0561    0.0673   -0.0591   -0.0106    0.2703    0.1499    0.0629
          15   -0.1693   -0.0317   -0.0565    0.1976   -0.0704    0.3405    0.1529    0.1104
          16    0.0496    0.2570   -0.2047    0.4019   -0.0701    0.1569   -0.2094   -0.1367
          17    0.0766   -0.0676    0.1184   -0.0954   -0.0438    0.2434    0.1732    0.1054
          18    0.0382   -0.2113    0.0964    0.0294   -0.1638   -0.3013   -0.1772   -0.1307
          19    0.0444   -0.0872   -0.2630   -0.0613    0.0247   -0.2273   -0.0572    0.1732
          20    0.0461   -0.0394   -0.2086    0.1667   -0.0798   -0.1529   -0.2277    0.2092
          21   -0.2588    0.1355    0.1424    0.2289    0.3796   -0.1359    0.0397    0.0186
          22   -0.1019    0.0914    0.1000   -0.0863   -0.0040    0.1166   -0.2162    0.0008
          23   -0.0102    0.2555    0.1495   -0.2283    0.0726   -0.1146   -0.3153   -0.0757
          24   -0.0474    0.0846    0.0052    0.0278   -0.0455    0.0622    0.0831    0.0545
          25   -0.0161   -0.1172   -0.0656    0.0329    0.0486    0.0514    0.1160   -0.0396
          26    0.0057    0.1025    0.0666   -0.1157    0.0379    0.0129   -0.0511   -0.0131
          27   -0.0626    0.2845    0.1087   -0.1214    0.0009   -0.1049   -0.2477   -0.0148
          28   -0.1008    0.0508    0.0080    0.0150   -0.0786    0.0458    0.0644    0.0051
          29    0.1149   -0.0440    0.0003    0.0916    0.1518   -0.0557   -0.0443    0.0747
          30    0.2724   -0.1645    0.1074    0.0506    0.2060    0.0353   -0.1216    0.0693
          31    0.0466   -0.1447    0.0360   -0.0404    0.0769    0.1087   -0.1708   -0.0365
          32   -0.1991    0.0744   -0.2118   -0.0683   -0.1652   -0.0866    0.2067   -0.1511
          33    0.2026   -0.1393    0.0622    0.0135    0.1345    0.0335   -0.0756    0.0222
          34    0.0232   -0.0740   -0.0885   -0.0614   -0.0560   -0.0907   -0.0682    0.1363
          35   -0.2265   -0.1826    0.2727    0.1455   -0.0403   -0.1534   -0.0198   -0.3537
          36    0.1056    0.0091   -0.0292   -0.0316   -0.0667   -0.0542   -0.0691   -0.0335
          37   -0.1528   -0.1092    0.1324    0.0396    0.0686   -0.0883    0.0852   -0.1592
          38   -0.0144   -0.0381    0.0456    0.0498   -0.0698    0.0491   -0.0273    0.0223
          39    0.2426    0.1479   -0.1578   -0.0858   -0.0381    0.1593   -0.0122    0.1978
          40    0.1220    0.1237    0.2098   -0.0173   -0.2809   -0.2118    0.2456    0.0636
          41    0.0305   -0.0765   -0.0109    0.0308   -0.0072    0.0709   -0.0158   -0.0180
          42   -0.1023   -0.0277   -0.0682    0.0378    0.0899    0.2077   -0.0406    0.0546
          43    0.0462    0.0161    0.0065   -0.0135    0.1136   -0.0261    0.1367   -0.1265
          44    0.0243   -0.0026    0.0200    0.0280    0.0202    0.0459   -0.0064   -0.0621
          45   -0.2262   -0.0944   -0.1546   -0.2461   -0.1539    0.0626   -0.1598    0.2452
          46    0.0419   -0.0533   -0.0701   -0.0055   -0.0786   -0.0502   -0.0656   -0.0376
          47    0.0343   -0.0020   -0.0908    0.0128   -0.0066   -0.0445   -0.0235    0.0028
          48   -0.2329    0.0795    0.1401    0.1549    0.2900   -0.0800   -0.0007    0.4455
          49    0.0631    0.2298   -0.1538    0.2471   -0.0559    0.1539   -0.0687   -0.2910
          50    0.0568   -0.0214    0.0128   -0.0739    0.0273    0.0302    0.0162    0.0136
          51    0.0133   -0.1362    0.0583   -0.0909   -0.0007   -0.1676   -0.0710    0.0747


   Root No.       9        10        11        12        13        14        15        16

                 9 A      10 A      11 A      12 A      13 A      14 A      15 A      16 A   

                 736.2     820.9     882.0     907.5     928.6     963.2     972.5     984.3
  
           1   -0.0508    0.0594   -0.0517   -0.2416    0.1805   -0.0176    0.0544    0.0534
           2    0.0331   -0.0417   -0.0744   -0.3767    0.2624    0.1839   -0.0819   -0.2395
           3   -0.0127   -0.0313   -0.0395   -0.0784   -0.0187    0.0896   -0.0464    0.0566
           4    0.0467    0.0829    0.1433    0.0080   -0.1097    0.0926   -0.1350    0.0331
           5    0.0843   -0.1822   -0.2274    0.0108    0.2121   -0.2735    0.0393    0.1776
           6   -0.1175   -0.0275    0.3745   -0.1620   -0.0889    0.0532   -0.0717    0.1236
           7   -0.0664    0.1069    0.0080   -0.0902    0.0421   -0.1351   -0.1261    0.1291
           8    0.0256   -0.0916    0.2488    0.3067    0.4041    0.2050    0.0221    0.0472
           9    0.0469   -0.1002   -0.0582   -0.0980   -0.1097    0.0844    0.0546    0.0458
          10    0.2024   -0.2034    0.1033    0.4324   -0.0759    0.1920    0.0764   -0.1528
          11   -0.0019    0.0224    0.0137    0.0405   -0.1834    0.0188   -0.0314   -0.0342
          12   -0.0720    0.1278   -0.0283    0.1434    0.0937   -0.2196    0.0546   -0.2199
          13   -0.2047   -0.2247   -0.1498   -0.0112   -0.0552   -0.1052    0.4068   -0.0767
          14    0.0051    0.0514   -0.0461   -0.0111   -0.1673   -0.0785   -0.0115   -0.0199
          15    0.0850    0.0979   -0.1809    0.0726   -0.0090   -0.1252   -0.0422   -0.1426
          16   -0.1259   -0.3305   -0.0783    0.0148    0.0081   -0.0411   -0.3792   -0.1668
          17   -0.0138    0.0769   -0.0005    0.0466   -0.1491   -0.0722    0.0662    0.1320
          18    0.1531   -0.1001    0.0658   -0.0374    0.0823   -0.0647   -0.0112   -0.1151
          19   -0.0144    0.2121    0.0202   -0.0004   -0.0564    0.1772    0.1606   -0.0585
          20   -0.0977    0.2279    0.0406   -0.0479   -0.1868    0.1651    0.0648   -0.1269
          21   -0.2328    0.2828   -0.1305    0.0962    0.0468    0.2636    0.0601    0.1237
          22    0.0191    0.1678   -0.0931    0.1154   -0.0626   -0.1753   -0.0235   -0.0626
          23   -0.0539   -0.0208    0.1006    0.1576   -0.0589   -0.1357    0.0638    0.1138
          24    0.0306    0.0534   -0.0877   -0.0392   -0.0036    0.0199   -0.0587   -0.0794
          25    0.0298   -0.0633   -0.0475   -0.2690    0.2910    0.0653   -0.0220    0.2205
          26   -0.0033    0.0161   -0.0173   -0.0661   -0.0024    0.0466   -0.0179   -0.1716
          27   -0.0373    0.0017    0.0797    0.2722   -0.0957   -0.2023    0.0419    0.3195
          28   -0.0823    0.0141    0.2067   -0.0958   -0.1583    0.0529   -0.1056    0.3007
          29    0.1312   -0.0531   -0.2905    0.0676    0.0840   -0.1720    0.0174    0.1945
          30    0.1230    0.0002   -0.2030    0.0647    0.0620   -0.0868    0.0185    0.0363
          31    0.0662    0.1087   -0.1051    0.0766    0.0288   -0.2172   -0.0518   -0.0368
          32   -0.1630   -0.0341    0.2528   -0.1190   -0.0038   -0.1657   -0.0512    0.1232
          33    0.0596    0.0176   -0.0699    0.0325    0.0200   -0.0511   -0.0033   -0.0083
          34    0.1039    0.0516    0.1499   -0.1159    0.1116   -0.1853    0.0760   -0.0376
          35    0.0958   -0.0734   -0.0857   -0.1292   -0.2053    0.0422    0.0883   -0.0384
          36    0.1001   -0.0238    0.0613   -0.1064   -0.0015   -0.0704    0.0956   -0.0407
          37    0.0018   -0.0085   -0.1560   -0.1312   -0.1946   -0.1402   -0.0758    0.2769
          38   -0.0049   -0.0254    0.0976    0.1346    0.1721    0.0569   -0.0107    0.0633
          39   -0.0527   -0.0084    0.1165    0.1926    0.2590    0.0122   -0.0597    0.2235
          40    0.3276    0.3728   -0.0828    0.0560    0.0770   -0.0051   -0.3925   -0.0269
          41   -0.0223   -0.0779    0.0406    0.0785   -0.1563   -0.1106   -0.0368   -0.0224
          42   -0.2011   -0.1880   -0.0632   -0.0683    0.0048   -0.0014    0.3253   -0.0278
          43   -0.0427    0.0240    0.0752    0.1337    0.0231   -0.0492    0.0213   -0.1121
          44   -0.0189   -0.0125    0.1023    0.0090   -0.1306   -0.0805   -0.1751   -0.0257
          45    0.4281   -0.3387   -0.1676    0.0160   -0.2008    0.3808   -0.0413    0.2404
          46   -0.1147    0.1475   -0.0823   -0.0096    0.1500    0.1535    0.0488    0.1903
          47   -0.0390    0.0720   -0.0405    0.0450   -0.1904    0.0660    0.0184   -0.1436
          48    0.2781   -0.1720    0.3951   -0.1455    0.0140   -0.2579    0.0137   -0.1703
          49    0.4269    0.2119    0.1519   -0.1462   -0.0367   -0.0612    0.3252    0.1130
          50   -0.0420   -0.0084   -0.0034   -0.0705   -0.1710   -0.0601   -0.1296    0.1265
          51   -0.2107   -0.2033   -0.0712    0.0012   -0.0455   -0.0234   -0.3246   -0.0515


   Root No.      17        18        19        20        21        22        23        24

                17 A      18 A      19 A      20 A      21 A      22 A      23 A      24 A   

                1020.7    1043.0    1061.6    1078.9    1099.7    1113.7    1123.8    1178.6
  
           1   -0.1538    0.0640   -0.0223   -0.1907    0.0484   -0.2458   -0.1124   -0.0146
           2    0.0539    0.0809   -0.0796    0.0729   -0.0379    0.0771   -0.0244    0.0455
           3    0.1386   -0.1979   -0.0398    0.1247    0.1157    0.0833    0.2801    0.1337
           4    0.1488   -0.0822   -0.0447    0.0780   -0.0640    0.2688    0.0647    0.0056
           5   -0.0741    0.0577    0.0604   -0.0103    0.1162    0.0298   -0.0917   -0.0312
           6   -0.1593    0.1784    0.1136   -0.0365    0.1099   -0.0935   -0.1326   -0.0034
           7    0.1959    0.1431   -0.0513    0.1195   -0.0712   -0.0987   -0.0044   -0.0422
           8   -0.0195   -0.1151    0.0597    0.0884    0.0326   -0.0420    0.0127   -0.0321
           9   -0.2062   -0.2702    0.1180    0.0629   -0.1254    0.0441   -0.0854    0.0702
          10    0.0058   -0.0093    0.0556   -0.0103    0.0199   -0.0887    0.0232   -0.0241
          11    0.0617    0.0273   -0.0010    0.0773   -0.0770   -0.0913   -0.0207    0.0226
          12    0.0959   -0.3072   -0.1941   -0.0329   -0.0149    0.0016   -0.0660   -0.0080
          13    0.0650    0.1252   -0.0489    0.0720   -0.0104    0.0349    0.0247    0.0017
          14    0.0053    0.0429    0.0070   -0.1453    0.0161    0.0491    0.0005    0.0071
          15   -0.1260    0.2169    0.0223   -0.1979   -0.2481    0.0719   -0.1461   -0.0895
          16   -0.0268   -0.0179    0.0675   -0.1271   -0.0008    0.0000   -0.0350   -0.0121
          17   -0.0065   -0.0655    0.0227   -0.0812   -0.0096   -0.0238    0.0713   -0.0306
          18    0.1291    0.3273   -0.3154    0.0119    0.1250    0.0049    0.0312   -0.0596
          19   -0.2621   -0.1526   -0.0824   -0.0484    0.0270    0.1253    0.0177    0.0269
          20   -0.0962   -0.0768   -0.0706   -0.0100   -0.0594   -0.0450    0.0383    0.0442
          21    0.1710    0.1891    0.1694   -0.0495    0.0342   -0.0099    0.0381    0.0064
          22   -0.1877    0.0188    0.1881    0.1814    0.4826   -0.3423   -0.1733    0.1201
          23   -0.0715    0.1518   -0.0313   -0.2238   -0.2246    0.0697   -0.1039   -0.0937
          24    0.0119   -0.0995    0.0701    0.2184    0.2973   -0.1014    0.0636    0.1274
          25   -0.0241   -0.1402   -0.1167   -0.3261   -0.1057   -0.1693    0.3384    0.2216
          26    0.0181    0.0856    0.0152    0.1444    0.0453    0.0743   -0.1564   -0.0672
          27   -0.0656   -0.0638   -0.0015   -0.2383   -0.0667   -0.0851    0.1997    0.0697
          28    0.1929   -0.1588   -0.1033   -0.0752    0.2139    0.2967   -0.3589   -0.1093
          29    0.1402   -0.1603   -0.0763   -0.0301    0.1640    0.2092   -0.2107   -0.0945
          30    0.0407   -0.0658   -0.0186    0.0063    0.0514    0.0608   -0.0296   -0.0255
          31   -0.1506    0.1169    0.1980    0.2890   -0.0819    0.3732    0.4601    0.0157
          32   -0.2622    0.2780    0.2343    0.1232    0.0553    0.1458    0.1078   -0.0393
          33   -0.0311    0.0106    0.0373    0.0505    0.0027    0.0386    0.0805    0.0140
          34    0.4334   -0.0449    0.5201   -0.0905   -0.0769   -0.0906   -0.0366    0.0850
          35   -0.1176   -0.2314    0.1651   -0.0431   -0.0473    0.0231   -0.0180    0.0244
          36    0.1660   -0.1546    0.3893   -0.0699   -0.0792   -0.0224   -0.0501    0.0840
          37   -0.0999   -0.0698   -0.1568    0.3795   -0.3126   -0.2203   -0.1521    0.2223
          38   -0.0037   -0.0282   -0.0174    0.0932   -0.0232   -0.0594   -0.0088    0.0074
          39   -0.0249   -0.0171   -0.1153    0.2983   -0.1643   -0.1701   -0.0835    0.0971
          40   -0.1274    0.0135    0.0648   -0.1213   -0.1356   -0.0289   -0.0767   -0.1375
          41    0.0989    0.1720   -0.1580   -0.1881    0.2341    0.1435    0.0666    0.5784
          42   -0.0054   -0.0181    0.0531    0.1145   -0.1318   -0.0352   -0.0272   -0.2991
          43    0.0341   -0.0708   -0.0294    0.0058   -0.0122   -0.0122    0.0018   -0.0072
          44    0.3164    0.0134   -0.0467    0.2253   -0.2484   -0.0158   -0.0308    0.0323
          45   -0.0091    0.2069    0.1331    0.0310    0.0016   -0.0261   -0.0066    0.0021
          46   -0.1064   -0.0382    0.0677    0.0516    0.0834    0.2964   -0.0633   -0.0068
          47    0.0814    0.0439   -0.0523   -0.0641   -0.0778   -0.2452    0.0749    0.0263
          48   -0.2445   -0.2031   -0.0994    0.0301   -0.0074    0.0716   -0.0208    0.0053
          49    0.1297    0.1309   -0.1958    0.0750    0.1212   -0.0883    0.1352   -0.2008
          50    0.0601   -0.1572   -0.0278   -0.0083    0.1886   -0.1863    0.3274   -0.4617
          51    0.0135   -0.0666   -0.0132   -0.0363    0.1089   -0.0845    0.1527   -0.2470


   Root No.      25        26        27        28        29        30        31        32

                25 A      26 A      27 A      28 A      29 A      30 A      31 A      32 A   

                1185.1    1224.5    1290.6    1339.3    1372.5    1389.6    1405.7    1423.7
  
           1    0.0333   -0.1362    0.2210   -0.2977    0.1062   -0.2342   -0.2099   -0.3371
           2   -0.0588    0.0487   -0.0094    0.1780    0.0211    0.0558   -0.1663    0.1530
           3   -0.0491   -0.0815    0.0792   -0.1915    0.0193   -0.0845    0.2021   -0.2709
           4   -0.0662   -0.1538   -0.2000   -0.2440   -0.0253    0.2971    0.1645    0.4280
           5    0.0500   -0.0834   -0.0373   -0.2074   -0.3085   -0.1598   -0.0027    0.2635
           6    0.0101    0.0112   -0.0453    0.0002   -0.0752   -0.0052   -0.0111    0.1040
           7   -0.0044    0.1503   -0.0276   -0.2814   -0.2654    0.0793    0.2019   -0.1204
           8   -0.0668    0.0276    0.0885   -0.0426    0.1129   -0.2169    0.1026    0.1582
           9    0.0277    0.1119    0.0331   -0.1902   -0.0116   -0.1695    0.2005    0.0754
          10    0.0193   -0.0332   -0.0387    0.1453    0.0884   -0.0230   -0.0174   -0.1970
          11    0.0611   -0.1686   -0.2208    0.0449   -0.0017    0.0664    0.0547   -0.2213
          12    0.0120   -0.0295   -0.0323    0.0308    0.0219    0.0036    0.0085   -0.0625
          13    0.0391   -0.0110    0.0226    0.1368   -0.0405    0.0458   -0.0018    0.1330
          14    0.0242    0.1326   -0.1789   -0.0321    0.0314    0.0531   -0.0565   -0.1157
          15    0.0283   -0.1359    0.1421    0.1956   -0.0468    0.0204   -0.0239    0.1991
          16   -0.0341    0.0294   -0.1143    0.0304    0.0603    0.0261   -0.0684   -0.0707
          17    0.0195    0.1330   -0.1367   -0.1180    0.0207   -0.0025    0.0343   -0.1265
          18   -0.0213    0.1046   -0.2185    0.0386    0.0630    0.0703   -0.0901   -0.1158
          19    0.0019    0.1479    0.2576    0.0329    0.0435   -0.0623   -0.1029    0.2160
          20   -0.0076   -0.0984   -0.0694    0.1079    0.0817    0.0389   -0.0215   -0.0920
          21   -0.0130    0.0049    0.0488    0.0365    0.0199   -0.0008   -0.0396    0.0364
          22    0.1144    0.1841   -0.0572    0.2375   -0.0791    0.0840    0.2342    0.0861
          23   -0.0123   -0.0789    0.1423    0.1630   -0.0838   -0.0223    0.5007   -0.1291
          24    0.0270    0.0982   -0.0843    0.0142    0.0037    0.0456   -0.0747    0.0672
          25    0.0626    0.2354   -0.0723    0.3616   -0.0210    0.1153    0.2368    0.0167
          26   -0.0480   -0.1002    0.0779   -0.0821    0.0079   -0.0543   -0.0516   -0.0278
          27    0.0720    0.1315   -0.2006   -0.1091    0.0779    0.0398   -0.4933    0.1623
          28   -0.2596    0.1825   -0.0083    0.3212   -0.1497   -0.2145   -0.1222   -0.0927
          29   -0.1312    0.1306    0.1780    0.0290    0.2692    0.1437    0.0087   -0.0705
          30   -0.0298    0.0444    0.1298   -0.0845    0.3489    0.2851    0.0769   -0.0144
          31   -0.1984    0.1035    0.0130    0.1800   -0.1377   -0.2407   -0.0853   -0.1690
          32   -0.0929    0.1207    0.1952   -0.0297    0.3883    0.2651    0.0395   -0.0590
          33   -0.0244    0.0108   -0.0483    0.0731   -0.2030   -0.2017   -0.0581   -0.0317
          34   -0.0737   -0.1483   -0.0405    0.1092    0.1118   -0.0430   -0.0447    0.0232
          35   -0.0168   -0.0130    0.2203    0.0025   -0.3784    0.4202   -0.1786   -0.1716
          36   -0.0395   -0.0906    0.0280    0.0672    0.0262    0.0126   -0.0478    0.0102
          37   -0.1463   -0.2229   -0.1273    0.1823    0.3016   -0.1937   -0.0183    0.0974
          38   -0.0618   -0.0339    0.0786    0.0283   -0.0477    0.0556   -0.0404    0.0011
          39   -0.1516   -0.1381    0.1835    0.1134   -0.2650    0.3630   -0.1983   -0.1331
          40    0.0014    0.0296   -0.0317    0.0168    0.0001    0.0116   -0.0141   -0.0019
          41    0.0291   -0.2752    0.2776    0.0262   -0.0295   -0.0433   -0.0075    0.0763
          42    0.0026    0.1330   -0.1392    0.0556    0.0033    0.0454   -0.0087    0.0175
          43    0.0431    0.0139    0.0143    0.0472    0.0308   -0.0125   -0.0123   -0.0514
          44    0.5973    0.3654    0.3634    0.0337    0.0231   -0.1055   -0.0869    0.0481
          45    0.0565    0.0454    0.0415    0.0162    0.0105   -0.0189   -0.0097   -0.0095
          46    0.4690   -0.2523   -0.1667    0.1351    0.0528    0.0525   -0.0411   -0.1227
          47   -0.4010    0.2156    0.1844   -0.0664   -0.0041   -0.0468   -0.0012    0.1283
          48    0.0902   -0.0269   -0.0149    0.0169    0.0082    0.0011   -0.0035   -0.0151
          49    0.0257   -0.1029    0.0602    0.0580    0.0029   -0.0033   -0.0158    0.0354
          50    0.0630   -0.3019    0.2297    0.1350    0.0014   -0.0420    0.0080    0.1384
          51    0.0154   -0.1580    0.0799    0.1134    0.0218    0.0002   -0.0332    0.0649


   Root No.      33        34        35        36        37        38        39        40

                33 A      34 A      35 A      36 A      37 A      38 A      39 A      40 A   

                1449.5    1880.1    1899.5    2923.4    2934.5    2947.9    3006.7    3010.9
  
           1   -0.0381    0.0242    0.0049    0.0038   -0.0086    0.0159    0.0104   -0.0006
           2    0.2039   -0.0796    0.0034   -0.0165    0.0553   -0.2194    0.0064    0.0098
           3   -0.2089    0.0581    0.0053   -0.0181    0.0565   -0.1925   -0.0096    0.0065
           4   -0.1446    0.0084   -0.0367   -0.0005    0.0042   -0.0048    0.0510   -0.0400
           5   -0.2310    0.0187   -0.1110   -0.0013    0.0617    0.0259   -0.0769    0.0598
           6   -0.0287   -0.0002   -0.0180    0.0076   -0.2870   -0.0782   -0.0197    0.0129
           7    0.4395    0.0517   -0.0921    0.1139    0.0048   -0.0063    0.0228    0.0686
           8    0.1028    0.0678    0.0570    0.1739    0.0091   -0.0166   -0.0505   -0.1768
           9    0.3155    0.0607   -0.0157   -0.2168   -0.0095    0.0146   -0.0210   -0.0628
          10    0.1187    0.0176   -0.1678    0.0008    0.0045    0.0021   -0.1967    0.0598
          11    0.2135   -0.0706    0.6676    0.0017   -0.0022    0.0002    0.0209   -0.0091
          12    0.0503   -0.0024    0.0224   -0.0004    0.0009    0.0002   -0.0435    0.0130
          13    0.1035    0.0115    0.0002   -0.0000    0.0005    0.0063   -0.0004   -0.0001
          14   -0.1711    0.6779    0.0680    0.0021   -0.0034    0.0084    0.0004   -0.0003
          15    0.1923   -0.0921   -0.0085   -0.0011   -0.0016    0.0086   -0.0007   -0.0006
          16   -0.1758   -0.1159   -0.0058    0.0027    0.0005   -0.0010   -0.0023   -0.0074
          17   -0.1307   -0.6694   -0.0738   -0.0090   -0.0001   -0.0001    0.0015    0.0098
          18   -0.2429   -0.0917   -0.0068    0.0053    0.0007   -0.0021   -0.0037   -0.0146
          19   -0.2826   -0.0391    0.3569   -0.0024   -0.0006    0.0003    0.0825    0.0221
          20    0.0310    0.0533   -0.5808   -0.0094   -0.0002    0.0009    0.0962    0.0332
          21   -0.0811   -0.0055    0.0305   -0.0022   -0.0013   -0.0003    0.0290    0.0083
          22   -0.0380   -0.0026   -0.0030   -0.0251    0.0714   -0.2545   -0.0159    0.0081
          23   -0.1934    0.0240    0.0010    0.0218   -0.0712    0.2276    0.0173   -0.0066
          24    0.0391   -0.0087   -0.0005    0.0643   -0.1961    0.6317    0.0418   -0.0188
          25    0.0206    0.0149    0.0144    0.0121   -0.0456    0.1945   -0.0087   -0.0129
          26    0.0064   -0.0248   -0.0040    0.0311   -0.1163    0.5270   -0.0377   -0.0292
          27    0.1876    0.0290    0.0027    0.0016   -0.0093    0.0427   -0.0067   -0.0030
          28    0.0963   -0.0086   -0.0099   -0.0047    0.2097    0.0686   -0.0884    0.0698
          29    0.0673    0.0008   -0.0247    0.0093   -0.4260   -0.1435    0.1801   -0.1463
[...]
 REDUCED MASS        0.3152         C  6 -- H 17          +8.6% ( 36.9%)      3.2%
 EFFECTIVE MASS      4.4541
 FORCE CONSTANT      0.3094

 VIBRATION         28   28A           ATOM PAIR      ENERGY CONTRIBUTION    RADIAL
 FREQUENCY          1339.32         C  1 -- H  9         +13.2% ( 48.9%)      0.1%
 TRANSITION DIPOLE   0.0637         C  1 -- C  5         +11.4% ( 45.6%)     82.9%
 TRAVEL (Ang.)       0.2705         C  2 -- H 10          +9.6% ( 41.9%)      0.3%
 REDUCED MASS        0.6879         C  1 -- H  8          +9.6% ( 41.8%)      0.0%
 EFFECTIVE MASS      5.9289
 FORCE CONSTANT      0.7270

 VIBRATION         29   29A           ATOM PAIR      ENERGY CONTRIBUTION    RADIAL
 FREQUENCY          1372.54         C  2 -- H 10         +19.1% ( 46.9%)      3.7%
 TRANSITION DIPOLE   0.0185         C  2 -- H 11         +18.7% ( 46.5%)      4.3%
 TRAVEL (Ang.)       0.3717         C  3 -- H 13         +15.0% ( 41.6%)      3.2%
 REDUCED MASS        0.3556         C  3 -- H 12         +14.5% ( 40.9%)      3.6%
 EFFECTIVE MASS      3.2242
 FORCE CONSTANT      0.3946

 VIBRATION         30   30A           ATOM PAIR      ENERGY CONTRIBUTION    RADIAL
 FREQUENCY          1389.60         C  2 -- H 11         +15.4% ( 44.5%)      4.0%
 TRANSITION DIPOLE   0.0858         C  3 -- H 12         +14.1% ( 42.6%)      5.0%
 TRAVEL (Ang.)       0.3473         C  2 -- H 10         +13.5% ( 41.7%)      6.8%
 REDUCED MASS        0.4023         C  3 -- H 13         +13.3% ( 41.3%)      5.9%
 EFFECTIVE MASS      3.8307         C  1 -- C  2         +11.6% ( 38.7%)     84.2%
 FORCE CONSTANT      0.4577

 VIBRATION         31   31A           ATOM PAIR      ENERGY CONTRIBUTION    RADIAL
 FREQUENCY          1405.71         C  1 -- H  8         +23.7% ( 54.2%)      4.7%
 TRANSITION DIPOLE   0.0470         C  1 -- H  9         +22.6% ( 53.0%)      5.1%
 TRAVEL (Ang.)       0.3231         C  1 -- C  2          +8.4% ( 32.3%)     66.0%
 REDUCED MASS        0.4594         C  3 -- H 13          +7.9% ( 31.4%)      1.1%
 EFFECTIVE MASS      3.6656
 FORCE CONSTANT      0.5348

 VIBRATION         32   32A           ATOM PAIR      ENERGY CONTRIBUTION    RADIAL
 FREQUENCY          1423.65         C  1 -- C  2         +15.7% ( 60.2%)     79.3%
 TRANSITION DIPOLE   0.0366         C  2 -- C  4         +13.9% ( 56.6%)     82.3%
 TRAVEL (Ang.)       0.1715         C  1 -- C  5         +10.8% ( 49.9%)     87.5%
 REDUCED MASS        1.6098         C  2 -- H 11          +9.0% ( 45.7%)      0.1%
 EFFECTIVE MASS      9.3125
 FORCE CONSTANT      1.9223

 VIBRATION         33   33A           ATOM PAIR      ENERGY CONTRIBUTION    RADIAL
 FREQUENCY          1449.54         C  3 -- C  6         +15.7% ( 60.3%)     87.0%
 TRANSITION DIPOLE   0.0517         C  3 -- C  7         +14.5% ( 58.0%)     79.3%
 TRAVEL (Ang.)       0.1697         C  3 -- H 13         +10.0% ( 48.2%)      0.1%
 REDUCED MASS        1.6149         C  3 -- H 12          +9.2% ( 46.2%)      0.1%
 EFFECTIVE MASS      9.6526
 FORCE CONSTANT      1.9992

 VIBRATION         34   34A           ATOM PAIR      ENERGY CONTRIBUTION    RADIAL
 FREQUENCY          1880.13         C  5 -- C  6         +43.9% ( 97.4%)    100.0%
 TRANSITION DIPOLE   0.0812         C  3 -- C  6         +14.1% ( 55.3%)     52.9%
 TRAVEL (Ang.)       0.0824         C  1 -- C  5         +14.0% ( 55.1%)     50.2%
 REDUCED MASS        5.2879         C  6 -- H 17         +13.0% ( 53.0%)      4.4%
 EFFECTIVE MASS     11.8432         C  5 -- H 14         +12.9% ( 52.8%)      4.6%
 FORCE CONSTANT     11.0132

 VIBRATION         35   35A           ATOM PAIR      ENERGY CONTRIBUTION    RADIAL
 FREQUENCY          1899.47         C  4 -- C  7         +43.4% ( 96.9%)    100.0%
 TRANSITION DIPOLE   0.1556         C  2 -- C  4         +14.5% ( 56.0%)     63.7%
 TRAVEL (Ang.)       0.0817         C  3 -- C  7         +14.0% ( 55.0%)     60.0%
 REDUCED MASS        5.3123         C  4 -- H 15         +13.2% ( 53.4%)      3.1%
 EFFECTIVE MASS     11.8774         C  7 -- H 16         +12.8% ( 52.6%)      3.4%
 FORCE CONSTANT     11.2927

 VIBRATION         36   36A           ATOM PAIR      ENERGY CONTRIBUTION    RADIAL
 FREQUENCY          2923.37         C  3 -- H 12         +66.7% ( 84.7%)     98.0%
 TRANSITION DIPOLE   0.0446         C  3 -- H 13         +30.0% ( 56.8%)     93.4%
 TRAVEL (Ang.)       0.2002         C  3 -- C  6          +1.1% ( 10.9%)      0.5%
 REDUCED MASS        0.5754         C  3 -- C  7          +1.1% ( 10.9%)      0.4%
 EFFECTIVE MASS      1.5319
 FORCE CONSTANT      2.8971

 VIBRATION         37   37A           ATOM PAIR      ENERGY CONTRIBUTION    RADIAL
 FREQUENCY          2934.51         C  2 -- H 11         +47.2% ( 71.4%)     96.6%
 TRANSITION DIPOLE   0.0239         C  2 -- H 10         +43.3% ( 68.4%)     96.3%
 TRAVEL (Ang.)       0.2262         C  1 -- H  8          +5.1% ( 23.5%)     98.2%
 REDUCED MASS        0.4491         C  1 -- H  9          +1.8% ( 14.0%)     91.8%
 EFFECTIVE MASS      1.5430
 FORCE CONSTANT      2.2785

 VIBRATION         38   38A           ATOM PAIR      ENERGY CONTRIBUTION    RADIAL
 FREQUENCY          2947.94         C  1 -- H  8         +54.6% ( 76.7%)     97.5%
 TRANSITION DIPOLE   0.0327         C  1 -- H  9         +35.1% ( 61.5%)     95.0%
 TRAVEL (Ang.)       0.2229         C  2 -- H 10          +4.8% ( 22.7%)     98.1%
 REDUCED MASS        0.4603         C  2 -- H 11          +2.4% ( 15.9%)     94.2%
 EFFECTIVE MASS      1.5431
 FORCE CONSTANT      2.3571

 VIBRATION         39   39A           ATOM PAIR      ENERGY CONTRIBUTION    RADIAL
 FREQUENCY          3006.74         C  4 -- H 15         +50.9% ( 71.9%)    100.0%
 TRANSITION DIPOLE   0.1578         C  7 -- H 16         +22.0% ( 47.2%)    100.0%
 TRAVEL (Ang.)       0.2684         C  2 -- H 11          +9.5% ( 31.0%)     98.0%
 REDUCED MASS        0.3113         C  2 -- H 10          +8.5% ( 29.4%)     97.6%
 EFFECTIVE MASS      1.4201
 FORCE CONSTANT      1.6581

 VIBRATION         40   40A           ATOM PAIR      ENERGY CONTRIBUTION    RADIAL
 FREQUENCY          3010.87         C  3 -- H 13         +55.8% ( 73.9%)     99.3%
 TRANSITION DIPOLE   0.0715         C  3 -- H 12         +24.1% ( 48.5%)     93.9%
 TRAVEL (Ang.)       0.2455         C  2 -- H 11          +5.7% ( 23.7%)     97.8%
 REDUCED MASS        0.3717         C  2 -- H 10          +5.7% ( 23.6%)     97.8%
 EFFECTIVE MASS      1.3035
 FORCE CONSTANT      1.9853

 VIBRATION         41   41A           ATOM PAIR      ENERGY CONTRIBUTION    RADIAL
 FREQUENCY          3014.89         C  2 -- H 10         +30.7% ( 55.0%)     97.9%
 TRANSITION DIPOLE   0.1917         C  2 -- H 11         +29.9% ( 54.2%)     97.6%
 TRAVEL (Ang.)       0.3152         C  7 -- H 16         +14.7% ( 38.0%)    100.0%
 REDUCED MASS        0.2251         C  4 -- H 15         +12.3% ( 34.8%)    100.0%
 EFFECTIVE MASS      1.3163
 FORCE CONSTANT      1.2053

 VIBRATION         42   42A           ATOM PAIR      ENERGY CONTRIBUTION    RADIAL
 FREQUENCY          3028.68         C  1 -- H  9         +55.9% ( 73.9%)     98.8%
 TRANSITION DIPOLE   0.0810         C  1 -- H  8         +32.7% ( 56.5%)     95.6%
 TRAVEL (Ang.)       0.2306         C  7 -- H 16          +5.0% ( 22.0%)    100.0%
 REDUCED MASS        0.4188         C  2 -- H 10          +1.3% ( 11.3%)     99.3%
 EFFECTIVE MASS      1.2967
 FORCE CONSTANT      2.2634

 VIBRATION         43   43A           ATOM PAIR      ENERGY CONTRIBUTION    RADIAL
 FREQUENCY          3031.21         C  7 -- H 16         +55.3% ( 75.0%)     99.9%
 TRANSITION DIPOLE   0.2189         C  4 -- H 15         +29.7% ( 55.0%)     99.9%
 TRAVEL (Ang.)       0.2391         C  1 -- H  9          +3.3% ( 18.3%)     99.2%
 REDUCED MASS        0.3892         C  2 -- H 10          +2.8% ( 16.8%)     98.2%
 EFFECTIVE MASS      1.5284
 FORCE CONSTANT      2.1069

 VIBRATION         44   44A           ATOM PAIR      ENERGY CONTRIBUTION    RADIAL
 FREQUENCY          3046.46         C  6 -- H 17         +59.4% ( 78.2%)    100.0%
 TRANSITION DIPOLE   0.2944         C  5 -- H 14         +37.4% ( 62.1%)    100.0%
 TRAVEL (Ang.)       0.2147         C  5 -- C  6          +1.1% ( 10.5%)      0.8%
 REDUCED MASS        0.4800         C  3 -- C  6          +0.8% (  9.0%)     23.8%
 EFFECTIVE MASS      1.4566
 FORCE CONSTANT      2.6247

 VIBRATION         45   45A           ATOM PAIR      ENERGY CONTRIBUTION    RADIAL
 FREQUENCY          3067.36         C  5 -- H 14         +58.8% ( 77.8%)     99.9%
 TRANSITION DIPOLE   0.2766         C  6 -- H 17         +36.9% ( 61.6%)     99.9%
 TRAVEL (Ang.)       0.2135         C  5 -- C  6          +2.0% ( 14.3%)     97.9%
 REDUCED MASS        0.4821         C  1 -- C  5          +0.9% (  9.8%)     16.7%
 EFFECTIVE MASS      1.5837
 FORCE CONSTANT      2.6725

      SYMMETRY NUMBER FOR POINT-GROUP C1  =  1


          SYSTEM IS A GROUND STATE



 InChI=1S/C7H10/c1-2-4-6-7-5-3-1/h1-2,5,7H,3-4,6H2


          MOLECULE IS NOT LINEAR

          THERE ARE 45 GENUINE VIBRATIONS IN THIS SYSTEM
          THIS THERMODYNAMICS CALCULATION IS LIMITED TO
          MOLECULES WHICH HAVE NO INTERNAL ROTATIONS




                    CALCULATED THERMODYNAMIC PROPERTIES
                                          *
   TEMP. (K)   PARTITION FUNCTION   H.O.F.    ENTHALPY  HEAT CAPACITY ENTROPY
                                   KCAL/MOL   CAL/MOLE    CAL/K/MOL  CAL/K/MOL


 298.00  VIB.     0.9490D+01                  2215.3567    19.1209    11.9057
         ROT.     0.1811D+06                   888.2803     2.9808    27.0399
         INT.     0.1719D+07                  3103.6370    22.1017    38.9456
         TRA.     0.8833D+27                  1480.4672     4.9680    39.5363
         TOT.                       20.198    4584.1041    27.0697    78.4819

 200.00  VIB.     0.3133D+01                   795.0721    10.1767     6.2449
         ROT.     0.9959D+05                   596.1613     2.9808    25.8512
         INT.     0.3120D+06                  1391.2334    13.1575    32.0961
         TRA.     0.4856D+27                   993.6021     4.9680    37.5551
         TOT.                       17.999    2384.8355    18.1255    69.6512

 210.00  VIB.     0.3468D+01                   900.8698    10.9878     6.7609
         ROT.     0.1072D+06                   625.9693     2.9808    25.9966
         INT.     0.3716D+06                  1526.8392    13.9686    32.7575
         TRA.     0.5225D+27                  1043.2822     4.9680    37.7975
         TOT.                       18.184    2570.1214    18.9367    70.5551

 220.00  VIB.     0.3848D+01                  1014.9270    11.8284     7.2913
         ROT.     0.1149D+06                   655.7774     2.9808    26.1353
         INT.     0.4422D+06                  1670.7044    14.8092    33.4267
         TRA.     0.5603D+27                  1092.9623     4.9680    38.0286
         TOT.                       18.378    2763.6667    19.7772    71.4553

 230.00  VIB.     0.4282D+01                  1137.5295    12.6966     7.8362
         ROT.     0.1228D+06                   685.5855     2.9808    26.2678
         INT.     0.5260D+06                  1823.1150    15.6774    34.1040
         TRA.     0.5989D+27                  1142.6424     4.9680    38.2495
         TOT.                       18.580    2965.7575    20.6454    72.3535

 240.00  VIB.     0.4778D+01                  1268.9430    13.5901     8.3953
         ROT.     0.1309D+06                   715.3935     2.9808    26.3947
         INT.     0.6255D+06                  1984.3366    16.5709    34.7900
         TRA.     0.6384D+27                  1192.3226     4.9680    38.4609
         TOT.                       18.791    3176.6591    21.5389    73.2509

 250.00  VIB.     0.5345D+01                  1409.4076    14.5063     8.9686
         ROT.     0.1392D+06                   745.2016     2.9808    26.5164
         INT.     0.7440D+06                  2154.6092    17.4871    35.4850
         TRA.     0.6787D+27                  1242.0027     4.9680    38.6637
         TOT.                       19.011    3396.6119    22.4551    74.1487

 260.00  VIB.     0.5995D+01                  1559.1347    15.4421     9.5557
         ROT.     0.1476D+06                   775.0097     2.9808    26.6333
         INT.     0.8850D+06                  2334.1444    18.4229    36.1890
         TRA.     0.7198D+27                  1291.6828     4.9680    38.8586
         TOT.                       19.240    3625.8271    23.3909    75.0476

 270.00  VIB.     0.6742D+01                  1718.3046    16.3943    10.1563
         ROT.     0.1562D+06                   804.8177     2.9808    26.7458
         INT.     0.1053D+07                  2523.1223    19.3752    36.9021
         TRA.     0.7618D+27                  1341.3629     4.9680    39.0461
         TOT.                       19.479    3864.4852    24.3432    75.9482

 280.00  VIB.     0.7600D+01                  1887.0657    17.3598    10.7700
         ROT.     0.1650D+06                   834.6258     2.9808    26.8542
         INT.     0.1254D+07                  2721.6915    20.3406    37.6241
         TRA.     0.8045D+27                  1391.0430     4.9680    39.2267
         TOT.                       19.727    4112.7345    25.3086    76.8509

 290.00  VIB.     0.8590D+01                  2065.5343    18.3353    11.3961
         ROT.     0.1739D+06                   864.4339     2.9808    26.9588
         INT.     0.1494D+07                  2929.9682    21.3161    38.3549
         TRA.     0.8479D+27                  1440.7231     4.9680    39.4011
         TOT.                       19.985    4370.6913    26.2841    77.7560

 300.00  VIB.     0.9732D+01                  2253.7953    19.3178    12.0343
         ROT.     0.1830D+06                   894.2419     2.9808    27.0598
         INT.     0.1781D+07                  3148.0372    22.2986    39.0941
         TRA.     0.8922D+27                  1490.4032     4.9680    39.5695
         TOT.                       20.253    4638.4404    27.2666    78.6636

 310.00  VIB.     0.1105D+02                  2451.9034    20.3043    12.6838
         ROT.     0.1922D+06                   924.0500     2.9808    27.1576
         INT.     0.2124D+07                  3375.9534    23.2851    39.8414
         TRA.     0.9372D+27                  1540.0833     4.9680    39.7324
         TOT.                       20.530    4916.0367    28.2531    79.5738

 320.00  VIB.     0.1258D+02                  2659.8851    21.2921    13.3440
         ROT.     0.2016D+06                   953.8580     2.9808    27.2522
         INT.     0.2536D+07                  3613.7431    24.2729    40.5962
         TRA.     0.9829D+27                  1589.7634     4.9680    39.8901
         TOT.                       20.818    5203.5065    29.2409    80.4864

 330.00  VIB.     0.1435D+02                  2877.7405    22.2786    14.0143
         ROT.     0.2111D+06                   983.6661     2.9808    27.3439
         INT.     0.3030D+07                  3861.4066    25.2594    41.3582
         TRA.     0.1029D+28                  1639.4435     4.9680    40.0430
         TOT.                       21.115    5500.8502    30.2274    81.4013

 340.00  VIB.     0.1641D+02                  3105.4458    23.2617    14.6940
         ROT.     0.2207D+06                  1013.4742     2.9808    27.4329
         INT.     0.3623D+07                  4118.9200    26.2425    42.1269
         TRA.     0.1076D+28                  1689.1236     4.9680    40.1913
         TOT.                       21.422    5808.0436    31.2105    82.3182

 350.00  VIB.     0.1881D+02                  3342.9553    24.2391    15.3824
         ROT.     0.2306D+06                  1043.2822     2.9808    27.5193
         INT.     0.4337D+07                  4386.2375    27.2199    42.9017
         TRA.     0.1124D+28                  1738.8037     4.9680    40.3353
         TOT.                       21.739    6125.0413    32.1880    83.2371

 360.00  VIB.     0.2160D+02                  3590.2039    25.2092    16.0789
         ROT.     0.2405D+06                  1073.0903     2.9808    27.6033
         INT.     0.5195D+07                  4663.2942    28.1900    43.6822
         TRA.     0.1173D+28                  1788.4838     4.9680    40.4753
         TOT.                       22.066    6451.7781    33.1580    84.1575

 370.00  VIB.     0.2486D+02                  3847.1097    26.1703    16.7827
         ROT.     0.2506D+06                  1102.8984     2.9808    27.6850
         INT.     0.6229D+07                  4950.0081    29.1511    44.4677
         TRA.     0.1222D+28                  1838.1639     4.9680    40.6114
         TOT.                       22.402    6788.1720    34.1191    85.0791

 380.00  VIB.     0.2866D+02                  4113.5757    27.1210    17.4933
         ROT.     0.2608D+06                  1132.7064     2.9808    27.7645
         INT.     0.7475D+07                  5246.2821    30.1019    45.2577
         TRA.     0.1272D+28                  1887.8440     4.9680    40.7439
         TOT.                       22.748    7134.1262    35.0699    86.0016

 390.00  VIB.     0.3311D+02                  4389.4923    28.0603    18.2099
         ROT.     0.2712D+06                  1162.5145     2.9808    27.8419
         INT.     0.8979D+07                  5552.0067    31.0411    46.0518
         TRA.     0.1322D+28                  1937.5242     4.9680    40.8729
         TOT.                       23.104    7489.5309    36.0091    86.9248

 400.00  VIB.     0.3832D+02                  4674.7391    28.9870    18.9321
         ROT.     0.2817D+06                  1192.3226     2.9808    27.9173
         INT.     0.1079D+08                  5867.0616    31.9678    46.8494
         TRA.     0.1374D+28                  1987.2043     4.9680    40.9987
         TOT.                       23.468    7854.2659    36.9358    87.8481

   *: NOTE: HEATS OF FORMATION ARE RELATIVE TO THE
            ELEMENTS IN THEIR STANDARD STATE AT 298K
              (=  Standard Enthalpy of Formation).

            Hvib:  Zero-point energy is not included.
                   frequencies of less than zero cm-1 are not included.
            Hrot = (3/2)RT
            Htra = (3/2)RT + pV = (5/2)RT

            Heat capacity is Cp, not Cv

          For more information, see: HTTP://OpenMOPAC.net/Manual/thermochemistry.html


           FORCE CONSTANT IN CARTESIAN COORDINATES (Millidynes/A)

    ATOM   CHEMICAL       X               Y               Z
   NUMBER   SYMBOL  FORCE CONSTANT  FORCE CONSTANT  FORCE CONSTANT

      1       C        7.993265        8.966599        8.464431
      2       C        8.556547        8.770818        7.955209
      3       C        8.729254        8.908951        8.173986
      4       C        9.583065       14.587405        2.798336
      5       C        4.429772       15.137636        7.707835
      6       C        4.261341       15.207714        7.715635
      7       C        9.869864       14.195473        2.835040
      8       H        1.168361        1.200133        3.930202
      9       H        1.162358        4.469667        0.761516
     10       H        1.144188        2.462519        2.675795
     11       H        1.156008        1.016281        4.066803
     12       H        1.780409        0.737775        3.585648
     13       H        0.693005        4.695549        0.915898
     14       H        1.394578        1.713995        3.138804
     15       H        4.749304        0.812832        0.567209
     16       H        2.321659        3.243176        0.562266
     17       H        1.039881        2.039111        3.152208

 **********************
 *                    *
 * JOB ENDED NORMALLY *
 *                    *
 **********************



 TOTAL JOB TIME:             1.38 SECONDS

 == MOPAC DONE ==
