 *******************************************************************************
 **                                                                           **
 **                              MOPAC v23.1.2                                **
 **                                                                           **
 *******************************************************************************
 **          Digital Object Identifier (DOI): 10.5281/zenodo.6511958          **
 **    Visit the DOI location for information on how to cite this program.    **
 *******************************************************************************

                              PM3 CALCULATION RESULTS

 *******************************************************************************
 *  CALCULATION DONE: (MAX THREADS = 1)              Tue Jun  3 16:31:55 2025  *
 *  PM3        - The PM3 Hamiltonian to be used
 *  PRECISE    - TIGHTER CRITERIA TO BE USED
 *  NOSYM      - POINT-GROUP SYMMETRY SET TO C1
 *  THREADS=1  - MULTI-THREADING NOT USED
 *  T=         - A TIME OF 172800.0 SECONDS REQUESTED
 *  DUMP=N     - RESTART FILE WRITTEN EVERY 7200.0 SECONDS REQUESTED
 *******************************************************************************
pm3  precise nosym THREADS=1
 InChI=1S/C10H8/c1-8-6-7-9-4-2-3-5-10(8)9/h2-7H,1H2

   ATOM   CHEMICAL          X               Y               Z
  NUMBER   SYMBOL      (ANGSTROMS)     (ANGSTROMS)     (ANGSTROMS)

     1       C         -0.06630000  *  -0.35570000  *  -0.10300000  *
     2       C          0.10900000  *   0.95650000  *   0.26950000  *
     3       C         -1.49350000  *  -0.55750000  *  -0.30980000  *
     4       C         -2.12990000  *   0.73550000  *  -0.02930000  *
     5       C          1.01410000  *  -1.23190000  *  -0.22370000  *
     6       C         -1.19150000  *   1.62120000  *   0.30970000  *
     7       C          1.37520000  *   1.47160000  *   0.54360000  *
     8       C          2.30100000  *  -0.73540000  *   0.04760000  *
     9       C          2.48090000  *   0.61080000  *   0.42970000  *
    10       C         -2.11030000  *  -1.67720000  *  -0.67760000  *
    11       H         -3.18940000  *   0.94920000  *  -0.08490000  *
    12       H          0.87110000  *  -2.26330000  *  -0.51700000  *
    13       H         -1.37440000  *   2.65560000  *   0.56900000  *
    14       H          3.15870000  *  -1.38990000  *  -0.03710000  *
    15       H          1.50440000  *   2.50560000  *   0.83610000  *
    16       H          3.47580000  *   0.98320000  *   0.63640000  *
    17       H         -3.18590000  *  -1.69440000  *  -0.79710000  *
    18       H         -1.54940000  *  -2.58370000  *  -0.86200000  *



          CARTESIAN COORDINATES 

    NO.       ATOM           X           Y           Z

     1         C         -0.0663     -0.3557     -0.1030
     2         C          0.1090      0.9565      0.2695
     3         C         -1.4935     -0.5575     -0.3098
     4         C         -2.1299      0.7355     -0.0293
     5         C          1.0141     -1.2319     -0.2237
     6         C         -1.1915      1.6212      0.3097
     7         C          1.3752      1.4716      0.5436
     8         C          2.3010     -0.7354      0.0476
     9         C          2.4809      0.6108      0.4297
    10         C         -2.1103     -1.6772     -0.6776
    11         H         -3.1894      0.9492     -0.0849
    12         H          0.8711     -2.2633     -0.5170
    13         H         -1.3744      2.6556      0.5690
    14         H          3.1587     -1.3899     -0.0371
    15         H          1.5044      2.5056      0.8361
    16         H          3.4758      0.9832      0.6364
    17         H         -3.1859     -1.6944     -0.7971
    18         H         -1.5494     -2.5837     -0.8620

  H: (PM3): J. J. P. STEWART, J. COMP. CHEM. 10, 209 (1989).
  C: (PM3): J. J. P. STEWART, J. COMP. CHEM. 10, 209 (1989).

           Empirical Formula: C10 H8  =    18 atoms



      MOLECULAR POINT GROUP   :   C1  


      RHF CALCULATION, NO. OF DOUBLY OCCUPIED LEVELS = 24


          Geometry optimization using EF

          DIAGONAL MATRIX USED AS START HESSIAN

 CYCLE:     1 TIME:   0.004 TIME LEFT:  2.00D  GRAD.:   115.789 HEAT:  67.52269
 CYCLE:     2 TIME:   0.016 TIME LEFT:  2.00D  GRAD.:    51.022 HEAT:  65.42404
 CYCLE:     3 TIME:   0.012 TIME LEFT:  2.00D  GRAD.:    35.848 HEAT:  65.01914
 CYCLE:     4 TIME:   0.008 TIME LEFT:  2.00D  GRAD.:    36.808 HEAT:  64.77576
 CYCLE:     5 TIME:   0.008 TIME LEFT:  2.00D  GRAD.:    26.914 HEAT:  64.57085
 CYCLE:     6 TIME:   0.012 TIME LEFT:  2.00D  GRAD.:    13.146 HEAT:  64.43786
 CYCLE:     7 TIME:   0.008 TIME LEFT:  2.00D  GRAD.:    11.116 HEAT:  64.32825
 CYCLE:     8 TIME:   0.004 TIME LEFT:  2.00D  GRAD.:    22.119 HEAT:  64.26697
 CYCLE:     9 TIME:   0.012 TIME LEFT:  2.00D  GRAD.:    19.425 HEAT:  64.22592
 CYCLE:    10 TIME:   0.008 TIME LEFT:  2.00D  GRAD.:     7.941 HEAT:  64.16017
 CYCLE:    11 TIME:   0.012 TIME LEFT:  2.00D  GRAD.:     4.914 HEAT:  64.14747
 CYCLE:    12 TIME:   0.004 TIME LEFT:  2.00D  GRAD.:     3.251 HEAT:  64.13856
 CYCLE:    13 TIME:   0.008 TIME LEFT:  2.00D  GRAD.:     4.368 HEAT:  64.13531
 CYCLE:    14 TIME:   0.008 TIME LEFT:  2.00D  GRAD.:     4.918 HEAT:  64.13431
 CYCLE:    15 TIME:   0.004 TIME LEFT:  2.00D  GRAD.:     3.928 HEAT:  64.13215
 CYCLE:    16 TIME:   0.008 TIME LEFT:  2.00D  GRAD.:     2.098 HEAT:  64.12874
 CYCLE:    17 TIME:   0.008 TIME LEFT:  2.00D  GRAD.:     1.800 HEAT:  64.12816
 CYCLE:    18 TIME:   0.004 TIME LEFT:  2.00D  GRAD.:     0.818 HEAT:  64.12708
 CYCLE:    19 TIME:   0.004 TIME LEFT:  2.00D  GRAD.:     0.771 HEAT:  64.12696
 CYCLE:    20 TIME:   0.008 TIME LEFT:  2.00D  GRAD.:     0.740 HEAT:  64.12678
 CYCLE:    21 TIME:   0.008 TIME LEFT:  2.00D  GRAD.:     0.550 HEAT:  64.12665
 CYCLE:    22 TIME:   0.004 TIME LEFT:  2.00D  GRAD.:     0.396 HEAT:  64.12651
 CYCLE:    23 TIME:   0.008 TIME LEFT:  2.00D  GRAD.:     0.349 HEAT:  64.12637
 CYCLE:    24 TIME:   0.004 TIME LEFT:  2.00D  GRAD.:     0.269 HEAT:  64.12628
 CYCLE:    25 TIME:   0.008 TIME LEFT:  2.00D  GRAD.:     0.296 HEAT:  64.12620
 CYCLE:    26 TIME:   0.004 TIME LEFT:  2.00D  GRAD.:     0.231 HEAT:  64.12612
 CYCLE:    27 TIME:   0.008 TIME LEFT:  2.00D  GRAD.:     0.236 HEAT:  64.12602
 CYCLE:    28 TIME:   0.004 TIME LEFT:  2.00D  GRAD.:     0.200 HEAT:  64.12594
 CYCLE:    29 TIME:   0.008 TIME LEFT:  2.00D  GRAD.:     0.170 HEAT:  64.12589
 CYCLE:    30 TIME:   0.004 TIME LEFT:  2.00D  GRAD.:     0.166 HEAT:  64.12586
 CYCLE:    31 TIME:   0.008 TIME LEFT:  2.00D  GRAD.:     0.078 HEAT:  64.12584
 CYCLE:    32 TIME:   0.008 TIME LEFT:  2.00D  GRAD.:     0.064 HEAT:  64.12583
 CYCLE:    33 TIME:   0.004 TIME LEFT:  2.00D  GRAD.:     0.066 HEAT:  64.12582
 CYCLE:    34 TIME:   0.008 TIME LEFT:  2.00D  GRAD.:     0.055 HEAT:  64.12581
 CYCLE:    35 TIME:   0.004 TIME LEFT:  2.00D  GRAD.:     0.039 HEAT:  64.12581

     GRADIENT =  0.03925 IS LESS THAN CUTOFF =  0.05000



 -------------------------------------------------------------------------------
 pm3  precise nosym THREADS=1
 InChI=1S/C10H8/c1-8-6-7-9-4-2-3-5-10(8)9/h2-7H,1H2



     GEOMETRY OPTIMISED USING EIGENVECTOR FOLLOWING (EF).     
     SCF FIELD WAS ACHIEVED                                   


                              PM3 CALCULATION
                                                       MOPAC v23.1.2 MacOS
                                                       Tue Jun  3 16:31:55 2025




          FINAL HEAT OF FORMATION =         64.12581 KCAL/MOL =     268.30238 KJ/MOL


          COSMO AREA              =        168.99 SQUARE ANGSTROMS
          COSMO VOLUME            =        167.76 CUBIC ANGSTROMS

          GRADIENT NORM           =          0.03925          =       0.00925 PER ATOM
          IONIZATION POTENTIAL    =          8.934847 EV
          HOMO LUMO ENERGIES (EV) =         -8.935 -0.678
          NO. OF FILLED LEVELS    =         24
          MOLECULAR WEIGHT        =        128.1732         POINT GROUP:  C1  

          MOLECULAR DIMENSIONS (Angstroms)

            Atom       Atom       Distance
            H    17    H    16     7.36154
            H    14    H    13     5.57357
            H    18    H    11     0.00167


          SCF CALCULATIONS        =         44

          WALL-CLOCK TIME         =      0.262 SECONDS
          COMPUTATION TIME        =      0.166 SECONDS




   ATOM   CHEMICAL          X               Y               Z
  NUMBER   SYMBOL      (ANGSTROMS)     (ANGSTROMS)     (ANGSTROMS)

     1       C         -0.06123210  *  -0.36574534  *  -0.10527770  *
     2       C          0.12717120  *   0.98821088  *   0.27973019  *
     3       C         -1.50507903  *  -0.57283373  *  -0.31521449  *
     4       C         -2.13551865  *   0.73531156  *  -0.02960725  *
     5       C          1.01407815  *  -1.22404950  *  -0.22154202  *
     6       C         -1.18814569  *   1.63885460  *   0.31487678  *
     7       C          1.39096939  *   1.47859865  *   0.54694709  *
     8       C          2.29113929  *  -0.72107071  *   0.05060944  *
     9       C          2.47555360  *   0.60337696  *   0.42716207  *
    10       C         -2.12438307  *  -1.69192387  *  -0.68329875  *
    11       H         -3.20994274  *   0.89559330  *  -0.10075972  *
    12       H          0.87237359  *  -2.26829988  *  -0.51802684  *
    13       H         -1.33059115  *   2.68445717  *   0.58157651  *
    14       H          3.15748127  *  -1.38519384  *  -0.03544378  *
    15       H          1.53973933  *   2.52111666  *   0.84371667  *
    16       H          3.48598910  *   0.97107930  *   0.63437562  *
    17       H         -3.20114665  *  -1.74564992  *  -0.81265491  *
    18       H         -1.58868730  *  -2.61722869  *  -0.87591399  *

                             CARTESIAN COORDINATES

   1    C       -0.061232100    -0.365745344    -0.105277700
   2    C        0.127171199     0.988210883     0.279730190
   3    C       -1.505079032    -0.572833727    -0.315214495
   4    C       -2.135518652     0.735311557    -0.029607250
   5    C        1.014078151    -1.224049501    -0.221542024
   6    C       -1.188145691     1.638854600     0.314876776
   7    C        1.390969392     1.478598648     0.546947094
   8    C        2.291139295    -0.721070715     0.050609437
   9    C        2.475553602     0.603376964     0.427162068
  10    C       -2.124383067    -1.691923867    -0.683298748
  11    H       -3.209942739     0.895593304    -0.100759715
  12    H        0.872373591    -2.268299878    -0.518026841
  13    H       -1.330591153     2.684457174     0.581576511
  14    H        3.157481269    -1.385193835    -0.035443782
  15    H        1.539739328     2.521116661     0.843716671
  16    H        3.485989099     0.971079299     0.634375616
  17    H       -3.201146653    -1.745649925    -0.812654909
  18    H       -1.588687304    -2.617228695    -0.875913987


           Empirical Formula: C10 H8  =    18 atoms



      MOLECULAR POINT GROUP   :   C1  


                  EIGENVALUES  
 -41.15703 -35.43062 -31.49633 -28.45110 -26.97289 -22.89985 -21.36932 -20.04391
 -19.20573 -17.44708 -16.35293 -15.95541 -15.04260 -14.91635 -14.30923 -13.96265
 -13.95392 -12.88639 -12.51441 -12.12977 -11.88395 -10.51132  -9.24723  -8.93485
  -0.67844   0.28309   1.11244   2.23583   2.99345   3.06426   3.10957   3.31354
   3.39001   3.52514   3.75019   3.81463   3.91586   4.04238   4.57449   4.76986
   4.81789   5.01500   5.32122   5.50911   5.62507   6.13087   6.26718   6.46591


              NET ATOMIC CHARGES AND DIPOLE CONTRIBUTIONS

  ATOM NO.   TYPE          CHARGE      No. of ELECS.   s-Pop       p-Pop       
    1          C          -0.060055        4.0601     1.17334     2.88671
    2          C          -0.062096        4.0621     1.17752     2.88457
    3          C          -0.049826        4.0498     1.17570     2.87412
    4          C          -0.114409        4.1144     1.19315     2.92125
    5          C          -0.071963        4.0720     1.16983     2.90213
    6          C          -0.085371        4.0854     1.18675     2.89863
    7          C          -0.073059        4.0731     1.17096     2.90210
    8          C          -0.104411        4.1044     1.17959     2.92482
    9          C          -0.102843        4.1028     1.17967     2.92317
   10          C          -0.090668        4.0907     1.17668     2.91398
   11          H           0.116222        0.8838     0.88378
   12          H           0.105752        0.8942     0.89425
   13          H           0.116078        0.8839     0.88392
   14          H           0.101212        0.8988     0.89879
   15          H           0.106486        0.8935     0.89351
   16          H           0.101136        0.8989     0.89886
   17          H           0.083930        0.9161     0.91607
   18          H           0.083885        0.9161     0.91611
 DIPOLE           X         Y         Z       TOTAL
 POINT-CHG.    -0.290    -0.250    -0.098     0.395
 HYBRID        -0.009    -0.042    -0.012     0.044
 SUM           -0.299    -0.291    -0.110     0.431


          ATOMIC ORBITAL ELECTRON POPULATIONS

     Atom    s        px        py        pz   
    1  C   1.17334   0.92921   0.95073   1.00677
    2  C   1.17752   0.94025   0.94563   0.99869
    3  C   1.17570   0.92575   0.94830   1.00007
    4  C   1.19315   0.97600   0.93581   1.00944
    5  C   1.16983   0.92945   0.97663   0.99606
    6  C   1.18675   0.92618   0.97535   0.99710
    7  C   1.17096   0.92684   0.97969   0.99556
    8  C   1.17959   0.96453   0.95907   1.00122
    9  C   1.17967   0.97560   0.94704   1.00053
   10  C   1.17668   0.99422   0.96137   0.95840
   11  H   0.88378
   12  H   0.89425
   13  H   0.88392
   14  H   0.89879
   15  H   0.89351
   16  H   0.89886
   17  H   0.91607
   18  H   0.91611
 *******************************************************************************
 **                                                                           **
 **                              MOPAC v23.1.2                                **
 **                                                                           **
 *******************************************************************************
 **          Digital Object Identifier (DOI): 10.5281/zenodo.6511958          **
 **    Visit the DOI location for information on how to cite this program.    **
 *******************************************************************************

                              PM3 CALCULATION RESULTS

 *******************************************************************************
 *  CALCULATION DONE: (MAX THREADS = 1)              Tue Jun  3 16:31:55 2025  *
 *  PM3        - The PM3 Hamiltonian to be used
 *  OLDGEO     - PREVIOUS GEOMETRY TO BE USED
 *  PRECISE    - TIGHTER CRITERIA TO BE USED
 *  NOSYM      - POINT-GROUP SYMMETRY SET TO C1
 *  THREADS=1  - MULTI-THREADING NOT USED
 *  T=         - A TIME OF 172800.0 SECONDS REQUESTED
 *  DUMP=N     - RESTART FILE WRITTEN EVERY 7200.0 SECONDS REQUESTED
 *  THERMO     - THERMODYNAMIC QUANTITIES TO BE CALCULATED
 *******************************************************************************
oldgeo thermo nosym precise THREADS=1  pm3
 InChI=1S/C10H8/c1-8-6-7-9-4-2-3-5-10(8)9/h2-7H,1H2

   ATOM   CHEMICAL          X               Y               Z
  NUMBER   SYMBOL      (ANGSTROMS)     (ANGSTROMS)     (ANGSTROMS)

     1       C         -0.06123210  *  -0.36574534  *  -0.10527770  *
     2       C          0.12717120  *   0.98821088  *   0.27973019  *
     3       C         -1.50507903  *  -0.57283373  *  -0.31521449  *
     4       C         -2.13551865  *   0.73531156  *  -0.02960725  *
     5       C          1.01407815  *  -1.22404950  *  -0.22154202  *
     6       C         -1.18814569  *   1.63885460  *   0.31487678  *
     7       C          1.39096939  *   1.47859865  *   0.54694709  *
     8       C          2.29113929  *  -0.72107071  *   0.05060944  *
     9       C          2.47555360  *   0.60337696  *   0.42716207  *
    10       C         -2.12438307  *  -1.69192387  *  -0.68329875  *
    11       H         -3.20994274  *   0.89559330  *  -0.10075972  *
    12       H          0.87237359  *  -2.26829988  *  -0.51802684  *
    13       H         -1.33059115  *   2.68445717  *   0.58157651  *
    14       H          3.15748127  *  -1.38519384  *  -0.03544378  *
    15       H          1.53973933  *   2.52111666  *   0.84371667  *
    16       H          3.48598910  *   0.97107930  *   0.63437562  *
    17       H         -3.20114665  *  -1.74564992  *  -0.81265491  *
    18       H         -1.58868730  *  -2.61722869  *  -0.87591399  *



          CARTESIAN COORDINATES 

    NO.       ATOM           X           Y           Z

     1         C         -0.0612     -0.3657     -0.1053
     2         C          0.1272      0.9882      0.2797
     3         C         -1.5051     -0.5728     -0.3152
     4         C         -2.1355      0.7353     -0.0296
     5         C          1.0141     -1.2240     -0.2215
     6         C         -1.1881      1.6389      0.3149
     7         C          1.3910      1.4786      0.5469
     8         C          2.2911     -0.7211      0.0506
     9         C          2.4756      0.6034      0.4272
    10         C         -2.1244     -1.6919     -0.6833
    11         H         -3.2099      0.8956     -0.1008
    12         H          0.8724     -2.2683     -0.5180
    13         H         -1.3306      2.6845      0.5816
    14         H          3.1575     -1.3852     -0.0354
    15         H          1.5397      2.5211      0.8437
    16         H          3.4860      0.9711      0.6344
    17         H         -3.2011     -1.7456     -0.8127
    18         H         -1.5887     -2.6172     -0.8759

  H: (PM3): J. J. P. STEWART, J. COMP. CHEM. 10, 209 (1989).
  C: (PM3): J. J. P. STEWART, J. COMP. CHEM. 10, 209 (1989).

           Empirical Formula: C10 H8  =    18 atoms



      MOLECULAR POINT GROUP   :   C1  


      RHF CALCULATION, NO. OF DOUBLY OCCUPIED LEVELS = 24



          HEAT OF FORMATION =      64.125808 KCALS/MOLE


          CARTESIAN COORDINATE DERIVATIVES

   NUMBER  ATOM         X            Y            Z

     1       C     -0.005001    -0.011002    -0.003457
     2       C      0.014743    -0.008279    -0.009132
     3       C     -0.003276     0.003882    -0.002044
     4       C     -0.006681     0.006147     0.004968
     5       C      0.000247     0.017469     0.003866
     6       C      0.005800     0.003902    -0.000445
     7       C     -0.002799     0.023109     0.002745
     8       C      0.018755    -0.026908    -0.009727
     9       C     -0.020225    -0.009945     0.001739
    10       C      0.002112    -0.007485    -0.000568
    11       H     -0.000568    -0.008175     0.004556
    12       H      0.001176    -0.003186     0.000643
    13       H      0.005343     0.010298     0.000446
    14       H     -0.007196     0.010640     0.008384
    15       H      0.001205    -0.004010    -0.002381
    16       H     -0.003053    -0.000955     0.002415
    17       H     -0.002228     0.002693     0.001718
    18       H      0.001646     0.001803    -0.003725



          GRADIENT NORM =   0.06220

          MOLECULAR WEIGHT =  128.17



          ROTATIONAL CONSTANTS IN CM(-1)

          A =    0.09118150   B =    0.04357335   C =    0.02948379



           PRINCIPAL MOMENTS OF INERTIA IN UNITS OF 10**(-40)*GRAM-CM**2

          A =      307.0003   B =      642.4283   C =      949.4286


          ORIENTATION OF MOLECULE IN FORCE CALCULATION

    NO.       ATOM         X         Y         Z

     1          C      -0.4653    0.0244   -0.0002
     2          C       0.9549    0.0244   -0.0002
     3          C      -0.9111    1.4290   -0.0002
     4          C       0.3298    2.2354    0.0002
     5          C      -1.1724   -1.1616    0.0001
     6          C       1.4103    1.4198    0.0000
     7          C       1.6626   -1.1624   -0.0000
     8          C      -0.4497   -2.3597    0.0004
     9          C       0.9396   -2.3598    0.0003
    10          C      -2.1600    1.8891   -0.0005
    11          H       0.3208    3.3240    0.0005
    12          H      -2.2671   -1.1651    0.0002
    13          H       2.4605    1.7056    0.0001
    14          H      -0.9912   -3.3114    0.0008
    15          H       2.7566   -1.1660   -0.0001
    16          H       1.4803   -3.3120    0.0005
    17          H      -2.3891    2.9505   -0.0005
    18          H      -3.0233    1.2296   -0.0009


    FIRST DERIVATIVES WILL BE USED IN THE CALCULATION OF SECOND DERIVATIVES

          ESTIMATED TIME TO COMPLETE CALCULATION =        1.69 SECONDS

    FOR POINT-GROUP C1   THERE ARE   1 UNIQUE SYMMETRY FUNCTIONS.

 STEP:   1 TIME =     0.02 SECS, INTEGRAL =      0.02 TIME LEFT: 172799.97
 STEP:   2 TIME =     0.02 SECS, INTEGRAL =      0.04 TIME LEFT: 172799.95
 STEP:   3 TIME =     0.02 SECS, INTEGRAL =      0.06 TIME LEFT: 172799.93
 STEP:   4 TIME =     0.02 SECS, INTEGRAL =      0.08 TIME LEFT: 172799.91
 STEP:   5 TIME =     0.02 SECS, INTEGRAL =      0.10 TIME LEFT: 172799.89
 STEP:   6 TIME =     0.02 SECS, INTEGRAL =      0.12 TIME LEFT: 172799.87
 STEP:   7 TIME =     0.02 SECS, INTEGRAL =      0.14 TIME LEFT: 172799.86
 STEP:   8 TIME =     0.02 SECS, INTEGRAL =      0.16 TIME LEFT: 172799.84
 STEP:   9 TIME =     0.02 SECS, INTEGRAL =      0.18 TIME LEFT: 172799.82
 STEP:  10 TIME =     0.02 SECS, INTEGRAL =      0.19 TIME LEFT: 172799.80
 STEP:  11 TIME =     0.02 SECS, INTEGRAL =      0.21 TIME LEFT: 172799.79
 STEP:  12 TIME =     0.02 SECS, INTEGRAL =      0.23 TIME LEFT: 172799.77
 STEP:  13 TIME =     0.02 SECS, INTEGRAL =      0.24 TIME LEFT: 172799.75
 STEP:  14 TIME =     0.02 SECS, INTEGRAL =      0.26 TIME LEFT: 172799.73
 STEP:  15 TIME =     0.02 SECS, INTEGRAL =      0.28 TIME LEFT: 172799.71
 STEP:  16 TIME =     0.02 SECS, INTEGRAL =      0.30 TIME LEFT: 172799.70
 STEP:  17 TIME =     0.02 SECS, INTEGRAL =      0.31 TIME LEFT: 172799.68
 STEP:  18 TIME =     0.02 SECS, INTEGRAL =      0.33 TIME LEFT: 172799.66
 STEP:  19 TIME =     0.02 SECS, INTEGRAL =      0.35 TIME LEFT: 172799.64
 STEP:  20 TIME =     0.02 SECS, INTEGRAL =      0.37 TIME LEFT: 172799.62
 STEP:  21 TIME =     0.02 SECS, INTEGRAL =      0.39 TIME LEFT: 172799.60
 STEP:  22 TIME =     0.02 SECS, INTEGRAL =      0.41 TIME LEFT: 172799.58
 STEP:  23 TIME =     0.02 SECS, INTEGRAL =      0.43 TIME LEFT: 172799.56
 STEP:  24 TIME =     0.02 SECS, INTEGRAL =      0.45 TIME LEFT: 172799.54
 STEP:  25 TIME =     0.02 SECS, INTEGRAL =      0.47 TIME LEFT: 172799.52
 STEP:  26 TIME =     0.02 SECS, INTEGRAL =      0.49 TIME LEFT: 172799.50
 STEP:  27 TIME =     0.02 SECS, INTEGRAL =      0.51 TIME LEFT: 172799.48
 STEP:  28 TIME =     0.02 SECS, INTEGRAL =      0.53 TIME LEFT: 172799.46
 STEP:  29 TIME =     0.02 SECS, INTEGRAL =      0.55 TIME LEFT: 172799.44
 STEP:  30 TIME =     0.02 SECS, INTEGRAL =      0.57 TIME LEFT: 172799.42
 STEP:  31 TIME =     0.02 SECS, INTEGRAL =      0.59 TIME LEFT: 172799.40
 STEP:  32 TIME =     0.02 SECS, INTEGRAL =      0.61 TIME LEFT: 172799.38
 STEP:  33 TIME =     0.02 SECS, INTEGRAL =      0.63 TIME LEFT: 172799.36
 STEP:  34 TIME =     0.02 SECS, INTEGRAL =      0.64 TIME LEFT: 172799.35
 STEP:  35 TIME =     0.02 SECS, INTEGRAL =      0.66 TIME LEFT: 172799.33
 STEP:  36 TIME =     0.02 SECS, INTEGRAL =      0.68 TIME LEFT: 172799.31
 STEP:  37 TIME =     0.02 SECS, INTEGRAL =      0.70 TIME LEFT: 172799.30
 STEP:  38 TIME =     0.02 SECS, INTEGRAL =      0.71 TIME LEFT: 172799.28
 STEP:  39 TIME =     0.02 SECS, INTEGRAL =      0.73 TIME LEFT: 172799.26
 STEP:  40 TIME =     0.02 SECS, INTEGRAL =      0.75 TIME LEFT: 172799.24
 STEP:  41 TIME =     0.02 SECS, INTEGRAL =      0.77 TIME LEFT: 172799.22
 STEP:  42 TIME =     0.02 SECS, INTEGRAL =      0.79 TIME LEFT: 172799.21
 STEP:  43 TIME =     0.02 SECS, INTEGRAL =      0.80 TIME LEFT: 172799.19
 STEP:  44 TIME =     0.02 SECS, INTEGRAL =      0.82 TIME LEFT: 172799.17
 STEP:  45 TIME =     0.02 SECS, INTEGRAL =      0.84 TIME LEFT: 172799.15
 STEP:  46 TIME =     0.02 SECS, INTEGRAL =      0.86 TIME LEFT: 172799.13
 STEP:  47 TIME =     0.02 SECS, INTEGRAL =      0.88 TIME LEFT: 172799.12
 STEP:  48 TIME =     0.02 SECS, INTEGRAL =      0.89 TIME LEFT: 172799.10
 STEP:  49 TIME =     0.02 SECS, INTEGRAL =      0.91 TIME LEFT: 172799.08
 STEP:  50 TIME =     0.02 SECS, INTEGRAL =      0.93 TIME LEFT: 172799.06
 STEP:  51 TIME =     0.02 SECS, INTEGRAL =      0.95 TIME LEFT: 172799.04
 STEP:  52 TIME =     0.02 SECS, INTEGRAL =      0.97 TIME LEFT: 172799.02
 STEP:  53 TIME =     0.02 SECS, INTEGRAL =      0.98 TIME LEFT: 172799.01
 STEP:  54 TIME =     0.02 SECS, INTEGRAL =      1.00 TIME LEFT: 172798.99

(To convert to Hartree/Bohr^2, multiply by (10^(-21) x N x a0^2)/(4.184 x 627.51) =  0.0642)


           FORCE MATRIX IN MILLIDYNES/ANGSTROM


                  C  1       C  2       C  3       C  4       C  5       C  6
 ------------------------------------------------------------------------------
     C    1  18.633385
     C    2   5.783507  18.598752
     C    3   4.815211   1.165637  19.537243
     C    4   1.149274   1.577126   4.687389  18.126290
     C    5   7.320293   2.317097   0.635138   0.039927  17.247286
     C    6   1.206933   5.016229   1.408964   9.626604   0.077517  18.206059
     C    7   2.274332   7.222916   0.083475   0.132786   1.854024   0.759981
     C    8   2.555259   1.853088   0.131429   0.047966   6.610733   0.068850
     C    9   1.812599   2.593612   0.041977   0.075890   2.549057   0.168615
     C   10   0.823215   0.081760  10.573402   0.858609   0.055356   0.113304
     H   11   0.039783   0.107407   0.422965   5.051720   0.009261   0.442093
     H   12   0.451560   0.091229   0.042527   0.003967   4.857797   0.008790
     H   13   0.044777   0.427490   0.113113   0.442863   0.007900   5.060743
     H   14   0.085200   0.008489   0.006762   0.001702   0.435947   0.007357
     H   15   0.090557   0.450713   0.009821   0.005358   0.011126   0.041492
     H   16   0.008783   0.087392   0.008585   0.001850   0.090164   0.007444
     H   17   0.134660   0.017996   0.471264   0.094250   0.008356   0.014204
     H   18   0.096051   0.016061   0.475248   0.132175   0.011611   0.017620


                  C  7       C  8       C  9       C 10       H 11       H 12
 ------------------------------------------------------------------------------
     C    7  17.242004
     C    8   2.562261  16.972838
     C    9   6.627043   6.940600  16.983130
     C   10   0.018690   0.014109   0.007865  17.880124
     H   11   0.007083   0.002057   0.006198   0.015499   5.446306
     H   12   0.010310   0.439050   0.085122   0.011369   0.000587   5.232113
     H   13   0.011117   0.002349   0.002575   0.008983   0.043760   0.001386
     H   14   0.090126   4.855569   0.438675   0.000668   0.000916   0.038547
     H   15   4.882792   0.086021   0.440109   0.001919   0.002180   0.008568
     H   16   0.435888   0.438440   4.854695   0.000808   0.000437   0.006902
     H   17   0.006902   0.006802   0.003490   5.106833   0.009157   0.004483
     H   18   0.005172   0.007200   0.003771   5.085920   0.002869   0.015657


                  H 13       H 14       H 15       H 16       H 17       H 18
 ------------------------------------------------------------------------------
     H   13   5.451949
     H   14   0.000426   5.219903
     H   15   0.005983   0.006910   5.252738
     H   16   0.000556   0.044547   0.038895   5.218438
     H   17   0.005398   0.000962   0.000565   0.000542   5.467420
     H   18   0.008878   0.000641   0.000469   0.000387   0.398766   5.448361


          HEAT OF FORMATION =      64.125808 KCALS/MOLE

          ZERO POINT ENERGY      91.426 KCAL/MOL


           NORMAL COORDINATE ANALYSIS (Total motion = 1 Angstrom)


   Root No.       1         2         3         4         5         6         7         8

                 1 A       2 A       3 A       4 A       5 A       6 A       7 A       8 A   

                 117.8     191.8     270.4     289.2     378.3     476.2     497.3     557.0
  
           1    0.0000   -0.0000   -0.0319   -0.0000    0.0000    0.0458   -0.0001   -0.0048
           2    0.0000   -0.0000   -0.0144   -0.0000   -0.0000   -0.0136    0.0000   -0.0408
           3   -0.0290   -0.0679    0.0000   -0.0356   -0.0514   -0.0000   -0.0148    0.0000
           4    0.0000   -0.0000   -0.0293   -0.0000    0.0000    0.0496   -0.0001    0.0029
           5   -0.0000   -0.0000   -0.0095   -0.0000   -0.0000    0.0112   -0.0000   -0.0034
           6    0.0019   -0.0681   -0.0000    0.0156   -0.0376    0.0001    0.0418    0.0000
           7    0.0000   -0.0000   -0.0188   -0.0000   -0.0000   -0.0112    0.0000    0.0093
           8   -0.0000   -0.0000   -0.0035   -0.0000   -0.0000   -0.0385    0.0000   -0.0631
           9   -0.0104   -0.0025    0.0001   -0.0618   -0.0295    0.0000    0.0077    0.0000
          10    0.0000   -0.0000   -0.0109   -0.0000   -0.0000   -0.0462    0.0001   -0.0052
          11    0.0000   -0.0000   -0.0131   -0.0000   -0.0000    0.0013   -0.0000   -0.0482
          12   -0.0404    0.0697    0.0000   -0.0388    0.0176    0.0000    0.0128   -0.0000
          13    0.0000    0.0000    0.0045    0.0000    0.0000    0.0180   -0.0000   -0.0729
          14   -0.0000   -0.0000   -0.0387   -0.0000    0.0000    0.0068   -0.0000    0.0064
          15   -0.0571   -0.0324   -0.0000    0.0067    0.0609   -0.0000   -0.0327   -0.0000
          16    0.0000   -0.0000   -0.0177   -0.0000   -0.0000   -0.0123    0.0000    0.0105
          17   -0.0000   -0.0000   -0.0170   -0.0000   -0.0000    0.0446   -0.0000   -0.0197
          18   -0.0216    0.0001   -0.0001    0.0777   -0.0090   -0.0000   -0.0278    0.0000
          19    0.0000    0.0000    0.0024    0.0000    0.0000    0.0051   -0.0000    0.0505
          20    0.0000    0.0000    0.0108   -0.0000    0.0000   -0.0227    0.0000    0.0426
          21    0.0494   -0.0322    0.0000   -0.0280    0.0605    0.0000    0.0281    0.0000
          22   -0.0000    0.0000    0.0345    0.0000   -0.0000   -0.0236    0.0000   -0.0157
          23   -0.0000    0.0000   -0.0248   -0.0000    0.0000   -0.0133    0.0000    0.0477
          24   -0.0256    0.0494   -0.0000    0.0406   -0.0174    0.0001    0.0504   -0.0000
          25   -0.0000    0.0000    0.0343    0.0000   -0.0000   -0.0246    0.0000   -0.0112
          26    0.0000    0.0000   -0.0061   -0.0000   -0.0000   -0.0130   -0.0000    0.0844
          27    0.0396    0.0498    0.0000   -0.0265   -0.0307   -0.0001   -0.0486   -0.0000
          28   -0.0000    0.0000    0.0185   -0.0000   -0.0000    0.0104   -0.0000    0.0318
          29   -0.0000    0.0000    0.0986    0.0001    0.0000    0.0200   -0.0000   -0.0171
          30    0.0790    0.0052   -0.0000    0.0278    0.0057    0.0000   -0.0009    0.0000
          31    0.0000   -0.0000   -0.0063   -0.0000   -0.0000   -0.1007    0.0001   -0.0386
          32    0.0000   -0.0001   -0.0128    0.0000   -0.0000    0.0016    0.0000   -0.0492
          33   -0.0652    0.1590    0.0000   -0.0745    0.0677   -0.0000    0.0048   -0.0001
          34   -0.0000    0.0000    0.0048    0.0000    0.0000    0.0179   -0.0000   -0.0723
          35   -0.0000   -0.0000   -0.0710   -0.0001    0.0001    0.0541   -0.0001    0.0191
          36   -0.0977   -0.0396   -0.0000    0.0163    0.1890   -0.0001   -0.0978   -0.0000
          37    0.0000   -0.0000   -0.0150   -0.0000   -0.0000   -0.0305    0.0000    0.0096
          38    0.0000   -0.0000   -0.0273   -0.0000    0.0000    0.1101   -0.0001   -0.0179
          39   -0.0267    0.0127   -0.0002    0.1912    0.0064   -0.0002   -0.1232    0.0000
          40   -0.0000    0.0000    0.0529    0.0001   -0.0000   -0.0431    0.0001    0.0368
          41   -0.0000    0.0000   -0.0355    0.0000   -0.0000   -0.0019    0.0001    0.0183
          42   -0.0475    0.1182   -0.0001    0.1036   -0.0469    0.0002    0.1562    0.0000
          43    0.0000    0.0000    0.0026    0.0000    0.0000    0.0052   -0.0000    0.0497
          44    0.0000    0.0000    0.0453    0.0000    0.0000   -0.0756    0.0001    0.0419
          45    0.0914   -0.0395    0.0001   -0.0511    0.1882    0.0000    0.0459    0.0000
          46   -0.0000    0.0000    0.0543    0.0000   -0.0000   -0.0364    0.0000   -0.0300
          47    0.0000    0.0000    0.0053   -0.0000   -0.0000   -0.0202   -0.0000    0.0741
          48    0.0790    0.1195    0.0001   -0.0614   -0.0837   -0.0002   -0.1670   -0.0000
          49   -0.0000    0.0000    0.1252    0.0001   -0.0000    0.1031   -0.0001    0.1173
          50   -0.0000    0.0000    0.1229    0.0001    0.0000    0.0416   -0.0001    0.0017
          51    0.1165    0.0752   -0.0000    0.0571    0.0728    0.0001    0.0639   -0.0000
          52   -0.0000    0.0000   -0.0455   -0.0001   -0.0000   -0.0451    0.0001   -0.0144
          53   -0.0000    0.0001    0.1847    0.0002    0.0000    0.0952   -0.0001    0.0458
          54    0.1220   -0.0590   -0.0001    0.0857   -0.0250   -0.0001   -0.0757    0.0000


   Root No.       9        10        11        12        13        14        15        16

                 9 A      10 A      11 A      12 A      13 A      14 A      15 A      16 A   

                 567.6     610.0     624.4     735.7     738.7     782.1     829.3     829.8
  
           1    0.0140   -0.0000    0.0000    0.0085   -0.0000   -0.0000    0.0111    0.0001
           2    0.0309   -0.0000    0.0000    0.0112   -0.0000   -0.0000   -0.0159   -0.0002
           3    0.0000   -0.0004   -0.0272    0.0004    0.0573    0.0344    0.0004   -0.0204
           4    0.0222   -0.0000    0.0000    0.0169   -0.0000    0.0000    0.0256    0.0003
           5   -0.0460    0.0000   -0.0000    0.0385   -0.0001   -0.0000   -0.0194   -0.0002
           6    0.0000    0.0374   -0.0330   -0.0003   -0.0493    0.0095   -0.0005    0.0275
           7   -0.0484    0.0000   -0.0000   -0.0495    0.0002    0.0000   -0.0059   -0.0001
           8    0.0132   -0.0000   -0.0000   -0.0077    0.0000    0.0000    0.0390    0.0005
           9    0.0000   -0.0282    0.0877   -0.0000   -0.0070   -0.0187   -0.0006    0.0303
          10   -0.0178    0.0000   -0.0000    0.0284   -0.0001    0.0000    0.0043    0.0001
          11   -0.0416    0.0000    0.0000   -0.0742    0.0002    0.0000    0.0244    0.0003
          12    0.0000    0.0017   -0.0315   -0.0001   -0.0206   -0.0033    0.0007   -0.0339
          13    0.0082   -0.0000    0.0000    0.0393   -0.0001   -0.0000   -0.0049   -0.0001
          14    0.0558   -0.0000    0.0000   -0.0046    0.0000   -0.0000   -0.0331   -0.0004
          15   -0.0000    0.0190   -0.0074   -0.0000    0.0006   -0.0118    0.0003   -0.0146
          16   -0.0151    0.0000   -0.0000    0.0842   -0.0003    0.0000   -0.0206   -0.0002
          17   -0.0471   -0.0000   -0.0000   -0.0048    0.0000    0.0000   -0.0093   -0.0001
          18   -0.0000   -0.0035    0.0323   -0.0000   -0.0091   -0.0041    0.0006   -0.0309
          19    0.0537   -0.0000    0.0000   -0.0294    0.0001    0.0000    0.0705    0.0009
          20   -0.0376    0.0000   -0.0000    0.0345   -0.0001   -0.0000   -0.0054   -0.0001
          21   -0.0000   -0.0164   -0.0005    0.0001    0.0094   -0.0157   -0.0003    0.0150
          22    0.0232   -0.0000    0.0000   -0.0155    0.0000   -0.0000   -0.0335   -0.0004
          23    0.0662   -0.0000    0.0000   -0.0391    0.0001   -0.0000   -0.0500   -0.0006
          24   -0.0000   -0.0150    0.0009    0.0001    0.0165   -0.0266    0.0002   -0.0112
          25    0.0236    0.0000    0.0000   -0.0245    0.0001   -0.0000   -0.0268   -0.0003
          26   -0.0187    0.0000   -0.0000    0.0291   -0.0001   -0.0000    0.0493    0.0006
          27    0.0000    0.0188   -0.0065   -0.0000   -0.0051   -0.0309   -0.0001    0.0062
          28   -0.0556    0.0000    0.0000   -0.0597    0.0002   -0.0000   -0.0193   -0.0002
          29    0.0213   -0.0000   -0.0000    0.0123   -0.0000    0.0000    0.0345    0.0004
          30   -0.0000    0.0017   -0.0057   -0.0000    0.0002   -0.0007   -0.0001    0.0032
          31    0.0247    0.0000    0.0000    0.0388   -0.0001   -0.0000    0.0735    0.0009
          32   -0.0416    0.0000    0.0001   -0.0751    0.0002   -0.0000    0.0257    0.0003
          33    0.0000   -0.0329   -0.2497    0.0005    0.0871    0.0561   -0.0037    0.1868
          34    0.0086   -0.0000    0.0000    0.0395   -0.0001   -0.0000   -0.0054   -0.0001
          35    0.0586   -0.0000    0.0000    0.0241   -0.0001    0.0000   -0.0155   -0.0002
          36   -0.0000    0.0219    0.0586   -0.0011   -0.1677    0.0824   -0.0026    0.1329
          37   -0.0207    0.0000   -0.0000    0.0832   -0.0003    0.0000   -0.0218   -0.0003
          38   -0.0260   -0.0000   -0.0000    0.0042   -0.0000    0.0000   -0.0032   -0.0001
          39   -0.0001   -0.0601    0.0469    0.0012    0.1804   -0.0016   -0.0039    0.1949
          40   -0.0100    0.0000   -0.0000   -0.0157    0.0000    0.0000    0.0240    0.0003
          41    0.0852   -0.0000    0.0000   -0.0386    0.0001    0.0001   -0.0844   -0.0010
          42   -0.0001   -0.0863    0.0584   -0.0002   -0.0336    0.2350   -0.0012    0.0602
          43    0.0537   -0.0000    0.0000   -0.0296    0.0001    0.0000    0.0716    0.0009
          44   -0.0399    0.0000    0.0000    0.0174   -0.0001    0.0000   -0.0803   -0.0010
          45   -0.0001   -0.1103    0.0868    0.0005    0.0778    0.1561    0.0026   -0.1291
          46   -0.0351    0.0000   -0.0000    0.0285   -0.0001    0.0000   -0.0379   -0.0005
          47   -0.0519    0.0000   -0.0000    0.0600   -0.0002    0.0001    0.0426    0.0005
          48    0.0000    0.0388    0.0329   -0.0005   -0.0758    0.2405    0.0005   -0.0252
          49   -0.0503   -0.0001   -0.0000   -0.0426    0.0001   -0.0000   -0.1576   -0.0019
          50    0.0236   -0.0000   -0.0000    0.0178   -0.0001   -0.0000    0.0043    0.0001
          51    0.0000    0.2776    0.0456    0.0007    0.1090    0.0565    0.0004   -0.0215
          52   -0.0677    0.0001    0.0001   -0.0891    0.0003    0.0000    0.0475    0.0006
          53    0.0359    0.0000    0.0000    0.0482   -0.0001    0.0000   -0.0577   -0.0007
          54   -0.0001   -0.2299   -0.1885   -0.0007   -0.0934   -0.0161    0.0011   -0.0560


   Root No.      17        18        19        20        21        22        23        24

                17 A      18 A      19 A      20 A      21 A      22 A      23 A      24 A   

                 905.5     912.4     945.7     954.0     977.9    1007.2    1024.4    1077.6
  
           1    0.0000    0.0167    0.0056    0.0000   -0.0000    0.0000   -0.0000   -0.0097
           2    0.0000    0.0171    0.0072    0.0000   -0.0000    0.0000   -0.0000    0.0076
           3    0.0363    0.0000    0.0000    0.0174    0.0036    0.0176   -0.0152    0.0000
           4    0.0000   -0.0167   -0.0066   -0.0000    0.0000    0.0000    0.0000    0.0062
           5    0.0000   -0.0099   -0.0008   -0.0000    0.0000    0.0000    0.0000   -0.0019
           6   -0.0351    0.0000    0.0000    0.0044    0.0219   -0.0218    0.0026    0.0000
           7    0.0000    0.0060    0.0116    0.0000    0.0000   -0.0000   -0.0000    0.0074
           8    0.0000   -0.0040   -0.0090   -0.0000    0.0000   -0.0000   -0.0000    0.0104
           9   -0.0191   -0.0000   -0.0000   -0.0011   -0.0071    0.0006    0.0431   -0.0000
          10    0.0000   -0.0027   -0.0335   -0.0000   -0.0000   -0.0000    0.0000   -0.0076
          11   -0.0000    0.0160   -0.0465   -0.0000   -0.0000    0.0000    0.0000   -0.0241
          12    0.0193    0.0000    0.0000   -0.0214    0.0466   -0.0092   -0.0206   -0.0000
          13   -0.0000    0.0567    0.0336    0.0000   -0.0000   -0.0000    0.0000    0.0025
          14   -0.0000    0.0144    0.0168   -0.0000   -0.0000   -0.0000    0.0000    0.0055
          15   -0.0283   -0.0000    0.0000   -0.0416   -0.0214   -0.0357    0.0123   -0.0000
          16    0.0000   -0.0448   -0.0194   -0.0000    0.0000   -0.0000    0.0000   -0.0183
          17   -0.0000   -0.0404   -0.0215   -0.0000    0.0000   -0.0000   -0.0000   -0.0145
          18    0.0079   -0.0000   -0.0000    0.0196   -0.0524    0.0152    0.0099    0.0000
          19   -0.0000   -0.0013   -0.0176   -0.0000   -0.0000    0.0000    0.0000   -0.0135
          20    0.0000    0.0165    0.0155    0.0000   -0.0000    0.0000   -0.0000    0.0051
          21    0.0321    0.0000    0.0000   -0.0381   -0.0175    0.0395   -0.0023    0.0000
          22   -0.0000   -0.0153   -0.0011   -0.0000    0.0000    0.0000   -0.0000    0.0069
          23   -0.0000   -0.0208   -0.0023    0.0000    0.0000    0.0000   -0.0000    0.0008
          24   -0.0241    0.0000   -0.0000    0.0196    0.0206    0.0512   -0.0083   -0.0000
          25    0.0000   -0.0154   -0.0070   -0.0000   -0.0000   -0.0000   -0.0000   -0.0079
          26    0.0000    0.0291    0.0091    0.0000   -0.0000   -0.0000    0.0000    0.0058
          27    0.0205   -0.0000   -0.0000    0.0291   -0.0020   -0.0528    0.0053    0.0000
          28   -0.0000    0.0045    0.0426    0.0000    0.0000    0.0000    0.0000    0.0100
          29   -0.0000   -0.0303    0.0354    0.0000   -0.0000    0.0000    0.0000   -0.0121
          30   -0.0057   -0.0000    0.0000   -0.0000   -0.0134   -0.0067   -0.0790    0.0000
          31    0.0000    0.0630   -0.0975   -0.0001    0.0000   -0.0000    0.0000    0.2770
          32    0.0000    0.0156   -0.0488   -0.0001    0.0001   -0.0000   -0.0000   -0.0237
          33   -0.1040    0.0000   -0.0001    0.0987   -0.1841    0.0295    0.0696    0.0000
          34    0.0000    0.0583    0.0345    0.0000    0.0000    0.0000   -0.0000    0.0030
          35    0.0000    0.0952    0.0549    0.0001    0.0000    0.0000   -0.0000   -0.0626
          36    0.1318   -0.0000   -0.0001    0.1888    0.0939    0.1172   -0.0463    0.0000
          37    0.0000   -0.0206   -0.0321   -0.0000   -0.0000    0.0000   -0.0000   -0.1116
          38   -0.0000   -0.1347    0.0167    0.0000   -0.0000    0.0000    0.0000    0.3204
          39   -0.0224   -0.0000    0.0001   -0.0929    0.2137   -0.0535   -0.0281    0.0000
          40    0.0000   -0.0475   -0.0401   -0.0000   -0.0000   -0.0000    0.0000    0.0286
          41    0.0001   -0.0018    0.0209   -0.0000   -0.0000   -0.0001    0.0000   -0.0111
          42    0.1524    0.0000    0.0001   -0.0880   -0.0862   -0.1770    0.0260    0.0000
          43   -0.0000   -0.0017   -0.0184    0.0000    0.0000   -0.0000    0.0000   -0.0146
          44   -0.0000    0.0500    0.0529    0.0001    0.0000   -0.0000   -0.0000   -0.0397
          45   -0.1482   -0.0000   -0.0001    0.1724    0.0801   -0.1331    0.0012    0.0000
          46   -0.0000    0.0186    0.0262    0.0000    0.0000    0.0000   -0.0000    0.0328
          47   -0.0000    0.0502    0.0292   -0.0000    0.0000    0.0001   -0.0000    0.0294
          48   -0.1341    0.0000    0.0001   -0.1350    0.0093    0.1834   -0.0151   -0.0000
          49    0.0000    0.1448   -0.1570   -0.0001   -0.0000   -0.0000   -0.0001    0.0649
          50   -0.0000    0.0012   -0.0123   -0.0000   -0.0000   -0.0000   -0.0000   -0.0015
          51    0.0506    0.0001   -0.0000    0.0167    0.0500    0.0370    0.3071    0.0000
          52   -0.0000   -0.0696    0.1876    0.0001   -0.0000   -0.0000   -0.0001    0.0045
          53    0.0000    0.0715   -0.1573   -0.0001   -0.0000   -0.0000   -0.0000   -0.0018
          54    0.0282   -0.0000    0.0001   -0.0152    0.0763    0.0192    0.3080   -0.0000


   Root No.      25        26        27        28        29        30        31        32

                25 A      26 A      27 A      28 A      29 A      30 A      31 A      32 A   

                1080.5    1105.2    1136.4    1151.4    1191.5    1260.1    1309.6    1333.5
  
           1    0.0184   -0.0194    0.0261    0.0076   -0.0309   -0.0306   -0.0205    0.0423
           2   -0.0215    0.0105   -0.0271    0.0069   -0.0078    0.0250   -0.0125   -0.0211
           3    0.0000   -0.0000    0.0000    0.0000    0.0000   -0.0000   -0.0000   -0.0000
           4    0.0035   -0.0114    0.0111   -0.0102   -0.0269    0.0201    0.0539    0.0304
           5   -0.0020   -0.0091    0.0217   -0.0008    0.0103    0.0126    0.0121    0.0279
           6   -0.0000   -0.0000    0.0000   -0.0000   -0.0000   -0.0000    0.0000    0.0000
           7   -0.0039    0.0036   -0.0127    0.0018   -0.0018   -0.0080    0.0271    0.0070
           8   -0.0026    0.0073   -0.0286    0.0041   -0.0072    0.0099    0.0109    0.0660
           9    0.0000    0.0000   -0.0000    0.0000   -0.0000   -0.0000    0.0000    0.0000
          10    0.0045    0.0045   -0.0058   -0.0012    0.0047   -0.0332    0.0021   -0.0042
          11    0.0068   -0.0052    0.0094   -0.0052   -0.0024   -0.0219   -0.0029   -0.0158
          12    0.0000   -0.0000    0.0000   -0.0000   -0.0000   -0.0000   -0.0000   -0.0000
          13   -0.0315    0.0169    0.0053    0.0099    0.0081   -0.0171   -0.0227   -0.0288
          14    0.0007   -0.0064   -0.0120   -0.0018   -0.0161    0.0285    0.0414   -0.0291
          15    0.0000    0.0000    0.0000   -0.0000    0.0000   -0.0000   -0.0000    0.0000
          16   -0.0006    0.0120   -0.0134    0.0012    0.0062    0.0031   -0.0235   -0.0151
          17    0.0047    0.0070    0.0051   -0.0019    0.0091    0.0266   -0.0307   -0.0405
          18    0.0000    0.0000    0.0000   -0.0000    0.0000    0.0000   -0.0000   -0.0000
          19    0.0051    0.0349   -0.0178   -0.0098    0.0127    0.0283   -0.0032   -0.0282
          20    0.0020    0.0059    0.0090   -0.0063    0.0184    0.0163    0.0619    0.0143
          21   -0.0000   -0.0000   -0.0000    0.0000   -0.0000   -0.0000   -0.0000   -0.0000
          22   -0.0164   -0.0129    0.0086    0.0048    0.0178   -0.0032    0.0353    0.0078
          23   -0.0157   -0.0120    0.0223    0.0034   -0.0091   -0.0314   -0.0358   -0.0012
          24    0.0000    0.0000   -0.0000   -0.0000    0.0000    0.0000    0.0000   -0.0000
          25    0.0233   -0.0042   -0.0006   -0.0076    0.0192   -0.0044   -0.0218    0.0229
          26   -0.0271   -0.0052    0.0002    0.0057    0.0032   -0.0313   -0.0337    0.0071
          27    0.0000   -0.0000   -0.0000   -0.0000   -0.0000    0.0000    0.0000   -0.0000
          28   -0.0075    0.0011   -0.0005    0.0016    0.0049    0.0053    0.0143   -0.0258
          29    0.0079   -0.0073    0.0163   -0.0018   -0.0012   -0.0048   -0.0104   -0.0021
          30   -0.0000    0.0000    0.0000    0.0000    0.0000    0.0000    0.0000   -0.0000
          31    0.0976   -0.0547    0.2138   -0.0141    0.0403    0.1124   -0.0565   -0.1048
          32    0.0076   -0.0052    0.0100   -0.0055   -0.0024   -0.0221   -0.0039   -0.0169
          33    0.0000   -0.0000    0.0000   -0.0000    0.0000    0.0000   -0.0000   -0.0000
          34   -0.0345    0.0171    0.0065    0.0116    0.0069   -0.0194   -0.0245   -0.0318
          35    0.2449   -0.1047   -0.0934    0.1184    0.2453   -0.0102   -0.0218    0.0108
          36   -0.0001    0.0000    0.0000   -0.0000   -0.0001    0.0000    0.0000   -0.0000
          37   -0.0108   -0.0113    0.0220   -0.0097   -0.0001    0.0510   -0.0289   -0.0293
          38    0.0437    0.0941   -0.1238    0.0365    0.0324   -0.1451   -0.0169    0.0042
          39    0.0000    0.0000   -0.0000    0.0000    0.0000   -0.0000   -0.0000   -0.0000
          40   -0.0488   -0.1693   -0.0585    0.2952   -0.1118    0.0339   -0.0107   -0.0692
          41    0.0019    0.0744    0.0613   -0.1618    0.0651   -0.0565   -0.0125    0.0421
          42    0.0000   -0.0000   -0.0000    0.0000   -0.0000    0.0000    0.0000   -0.0000
          43    0.0069    0.0369   -0.0193   -0.0115    0.0124    0.0316   -0.0036   -0.0308
          44    0.2336    0.1921    0.0405    0.1206   -0.2158   -0.0014   -0.0175   -0.0101
          45   -0.0000   -0.0000   -0.0000   -0.0000    0.0000   -0.0000   -0.0000    0.0000
          46    0.1077   -0.1461   -0.1261   -0.2567   -0.1251    0.0114   -0.0561   -0.0659
          47    0.0191   -0.0847   -0.0697   -0.1358   -0.0799   -0.0264   -0.0557   -0.0432
          48   -0.0000    0.0000    0.0000    0.0001    0.0000    0.0000    0.0000    0.0000
          49   -0.0490    0.0351   -0.0681    0.0075   -0.0012    0.1572   -0.1753    0.1823
          50   -0.0003   -0.0001    0.0014   -0.0006   -0.0034    0.0225   -0.0452    0.0408
          51   -0.0000    0.0000   -0.0000    0.0000    0.0000    0.0001   -0.0001    0.0001
          52   -0.0096   -0.0073    0.0253    0.0005    0.0115    0.0937   -0.1304    0.0507
          53    0.0081    0.0052   -0.0200   -0.0001   -0.0100   -0.1119    0.1705   -0.0942
          54    0.0000   -0.0000    0.0000    0.0000    0.0000    0.0000   -0.0000    0.0000


   Root No.      33        34        35        36        37        38        39        40

                33 A      34 A      35 A      36 A      37 A      38 A      39 A      40 A   

                1358.2    1452.0    1572.7    1591.1    1753.3    1800.4    1829.1    1914.5
  
           1   -0.0196   -0.0362   -0.0857   -0.0290    0.0079   -0.1002   -0.0387   -0.0014
           2   -0.0215   -0.0450    0.0873   -0.0530    0.0188   -0.0735   -0.1287    0.0572
           3    0.0000    0.0000   -0.0000    0.0000   -0.0000    0.0000    0.0000   -0.0000
           4    0.0231    0.0292    0.1008   -0.0073    0.0055    0.0888   -0.0575   -0.0184
           5   -0.0185   -0.0507    0.0800    0.0718    0.0140   -0.0613    0.1440    0.0183
           6    0.0000   -0.0000    0.0000    0.0000   -0.0000    0.0000   -0.0000   -0.0000
           7   -0.0412    0.0171   -0.0180    0.0090   -0.0103    0.0342    0.0179    0.2310
           8   -0.0543    0.0445   -0.0391    0.0248    0.0016    0.0068    0.0191   -0.0942
           9   -0.0000    0.0000   -0.0000    0.0000   -0.0000    0.0000    0.0000    0.0001
          10    0.0594   -0.0268    0.0042    0.0152    0.1877    0.0043   -0.0044   -0.0233
          11    0.0541   -0.0098    0.0190   -0.0135   -0.1204   -0.0001    0.0002   -0.0138
          12    0.0000   -0.0000    0.0000   -0.0000   -0.0000   -0.0000   -0.0000   -0.0000
          13    0.0065    0.0185   -0.0096    0.0552   -0.0117    0.0556    0.0172   -0.0100
          14    0.0316   -0.0232   -0.0717   -0.0506    0.0028    0.0354    0.1370   -0.0163
          15   -0.0000    0.0000    0.0000    0.0000   -0.0000   -0.0000   -0.0000    0.0000
          16   -0.0043    0.0139   -0.0152   -0.0173   -0.1681   -0.0080    0.0040   -0.0143
          17   -0.0282    0.0411   -0.0530   -0.0172    0.1383    0.0255   -0.0306    0.0000
          18   -0.0000    0.0000   -0.0000   -0.0000    0.0000    0.0000   -0.0000   -0.0000
          19   -0.0033   -0.0174   -0.0074    0.0549   -0.0011   -0.0525    0.0277    0.0106
          20    0.0284   -0.0239   -0.0801    0.0346   -0.0340    0.0138   -0.1392   -0.0035
          21   -0.0000    0.0000    0.0000   -0.0000    0.0000    0.0000    0.0000   -0.0000
          22    0.0311    0.0755    0.0078   -0.0514    0.0176   -0.1047    0.0343    0.0163
          23   -0.0068    0.0208    0.0113    0.0846   -0.0130    0.0252   -0.0519   -0.0050
          24    0.0000   -0.0000   -0.0000   -0.0000    0.0000   -0.0000    0.0000    0.0000
          25   -0.0352   -0.0746    0.0060   -0.0517   -0.0015    0.1090    0.0118   -0.0182
          26   -0.0129    0.0237    0.0313   -0.0806    0.0135    0.0343    0.0447   -0.0067
          27    0.0000    0.0000   -0.0000    0.0000   -0.0000   -0.0000   -0.0000    0.0000
          28   -0.0301   -0.0071    0.0268   -0.0046   -0.0048   -0.0275   -0.0131   -0.1681
          29    0.0228   -0.0049   -0.0074   -0.0024   -0.0028    0.0071    0.0024    0.0625
          30   -0.0000   -0.0000    0.0000   -0.0000   -0.0000   -0.0000   -0.0000   -0.0000
          31   -0.0717    0.0296   -0.0123   -0.0257   -0.0629    0.0032   -0.0063    0.0301
          32    0.0572   -0.0072    0.0190   -0.0167   -0.1599    0.0019    0.0002   -0.0215
          33    0.0000   -0.0000    0.0000   -0.0000   -0.0001    0.0000   -0.0000    0.0000
          34    0.0077    0.0221   -0.0157    0.0651   -0.0148    0.0678    0.0250   -0.0133
          35    0.0119    0.1072    0.1017    0.0323    0.0006   -0.0178   -0.0518    0.0125
          36    0.0000   -0.0000   -0.0000   -0.0000    0.0000   -0.0000    0.0000   -0.0000
          37   -0.0357    0.0438   -0.0238   -0.0261   -0.1425    0.0085   -0.0099   -0.0215
          38    0.0918   -0.0559   -0.0225    0.0025   -0.0991   -0.0275    0.0196   -0.0077
          39    0.0000   -0.0000   -0.0000   -0.0000   -0.0000   -0.0000    0.0000    0.0000
          40    0.0181   -0.0196   -0.0305    0.1167   -0.0168    0.0243   -0.0220   -0.0039
          41    0.0022    0.0857    0.0357   -0.0017    0.0058   -0.0547   -0.0239    0.0069
          42   -0.0000   -0.0000   -0.0000   -0.0000    0.0000    0.0000    0.0000   -0.0000
          43   -0.0044   -0.0211   -0.0043    0.0658   -0.0011   -0.0637    0.0378    0.0138
          44    0.0158    0.1012    0.1077   -0.0108    0.0210   -0.0102    0.0526    0.0004
          45   -0.0000   -0.0000   -0.0000    0.0000   -0.0000    0.0000   -0.0000    0.0000
          46    0.0016    0.0162   -0.0018    0.1194   -0.0084   -0.0290   -0.0175    0.0048
          47    0.0091    0.0863    0.0314    0.0078    0.0124   -0.0494    0.0335    0.0071
          48   -0.0000   -0.0000   -0.0000   -0.0000   -0.0000    0.0000   -0.0000   -0.0000
          49    0.1225    0.0371   -0.0344    0.0152    0.0035    0.0145    0.0116    0.0146
          50    0.0505    0.0051   -0.0233    0.0025   -0.0022    0.0199    0.0103    0.1345
          51    0.0001    0.0000   -0.0000    0.0000    0.0000    0.0000    0.0000    0.0000
          52    0.1246   -0.0119    0.0080   -0.0082   -0.0078   -0.0134   -0.0092   -0.0725
          53   -0.1760    0.0032    0.0174    0.0022   -0.0019   -0.0181   -0.0058   -0.1153
          54    0.0000   -0.0000    0.0000   -0.0000   -0.0000   -0.0000   -0.0000   -0.0000


   Root No.      41        42        43        44        45        46        47        48

                41 A      42 A      43 A      44 A      45 A      46 A      47 A      48 A   

                3054.0    3062.6    3072.3    3079.9    3127.8    3130.7    3141.1    3144.8
  
           1   -0.0003    0.0005    0.0008    0.0000   -0.0001   -0.0001   -0.0004    0.0009
           2   -0.0002    0.0011    0.0016   -0.0010    0.0002   -0.0000    0.0002    0.0012
           3    0.0000   -0.0000   -0.0000    0.0000    0.0000    0.0000   -0.0000    0.0000
           4   -0.0003   -0.0002    0.0008    0.0005   -0.0001   -0.0001    0.0000   -0.0004
           5   -0.0001    0.0005   -0.0010   -0.0019    0.0002    0.0002    0.0001    0.0017
           6    0.0000   -0.0000    0.0000    0.0000    0.0000   -0.0000    0.0000    0.0000
           7    0.0001   -0.0000   -0.0001    0.0000   -0.0006    0.0056   -0.0021    0.0019
           8    0.0000   -0.0001   -0.0002    0.0001    0.0003   -0.0022    0.0003   -0.0003
           9   -0.0000    0.0000    0.0000   -0.0000   -0.0000    0.0000   -0.0000    0.0000
          10   -0.0000    0.0000    0.0000   -0.0000    0.0003    0.0002    0.0007    0.0045
          11   -0.0000    0.0000   -0.0000    0.0000   -0.0384   -0.0026   -0.0015   -0.0386
          12    0.0000    0.0000    0.0000   -0.0000   -0.0000   -0.0000   -0.0000   -0.0000
          13    0.0125   -0.0251   -0.0307    0.0127   -0.0002    0.0014    0.0007   -0.0002
          14    0.0010   -0.0010    0.0003   -0.0004   -0.0000    0.0000    0.0000   -0.0001
          15   -0.0000    0.0000    0.0000   -0.0000   -0.0000   -0.0000   -0.0000    0.0000
          16    0.0000    0.0001   -0.0001   -0.0001    0.0318    0.0045   -0.0024   -0.0431
          17    0.0000   -0.0000    0.0001    0.0001    0.0093    0.0012   -0.0004   -0.0077
          18    0.0000   -0.0000    0.0000   -0.0000    0.0000    0.0000   -0.0000   -0.0000
          19    0.0078    0.0137   -0.0246   -0.0321   -0.0000    0.0001   -0.0000    0.0002
          20   -0.0008   -0.0011    0.0005   -0.0003   -0.0000   -0.0001   -0.0000   -0.0003
          21   -0.0000   -0.0000    0.0000    0.0000    0.0000    0.0000   -0.0000    0.0000
          22   -0.0143    0.0094   -0.0102    0.0089   -0.0000   -0.0001    0.0000    0.0001
          23   -0.0262    0.0130   -0.0199    0.0147    0.0000    0.0001    0.0001    0.0000
          24    0.0000   -0.0000    0.0000   -0.0000   -0.0000   -0.0000   -0.0000   -0.0000
          25   -0.0134   -0.0128    0.0030   -0.0103    0.0000    0.0001   -0.0000   -0.0000
          26    0.0251    0.0205   -0.0018    0.0189    0.0000   -0.0000    0.0000   -0.0000
          27   -0.0000   -0.0000    0.0000   -0.0000   -0.0000    0.0000   -0.0000    0.0000
          28    0.0002   -0.0005   -0.0007    0.0002    0.0042   -0.0458   -0.0077   -0.0016
          29    0.0002   -0.0003   -0.0005    0.0002   -0.0004   -0.0027   -0.0628    0.0026
          30    0.0000   -0.0000   -0.0000    0.0000    0.0000   -0.0000   -0.0000   -0.0000
          31    0.0000   -0.0000   -0.0000   -0.0000   -0.0011   -0.0002    0.0006   -0.0032
          32    0.0003   -0.0007    0.0000    0.0001    0.4480    0.0304    0.0150    0.4047
          33    0.0000   -0.0000   -0.0000    0.0000    0.0001    0.0000    0.0000    0.0001
          34   -0.1460    0.2895    0.3421   -0.1373    0.0015   -0.0156   -0.0076    0.0004
          35   -0.0026    0.0022    0.0001    0.0004   -0.0000    0.0003    0.0004   -0.0000
          36    0.0000   -0.0000   -0.0000    0.0000    0.0000    0.0000    0.0000   -0.0000
          37    0.0000   -0.0007    0.0005    0.0011   -0.3773   -0.0528    0.0255    0.4443
          38   -0.0001   -0.0003    0.0003    0.0006   -0.1048   -0.0146    0.0070    0.1209
          39    0.0000   -0.0000   -0.0000    0.0000   -0.0000   -0.0000    0.0000    0.0000
          40    0.1710   -0.0930    0.1209   -0.0910   -0.0001   -0.0002   -0.0003   -0.0003
          41    0.3030   -0.1568    0.2161   -0.1590   -0.0002   -0.0005   -0.0007   -0.0005
          42   -0.0001    0.0001   -0.0001    0.0001    0.0000    0.0000    0.0000   -0.0000
          43   -0.0916   -0.1613    0.2813    0.3562    0.0012   -0.0008    0.0003   -0.0015
          44    0.0022    0.0020   -0.0010    0.0001    0.0002    0.0000   -0.0000   -0.0003
          45    0.0000    0.0000   -0.0000   -0.0000    0.0000    0.0000   -0.0000   -0.0000
          46    0.1618    0.1376   -0.0182    0.1130    0.0002   -0.0003    0.0002    0.0001
          47   -0.2882   -0.2382    0.0260   -0.2010   -0.0002    0.0005   -0.0004   -0.0001
          48    0.0001    0.0001   -0.0000    0.0000    0.0000   -0.0000    0.0000   -0.0000
          49    0.0000   -0.0001   -0.0001    0.0002   -0.0060    0.0483   -0.1257    0.0065
          50    0.0003   -0.0008   -0.0008   -0.0005    0.0309   -0.2826    0.5699   -0.0339
          51   -0.0000   -0.0000   -0.0000   -0.0000    0.0000   -0.0000    0.0000   -0.0000
          52   -0.0029    0.0064    0.0083   -0.0029   -0.0382    0.4317    0.2404    0.0043
          53   -0.0021    0.0046    0.0060   -0.0021   -0.0301    0.3401    0.1711    0.0043
          54   -0.0000    0.0000    0.0000   -0.0000   -0.0000    0.0002    0.0001    0.0000


           MASS-WEIGHTED COORDINATE ANALYSIS (NORMAL COORDINATES)


   Root No.       1         2         3         4         5         6         7         8

                 1 A       2 A       3 A       4 A       5 A       6 A       7 A       8 A   

                 117.8     191.8     270.4     289.2     378.3     476.2     497.3     557.0
  
           1    0.0000   -0.0000   -0.2015   -0.0002    0.0000    0.3351   -0.0004   -0.0267
           2    0.0000   -0.0000   -0.0907   -0.0001   -0.0000   -0.0994    0.0001   -0.2261
           3   -0.1947   -0.4158    0.0003   -0.2365   -0.3499   -0.0001   -0.1127    0.0001
           4    0.0000   -0.0000   -0.1853   -0.0001    0.0001    0.3631   -0.0005    0.0161
           5   -0.0000   -0.0000   -0.0601   -0.0001   -0.0000    0.0818   -0.0001   -0.0189
           6    0.0126   -0.4172   -0.0000    0.1038   -0.2556    0.0005    0.3191    0.0000
           7    0.0000   -0.0000   -0.1188   -0.0001   -0.0000   -0.0819    0.0001    0.0515
           8   -0.0000   -0.0000   -0.0223   -0.0000   -0.0000   -0.2820    0.0003   -0.3491
           9   -0.0698   -0.0153    0.0003   -0.4101   -0.2010    0.0000    0.0587    0.0001
          10    0.0001   -0.0001   -0.0691   -0.0001   -0.0001   -0.3383    0.0004   -0.0286
          11    0.0000   -0.0002   -0.0828   -0.0001   -0.0001    0.0094   -0.0000   -0.2671
          12   -0.2711    0.4264    0.0001   -0.2575    0.1196    0.0001    0.0979   -0.0001
          13    0.0000    0.0000    0.0283    0.0001    0.0001    0.1317   -0.0002   -0.4036
          14   -0.0000   -0.0000   -0.2447   -0.0002    0.0002    0.0500   -0.0001    0.0355
          15   -0.3829   -0.1984   -0.0000    0.0447    0.4146   -0.0003   -0.2491   -0.0000
          16    0.0001   -0.0000   -0.1120   -0.0001   -0.0000   -0.0901    0.0001    0.0580
          17   -0.0000   -0.0001   -0.1072   -0.0002   -0.0000    0.3266   -0.0003   -0.1088
          18   -0.1450    0.0006   -0.0005    0.5154   -0.0609   -0.0003   -0.2119    0.0000
          19    0.0000    0.0000    0.0152    0.0000    0.0001    0.0377   -0.0000    0.2794
          20    0.0000    0.0000    0.0681   -0.0000    0.0001   -0.1661    0.0002    0.2360
          21    0.3311   -0.1973    0.0003   -0.1860    0.4119    0.0002    0.2143    0.0000
          22   -0.0001    0.0000    0.2177    0.0002   -0.0000   -0.1732    0.0002   -0.0867
          23   -0.0000    0.0001   -0.1566   -0.0000    0.0000   -0.0972    0.0002    0.2641
          24   -0.1720    0.3024   -0.0003    0.2695   -0.1183    0.0005    0.3846   -0.0000
          25   -0.0000    0.0001    0.2169    0.0002   -0.0000   -0.1802    0.0002   -0.0621
          26    0.0000    0.0001   -0.0387   -0.0001   -0.0001   -0.0951   -0.0000    0.4671
          27    0.2652    0.3051    0.0002   -0.1762   -0.2092   -0.0004   -0.3707   -0.0001
          28   -0.0002    0.0000    0.1167   -0.0000   -0.0001    0.0758   -0.0001    0.1759
          29   -0.0000    0.0001    0.6228    0.0006    0.0000    0.1462   -0.0002   -0.0949
          30    0.5297    0.0316   -0.0002    0.1842    0.0386    0.0000   -0.0067    0.0000
          31    0.0000   -0.0000   -0.0116   -0.0000   -0.0000   -0.2138    0.0003   -0.0619
          32    0.0000   -0.0001   -0.0235    0.0000   -0.0001    0.0033    0.0000   -0.0789
          33   -0.1266    0.2819    0.0000   -0.1432    0.1334   -0.0000    0.0105   -0.0001
          34   -0.0000    0.0000    0.0088    0.0000    0.0000    0.0379   -0.0001   -0.1159
          35   -0.0000   -0.0000   -0.1298   -0.0001    0.0001    0.1148   -0.0002    0.0307
          36   -0.1897   -0.0703   -0.0000    0.0314    0.3724   -0.0003   -0.2161   -0.0000
          37    0.0000   -0.0000   -0.0274   -0.0000   -0.0000   -0.0647    0.0001    0.0155
          38    0.0000   -0.0000   -0.0499   -0.0001    0.0000    0.2335   -0.0002   -0.0288
          39   -0.0518    0.0225   -0.0003    0.3675    0.0126   -0.0004   -0.2721    0.0000
          40   -0.0000    0.0000    0.0967    0.0001   -0.0000   -0.0914    0.0001    0.0591
          41   -0.0000    0.0001   -0.0650    0.0000   -0.0000   -0.0041    0.0001    0.0293
          42   -0.0922    0.2096   -0.0002    0.1993   -0.0925    0.0004    0.3451    0.0000
          43    0.0000    0.0000    0.0048    0.0000    0.0000    0.0110   -0.0000    0.0798
          44    0.0000    0.0000    0.0828    0.0000    0.0000   -0.1605    0.0002    0.0672
          45    0.1776   -0.0700    0.0001   -0.0981    0.3709    0.0000    0.1014    0.0001
          46   -0.0000    0.0000    0.0993    0.0001   -0.0000   -0.0772    0.0001   -0.0481
          47    0.0000    0.0001    0.0097   -0.0000   -0.0001   -0.0428   -0.0001    0.1188
          48    0.1535    0.2118    0.0001   -0.1180   -0.1649   -0.0004   -0.3689   -0.0001
          49   -0.0001    0.0000    0.2291    0.0002   -0.0000    0.2188   -0.0003    0.1881
          50   -0.0000    0.0000    0.2249    0.0002    0.0000    0.0883   -0.0001    0.0028
          51    0.2263    0.1334   -0.0001    0.1098    0.1435    0.0003    0.1412   -0.0000
          52   -0.0001    0.0000   -0.0833   -0.0002   -0.0000   -0.0956    0.0002   -0.0231
          53   -0.0000    0.0001    0.3379    0.0003    0.0001    0.2021   -0.0002    0.0734
          54    0.2371   -0.1046   -0.0001    0.1647   -0.0493   -0.0003   -0.1673    0.0001


   Root No.       9        10        11        12        13        14        15        16

                 9 A      10 A      11 A      12 A      13 A      14 A      15 A      16 A   

                 567.6     610.0     624.4     735.7     738.7     782.1     829.3     829.8
  
           1    0.0803   -0.0001    0.0000    0.0479   -0.0002   -0.0000    0.0726    0.0011
           2    0.1773   -0.0001    0.0000    0.0631   -0.0003   -0.0000   -0.1038   -0.0017
           3    0.0002   -0.0030   -0.1851    0.0022    0.4647    0.2690    0.0026   -0.1694
           4    0.1278   -0.0001    0.0000    0.0953   -0.0004    0.0000    0.1667    0.0026
           5   -0.2645    0.0000   -0.0001    0.2173   -0.0010   -0.0000   -0.1262   -0.0020
           6    0.0002    0.2909   -0.2251   -0.0018   -0.3997    0.0742   -0.0036    0.2288
           7   -0.2780    0.0001   -0.0001   -0.2788    0.0013    0.0000   -0.0387   -0.0007
           8    0.0757   -0.0000   -0.0000   -0.0437    0.0002    0.0000    0.2541    0.0040
           9    0.0000   -0.2192    0.5973   -0.0001   -0.0567   -0.1465   -0.0039    0.2517
          10   -0.1020    0.0001   -0.0001    0.1603   -0.0007    0.0000    0.0281    0.0005
          11   -0.2393    0.0000    0.0001   -0.4181    0.0020    0.0000    0.1590    0.0025
          12    0.0000    0.0136   -0.2145   -0.0008   -0.1668   -0.0254    0.0045   -0.2821
          13    0.0472   -0.0001    0.0000    0.2217   -0.0010   -0.0001   -0.0319   -0.0005
          14    0.3209   -0.0000    0.0001   -0.0262    0.0001   -0.0000   -0.2154   -0.0034
          15   -0.0000    0.1477   -0.0501   -0.0000    0.0048   -0.0920    0.0019   -0.1218
          16   -0.0867    0.0000   -0.0001    0.4747   -0.0022    0.0000   -0.1340   -0.0021
          17   -0.2705   -0.0000   -0.0001   -0.0272    0.0001    0.0000   -0.0604   -0.0009
          18   -0.0001   -0.0272    0.2201   -0.0003   -0.0739   -0.0318    0.0040   -0.2566
          19    0.3084   -0.0000    0.0000   -0.1655    0.0008    0.0000    0.4591    0.0072
          20   -0.2162    0.0001   -0.0001    0.1942   -0.0009   -0.0000   -0.0354   -0.0006
          21   -0.0000   -0.1276   -0.0032    0.0003    0.0765   -0.1231   -0.0019    0.1250
          22    0.1336   -0.0000    0.0000   -0.0874    0.0004   -0.0000   -0.2183   -0.0034
          23    0.3804   -0.0000    0.0001   -0.2206    0.0010   -0.0001   -0.3259   -0.0051
          24   -0.0001   -0.1166    0.0061    0.0007    0.1338   -0.2081    0.0015   -0.0927
          25    0.1356    0.0000    0.0000   -0.1380    0.0006   -0.0000   -0.1743   -0.0027
          26   -0.1073    0.0001   -0.0001    0.1642   -0.0007   -0.0001    0.3215    0.0050
          27    0.0001    0.1461   -0.0440   -0.0002   -0.0417   -0.2417   -0.0008    0.0512
          28   -0.3197    0.0001    0.0001   -0.3364    0.0015   -0.0000   -0.1261   -0.0020
          29    0.1224   -0.0000   -0.0000    0.0694   -0.0003    0.0000    0.2247    0.0035
          30   -0.0001    0.0136   -0.0392   -0.0001    0.0019   -0.0052   -0.0004    0.0266
          31    0.0412    0.0000    0.0000    0.0633   -0.0003   -0.0000    0.1386    0.0021
          32   -0.0693    0.0000    0.0002   -0.1227    0.0005   -0.0000    0.0485    0.0006
          33    0.0000   -0.0741   -0.4926    0.0008    0.2048    0.1271   -0.0071    0.4498
          34    0.0144   -0.0000    0.0000    0.0644   -0.0003   -0.0000   -0.0101   -0.0001
          35    0.0976   -0.0000    0.0001    0.0394   -0.0003    0.0000   -0.0292   -0.0004
          36   -0.0000    0.0494    0.1156   -0.0018   -0.3940    0.1865   -0.0049    0.3201
          37   -0.0345    0.0000   -0.0000    0.1359   -0.0007    0.0000   -0.0411   -0.0007
          38   -0.0433   -0.0000   -0.0000    0.0068   -0.0001    0.0000   -0.0061   -0.0002
          39   -0.0001   -0.1355    0.0926    0.0020    0.4240   -0.0037   -0.0074    0.4694
          40   -0.0166    0.0000   -0.0000   -0.0256    0.0001    0.0001    0.0453    0.0007
          41    0.1419   -0.0001    0.0001   -0.0631    0.0002    0.0002   -0.1593   -0.0024
          42   -0.0001   -0.1944    0.1152   -0.0003   -0.0790    0.5323   -0.0022    0.1450
          43    0.0895   -0.0000    0.0000   -0.0483    0.0003    0.0000    0.1352    0.0021
          44   -0.0665    0.0000    0.0000    0.0285   -0.0001    0.0000   -0.1514   -0.0024
          45   -0.0001   -0.2485    0.1713    0.0009    0.1829    0.3536    0.0048   -0.3110
          46   -0.0585    0.0000   -0.0000    0.0466   -0.0002    0.0000   -0.0715   -0.0011
          47   -0.0864    0.0001   -0.0000    0.0980   -0.0005    0.0001    0.0804    0.0012
          48    0.0001    0.0875    0.0649   -0.0008   -0.1782    0.5446    0.0009   -0.0608
          49   -0.0837   -0.0002   -0.0000   -0.0695    0.0002   -0.0001   -0.2973   -0.0046
          50    0.0392   -0.0001   -0.0000    0.0290   -0.0002   -0.0000    0.0081    0.0001
          51    0.0000    0.6255    0.0900    0.0012    0.2562    0.1280    0.0007   -0.0517
          52   -0.1126    0.0002    0.0002   -0.1455    0.0007    0.0000    0.0896    0.0015
          53    0.0597    0.0000    0.0000    0.0786   -0.0003    0.0000   -0.1089   -0.0017
          54   -0.0001   -0.5181   -0.3720   -0.0012   -0.2195   -0.0366    0.0022   -0.1350


   Root No.      17        18        19        20        21        22        23        24

                17 A      18 A      19 A      20 A      21 A      22 A      23 A      24 A   

                 905.5     912.4     945.7     954.0     977.9    1007.2    1024.4    1077.6
  
           1    0.0000    0.1262    0.0406    0.0000   -0.0000    0.0000   -0.0000   -0.0696
           2    0.0000    0.1290    0.0523    0.0000   -0.0000    0.0000   -0.0000    0.0543
           3    0.3044    0.0000    0.0000    0.1425    0.0281    0.1315   -0.0946    0.0000
           4    0.0000   -0.1260   -0.0480   -0.0000    0.0000    0.0000    0.0000    0.0447
           5    0.0000   -0.0750   -0.0061   -0.0000    0.0000    0.0000    0.0000   -0.0139
           6   -0.2947    0.0001    0.0000    0.0362    0.1724   -0.1624    0.0162    0.0000
           7    0.0000    0.0455    0.0847    0.0000    0.0000   -0.0000   -0.0001    0.0530
           8    0.0000   -0.0302   -0.0660   -0.0000    0.0000   -0.0000   -0.0000    0.0747
           9   -0.1605   -0.0000   -0.0000   -0.0090   -0.0563    0.0047    0.2687   -0.0000
          10    0.0000   -0.0205   -0.2446   -0.0001   -0.0000   -0.0000    0.0000   -0.0544
          11   -0.0000    0.1209   -0.3397   -0.0002   -0.0001    0.0000    0.0000   -0.1729
          12    0.1619    0.0000    0.0000   -0.1762    0.3670   -0.0687   -0.1286   -0.0001
          13   -0.0000    0.4291    0.2453    0.0002   -0.0000   -0.0000    0.0000    0.0182
          14   -0.0001    0.1087    0.1223   -0.0000   -0.0000   -0.0001    0.0000    0.0393
          15   -0.2374   -0.0000    0.0001   -0.3413   -0.1689   -0.2663    0.0767   -0.0000
          16    0.0000   -0.3392   -0.1418   -0.0001    0.0000   -0.0000    0.0000   -0.1314
          17   -0.0000   -0.3053   -0.1566   -0.0001    0.0001   -0.0000   -0.0000   -0.1044
          18    0.0662   -0.0001   -0.0001    0.1610   -0.4126    0.1136    0.0618    0.0000
          19   -0.0000   -0.0098   -0.1287   -0.0001   -0.0000    0.0000    0.0000   -0.0966
          20    0.0000    0.1246    0.1130    0.0000   -0.0000    0.0001   -0.0000    0.0365
          21    0.2693    0.0000    0.0002   -0.3133   -0.1375    0.2950   -0.0144    0.0000
          22   -0.0000   -0.1158   -0.0077   -0.0000    0.0000    0.0000   -0.0000    0.0493
          23   -0.0000   -0.1574   -0.0171    0.0000    0.0000    0.0001   -0.0000    0.0061
          24   -0.2020    0.0000   -0.0001    0.1611    0.1624    0.3824   -0.0516   -0.0000
          25    0.0000   -0.1162   -0.0511   -0.0000   -0.0000   -0.0000   -0.0000   -0.0568
          26    0.0000    0.2202    0.0663    0.0001   -0.0000   -0.0001    0.0000    0.0414
          27    0.1724   -0.0001   -0.0001    0.2387   -0.0160   -0.3943    0.0328    0.0000
          28   -0.0000    0.0344    0.3108    0.0002    0.0000    0.0000    0.0002    0.0721
          29   -0.0000   -0.2289    0.2584    0.0002   -0.0000    0.0000    0.0000   -0.0872
          30   -0.0475   -0.0000    0.0001   -0.0000   -0.1059   -0.0497   -0.4928    0.0000
          31    0.0000    0.1381   -0.2061   -0.0002    0.0001   -0.0000    0.0000    0.5762
          32    0.0001    0.0342   -0.1032   -0.0001    0.0001   -0.0000   -0.0000   -0.0494
          33   -0.2527    0.0001   -0.0002    0.2348   -0.4201    0.0638    0.1257    0.0000
          34    0.0000    0.1277    0.0730    0.0001    0.0000    0.0000   -0.0000    0.0063
          35    0.0001    0.2086    0.1160    0.0002    0.0000    0.0001   -0.0001   -0.1303
          36    0.3203   -0.0000   -0.0003    0.4492    0.2142    0.2535   -0.0836    0.0000
          37    0.0000   -0.0451   -0.0679   -0.0000   -0.0000    0.0000   -0.0000   -0.2322
          38   -0.0000   -0.2952    0.0353    0.0000   -0.0001    0.0000    0.0000    0.6664
          39   -0.0545   -0.0000    0.0002   -0.2211    0.4877   -0.1157   -0.0507    0.0001
          40    0.0000   -0.1041   -0.0848   -0.0001   -0.0000   -0.0000    0.0000    0.0595
          41    0.0002   -0.0040    0.0441   -0.0000   -0.0001   -0.0001    0.0000   -0.0231
          42    0.3704    0.0001    0.0002   -0.2093   -0.1967   -0.3828    0.0470    0.0000
          43   -0.0000   -0.0037   -0.0389    0.0000    0.0000   -0.0000    0.0000   -0.0303
          44   -0.0001    0.1096    0.1119    0.0002    0.0000   -0.0001   -0.0000   -0.0826
          45   -0.3601   -0.0000   -0.0003    0.4101    0.1827   -0.2878    0.0023    0.0000
          46   -0.0000    0.0409    0.0554    0.0000    0.0000    0.0000   -0.0000    0.0682
          47   -0.0001    0.1100    0.0618   -0.0000    0.0000    0.0001   -0.0000    0.0612
          48   -0.3260    0.0000    0.0001   -0.3211    0.0212    0.3966   -0.0272   -0.0000
          49    0.0000    0.3172   -0.3320   -0.0002   -0.0000   -0.0000   -0.0002    0.1351
          50   -0.0000    0.0026   -0.0260   -0.0000   -0.0000   -0.0000   -0.0001   -0.0031
          51    0.1230    0.0001   -0.0001    0.0397    0.1141    0.0800    0.5547    0.0000
          52   -0.0001   -0.1525    0.3966    0.0002   -0.0001   -0.0000   -0.0002    0.0093
          53    0.0001    0.1566   -0.3327   -0.0002   -0.0000   -0.0000   -0.0001   -0.0037
          54    0.0684   -0.0000    0.0002   -0.0362    0.1742    0.0416    0.5563   -0.0000


   Root No.      25        26        27        28        29        30        31        32

                25 A      26 A      27 A      28 A      29 A      30 A      31 A      32 A   

                1080.5    1105.2    1136.4    1151.4    1191.5    1260.1    1309.6    1333.5
  
           1    0.1459   -0.1672    0.2237    0.0539   -0.2430   -0.2391   -0.1322    0.2945
           2   -0.1703    0.0906   -0.2321    0.0492   -0.0615    0.1953   -0.0802   -0.1472
           3    0.0000   -0.0000    0.0000    0.0000    0.0000   -0.0000   -0.0000   -0.0000
           4    0.0279   -0.0981    0.0949   -0.0723   -0.2119    0.1575    0.3469    0.2116
           5   -0.0161   -0.0786    0.1861   -0.0054    0.0811    0.0988    0.0776    0.1942
           6   -0.0000   -0.0000    0.0000   -0.0000   -0.0000   -0.0000    0.0000    0.0001
           7   -0.0307    0.0312   -0.1086    0.0125   -0.0140   -0.0626    0.1740    0.0488
           8   -0.0206    0.0629   -0.2454    0.0289   -0.0563    0.0775    0.0702    0.4599
           9    0.0000    0.0000   -0.0001    0.0000   -0.0000   -0.0000    0.0001    0.0001
          10    0.0359    0.0390   -0.0494   -0.0084    0.0366   -0.2598    0.0135   -0.0294
          11    0.0539   -0.0443    0.0807   -0.0369   -0.0185   -0.1716   -0.0185   -0.1098
          12    0.0000   -0.0000    0.0000   -0.0000   -0.0000   -0.0001   -0.0000   -0.0000
          13   -0.2491    0.1452    0.0456    0.0703    0.0636   -0.1336   -0.1461   -0.2006
          14    0.0053   -0.0552   -0.1029   -0.0125   -0.1263    0.2227    0.2665   -0.2026
          15    0.0000    0.0000    0.0000   -0.0000    0.0000   -0.0001   -0.0001    0.0001
          16   -0.0047    0.1034   -0.1149    0.0083    0.0484    0.0242   -0.1513   -0.1055
          17    0.0375    0.0605    0.0441   -0.0137    0.0717    0.2079   -0.1978   -0.2817
          18    0.0000    0.0000    0.0000   -0.0000    0.0000    0.0000   -0.0000   -0.0000
          19    0.0400    0.3001   -0.1527   -0.0696    0.1001    0.2211   -0.0206   -0.1964
          20    0.0160    0.0510    0.0768   -0.0451    0.1448    0.1274    0.3980    0.0996
          21   -0.0000   -0.0000   -0.0000    0.0000   -0.0000   -0.0000   -0.0001   -0.0000
          22   -0.1295   -0.1105    0.0734    0.0344    0.1404   -0.0251    0.2269    0.0543
          23   -0.1244   -0.1032    0.1907    0.0242   -0.0714   -0.2453   -0.2304   -0.0086
          24    0.0000    0.0000   -0.0001   -0.0000    0.0000    0.0001    0.0001   -0.0000
          25    0.1842   -0.0363   -0.0049   -0.0538    0.1512   -0.0341   -0.1404    0.1597
          26   -0.2145   -0.0444    0.0020    0.0408    0.0249   -0.2446   -0.2170    0.0495
          27    0.0000   -0.0000   -0.0000   -0.0000   -0.0000    0.0001    0.0001   -0.0000
          28   -0.0594    0.0094   -0.0040    0.0110    0.0388    0.0418    0.0918   -0.1794
          29    0.0625   -0.0625    0.1394   -0.0126   -0.0092   -0.0377   -0.0669   -0.0143
          30   -0.0000    0.0000    0.0000    0.0000    0.0000    0.0000    0.0000   -0.0001
          31    0.2237   -0.1363    0.5306   -0.0291    0.0919    0.2547   -0.1053   -0.2113
          32    0.0174   -0.0129    0.0249   -0.0113   -0.0055   -0.0500   -0.0072   -0.0340
          33    0.0000   -0.0000    0.0001   -0.0000    0.0000    0.0000   -0.0000   -0.0000
          34   -0.0791    0.0426    0.0160    0.0239    0.0158   -0.0440   -0.0457   -0.0641
          35    0.5613   -0.2608   -0.2319    0.2438    0.5592   -0.0231   -0.0406    0.0217
          36   -0.0001    0.0001    0.0000   -0.0001   -0.0001    0.0000    0.0000   -0.0000
          37   -0.0248   -0.0283    0.0545   -0.0199   -0.0003    0.1156   -0.0539   -0.0591
          38    0.1001    0.2342   -0.3073    0.0751    0.0737   -0.3287   -0.0315    0.0084
          39    0.0000    0.0000   -0.0001    0.0000    0.0000   -0.0001   -0.0000   -0.0000
          40   -0.1118   -0.4215   -0.1451    0.6080   -0.2548    0.0769   -0.0199   -0.1396
[...]
 REDUCED MASS        0.5042         C  6 -- H 13          +7.4% ( 39.0%)      0.9%
 EFFECTIVE MASS      7.1559
 FORCE CONSTANT      0.4718

 VIBRATION         31   31A           ATOM PAIR      ENERGY CONTRIBUTION    RADIAL
 FREQUENCY          1309.63         C  7 -- C  9         +11.6% ( 54.3%)     88.2%
 TRANSITION DIPOLE   0.1426         C  5 -- C  8         +11.1% ( 53.0%)     99.0%
 TRAVEL (Ang.)       0.2403         C  2 -- C  7         +10.9% ( 52.6%)     90.3%
 REDUCED MASS        0.8917         C  2 -- C  6          +8.2% ( 45.6%)     53.5%
 EFFECTIVE MASS      8.5874
 FORCE CONSTANT      0.9011

 VIBRATION         32   32A           ATOM PAIR      ENERGY CONTRIBUTION    RADIAL
 FREQUENCY          1333.51         C  1 -- C  3         +14.7% ( 55.8%)     99.4%
 TRANSITION DIPOLE   0.3335         C  2 -- C  6          +9.5% ( 45.0%)     92.8%
 TRAVEL (Ang.)       0.2218         C  3 -- C  4          +9.1% ( 44.1%)     42.8%
 REDUCED MASS        1.0283         C  1 -- C  5          +8.3% ( 42.0%)     36.5%
 EFFECTIVE MASS      8.7221
 FORCE CONSTANT      1.0774

 VIBRATION         33   33A           ATOM PAIR      ENERGY CONTRIBUTION    RADIAL
 FREQUENCY          1358.21         C  3 -- C  4         +18.4% ( 67.1%)     94.0%
 TRANSITION DIPOLE   0.3291         C  2 -- C  4          +9.5% ( 48.2%)     54.6%
 TRAVEL (Ang.)       0.1971         C  4 -- C  6          +8.9% ( 46.7%)      0.0%
 REDUCED MASS        1.2786         C 10 -- H 18          +7.3% ( 42.3%)      0.6%
 EFFECTIVE MASS      9.1529
 FORCE CONSTANT      1.3896

 VIBRATION         34   34A           ATOM PAIR      ENERGY CONTRIBUTION    RADIAL
 FREQUENCY          1451.96         C  8 -- C  9         +20.1% ( 71.3%)    100.0%
 TRANSITION DIPOLE   0.5103         C  1 -- C  2          +8.9% ( 47.6%)     99.2%
 TRAVEL (Ang.)       0.1764         C  2 -- C  6          +7.7% ( 44.1%)     78.6%
 REDUCED MASS        1.4919         C  1 -- C  3          +7.5% ( 43.5%)     44.1%
 EFFECTIVE MASS     10.8988
 FORCE CONSTANT      1.8531

 VIBRATION         35   35A           ATOM PAIR      ENERGY CONTRIBUTION    RADIAL
 FREQUENCY          1572.71         C  1 -- C  2         +19.8% ( 69.0%)     99.8%
 TRANSITION DIPOLE   1.1945         C  2 -- C  7         +13.6% ( 57.1%)     18.0%
 TRAVEL (Ang.)       0.1310         C  1 -- C  5         +12.6% ( 55.1%)     30.6%
 REDUCED MASS        2.4969         C  2 -- C  6         +12.0% ( 53.7%)     84.7%
 EFFECTIVE MASS     11.4554
 FORCE CONSTANT      3.6388

 VIBRATION         36   36A           ATOM PAIR      ENERGY CONTRIBUTION    RADIAL
 FREQUENCY          1591.10         C  5 -- C  8         +15.4% ( 59.6%)     98.4%
 TRANSITION DIPOLE   0.3437         C  8 -- C  9         +13.2% ( 55.1%)      0.0%
 TRAVEL (Ang.)       0.1541         C  7 -- C  9         +13.1% ( 54.9%)     95.9%
 REDUCED MASS        1.7846         C  1 -- C  2          +8.2% ( 43.4%)      2.9%
 EFFECTIVE MASS     11.4522
 FORCE CONSTANT      2.6618

 VIBRATION         37   37A           ATOM PAIR      ENERGY CONTRIBUTION    RADIAL
 FREQUENCY          1753.35         C  4 -- C  6         +39.5% (100.0%)    100.0%
 TRANSITION DIPOLE   0.3354         C  2 -- C  4         +12.4% ( 55.9%)     62.5%
 TRAVEL (Ang.)       0.0865         C  3 -- C  4         +12.3% ( 55.8%)     18.3%
 REDUCED MASS        5.1452         C  2 -- C  6         +11.5% ( 54.0%)      9.1%
 EFFECTIVE MASS     11.9512         C  4 -- H 11         +11.5% ( 53.9%)     12.0%
 FORCE CONSTANT      9.3194         C  6 -- H 13         +10.8% ( 52.3%)     14.0%

 VIBRATION         38   38A           ATOM PAIR      ENERGY CONTRIBUTION    RADIAL
 FREQUENCY          1800.44         C  1 -- C  2         +14.6% ( 55.1%)     99.6%
 TRANSITION DIPOLE   0.1639         C  8 -- C  9         +14.0% ( 54.0%)     99.8%
 TRAVEL (Ang.)       0.1327         C  1 -- C  5         +12.4% ( 50.7%)     83.1%
 REDUCED MASS        2.1268         C  2 -- C  7          +8.7% ( 42.5%)     73.2%
 EFFECTIVE MASS     11.8752
 FORCE CONSTANT      4.0620

 VIBRATION         39   39A           ATOM PAIR      ENERGY CONTRIBUTION    RADIAL
 FREQUENCY          1829.05         C  2 -- C  7         +18.6% ( 63.9%)     94.1%
 TRANSITION DIPOLE   0.3055         C  1 -- C  5         +15.4% ( 58.1%)     89.5%
 TRAVEL (Ang.)       0.1212         C  1 -- C  2         +14.6% ( 56.7%)      0.5%
 REDUCED MASS        2.5087         C  2 -- C  6          +8.6% ( 43.5%)     63.0%
 EFFECTIVE MASS     11.9194
 FORCE CONSTANT      4.9448

 VIBRATION         40   40A           ATOM PAIR      ENERGY CONTRIBUTION    RADIAL
 FREQUENCY          1914.47         C  3 -- C 10         +41.9% ( 96.4%)    100.0%
 TRANSITION DIPOLE   0.9765         C  1 -- C  3         +20.0% ( 66.7%)     59.9%
 TRAVEL (Ang.)       0.0801         C  3 -- C  4         +18.7% ( 64.4%)     40.3%
 REDUCED MASS        5.4905         C 10 -- H 18          +7.8% ( 41.7%)     11.1%
 EFFECTIVE MASS     11.9130
 FORCE CONSTANT     11.8565

 VIBRATION         41   41A           ATOM PAIR      ENERGY CONTRIBUTION    RADIAL
 FREQUENCY          3054.01         C  8 -- H 14         +45.3% ( 68.4%)    100.0%
 TRANSITION DIPOLE   0.0757         C  9 -- H 16         +40.9% ( 65.0%)    100.0%
 TRAVEL (Ang.)       0.2433         C  5 -- H 12          +8.0% ( 28.8%)     99.9%
 REDUCED MASS        0.3729         C  7 -- H 15          +3.2% ( 18.1%)     99.8%
 EFFECTIVE MASS      1.4919
 FORCE CONSTANT      2.0494

 VIBRATION         42   42A           ATOM PAIR      ENERGY CONTRIBUTION    RADIAL
 FREQUENCY          3062.57         C  5 -- H 12         +37.2% ( 62.0%)    100.0%
 TRANSITION DIPOLE   0.2961         C  9 -- H 16         +33.5% ( 58.8%)    100.0%
 TRAVEL (Ang.)       0.2792         C  8 -- H 14         +14.7% ( 39.0%)     99.9%
 REDUCED MASS        0.2824         C  7 -- H 15         +11.6% ( 34.5%)     99.9%
 EFFECTIVE MASS      1.5076
 FORCE CONSTANT      1.5607

 VIBRATION         43   43A           ATOM PAIR      ENERGY CONTRIBUTION    RADIAL
 FREQUENCY          3072.33         C  5 -- H 12         +43.8% ( 67.2%)    100.0%
 TRANSITION DIPOLE   0.5083         C  7 -- H 15         +29.6% ( 55.2%)    100.0%
 TRAVEL (Ang.)       0.2579         C  8 -- H 14         +22.9% ( 48.6%)    100.0%
 REDUCED MASS        0.3301         C  5 -- C  8          +1.2% ( 11.0%)     93.8%
 EFFECTIVE MASS      1.5441
 FORCE CONSTANT      1.8358

 VIBRATION         44   44A           ATOM PAIR      ENERGY CONTRIBUTION    RADIAL
 FREQUENCY          3079.87         C  7 -- H 15         +52.7% ( 73.6%)    100.0%
 TRANSITION DIPOLE   0.3998         C  9 -- H 16         +22.1% ( 47.6%)    100.0%
 TRAVEL (Ang.)       0.2499         C  8 -- H 14         +13.9% ( 37.9%)    100.0%
 REDUCED MASS        0.3507         C  5 -- H 12          +7.8% ( 28.4%)    100.0%
 EFFECTIVE MASS      1.5798
 FORCE CONSTANT      1.9599

 VIBRATION         45   45A           ATOM PAIR      ENERGY CONTRIBUTION    RADIAL
 FREQUENCY          3127.85         C  4 -- H 11         +54.2% ( 75.1%)    100.0%
 TRANSITION DIPOLE   0.4242         C  6 -- H 13         +41.4% ( 65.6%)    100.0%
 TRAVEL (Ang.)       0.2154         C  4 -- C  6          +1.2% ( 11.1%)      0.4%
 REDUCED MASS        0.4648         C  2 -- C  4          +0.9% (  9.5%)     93.2%
 EFFECTIVE MASS      1.4774
 FORCE CONSTANT      2.6792

 VIBRATION         46   46A           ATOM PAIR      ENERGY CONTRIBUTION    RADIAL
 FREQUENCY          3130.74         C 10 -- H 18         +77.0% ( 88.0%)     98.6%
 TRANSITION DIPOLE   0.2784         C 10 -- H 17         +20.3% ( 45.2%)     82.3%
 TRAVEL (Ang.)       0.1864         C  3 -- C 10          +1.5% ( 12.2%)     87.4%
 REDUCED MASS        0.6197         C  6 -- H 13          +0.8% (  8.9%)    100.0%
 EFFECTIVE MASS      1.4082
 FORCE CONSTANT      3.5785

 VIBRATION         47   47A           ATOM PAIR      ENERGY CONTRIBUTION    RADIAL
 FREQUENCY          3141.09         C 10 -- H 17         +76.6% ( 89.5%)     99.2%
 TRANSITION DIPOLE   0.2547         C 10 -- H 18         +21.9% ( 47.8%)     90.4%
 TRAVEL (Ang.)       0.1792         C  3 -- C 10          +1.3% ( 11.7%)      6.8%
 REDUCED MASS        0.6688         C  6 -- H 13          +0.2% (  4.0%)     99.9%
 EFFECTIVE MASS      1.5874
 FORCE CONSTANT      3.8879

 VIBRATION         48   48A           ATOM PAIR      ENERGY CONTRIBUTION    RADIAL
 FREQUENCY          3144.82         C  6 -- H 13         +53.3% ( 74.7%)    100.0%
 TRANSITION DIPOLE   0.4281         C  4 -- H 11         +41.2% ( 65.7%)     99.9%
 TRAVEL (Ang.)       0.2131         C  4 -- C  6          +2.4% ( 15.9%)     99.5%
 REDUCED MASS        0.4720         C  2 -- C  6          +1.1% ( 10.6%)     25.6%
 EFFECTIVE MASS      1.6509
 FORCE CONSTANT      2.7502

      SYMMETRY NUMBER FOR POINT-GROUP C1  =  1


          SYSTEM IS A GROUND STATE



 InChI=1S/C10H8/c1-8-6-7-9-4-2-3-5-10(8)9/h2-7H,1H2


          MOLECULE IS NOT LINEAR

          THERE ARE 48 GENUINE VIBRATIONS IN THIS SYSTEM
          THIS THERMODYNAMICS CALCULATION IS LIMITED TO
          MOLECULES WHICH HAVE NO INTERNAL ROTATIONS




                    CALCULATED THERMODYNAMIC PROPERTIES
                                          *
   TEMP. (K)   PARTITION FUNCTION   H.O.F.    ENTHALPY  HEAT CAPACITY ENTROPY
                                   KCAL/MOL   CAL/MOLE    CAL/K/MOL  CAL/K/MOL


 298.00  VIB.     0.1614D+02                  2854.8187    24.2933    15.1072
         ROT.     0.4882D+06                   888.2803     2.9808    29.0100
         INT.     0.7880D+07                  3743.0990    27.2742    44.1172
         TRA.     0.1403D+28                  1480.4672     4.9680    40.4556
         TOT.                       64.126    5223.5662    32.2422    84.5728

 200.00  VIB.     0.3873D+01                  1014.8366    13.3839     7.7648
         ROT.     0.2684D+06                   596.1613     2.9808    27.8213
         INT.     0.1039D+07                  1610.9979    16.3647    35.5861
         TRA.     0.7713D+27                   993.6021     4.9680    38.4745
         TOT.                       61.507    2604.6000    21.3327    74.0606

 210.00  VIB.     0.4409D+01                  1153.9566    14.4438     8.4433
         ROT.     0.2888D+06                   625.9693     2.9808    27.9667
         INT.     0.1273D+07                  1779.9259    17.4246    36.4101
         TRA.     0.8299D+27                  1043.2822     4.9680    38.7169
         TOT.                       61.725    2823.2081    22.3926    75.1270

 220.00  VIB.     0.5039D+01                  1303.7821    15.5245     9.1401
         ROT.     0.3096D+06                   655.7774     2.9808    28.1054
         INT.     0.1560D+07                  1959.5595    18.5053    37.2455
         TRA.     0.8899D+27                  1092.9623     4.9680    38.9480
         TOT.                       61.955    3052.5219    23.4733    76.1935

 230.00  VIB.     0.5782D+01                  1464.5039    16.6225     9.8544
         ROT.     0.3310D+06                   685.5855     2.9808    28.2379
         INT.     0.1914D+07                  2150.0893    19.6033    38.0923
         TRA.     0.9512D+27                  1142.6424     4.9680    39.1689
         TOT.                       62.195    3292.7318    24.5713    77.2611

 240.00  VIB.     0.6658D+01                  1636.2783    17.7344    10.5853
         ROT.     0.3528D+06                   715.3935     2.9808    28.3648
         INT.     0.2349D+07                  2351.6718    20.7152    38.9500
         TRA.     0.1014D+28                  1192.3226     4.9680    39.3803
         TOT.                       62.446    3543.9944    25.6833    78.3303

 250.00  VIB.     0.7695D+01                  1819.2278    18.8569    11.3320
         ROT.     0.3751D+06                   745.2016     2.9808    28.4864
         INT.     0.2886D+07                  2564.4294    21.8378    39.8184
         TRA.     0.1078D+28                  1242.0027     4.9680    39.5831
         TOT.                       62.709    3806.4321    26.8058    79.4015

 260.00  VIB.     0.8924D+01                  2013.4414    19.9867    12.0935
         ROT.     0.3978D+06                   775.0097     2.9808    28.6033
         INT.     0.3550D+07                  2788.4511    22.9675    40.6969
         TRA.     0.1143D+28                  1291.6828     4.9680    39.7779
         TOT.                       62.982    4080.1339    27.9355    80.4748

 270.00  VIB.     0.1038D+02                  2218.9761    21.1206    12.8691
         ROT.     0.4210D+06                   804.8177     2.9808    28.7158
         INT.     0.4372D+07                  3023.7938    24.1015    41.5849
         TRA.     0.1210D+28                  1341.3629     4.9680    39.9654
         TOT.                       63.267    4365.1567    29.0695    81.5504

 280.00  VIB.     0.1212D+02                  2435.8582    22.2558    13.6577
         ROT.     0.4446D+06                   834.6258     2.9808    28.8242
         INT.     0.5390D+07                  3270.4840    25.2366    42.4820
         TRA.     0.1278D+28                  1391.0430     4.9680    40.1461
         TOT.                       63.564    4661.5270    30.2046    82.6281

 290.00  VIB.     0.1420D+02                  2664.0859    23.3893    14.4585
         ROT.     0.4686D+06                   864.4339     2.9808    28.9288
         INT.     0.6653D+07                  3528.5198    26.3701    43.3873
         TRA.     0.1347D+28                  1440.7231     4.9680    40.3205
         TOT.                       63.871    4969.2429    31.3381    83.7078

 300.00  VIB.     0.1667D+02                  2903.6309    24.5188    15.2705
         ROT.     0.4931D+06                   894.2419     2.9808    29.0299
         INT.     0.8222D+07                  3797.8728    27.4996    44.3004
         TRA.     0.1417D+28                  1490.4032     4.9680    40.4889
         TOT.                       64.191    5288.2760    32.4676    84.7893

 310.00  VIB.     0.1964D+02                  3154.4409    25.6420    16.0928
         ROT.     0.5179D+06                   924.0500     2.9808    29.1276
         INT.     0.1017D+08                  4078.4909    28.6228    45.2204
         TRA.     0.1488D+28                  1540.0833     4.9680    40.6518
         TOT.                       64.521    5618.5742    33.5908    85.8722

 320.00  VIB.     0.2320D+02                  3416.4421    26.7567    16.9245
         ROT.     0.5432D+06                   953.8580     2.9808    29.2223
         INT.     0.1260D+08                  4370.3001    29.7375    46.1468
         TRA.     0.1561D+28                  1589.7634     4.9680    40.8095
         TOT.                       64.862    5960.0635    34.7055    86.9563

 330.00  VIB.     0.2748D+02                  3689.5413    27.8613    17.7648
         ROT.     0.5689D+06                   983.6661     2.9808    29.3140
         INT.     0.1563D+08                  4673.2074    30.8421    47.0788
         TRA.     0.1635D+28                  1639.4435     4.9680    40.9624
         TOT.                       65.215    6312.6509    35.8101    88.0412

 340.00  VIB.     0.3263D+02                  3973.6284    28.9540    18.6128
         ROT.     0.5949D+06                  1013.4742     2.9808    29.4030
         INT.     0.1941D+08                  4987.1026    31.9349    48.0158
         TRA.     0.1710D+28                  1689.1236     4.9680    41.1107
         TOT.                       65.578    6676.2262    36.9029    89.1265

 350.00  VIB.     0.3883D+02                  4268.5783    30.0336    19.4677
         ROT.     0.6213D+06                  1043.2822     2.9808    29.4894
         INT.     0.2413D+08                  5311.8605    33.0144    48.9571
         TRA.     0.1786D+28                  1738.8037     4.9680    41.2547
         TOT.                       65.953    7050.6643    37.9824    90.2118

 360.00  VIB.     0.4633D+02                  4574.2531    31.0989    20.3287
         ROT.     0.6482D+06                  1073.0903     2.9808    29.5734
         INT.     0.3003D+08                  5647.3434    34.0797    49.9021
         TRA.     0.1863D+28                  1788.4838     4.9680    41.3947
         TOT.                       66.338    7435.8273    39.0477    91.2968

 370.00  VIB.     0.5539D+02                  4890.5042    32.1487    21.1952
         ROT.     0.6754D+06                  1102.8984     2.9808    29.6550
         INT.     0.3741D+08                  5993.4026    35.1295    50.8502
         TRA.     0.1941D+28                  1838.1639     4.9680    41.5308
         TOT.                       66.734    7831.5665    40.0975    92.3810

 380.00  VIB.     0.6637D+02                  5217.1737    33.1824    22.0663
         ROT.     0.7029D+06                  1132.7064     2.9808    29.7345
         INT.     0.4665D+08                  6349.8802    36.1632    51.8008
         TRA.     0.2020D+28                  1887.8440     4.9680    41.6633
         TOT.                       67.140    8237.7242    41.1312    93.4641

 390.00  VIB.     0.7968D+02                  5554.0965    34.1993    22.9414
         ROT.     0.7308D+06                  1162.5145     2.9808    29.8120
         INT.     0.5824D+08                  6716.6110    37.1801    52.7534
         TRA.     0.2100D+28                  1937.5242     4.9680    41.7923
         TOT.                       67.556    8654.1351    42.1481    94.5457

 400.00  VIB.     0.9585D+02                  5901.1013    35.1988    23.8199
         ROT.     0.7591D+06                  1192.3226     2.9808    29.8874
         INT.     0.7276D+08                  7093.4238    38.1796    53.7073
         TRA.     0.2182D+28                  1987.2043     4.9680    41.9181
         TOT.                       67.983    9080.6281    43.1476    95.6254

   *: NOTE: HEATS OF FORMATION ARE RELATIVE TO THE
            ELEMENTS IN THEIR STANDARD STATE AT 298K
              (=  Standard Enthalpy of Formation).

            Hvib:  Zero-point energy is not included.
                   frequencies of less than zero cm-1 are not included.
            Hrot = (3/2)RT
            Htra = (3/2)RT + pV = (5/2)RT

            Heat capacity is Cp, not Cv

          For more information, see: HTTP://OpenMOPAC.net/Manual/thermochemistry.html


           FORCE CONSTANT IN CARTESIAN COORDINATES (Millidynes/A)

    ATOM   CHEMICAL       X               Y               Z
   NUMBER   SYMBOL  FORCE CONSTANT  FORCE CONSTANT  FORCE CONSTANT

      1       C       11.524358       14.234509        2.474267
      2       C       11.433633       14.269118        2.459949
      3       C       16.229951        9.796484        2.380680
      4       C       11.256762       13.627633        2.170091
      5       C       12.269503       11.889052        2.303759
      6       C       14.754407       10.300064        2.188857
      7       C       12.290986       11.858695        2.307523
      8       C       11.956602       11.817859        2.329328
      9       C       11.958702       11.829749        2.333817
     10       C       14.510249        9.861571        1.965568
     11       H        0.699820        5.390511        0.337522
     12       H        5.166859        0.742565        0.355792
     13       H        5.066456        1.021442        0.344743
     14       H        1.834760        4.079202        0.348346
     15       H        5.189788        0.729548        0.353243
     16       H        1.831015        4.081327        0.349359
     17       H        0.872851        5.211040        0.334027
     18       H        3.645939        2.428029        0.335423

 **********************
 *                    *
 * JOB ENDED NORMALLY *
 *                    *
 **********************



 TOTAL JOB TIME:             1.64 SECONDS

 == MOPAC DONE ==
