 *******************************************************************************
 **                                                                           **
 **                              MOPAC v23.1.2                                **
 **                                                                           **
 *******************************************************************************
 **          Digital Object Identifier (DOI): 10.5281/zenodo.6511958          **
 **    Visit the DOI location for information on how to cite this program.    **
 *******************************************************************************

                              PM3 CALCULATION RESULTS

 *******************************************************************************
 *  CALCULATION DONE: (MAX THREADS = 1)              Tue Jun  3 16:33:36 2025  *
 *  PM3        - The PM3 Hamiltonian to be used
 *  PRECISE    - TIGHTER CRITERIA TO BE USED
 *  NOSYM      - POINT-GROUP SYMMETRY SET TO C1
 *  THREADS=1  - MULTI-THREADING NOT USED
 *  T=         - A TIME OF 172800.0 SECONDS REQUESTED
 *  DUMP=N     - RESTART FILE WRITTEN EVERY 7200.0 SECONDS REQUESTED
 *******************************************************************************
pm3  precise nosym THREADS=1
 InChI=1S/C10H8/c1-8-6-9-4-2-3-5-10(9)7-8/h2-7H,1H2

   ATOM   CHEMICAL          X               Y               Z
  NUMBER   SYMBOL      (ANGSTROMS)     (ANGSTROMS)     (ANGSTROMS)

     1       C         -0.19590000  *   0.68010000  *   0.03900000  *
     2       C         -0.11220000  *  -0.69670000  *  -0.10170000  *
     3       C          1.94880000  *   0.10500000  *   0.11200000  *
     4       C          1.00770000  *   1.22120000  *   0.17150000  *
     5       C          1.14930000  *  -1.10500000  *  -0.06620000  *
     6       C         -1.42910000  *   1.33470000  *   0.03140000  *
     7       C         -1.25780000  *  -1.47960000  *  -0.25620000  *
     8       C         -2.59270000  *   0.56240000  *  -0.12320000  *
     9       C         -2.50750000  *  -0.83730000  *  -0.26620000  *
    10       C          3.27240000  *   0.17640000  *   0.20220000  *
    11       H          1.23370000  *   2.27280000  *   0.29700000  *
    12       H          1.50140000  *  -2.12530000  *  -0.15230000  *
    13       H         -1.49260000  *   2.41020000  *   0.14140000  *
    14       H         -1.19040000  *  -2.55480000  *  -0.36590000  *
    15       H         -3.56100000  *   1.04580000  *  -0.13240000  *
    16       H         -3.41080000  *  -1.42160000  *  -0.38450000  *
    17       H          3.87480000  *  -0.72100000  *   0.14470000  *
    18       H          3.76200000  *   1.13270000  *   0.33410000  *



          CARTESIAN COORDINATES 

    NO.       ATOM           X           Y           Z

     1         C         -0.1959      0.6801      0.0390
     2         C         -0.1122     -0.6967     -0.1017
     3         C          1.9488      0.1050      0.1120
     4         C          1.0077      1.2212      0.1715
     5         C          1.1493     -1.1050     -0.0662
     6         C         -1.4291      1.3347      0.0314
     7         C         -1.2578     -1.4796     -0.2562
     8         C         -2.5927      0.5624     -0.1232
     9         C         -2.5075     -0.8373     -0.2662
    10         C          3.2724      0.1764      0.2022
    11         H          1.2337      2.2728      0.2970
    12         H          1.5014     -2.1253     -0.1523
    13         H         -1.4926      2.4102      0.1414
    14         H         -1.1904     -2.5548     -0.3659
    15         H         -3.5610      1.0458     -0.1324
    16         H         -3.4108     -1.4216     -0.3845
    17         H          3.8748     -0.7210      0.1447
    18         H          3.7620      1.1327      0.3341

  H: (PM3): J. J. P. STEWART, J. COMP. CHEM. 10, 209 (1989).
  C: (PM3): J. J. P. STEWART, J. COMP. CHEM. 10, 209 (1989).

           Empirical Formula: C10 H8  =    18 atoms



      MOLECULAR POINT GROUP   :   C1  


      RHF CALCULATION, NO. OF DOUBLY OCCUPIED LEVELS = 24


          Geometry optimization using EF

          DIAGONAL MATRIX USED AS START HESSIAN

 CYCLE:     1 TIME:   0.008 TIME LEFT:  2.00D  GRAD.:   246.329 HEAT:  98.93150
 CYCLE:     2 TIME:   0.008 TIME LEFT:  2.00D  GRAD.:   103.496 HEAT:  88.00407
 CYCLE:     3 TIME:   0.012 TIME LEFT:  2.00D  GRAD.:    77.471 HEAT:  86.09357
 CYCLE:     4 TIME:   0.008 TIME LEFT:  2.00D  GRAD.:    48.867 HEAT:  84.70347
 CYCLE:     5 TIME:   0.004 TIME LEFT:  2.00D  GRAD.:    61.135 HEAT:  84.53615
 CYCLE:     6 TIME:   0.008 TIME LEFT:  2.00D  GRAD.:    45.602 HEAT:  83.96256
 CYCLE:     7 TIME:   0.004 TIME LEFT:  2.00D  GRAD.:    47.655 HEAT:  83.62760
 CYCLE:     8 TIME:   0.008 TIME LEFT:  2.00D  GRAD.:    41.885 HEAT:  83.37389
 CYCLE:     9 TIME:   0.008 TIME LEFT:  2.00D  GRAD.:    32.308 HEAT:  82.95968
 CYCLE:    10 TIME:   0.008 TIME LEFT:  2.00D  GRAD.:    19.725 HEAT:  82.72519
 CYCLE:    11 TIME:   0.008 TIME LEFT:  2.00D  GRAD.:    20.489 HEAT:  82.63526
 CYCLE:    12 TIME:   0.004 TIME LEFT:  2.00D  GRAD.:    18.701 HEAT:  82.55741
 CYCLE:    13 TIME:   0.008 TIME LEFT:  2.00D  GRAD.:    18.129 HEAT:  82.54064
 CYCLE:    14 TIME:   0.008 TIME LEFT:  2.00D  GRAD.:    12.411 HEAT:  82.48637
 CYCLE:    15 TIME:   0.004 TIME LEFT:  2.00D  GRAD.:    11.429 HEAT:  82.48475
 CYCLE:    16 TIME:   0.008 TIME LEFT:  2.00D  GRAD.:     6.449 HEAT:  82.45392
 CYCLE:    17 TIME:   0.008 TIME LEFT:  2.00D  GRAD.:     3.863 HEAT:  82.44653
 CYCLE:    18 TIME:   0.008 TIME LEFT:  2.00D  GRAD.:     4.958 HEAT:  82.44623
 CYCLE:    19 TIME:   0.004 TIME LEFT:  2.00D  GRAD.:     3.297 HEAT:  82.44220
 CYCLE:    20 TIME:   0.008 TIME LEFT:  2.00D  GRAD.:     2.462 HEAT:  82.44051
 CYCLE:    21 TIME:   0.004 TIME LEFT:  2.00D  GRAD.:     1.270 HEAT:  82.43806
 CYCLE:    22 TIME:   0.008 TIME LEFT:  2.00D  GRAD.:     0.998 HEAT:  82.43690
 CYCLE:    23 TIME:   0.008 TIME LEFT:  2.00D  GRAD.:     0.895 HEAT:  82.43616
 CYCLE:    24 TIME:   0.004 TIME LEFT:  2.00D  GRAD.:     1.044 HEAT:  82.43599
 CYCLE:    25 TIME:   0.008 TIME LEFT:  2.00D  GRAD.:     0.561 HEAT:  82.43580
 CYCLE:    26 TIME:   0.008 TIME LEFT:  2.00D  GRAD.:     0.280 HEAT:  82.43566
 CYCLE:    27 TIME:   0.004 TIME LEFT:  2.00D  GRAD.:     0.176 HEAT:  82.43561
 CYCLE:    28 TIME:   0.008 TIME LEFT:  2.00D  GRAD.:     0.285 HEAT:  82.43557
 CYCLE:    29 TIME:   0.004 TIME LEFT:  2.00D  GRAD.:     0.183 HEAT:  82.43553
 CYCLE:    30 TIME:   0.008 TIME LEFT:  2.00D  GRAD.:     0.139 HEAT:  82.43551
 CYCLE:    31 TIME:   0.004 TIME LEFT:  2.00D  GRAD.:     0.144 HEAT:  82.43550
 CYCLE:    32 TIME:   0.008 TIME LEFT:  2.00D  GRAD.:     0.121 HEAT:  82.43548
 CYCLE:    33 TIME:   0.008 TIME LEFT:  2.00D  GRAD.:     0.082 HEAT:  82.43547
 CYCLE:    34 TIME:   0.004 TIME LEFT:  2.00D  GRAD.:     0.042 HEAT:  82.43547

     GRADIENT =  0.04241 IS LESS THAN CUTOFF =  0.05000



 -------------------------------------------------------------------------------
 pm3  precise nosym THREADS=1
 InChI=1S/C10H8/c1-8-6-9-4-2-3-5-10(9)7-8/h2-7H,1H2



     GEOMETRY OPTIMISED USING EIGENVECTOR FOLLOWING (EF).     
     SCF FIELD WAS ACHIEVED                                   


                              PM3 CALCULATION
                                                       MOPAC v23.1.2 MacOS
                                                       Tue Jun  3 16:33:36 2025




          FINAL HEAT OF FORMATION =         82.43547 KCAL/MOL =     344.90999 KJ/MOL


          COSMO AREA              =        170.82 SQUARE ANGSTROMS
          COSMO VOLUME            =        168.42 CUBIC ANGSTROMS

          GRADIENT NORM           =          0.04241          =       0.01000 PER ATOM
          IONIZATION POTENTIAL    =          8.160942 EV
          HOMO LUMO ENERGIES (EV) =         -8.161 -1.282
          NO. OF FILLED LEVELS    =         24
          MOLECULAR WEIGHT        =        128.1732         POINT GROUP:  C1  

          MOLECULAR DIMENSIONS (Angstroms)

            Atom       Atom       Distance
            H    17    H    15     7.76515
            H    14    H    11     5.35502
            H    17    C     2     0.00120


          SCF CALCULATIONS        =         39

          WALL-CLOCK TIME         =      0.242 SECONDS
          COMPUTATION TIME        =      0.150 SECONDS




   ATOM   CHEMICAL          X               Y               Z
  NUMBER   SYMBOL      (ANGSTROMS)     (ANGSTROMS)     (ANGSTROMS)

     1       C         -0.21283608  *   0.72363517  *   0.04217534  *
     2       C         -0.12366750  *  -0.74183104  *  -0.10753731  *
     3       C          1.99476297  *   0.10744048  *   0.11506157  *
     4       C          1.04360140  *   1.23455380  *   0.17481908  *
     5       C          1.18654302  *  -1.11444744  *  -0.06506159  *
     6       C         -1.50721659  *   1.34933982  *   0.02792590  *
     7       C         -1.33371467  *  -1.50246327  *  -0.26358691  *
     8       C         -2.60786973  *   0.57955183  *  -0.12198388  *
     9       C         -2.52051320  *  -0.85596547  *  -0.26878945  *
    10       C          3.32263347  *   0.17913962  *   0.20618283  *
    11       H          1.33903904  *   2.27320125  *   0.30329296  *
    12       H          1.60602341  *  -2.11458601  *  -0.14478517  *
    13       H         -1.56555084  *   2.43641647  *   0.13956584  *
    14       H         -1.25990720  *  -2.58870073  *  -0.37420009  *
    15       H         -3.60664195  *   1.02833248  *  -0.13636507  *
    16       H         -3.45831440  *  -1.40917350  *  -0.38571577  *
    17       H          3.95815554  *  -0.70014412  *   0.15308607  *
    18       H          3.84678758  *   1.12120930  *   0.33893907  *

                             CARTESIAN COORDINATES

   1    C       -0.212836078     0.723635171     0.042175338
   2    C       -0.123667504    -0.741831043    -0.107537309
   3    C        1.994762974     0.107440478     0.115061570
   4    C        1.043601397     1.234553803     0.174819076
   5    C        1.186543017    -1.114447444    -0.065061590
   6    C       -1.507216585     1.349339816     0.027925903
   7    C       -1.333714669    -1.502463273    -0.263586905
   8    C       -2.607869727     0.579551827    -0.121983884
   9    C       -2.520513198    -0.855965469    -0.268789455
  10    C        3.322633471     0.179139619     0.206182827
  11    H        1.339039044     2.273201253     0.303292960
  12    H        1.606023414    -2.114586013    -0.144785173
  13    H       -1.565550836     2.436416472     0.139565840
  14    H       -1.259907204    -2.588700733    -0.374200089
  15    H       -3.606641954     1.028332483    -0.136365073
  16    H       -3.458314403    -1.409173499    -0.385715766
  17    H        3.958155537    -0.700144115     0.153086069
  18    H        3.846787579     1.121209301     0.338939073


           Empirical Formula: C10 H8  =    18 atoms



      MOLECULAR POINT GROUP   :   C1  


                  EIGENVALUES  
 -40.88583 -35.54006 -30.53319 -29.83999 -25.80323 -23.94863 -20.50186 -19.91588
 -19.03379 -17.51118 -16.37285 -16.27869 -14.86094 -14.44753 -14.40038 -13.94583
 -13.78524 -13.16515 -12.42708 -11.91816 -11.83647 -10.55746  -9.59612  -8.16094
  -1.28203   0.80315   1.15854   2.27931   2.98751   3.02066   3.14473   3.41426
   3.42566   3.54040   3.56913   3.80018   4.10350   4.20816   4.35396   4.65009
   4.80357   5.18191   5.47238   5.48490   5.70046   6.18480   6.38373   6.49393


              NET ATOMIC CHARGES AND DIPOLE CONTRIBUTIONS

  ATOM NO.   TYPE          CHARGE      No. of ELECS.   s-Pop       p-Pop       
    1          C          -0.056812        4.0568     1.17611     2.88070
    2          C          -0.056797        4.0568     1.17611     2.88069
    3          C          -0.077996        4.0780     1.18457     2.89343
    4          C          -0.115615        4.1156     1.18835     2.92726
    5          C          -0.115582        4.1156     1.18834     2.92724
    6          C          -0.071200        4.0712     1.17163     2.89957
    7          C          -0.071202        4.0712     1.17163     2.89958
    8          C          -0.101343        4.1013     1.18061     2.92073
    9          C          -0.101345        4.1013     1.18061     2.92073
   10          C          -0.038613        4.0386     1.17906     2.85955
   11          H           0.119893        0.8801     0.88011
   12          H           0.119891        0.8801     0.88011
   13          H           0.103363        0.8966     0.89664
   14          H           0.103362        0.8966     0.89664
   15          H           0.099370        0.9006     0.90063
   16          H           0.099366        0.9006     0.90063
   17          H           0.080639        0.9194     0.91936
   18          H           0.080620        0.9194     0.91938
 DIPOLE           X         Y         Z       TOTAL
 POINT-CHG.     0.902     0.049     0.062     0.905
 HYBRID         0.096     0.005     0.007     0.097
 SUM            0.998     0.054     0.069     1.002


          ATOMIC ORBITAL ELECTRON POPULATIONS

     Atom    s        px        py        pz   
    1  C   1.17611   0.93881   0.93806   1.00383
    2  C   1.17611   0.93937   0.93756   1.00376
    3  C   1.18457   0.94502   0.94531   1.00310
    4  C   1.18835   0.93141   0.96123   1.03462
    5  C   1.18834   0.93608   0.95708   1.03409
    6  C   1.17163   0.92411   0.97645   0.99901
    7  C   1.17163   0.92644   0.97439   0.99875
    8  C   1.18061   0.97474   0.94292   1.00306
    9  C   1.18061   0.97071   0.94650   1.00352
   10  C   1.17906   0.94569   1.00455   0.90931
   11  H   0.88011
   12  H   0.88011
   13  H   0.89664
   14  H   0.89664
   15  H   0.90063
   16  H   0.90063
   17  H   0.91936
   18  H   0.91938
 *******************************************************************************
 **                                                                           **
 **                              MOPAC v23.1.2                                **
 **                                                                           **
 *******************************************************************************
 **          Digital Object Identifier (DOI): 10.5281/zenodo.6511958          **
 **    Visit the DOI location for information on how to cite this program.    **
 *******************************************************************************

                              PM3 CALCULATION RESULTS

 *******************************************************************************
 *  CALCULATION DONE: (MAX THREADS = 1)              Tue Jun  3 16:33:36 2025  *
 *  PM3        - The PM3 Hamiltonian to be used
 *  OLDGEO     - PREVIOUS GEOMETRY TO BE USED
 *  PRECISE    - TIGHTER CRITERIA TO BE USED
 *  NOSYM      - POINT-GROUP SYMMETRY SET TO C1
 *  THREADS=1  - MULTI-THREADING NOT USED
 *  T=         - A TIME OF 172800.0 SECONDS REQUESTED
 *  DUMP=N     - RESTART FILE WRITTEN EVERY 7200.0 SECONDS REQUESTED
 *  THERMO     - THERMODYNAMIC QUANTITIES TO BE CALCULATED
 *******************************************************************************
oldgeo thermo nosym precise THREADS=1  pm3
 InChI=1S/C10H8/c1-8-6-9-4-2-3-5-10(9)7-8/h2-7H,1H2

   ATOM   CHEMICAL          X               Y               Z
  NUMBER   SYMBOL      (ANGSTROMS)     (ANGSTROMS)     (ANGSTROMS)

     1       C         -0.21283608  *   0.72363517  *   0.04217534  *
     2       C         -0.12366750  *  -0.74183104  *  -0.10753731  *
     3       C          1.99476297  *   0.10744048  *   0.11506157  *
     4       C          1.04360140  *   1.23455380  *   0.17481908  *
     5       C          1.18654302  *  -1.11444744  *  -0.06506159  *
     6       C         -1.50721659  *   1.34933982  *   0.02792590  *
     7       C         -1.33371467  *  -1.50246327  *  -0.26358691  *
     8       C         -2.60786973  *   0.57955183  *  -0.12198388  *
     9       C         -2.52051320  *  -0.85596547  *  -0.26878945  *
    10       C          3.32263347  *   0.17913962  *   0.20618283  *
    11       H          1.33903904  *   2.27320125  *   0.30329296  *
    12       H          1.60602341  *  -2.11458601  *  -0.14478517  *
    13       H         -1.56555084  *   2.43641647  *   0.13956584  *
    14       H         -1.25990720  *  -2.58870073  *  -0.37420009  *
    15       H         -3.60664195  *   1.02833248  *  -0.13636507  *
    16       H         -3.45831440  *  -1.40917350  *  -0.38571577  *
    17       H          3.95815554  *  -0.70014412  *   0.15308607  *
    18       H          3.84678758  *   1.12120930  *   0.33893907  *



          CARTESIAN COORDINATES 

    NO.       ATOM           X           Y           Z

     1         C         -0.2128      0.7236      0.0422
     2         C         -0.1237     -0.7418     -0.1075
     3         C          1.9948      0.1074      0.1151
     4         C          1.0436      1.2346      0.1748
     5         C          1.1865     -1.1144     -0.0651
     6         C         -1.5072      1.3493      0.0279
     7         C         -1.3337     -1.5025     -0.2636
     8         C         -2.6079      0.5796     -0.1220
     9         C         -2.5205     -0.8560     -0.2688
    10         C          3.3226      0.1791      0.2062
    11         H          1.3390      2.2732      0.3033
    12         H          1.6060     -2.1146     -0.1448
    13         H         -1.5656      2.4364      0.1396
    14         H         -1.2599     -2.5887     -0.3742
    15         H         -3.6066      1.0283     -0.1364
    16         H         -3.4583     -1.4092     -0.3857
    17         H          3.9582     -0.7001      0.1531
    18         H          3.8468      1.1212      0.3389

  H: (PM3): J. J. P. STEWART, J. COMP. CHEM. 10, 209 (1989).
  C: (PM3): J. J. P. STEWART, J. COMP. CHEM. 10, 209 (1989).

           Empirical Formula: C10 H8  =    18 atoms



      MOLECULAR POINT GROUP   :   C1  


      RHF CALCULATION, NO. OF DOUBLY OCCUPIED LEVELS = 24



          HEAT OF FORMATION =      82.435466 KCALS/MOLE


          CARTESIAN COORDINATE DERIVATIVES

   NUMBER  ATOM         X            Y            Z

     1       C      0.006382    -0.001296    -0.000985
     2       C      0.000273    -0.015698    -0.011383
     3       C     -0.003250    -0.002003    -0.000969
     4       C      0.003536     0.013075    -0.003104
     5       C     -0.006540     0.006690     0.009043
     6       C     -0.005033     0.006129    -0.008923
     7       C      0.002734     0.002815    -0.005575
     8       C     -0.001446    -0.011984     0.007346
     9       C     -0.003536     0.004381    -0.000790
    10       C      0.001249     0.009696     0.001644
    11       H     -0.001111     0.002133    -0.001193
    12       H      0.009762     0.002271    -0.001055
    13       H      0.002499     0.002687     0.004352
    14       H     -0.005107    -0.003640     0.001653
    15       H      0.003736     0.001073     0.002936
    16       H      0.002069    -0.004197     0.002851
    17       H     -0.008414     0.001623     0.002628
    18       H      0.002198    -0.013755     0.001525



          GRADIENT NORM =   0.04278

          MOLECULAR WEIGHT =  128.17



          ROTATIONAL CONSTANTS IN CM(-1)

          A =    0.12372948   B =    0.03477888   C =    0.02714792



           PRINCIPAL MOMENTS OF INERTIA IN UNITS OF 10**(-40)*GRAM-CM**2

          A =      226.2416   B =      804.8780   C =     1031.1195


          ORIENTATION OF MOLECULE IN FORCE CALCULATION

    NO.       ATOM         X         Y         Z

     1          C      -0.7378   -0.1044   -0.0003
     2          C       0.7379   -0.1044   -0.0003
     3          C       0.0000    2.0668   -0.0003
     4          C      -1.1827    1.1838   -0.0005
     5          C       1.1828    1.1838   -0.0003
     6          C      -1.4359   -1.3613    0.0002
     7          C       1.4360   -1.3613   -0.0000
     8          C      -0.7228   -2.5093    0.0007
     9          C       0.7228   -2.5093    0.0006
    10          C      -0.0002    3.3997    0.0001
    11          H      -2.2093    1.5426   -0.0005
    12          H       2.2094    1.5426   -0.0003
    13          H      -2.5303   -1.3534    0.0002
    14          H       2.5303   -1.3536   -0.0001
    15          H      -1.2274   -3.4812    0.0013
    16          H       1.2274   -3.4812    0.0010
    17          H       0.9167    3.9821    0.0004
    18          H      -0.9175    3.9815    0.0002


    FIRST DERIVATIVES WILL BE USED IN THE CALCULATION OF SECOND DERIVATIVES

          ESTIMATED TIME TO COMPLETE CALCULATION =        1.69 SECONDS

    FOR POINT-GROUP C1   THERE ARE   1 UNIQUE SYMMETRY FUNCTIONS.

 STEP:   1 TIME =     0.02 SECS, INTEGRAL =      0.02 TIME LEFT: 172799.97
 STEP:   2 TIME =     0.02 SECS, INTEGRAL =      0.04 TIME LEFT: 172799.96
 STEP:   3 TIME =     0.02 SECS, INTEGRAL =      0.05 TIME LEFT: 172799.94
 STEP:   4 TIME =     0.02 SECS, INTEGRAL =      0.07 TIME LEFT: 172799.92
 STEP:   5 TIME =     0.02 SECS, INTEGRAL =      0.09 TIME LEFT: 172799.90
 STEP:   6 TIME =     0.02 SECS, INTEGRAL =      0.11 TIME LEFT: 172799.88
 STEP:   7 TIME =     0.02 SECS, INTEGRAL =      0.13 TIME LEFT: 172799.86
 STEP:   8 TIME =     0.02 SECS, INTEGRAL =      0.15 TIME LEFT: 172799.84
 STEP:   9 TIME =     0.02 SECS, INTEGRAL =      0.17 TIME LEFT: 172799.82
 STEP:  10 TIME =     0.02 SECS, INTEGRAL =      0.19 TIME LEFT: 172799.80
 STEP:  11 TIME =     0.02 SECS, INTEGRAL =      0.21 TIME LEFT: 172799.79
 STEP:  12 TIME =     0.02 SECS, INTEGRAL =      0.23 TIME LEFT: 172799.76
 STEP:  13 TIME =     0.02 SECS, INTEGRAL =      0.25 TIME LEFT: 172799.74
 STEP:  14 TIME =     0.02 SECS, INTEGRAL =      0.27 TIME LEFT: 172799.72
 STEP:  15 TIME =     0.02 SECS, INTEGRAL =      0.29 TIME LEFT: 172799.70
 STEP:  16 TIME =     0.02 SECS, INTEGRAL =      0.31 TIME LEFT: 172799.68
 STEP:  17 TIME =     0.02 SECS, INTEGRAL =      0.33 TIME LEFT: 172799.66
 STEP:  18 TIME =     0.02 SECS, INTEGRAL =      0.35 TIME LEFT: 172799.64
 STEP:  19 TIME =     0.02 SECS, INTEGRAL =      0.36 TIME LEFT: 172799.63
 STEP:  20 TIME =     0.02 SECS, INTEGRAL =      0.38 TIME LEFT: 172799.61
 STEP:  21 TIME =     0.02 SECS, INTEGRAL =      0.40 TIME LEFT: 172799.59
 STEP:  22 TIME =     0.02 SECS, INTEGRAL =      0.42 TIME LEFT: 172799.57
 STEP:  23 TIME =     0.02 SECS, INTEGRAL =      0.44 TIME LEFT: 172799.55
 STEP:  24 TIME =     0.02 SECS, INTEGRAL =      0.46 TIME LEFT: 172799.54
 STEP:  25 TIME =     0.02 SECS, INTEGRAL =      0.48 TIME LEFT: 172799.52
 STEP:  26 TIME =     0.02 SECS, INTEGRAL =      0.50 TIME LEFT: 172799.50
 STEP:  27 TIME =     0.02 SECS, INTEGRAL =      0.52 TIME LEFT: 172799.48
 STEP:  28 TIME =     0.02 SECS, INTEGRAL =      0.54 TIME LEFT: 172799.46
 STEP:  29 TIME =     0.02 SECS, INTEGRAL =      0.55 TIME LEFT: 172799.44
 STEP:  30 TIME =     0.02 SECS, INTEGRAL =      0.57 TIME LEFT: 172799.42
 STEP:  31 TIME =     0.02 SECS, INTEGRAL =      0.59 TIME LEFT: 172799.40
 STEP:  32 TIME =     0.02 SECS, INTEGRAL =      0.61 TIME LEFT: 172799.39
 STEP:  33 TIME =     0.02 SECS, INTEGRAL =      0.62 TIME LEFT: 172799.37
 STEP:  34 TIME =     0.02 SECS, INTEGRAL =      0.64 TIME LEFT: 172799.35
 STEP:  35 TIME =     0.02 SECS, INTEGRAL =      0.66 TIME LEFT: 172799.34
 STEP:  36 TIME =     0.02 SECS, INTEGRAL =      0.68 TIME LEFT: 172799.32
 STEP:  37 TIME =     0.02 SECS, INTEGRAL =      0.69 TIME LEFT: 172799.30
 STEP:  38 TIME =     0.02 SECS, INTEGRAL =      0.71 TIME LEFT: 172799.29
 STEP:  39 TIME =     0.02 SECS, INTEGRAL =      0.73 TIME LEFT: 172799.27
 STEP:  40 TIME =     0.02 SECS, INTEGRAL =      0.74 TIME LEFT: 172799.25
 STEP:  41 TIME =     0.02 SECS, INTEGRAL =      0.76 TIME LEFT: 172799.23
 STEP:  42 TIME =     0.02 SECS, INTEGRAL =      0.78 TIME LEFT: 172799.21
 STEP:  43 TIME =     0.02 SECS, INTEGRAL =      0.80 TIME LEFT: 172799.19
 STEP:  44 TIME =     0.02 SECS, INTEGRAL =      0.82 TIME LEFT: 172799.18
 STEP:  45 TIME =     0.02 SECS, INTEGRAL =      0.84 TIME LEFT: 172799.16
 STEP:  46 TIME =     0.02 SECS, INTEGRAL =      0.86 TIME LEFT: 172799.14
 STEP:  47 TIME =     0.02 SECS, INTEGRAL =      0.87 TIME LEFT: 172799.12
 STEP:  48 TIME =     0.02 SECS, INTEGRAL =      0.89 TIME LEFT: 172799.10
 STEP:  49 TIME =     0.02 SECS, INTEGRAL =      0.91 TIME LEFT: 172799.09
 STEP:  50 TIME =     0.02 SECS, INTEGRAL =      0.92 TIME LEFT: 172799.07
 STEP:  51 TIME =     0.02 SECS, INTEGRAL =      0.94 TIME LEFT: 172799.05
 STEP:  52 TIME =     0.02 SECS, INTEGRAL =      0.96 TIME LEFT: 172799.03
 STEP:  53 TIME =     0.02 SECS, INTEGRAL =      0.98 TIME LEFT: 172799.01
 STEP:  54 TIME =     0.02 SECS, INTEGRAL =      1.00 TIME LEFT: 172798.99

(To convert to Hartree/Bohr^2, multiply by (10^(-21) x N x a0^2)/(4.184 x 627.51) =  0.0642)


           FORCE MATRIX IN MILLIDYNES/ANGSTROM


                  C  1       C  2       C  3       C  4       C  5       C  6
 ------------------------------------------------------------------------------
     C    1  19.299268
     C    2   4.801529  19.298753
     C    3   1.647854   1.647835  19.300294
     C    4   8.714141   1.447889   4.659949  17.753814
     C    5   1.447862   8.713587   4.659732   1.119463  17.752950
     C    6   5.874310   0.713603   0.187192   1.025830   0.156771  18.103149
     C    7   0.713663   5.874328   0.187212   0.156771   1.025754   0.423398
     C    8   1.391193   0.403656   0.125364   0.317545   0.207427   9.398605
     C    9   0.403585   1.391128   0.125469   0.207474   0.317580   1.324249
     C   10   0.137045   0.137063  10.425059   0.882256   0.881912   0.053945
     H   11   0.451048   0.087485   0.415588   5.085012   0.038125   0.046727
     H   12   0.087486   0.451044   0.415574   0.038128   5.084784   0.006869
     H   13   0.442925   0.048241   0.006857   0.013353   0.007592   4.868193
     H   14   0.048241   0.442924   0.006854   0.007593   0.013350   0.011082
     H   15   0.121761   0.004606   0.010102   0.007762   0.002042   0.438109
     H   16   0.004608   0.121773   0.010105   0.002043   0.007763   0.051119
     H   17   0.023088   0.020139   0.473869   0.133684   0.097529   0.011998
     H   18   0.020140   0.023084   0.473859   0.097578   0.133663   0.006838


                  C  7       C  8       C  9       C 10       H 11       H 12
 ------------------------------------------------------------------------------
     C    7  18.103243
     C    8   1.324375  17.833102
     C    9   9.398776   5.505835  17.833480
     C   10   0.053948   0.034828   0.034855  17.797567
     H   11   0.006869   0.004953   0.005582   0.018267   5.487412
     H   12   0.046725   0.005582   0.004955   0.018247   0.011581   5.487165
     H   13   0.011082   0.443483   0.120257   0.001221   0.005785   0.003374
     H   14   4.868283   0.120253   0.443483   0.001219   0.003374   0.005785
     H   15   0.051120   4.851105   0.434680   0.001185   0.002934   0.000639
     H   16   0.438104   0.434672   4.850798   0.001186   0.000639   0.002934
     H   17   0.006837   0.004328   0.004054   5.100647   0.003539   0.009791
     H   18   0.011996   0.004050   0.004326   5.100468   0.009800   0.003542


                  H 13       H 14       H 15       H 16       H 17       H 18
 ------------------------------------------------------------------------------
     H   13   5.238160
     H   14   0.010478   5.238247
     H   15   0.060775   0.007192   5.212820
     H   16   0.007192   0.060791   0.033135   5.212514
     H   17   0.000340   0.000448   0.001097   0.000543   5.452474
     H   18   0.000449   0.000340   0.000543   0.001097   0.398915   5.452260


          HEAT OF FORMATION =      82.435466 KCALS/MOLE

          ZERO POINT ENERGY      91.286 KCAL/MOL


           NORMAL COORDINATE ANALYSIS (Total motion = 1 Angstrom)


   Root No.       1         2         3         4         5         6         7         8

                 1 A       2 A       3 A       4 A       5 A       6 A       7 A       8 A   

                 110.0     191.4     226.4     275.2     432.7     456.2     466.4     515.0
  
           1    0.0000   -0.0000   -0.0000   -0.0377   -0.0000    0.0002   -0.0487   -0.0047
           2   -0.0000    0.0000   -0.0000   -0.0011    0.0000   -0.0001    0.0162   -0.0121
           3   -0.0446    0.0165   -0.0378   -0.0000    0.0722   -0.0292   -0.0001    0.0001
           4    0.0000   -0.0000   -0.0000   -0.0377   -0.0000    0.0002   -0.0487    0.0047
           5   -0.0000    0.0000   -0.0000    0.0011    0.0000    0.0001   -0.0162   -0.0121
           6   -0.0446   -0.0165   -0.0378    0.0000    0.0722    0.0292    0.0001    0.0000
           7    0.0000   -0.0000   -0.0000   -0.0252    0.0000   -0.0002    0.0522    0.0000
           8   -0.0000    0.0000   -0.0000   -0.0000    0.0000   -0.0000    0.0000   -0.0646
           9   -0.0143    0.0000    0.0435   -0.0000   -0.0180   -0.0000   -0.0000   -0.0000
          10    0.0000   -0.0000   -0.0000   -0.0330    0.0000   -0.0000    0.0137   -0.0147
          11   -0.0000    0.0000   -0.0000    0.0050    0.0000   -0.0001    0.0397   -0.0273
          12   -0.0449    0.0596    0.0392   -0.0001   -0.0106    0.0198    0.0001    0.0000
          13    0.0000   -0.0000   -0.0000   -0.0330    0.0000   -0.0000    0.0137    0.0147
          14   -0.0000   -0.0000   -0.0000   -0.0050    0.0000    0.0001   -0.0397   -0.0273
          15   -0.0449   -0.0595    0.0393    0.0000   -0.0106   -0.0198   -0.0001    0.0000
          16   -0.0000   -0.0000   -0.0000   -0.0008    0.0000    0.0000   -0.0075   -0.0583
          17    0.0000   -0.0000   -0.0000   -0.0248   -0.0000    0.0000   -0.0122    0.0347
          18   -0.0102   -0.0361   -0.0430    0.0000   -0.0504   -0.0403   -0.0001   -0.0000
          19    0.0000    0.0000   -0.0000   -0.0008   -0.0000    0.0000   -0.0075    0.0583
          20    0.0000    0.0000   -0.0000    0.0248   -0.0000   -0.0000    0.0122    0.0348
          21   -0.0102    0.0361   -0.0431    0.0000   -0.0504    0.0403    0.0001   -0.0000
          22    0.0000   -0.0000    0.0000    0.0285    0.0000   -0.0001    0.0265   -0.0036
          23    0.0000   -0.0000    0.0000   -0.0090   -0.0000    0.0000    0.0039    0.0749
          24    0.0481   -0.0390    0.0331   -0.0000    0.0216    0.0490    0.0002   -0.0000
          25    0.0000    0.0000    0.0000    0.0285    0.0000   -0.0001    0.0265    0.0036
          26    0.0000    0.0000    0.0000    0.0090   -0.0000   -0.0000   -0.0039    0.0749
          27    0.0481    0.0391    0.0330   -0.0000    0.0216   -0.0490   -0.0002   -0.0000
          28   -0.0000    0.0000    0.0000    0.0840    0.0000    0.0001   -0.0188    0.0000
          29   -0.0000    0.0000    0.0000    0.0000    0.0000   -0.0000   -0.0000   -0.0748
          30    0.0907   -0.0000   -0.0284    0.0000    0.0032    0.0000   -0.0000   -0.0000
          31    0.0000   -0.0000   -0.0000   -0.0307    0.0000   -0.0001    0.0370   -0.0128
          32   -0.0000    0.0000    0.0000    0.0109    0.0000   -0.0003    0.1076   -0.0228
          33   -0.0479    0.1092    0.0857   -0.0001   -0.0983    0.0531    0.0002    0.0000
          34    0.0000   -0.0000   -0.0000   -0.0307    0.0000   -0.0001    0.0370    0.0128
          35   -0.0000   -0.0000   -0.0000   -0.0109    0.0000    0.0003   -0.1076   -0.0228
          36   -0.0479   -0.1090    0.0859    0.0001   -0.0983   -0.0531   -0.0002    0.0000
          37   -0.0000   -0.0000   -0.0000   -0.0010   -0.0000    0.0000   -0.0079   -0.0575
          38    0.0000   -0.0000   -0.0000   -0.0609   -0.0001    0.0002   -0.0623    0.0406
          39   -0.0217   -0.0826   -0.0853    0.0000   -0.2137   -0.0615   -0.0002   -0.0001
          40   -0.0000    0.0000   -0.0000   -0.0010   -0.0000    0.0000   -0.0079    0.0575
          41   -0.0000    0.0000   -0.0000    0.0609   -0.0001   -0.0002    0.0623    0.0406
          42   -0.0217    0.0825   -0.0855    0.0000   -0.2138    0.0614    0.0002   -0.0001
          43    0.0000   -0.0000    0.0000    0.0473    0.0000   -0.0001    0.0390    0.0305
          44    0.0001   -0.0001    0.0000   -0.0191   -0.0000    0.0001   -0.0032    0.0576
          45    0.0914   -0.0961    0.0758    0.0000   -0.0066    0.1833    0.0006   -0.0001
          46    0.0000    0.0000    0.0000    0.0473    0.0000   -0.0001    0.0390   -0.0305
          47    0.0000    0.0000    0.0000    0.0191   -0.0000   -0.0001    0.0032    0.0576
          48    0.0914    0.0962    0.0756   -0.0000   -0.0065   -0.1833   -0.0006   -0.0000
          49   -0.0000    0.0001    0.0000    0.1465   -0.0000    0.0003   -0.0755    0.0032
          50   -0.0001   -0.0000    0.0000   -0.0959    0.0000   -0.0003    0.0861   -0.0817
          51    0.1387   -0.0610   -0.0638    0.0000    0.0160   -0.0637   -0.0002   -0.0000
          52   -0.0000    0.0000    0.0000    0.1464   -0.0000    0.0002   -0.0754   -0.0032
          53   -0.0001    0.0000    0.0000    0.0960    0.0000    0.0003   -0.0862   -0.0817
          54    0.1387    0.0610   -0.0639   -0.0000    0.0160    0.0638    0.0002   -0.0000


   Root No.       9        10        11        12        13        14        15        16

                 9 A      10 A      11 A      12 A      13 A      14 A      15 A      16 A   

                 584.9     585.3     613.5     687.9     700.0     763.2     832.6     880.6
  
           1    0.0032    0.0000    0.0000   -0.0040    0.0000    0.0000   -0.0000    0.0035
           2    0.0473    0.0001   -0.0000   -0.0403    0.0000    0.0000   -0.0000    0.0293
           3   -0.0000   -0.0011    0.0068    0.0000    0.0750    0.0172    0.0015   -0.0000
           4    0.0032    0.0000    0.0000    0.0040    0.0000    0.0000    0.0000    0.0035
           5   -0.0473   -0.0001    0.0000   -0.0403   -0.0000    0.0000    0.0000   -0.0293
           6    0.0000   -0.0011   -0.0068   -0.0000   -0.0750    0.0173   -0.0015    0.0000
           7   -0.0357   -0.0001    0.0000   -0.0000   -0.0000    0.0000    0.0000   -0.0030
           8   -0.0000   -0.0000    0.0000    0.0555   -0.0000   -0.0000   -0.0000    0.0000
           9   -0.0003    0.1238   -0.0000   -0.0001   -0.0000   -0.0170   -0.0000   -0.0000
          10   -0.0412   -0.0001    0.0000    0.0423   -0.0000   -0.0000   -0.0000   -0.0289
          11    0.0328    0.0001   -0.0000   -0.0185    0.0000    0.0000   -0.0000    0.0341
          12    0.0001   -0.0339    0.0102    0.0000    0.0043    0.0105    0.0263    0.0000
          13   -0.0412   -0.0001    0.0000   -0.0423    0.0000    0.0000    0.0000   -0.0289
          14   -0.0328   -0.0001    0.0000   -0.0185   -0.0000    0.0000    0.0000   -0.0341
          15    0.0001   -0.0339   -0.0102    0.0000   -0.0043    0.0105   -0.0262    0.0000
          16    0.0320    0.0000   -0.0000   -0.0673    0.0000    0.0000   -0.0000    0.0631
          17    0.0616    0.0001   -0.0000   -0.0212    0.0000   -0.0000   -0.0000   -0.0044
          18   -0.0000    0.0028   -0.0081    0.0000   -0.0090   -0.0272   -0.0229   -0.0000
          19    0.0320    0.0001    0.0000    0.0673   -0.0000   -0.0000   -0.0000    0.0631
          20   -0.0616   -0.0001    0.0000   -0.0212    0.0000   -0.0000    0.0000    0.0044
          21   -0.0000    0.0028    0.0081   -0.0000    0.0090   -0.0272    0.0229   -0.0000
          22    0.0332    0.0001   -0.0000   -0.0067    0.0000    0.0000    0.0000   -0.0391
          23    0.0629    0.0002   -0.0000    0.0161    0.0000   -0.0000   -0.0000   -0.0653
          24   -0.0000   -0.0023    0.0074   -0.0000    0.0236   -0.0204   -0.0222    0.0000
          25    0.0332    0.0001   -0.0000    0.0067   -0.0000   -0.0000    0.0000   -0.0391
          26   -0.0629   -0.0001   -0.0000    0.0161   -0.0000   -0.0000   -0.0000    0.0653
          27    0.0000   -0.0023   -0.0074   -0.0000   -0.0236   -0.0204    0.0222   -0.0000
          28   -0.0117   -0.0000   -0.0000   -0.0000   -0.0000   -0.0000    0.0000    0.0077
          29   -0.0000    0.0000    0.0000    0.0732   -0.0000   -0.0000   -0.0000    0.0000
          30    0.0000   -0.0098    0.0000    0.0000   -0.0000   -0.0004   -0.0000   -0.0000
          31   -0.0485   -0.0001   -0.0000    0.0321   -0.0000    0.0000    0.0000   -0.0199
          32    0.0128    0.0000   -0.0000   -0.0475    0.0000    0.0000   -0.0000    0.0638
          33    0.0007   -0.2343    0.0948   -0.0000   -0.1832   -0.0373   -0.1333   -0.0000
          34   -0.0485   -0.0001    0.0000   -0.0321   -0.0000    0.0000   -0.0000   -0.0199
          35   -0.0128   -0.0000    0.0000   -0.0475    0.0000    0.0000    0.0000   -0.0638
          36    0.0006   -0.2344   -0.0947    0.0001    0.1832   -0.0373    0.1332   -0.0001
          37    0.0318    0.0000   -0.0000   -0.0674    0.0000    0.0000    0.0000    0.0644
          38    0.0503    0.0001   -0.0000   -0.0344   -0.0000    0.0001    0.0001    0.0546
          39   -0.0001    0.0418   -0.0327   -0.0000   -0.1611    0.1351    0.1670    0.0001
          40    0.0318    0.0001    0.0000    0.0674    0.0000    0.0000   -0.0000    0.0643
          41   -0.0503   -0.0001    0.0000   -0.0344    0.0000    0.0001   -0.0001   -0.0546
          42   -0.0002    0.0418    0.0326    0.0001    0.1612    0.1351   -0.1670   -0.0000
          43   -0.0298   -0.0000    0.0000    0.0402   -0.0000    0.0000    0.0000   -0.0313
          44    0.0956    0.0002    0.0000   -0.0091    0.0000    0.0001    0.0001   -0.0704
          45   -0.0001    0.0204    0.0261    0.0001    0.0388    0.2264    0.0880    0.0001
          46   -0.0298   -0.0001   -0.0000   -0.0401   -0.0000    0.0000   -0.0000   -0.0313
          47   -0.0956   -0.0002   -0.0000   -0.0091   -0.0000    0.0001   -0.0001    0.0704
          48    0.0000    0.0204   -0.0261    0.0000   -0.0387    0.2264   -0.0879   -0.0001
          49    0.0045    0.0000   -0.0000   -0.0065    0.0000    0.0000   -0.0000   -0.0238
          50   -0.0255    0.0000   -0.0001    0.0867   -0.0000   -0.0000   -0.0000    0.0473
          51    0.0003   -0.0963    0.3141    0.0001    0.0049    0.0172    0.0389    0.0000
          52    0.0045    0.0000    0.0000    0.0065    0.0000   -0.0000   -0.0000   -0.0237
          53    0.0255    0.0001    0.0001    0.0866   -0.0000   -0.0000   -0.0000   -0.0473
          54    0.0002   -0.0965   -0.3141    0.0001   -0.0049    0.0172   -0.0389    0.0000


   Root No.      17        18        19        20        21        22        23        24

                17 A      18 A      19 A      20 A      21 A      22 A      23 A      24 A   

                 902.5     903.4     907.1     932.1     971.6    1005.5    1019.3    1035.9
  
           1   -0.0356    0.0002    0.0000   -0.0037   -0.0000    0.0000   -0.0098    0.0000
           2    0.0163   -0.0001   -0.0000    0.0063    0.0000   -0.0000    0.0119   -0.0000
           3    0.0002    0.0436    0.0192   -0.0000    0.0141   -0.0202   -0.0000    0.0048
           4    0.0356   -0.0002   -0.0000   -0.0037    0.0000    0.0000    0.0098   -0.0000
           5    0.0163   -0.0001   -0.0000   -0.0063    0.0000    0.0000    0.0119   -0.0000
           6   -0.0002   -0.0434    0.0195    0.0000    0.0141    0.0202   -0.0000    0.0048
           7    0.0000   -0.0000   -0.0000   -0.0029   -0.0000   -0.0000   -0.0000   -0.0000
           8   -0.0083    0.0000    0.0000   -0.0000    0.0000   -0.0000    0.0117   -0.0000
           9    0.0000    0.0001    0.0321    0.0000    0.0041    0.0000    0.0000    0.0453
          10   -0.0216    0.0001    0.0000    0.0251   -0.0000    0.0000   -0.0633    0.0000
          11    0.0323   -0.0002   -0.0000    0.0167   -0.0000    0.0000   -0.0111    0.0000
          12   -0.0003   -0.0397   -0.0483    0.0000   -0.0123    0.0092   -0.0000   -0.0153
          13    0.0216   -0.0001   -0.0000    0.0251    0.0000   -0.0000    0.0633   -0.0000
          14    0.0323   -0.0002   -0.0000   -0.0167    0.0000    0.0000   -0.0111    0.0000
          15    0.0002    0.0393   -0.0486   -0.0000   -0.0123   -0.0092    0.0000   -0.0153
          16   -0.0345    0.0002    0.0000    0.0054   -0.0000   -0.0000   -0.0043    0.0000
          17   -0.0264    0.0001    0.0000   -0.0018   -0.0000    0.0000   -0.0069    0.0000
          18   -0.0001   -0.0177    0.0045    0.0000   -0.0410    0.0424    0.0000   -0.0024
          19    0.0345   -0.0002   -0.0000    0.0054   -0.0000   -0.0000    0.0043   -0.0000
          20   -0.0264    0.0001    0.0000    0.0018   -0.0000   -0.0000   -0.0069    0.0000
          21    0.0001    0.0178    0.0044   -0.0000   -0.0411   -0.0424    0.0000   -0.0024
          22   -0.0012    0.0000   -0.0000   -0.0040    0.0000   -0.0000    0.0058   -0.0000
          23   -0.0102    0.0000   -0.0000   -0.0092    0.0000   -0.0000    0.0047   -0.0000
          24   -0.0001   -0.0229   -0.0117    0.0000    0.0277   -0.0529   -0.0000    0.0010
          25    0.0012    0.0000   -0.0000   -0.0040    0.0000    0.0000   -0.0058    0.0000
          26   -0.0102    0.0001    0.0000    0.0092    0.0000    0.0000    0.0047   -0.0000
          27    0.0001    0.0228   -0.0118   -0.0000    0.0277    0.0529    0.0000    0.0010
          28   -0.0000   -0.0000    0.0000   -0.0703    0.0000   -0.0000   -0.0000    0.0000
          29   -0.0131    0.0001    0.0000   -0.0000    0.0000   -0.0000    0.0261    0.0000
          30    0.0000    0.0000    0.0097   -0.0000    0.0048   -0.0000   -0.0000   -0.0890
          31    0.0198   -0.0001   -0.0000    0.0485   -0.0000    0.0000   -0.1222    0.0000
          32    0.1579   -0.0008   -0.0001    0.0832   -0.0000    0.0000   -0.1728    0.0001
          33    0.0010    0.1461    0.2093   -0.0000    0.0543   -0.0279   -0.0000    0.0487
          34   -0.0198    0.0001    0.0000    0.0485    0.0000   -0.0000    0.1222   -0.0001
          35    0.1579   -0.0008   -0.0001   -0.0832    0.0000    0.0000   -0.1728    0.0001
          36   -0.0006   -0.1445    0.2105    0.0001    0.0543    0.0279    0.0000    0.0487
          37   -0.0364    0.0002    0.0000    0.0055    0.0000   -0.0000   -0.0050    0.0000
          38   -0.1211    0.0006    0.0001   -0.0048    0.0001   -0.0000   -0.0786    0.0000
          39    0.0003    0.0640   -0.0396    0.0000    0.1883   -0.1526    0.0000    0.0096
          40    0.0364   -0.0002   -0.0000    0.0055    0.0000    0.0000    0.0050   -0.0000
          41   -0.1211    0.0006    0.0001    0.0049    0.0000    0.0001   -0.0786    0.0000
          42   -0.0004   -0.0643   -0.0391   -0.0000    0.1883    0.1525    0.0000    0.0096
          43    0.0409   -0.0002   -0.0000    0.0036   -0.0000    0.0000    0.0364   -0.0000
          44   -0.0343    0.0002    0.0001   -0.0134   -0.0001    0.0001   -0.0117    0.0000
          45    0.0008    0.1248    0.0799   -0.0000   -0.1348    0.1885    0.0000   -0.0031
          46   -0.0409    0.0002    0.0000    0.0036   -0.0000   -0.0000   -0.0364    0.0000
          47   -0.0343    0.0001    0.0001    0.0134   -0.0001   -0.0001   -0.0116    0.0000
          48   -0.0006   -0.1241    0.0808    0.0000   -0.1349   -0.1885    0.0000   -0.0031
          49    0.0028    0.0000   -0.0000    0.1075    0.0000    0.0000   -0.0163   -0.0000
          50   -0.0185    0.0000    0.0001   -0.2722    0.0000   -0.0000    0.0550   -0.0001
          51   -0.0003   -0.0426   -0.0653   -0.0001   -0.0230    0.0063    0.0001    0.3480
          52   -0.0028    0.0000    0.0000    0.1074    0.0000    0.0000    0.0163   -0.0000
          53   -0.0185    0.0001    0.0000    0.2723    0.0000    0.0000    0.0550   -0.0001
          54    0.0002    0.0421   -0.0656    0.0001   -0.0230   -0.0063    0.0001    0.3479


   Root No.      25        26        27        28        29        30        31        32

                25 A      26 A      27 A      28 A      29 A      30 A      31 A      32 A   

                1068.3    1118.2    1148.9    1149.3    1193.6    1205.8    1331.4    1371.7
  
           1   -0.0053    0.0083   -0.0008   -0.0076   -0.0305   -0.0007    0.0020   -0.0375
           2    0.0052    0.0061    0.0211   -0.0022   -0.0066   -0.0194    0.0101   -0.0187
           3   -0.0000   -0.0000   -0.0000    0.0000    0.0000    0.0000   -0.0000    0.0000
           4    0.0053    0.0083   -0.0009    0.0076   -0.0305    0.0007   -0.0020   -0.0375
           5    0.0052   -0.0061   -0.0210   -0.0027    0.0066   -0.0194    0.0101    0.0187
           6   -0.0000    0.0000    0.0000    0.0000   -0.0000    0.0000   -0.0000   -0.0000
           7   -0.0000   -0.0044    0.0125    0.0001    0.0209    0.0000    0.0000    0.0990
           8    0.0018   -0.0000   -0.0000    0.0003    0.0000   -0.0047   -0.0325    0.0000
           9   -0.0000   -0.0000    0.0000   -0.0000    0.0000   -0.0000   -0.0000    0.0000
          10   -0.0259   -0.0047    0.0111    0.0046    0.0086   -0.0316    0.0219   -0.0329
          11    0.0046    0.0086    0.0247   -0.0033    0.0003   -0.0354    0.0182   -0.0601
          12   -0.0000   -0.0000    0.0000    0.0000   -0.0000   -0.0000    0.0000   -0.0000
          13    0.0259   -0.0047    0.0112   -0.0043    0.0085    0.0316   -0.0219   -0.0329
          14    0.0046   -0.0086   -0.0246   -0.0039   -0.0002   -0.0355    0.0182    0.0601
          15    0.0000   -0.0000   -0.0000   -0.0000   -0.0000    0.0000   -0.0000    0.0000
          16   -0.0314   -0.0219   -0.0028   -0.0009    0.0085    0.0155   -0.0048    0.0398
          17   -0.0022    0.0067    0.0053    0.0048   -0.0117    0.0014    0.0075    0.0378
          18   -0.0000   -0.0000   -0.0000   -0.0000    0.0000    0.0000   -0.0000   -0.0000
          19    0.0315   -0.0219   -0.0028    0.0008    0.0085   -0.0155    0.0048    0.0398
          20   -0.0022   -0.0067   -0.0054    0.0047    0.0117    0.0014    0.0075   -0.0378
          21   -0.0000    0.0000    0.0000   -0.0000   -0.0000    0.0000   -0.0000    0.0000
          22   -0.0416    0.0043   -0.0091   -0.0076    0.0142    0.0140   -0.0129   -0.0264
          23   -0.0318   -0.0004   -0.0045    0.0029   -0.0058    0.0141   -0.0082    0.0186
          24    0.0000    0.0000    0.0000    0.0000    0.0000   -0.0000    0.0000   -0.0000
          25    0.0415    0.0043   -0.0092    0.0074    0.0143   -0.0139    0.0129   -0.0264
          26   -0.0318    0.0004    0.0044    0.0030    0.0058    0.0141   -0.0082   -0.0186
          27    0.0000    0.0000   -0.0000   -0.0000   -0.0000   -0.0000    0.0000    0.0000
          28    0.0000    0.0002   -0.0078   -0.0001   -0.0056   -0.0000    0.0000   -0.0125
          29    0.0057   -0.0000   -0.0000    0.0009   -0.0000    0.0232   -0.0431    0.0000
          30    0.0000   -0.0000    0.0000    0.0000   -0.0000    0.0000   -0.0000   -0.0000
          31   -0.0263   -0.0033   -0.0719    0.0010   -0.0296    0.0392   -0.0015   -0.0107
          32    0.0089    0.0144   -0.2147   -0.0147   -0.1112    0.1713   -0.0553   -0.0022
          33   -0.0000   -0.0000   -0.0000    0.0000    0.0000   -0.0000    0.0000    0.0000
          34    0.0263   -0.0033   -0.0719   -0.0026   -0.0296   -0.0392    0.0015   -0.0107
          35    0.0089   -0.0144    0.2148   -0.0097    0.1110    0.1715   -0.0553    0.0022
          36   -0.0000    0.0000    0.0000    0.0000    0.0000    0.0000   -0.0000    0.0000
          37   -0.0337   -0.0214   -0.0036   -0.0032    0.0093    0.0173   -0.0059    0.0430
          38    0.2155    0.1849   -0.1012   -0.1568    0.1803    0.0329   -0.0304   -0.0414
          39   -0.0001   -0.0001    0.0000    0.0001   -0.0001   -0.0000    0.0000    0.0000
          40    0.0337   -0.0214   -0.0036    0.0031    0.0093   -0.0173    0.0059    0.0430
          41    0.2155   -0.1847    0.1038   -0.1547   -0.1802    0.0327   -0.0304    0.0414
          42   -0.0001    0.0001   -0.0000    0.0001    0.0001   -0.0000    0.0000   -0.0000
          43   -0.1166    0.2197    0.0633   -0.2674   -0.0879   -0.0112    0.0135    0.1093
          44    0.0053   -0.1112   -0.0430    0.1394    0.0480    0.0296   -0.0238   -0.0502
          45   -0.0000    0.0000    0.0000   -0.0000   -0.0000   -0.0000    0.0000    0.0000
          46    0.1165    0.2194    0.0588    0.2691   -0.0880    0.0111   -0.0134    0.1094
          47    0.0053    0.1111    0.0407    0.1405   -0.0481    0.0296   -0.0238    0.0503
          48   -0.0000   -0.0001   -0.0000   -0.0001    0.0000   -0.0000    0.0000   -0.0000
          49   -0.0055   -0.0019    0.0064   -0.0006    0.0078   -0.0590   -0.1664    0.0227
          50    0.0152    0.0029   -0.0216    0.0017   -0.0200    0.1261    0.2321   -0.0508
          51   -0.0000    0.0000   -0.0000    0.0000   -0.0000    0.0000    0.0001   -0.0000
          52    0.0055   -0.0019    0.0064    0.0007    0.0078    0.0590    0.1663    0.0227
          53    0.0152   -0.0029    0.0215    0.0022    0.0199    0.1261    0.2323    0.0508
          54   -0.0000   -0.0000    0.0000    0.0000    0.0000    0.0000    0.0001    0.0000


   Root No.      33        34        35        36        37        38        39        40

                33 A      34 A      35 A      36 A      37 A      38 A      39 A      40 A   

                1401.5    1403.8    1542.0    1746.7    1784.5    1785.0    1869.3    1909.7
  
           1   -0.0386    0.0564    0.1435   -0.0134   -0.0137    0.0063   -0.0038   -0.0111
           2   -0.0041    0.0132   -0.0045   -0.0665    0.0691    0.0999    0.1242   -0.0554
           3   -0.0000   -0.0000   -0.0000    0.0000   -0.0000   -0.0000   -0.0000    0.0000
           4    0.0388    0.0562   -0.1435    0.0134   -0.0136   -0.0065   -0.0038    0.0111
           5   -0.0042   -0.0132   -0.0045   -0.0666   -0.0706    0.0988   -0.1242   -0.0554
           6   -0.0000    0.0000   -0.0000    0.0000    0.0000   -0.0000    0.0000    0.0000
           7    0.0002    0.0969   -0.0000    0.0000   -0.0002   -0.0000   -0.0067   -0.0000
           8   -0.0043    0.0000   -0.0004   -0.0362   -0.0002    0.0348    0.0000    0.2326
           9    0.0000    0.0000    0.0000   -0.0000    0.0000    0.0000    0.0000    0.0001
          10    0.0099   -0.0643   -0.0297   -0.0127    0.0107    0.0192    0.0158   -0.0267
          11    0.0226    0.0117    0.0458    0.0379   -0.0608   -0.0808   -0.0682    0.0048
          12   -0.0000   -0.0000   -0.0000   -0.0000    0.0000    0.0000    0.0000   -0.0000
          13   -0.0102   -0.0642    0.0297    0.0127    0.0110   -0.0191    0.0158    0.0267
          14    0.0225   -0.0119    0.0458    0.0380    0.0620   -0.0798    0.0682    0.0048
          15   -0.0000   -0.0000    0.0000    0.0000   -0.0000    0.0000   -0.0000   -0.0000
          16    0.0030   -0.0372   -0.0383   -0.0301   -0.0402   -0.0419    0.0130    0.0062
          17   -0.0412   -0.0306   -0.0439    0.1058    0.0707    0.0198   -0.0927    0.0231
          18    0.0000    0.0000    0.0000   -0.0000   -0.0000   -0.0000    0.0000   -0.0000
          19   -0.0032   -0.0371    0.0382    0.0301   -0.0409    0.0413    0.0131   -0.0062
          20   -0.0411    0.0308   -0.0439    0.1058   -0.0711    0.0187    0.0927    0.0231
          21    0.0000   -0.0000    0.0000   -0.0000    0.0000   -0.0000   -0.0000   -0.0000
          22    0.0615    0.0187    0.0451    0.0733    0.0491    0.0635   -0.0326    0.0018
          23    0.0151   -0.0092    0.0022   -0.0690   -0.0801   -0.0454    0.0512   -0.0039
          24   -0.0000    0.0000   -0.0000    0.0000    0.0000    0.0000   -0.0000    0.0000
          25   -0.0614    0.0191   -0.0451   -0.0732    0.0502   -0.0627   -0.0326   -0.0018
          26    0.0152    0.0092    0.0022   -0.0689    0.0808   -0.0441   -0.0512   -0.0039
          27    0.0000   -0.0000    0.0000    0.0000   -0.0000    0.0000    0.0000    0.0000
          28   -0.0000   -0.0177    0.0000   -0.0000    0.0023    0.0000    0.0026    0.0000
          29   -0.0110    0.0000   -0.0150    0.0310    0.0002   -0.0230   -0.0000   -0.1687
          30   -0.0000   -0.0000   -0.0000    0.0000    0.0000   -0.0000    0.0000   -0.0000
          31   -0.0195   -0.0680   -0.0318   -0.0356    0.0439    0.0672    0.0553   -0.0315
          32   -0.0583    0.0141    0.0514   -0.0058    0.0047    0.0111    0.0022    0.0314
          33    0.0000   -0.0000   -0.0000   -0.0000   -0.0000    0.0000   -0.0000    0.0000
          34    0.0192   -0.0681    0.0318    0.0357    0.0449   -0.0665    0.0553    0.0315
          35   -0.0583   -0.0138    0.0514   -0.0058   -0.0049    0.0110   -0.0022    0.0314
          36   -0.0000   -0.0000    0.0000    0.0000    0.0000   -0.0000    0.0000    0.0000
          37    0.0050   -0.0402   -0.0389   -0.0405   -0.0546   -0.0537    0.0210    0.0071
          38    0.1377    0.0084   -0.0143   -0.0232   -0.0182    0.0048    0.0370   -0.0043
          39   -0.0001    0.0000    0.0000    0.0000    0.0000    0.0000   -0.0000    0.0000
          40   -0.0051   -0.0402    0.0388    0.0405   -0.0555    0.0528    0.0210   -0.0071
          41    0.1377   -0.0092   -0.0143   -0.0232    0.0181    0.0051   -0.0370   -0.0043
          42   -0.0000    0.0000   -0.0000   -0.0000   -0.0000   -0.0000    0.0000    0.0000
          43   -0.0515   -0.0710   -0.0496   -0.0122   -0.0775   -0.0250    0.0376    0.0035
          44    0.0795    0.0364    0.0539   -0.0380   -0.0295   -0.0092    0.0237   -0.0056
          45   -0.0000   -0.0000   -0.0000    0.0000    0.0000    0.0000   -0.0000    0.0000
          46    0.0513   -0.0713    0.0496    0.0122   -0.0779    0.0238    0.0376   -0.0035
          47    0.0794   -0.0369    0.0539   -0.0380    0.0296   -0.0087   -0.0237   -0.0056
          48   -0.0000    0.0000   -0.0000    0.0000   -0.0000    0.0000    0.0000    0.0000
          49   -0.0207    0.0200   -0.0141    0.0252    0.0015   -0.0186    0.0009   -0.1249
          50    0.0220   -0.0563    0.0068   -0.0005    0.0029   -0.0003    0.0043   -0.0284
          51    0.0000   -0.0000   -0.0000   -0.0000    0.0000    0.0000    0.0000   -0.0000
          52    0.0208    0.0198    0.0141   -0.0252    0.0013    0.0186    0.0010    0.1249
          53    0.0222    0.0562    0.0068   -0.0005   -0.0029   -0.0003   -0.0043   -0.0283
          54    0.0000    0.0000    0.0000   -0.0000   -0.0000    0.0000   -0.0000    0.0000


   Root No.      41        42        43        44        45        46        47        48

                41 A      42 A      43 A      44 A      45 A      46 A      47 A      48 A   

                3052.1    3058.6    3073.0    3078.8    3129.9    3139.1    3145.7    3149.8
  
           1    0.0002   -0.0000    0.0003    0.0001    0.0001    0.0001    0.0011   -0.0003
           2   -0.0002   -0.0002    0.0006   -0.0010    0.0000   -0.0001   -0.0026   -0.0032
           3    0.0000    0.0000   -0.0000    0.0000   -0.0000   -0.0000    0.0000    0.0000
           4    0.0002    0.0000    0.0003   -0.0001   -0.0001    0.0001    0.0011    0.0003
           5    0.0002   -0.0002   -0.0006   -0.0010    0.0000    0.0001    0.0027   -0.0032
           6   -0.0000    0.0000    0.0000    0.0000   -0.0000    0.0000    0.0000    0.0000
           7    0.0000   -0.0000    0.0000    0.0000   -0.0000   -0.0005    0.0006    0.0000
           8    0.0000    0.0000    0.0000   -0.0000   -0.0065    0.0000   -0.0000    0.0019
           9    0.0000   -0.0000    0.0000   -0.0000   -0.0000   -0.0000    0.0000    0.0000
          10   -0.0001    0.0001   -0.0001    0.0001   -0.0014   -0.0003   -0.0366   -0.0373
          11    0.0001    0.0000   -0.0001    0.0002    0.0005    0.0007    0.0149    0.0145
          12   -0.0000    0.0000   -0.0000    0.0000   -0.0000    0.0000   -0.0000   -0.0000
          13   -0.0001   -0.0001   -0.0001   -0.0001    0.0014   -0.0003   -0.0372    0.0367
          14   -0.0001    0.0000    0.0001    0.0002    0.0005   -0.0007   -0.0151    0.0143
          15    0.0000   -0.0000    0.0000   -0.0000   -0.0000   -0.0000   -0.0000    0.0000
          16   -0.0116    0.0177   -0.0283    0.0227   -0.0001   -0.0000    0.0001    0.0002
          17   -0.0009    0.0005    0.0020   -0.0020   -0.0000   -0.0000    0.0001   -0.0000
          18    0.0000   -0.0000    0.0000   -0.0000   -0.0000   -0.0000   -0.0000   -0.0000
          19   -0.0117   -0.0175   -0.0284   -0.0227    0.0001   -0.0000    0.0001   -0.0002
          20    0.0009    0.0005   -0.0020   -0.0020   -0.0000    0.0000   -0.0001   -0.0000
          21    0.0000    0.0000    0.0000    0.0000    0.0000    0.0000   -0.0000    0.0000
          22    0.0120   -0.0101   -0.0038    0.0075   -0.0000    0.0000   -0.0000   -0.0002
          23    0.0247   -0.0189   -0.0127    0.0181   -0.0001    0.0000    0.0001    0.0002
          24   -0.0000    0.0000    0.0000   -0.0000    0.0000    0.0000   -0.0000   -0.0000
          25    0.0121    0.0100   -0.0038   -0.0075    0.0000    0.0000   -0.0000    0.0002
          26   -0.0249   -0.0187    0.0127    0.0180   -0.0001   -0.0000   -0.0001    0.0002
          27    0.0000    0.0000   -0.0000   -0.0000   -0.0000    0.0000    0.0000   -0.0000
          28   -0.0000   -0.0000    0.0000   -0.0000   -0.0002   -0.0646    0.0005   -0.0000
          29   -0.0000   -0.0000   -0.0000    0.0001    0.0455   -0.0002    0.0000   -0.0022
          30   -0.0000    0.0000   -0.0000    0.0000    0.0000   -0.0000   -0.0000   -0.0000
          31   -0.0000   -0.0005    0.0007   -0.0006    0.0170    0.0050    0.4215    0.4153
          32   -0.0001    0.0003   -0.0005    0.0004   -0.0055   -0.0010   -0.1464   -0.1445
          33    0.0000    0.0000    0.0000    0.0000    0.0000    0.0000    0.0000    0.0000
          34   -0.0000    0.0005    0.0007    0.0006   -0.0170    0.0052    0.4288   -0.4081
          35    0.0001    0.0003    0.0005    0.0004   -0.0055    0.0011    0.1490   -0.1420
          36   -0.0000    0.0000   -0.0000    0.0000   -0.0000    0.0000    0.0000   -0.0000
          37    0.1403   -0.2117    0.3170   -0.2470    0.0008    0.0001   -0.0010   -0.0010
          38    0.0010   -0.0001   -0.0025    0.0023   -0.0000   -0.0000    0.0002    0.0003
          39   -0.0000    0.0000   -0.0000    0.0000    0.0000   -0.0000    0.0000   -0.0000
          40    0.1418    0.2095    0.3179    0.2470   -0.0008    0.0001   -0.0010    0.0010
          41   -0.0011   -0.0002    0.0025    0.0023   -0.0000    0.0000   -0.0002    0.0003
          42   -0.0000   -0.0000   -0.0000   -0.0000    0.0000   -0.0000    0.0000   -0.0000
          43   -0.1458    0.1183    0.0621   -0.0961    0.0004   -0.0000   -0.0001    0.0001
          44   -0.2822    0.2210    0.1248   -0.1846    0.0007   -0.0000   -0.0002    0.0001
          45    0.0002   -0.0001   -0.0001    0.0001   -0.0000   -0.0000    0.0000   -0.0000
          46   -0.1472   -0.1171    0.0618    0.0958   -0.0004   -0.0000   -0.0001   -0.0001
          47    0.2849    0.2189   -0.1243   -0.1839    0.0007    0.0000    0.0002    0.0001
          48   -0.0001   -0.0001    0.0001    0.0001    0.0000   -0.0000    0.0000   -0.0000
          49   -0.0000    0.0000   -0.0000   -0.0007   -0.3866    0.3874   -0.0047    0.0152
          50   -0.0000    0.0000   -0.0000   -0.0004   -0.2324    0.2535   -0.0027    0.0084
          51    0.0000   -0.0000    0.0000   -0.0000   -0.0001    0.0001   -0.0000    0.0000
          52   -0.0000   -0.0000   -0.0000    0.0007    0.3895    0.3845   -0.0044   -0.0152
          53    0.0001    0.0000    0.0000   -0.0004   -0.2339   -0.2514    0.0025    0.0084
          54   -0.0000    0.0000   -0.0000    0.0000   -0.0000   -0.0000    0.0000    0.0000


           MASS-WEIGHTED COORDINATE ANALYSIS (NORMAL COORDINATES)


   Root No.       1         2         3         4         5         6         7         8

                 1 A       2 A       3 A       4 A       5 A       6 A       7 A       8 A   

                 110.0     191.4     226.4     275.2     432.7     456.2     466.4     515.0
  
           1    0.0000   -0.0001   -0.0000   -0.2530   -0.0000    0.0011   -0.3531   -0.0252
           2   -0.0000    0.0000   -0.0001   -0.0074    0.0001   -0.0004    0.1174   -0.0646
           3   -0.2747    0.1206   -0.2771   -0.0001    0.4448   -0.2177   -0.0008    0.0003
           4    0.0000   -0.0001   -0.0000   -0.2530   -0.0000    0.0011   -0.3531    0.0252
           5   -0.0000    0.0000   -0.0001    0.0074    0.0001    0.0004   -0.1174   -0.0646
           6   -0.2747   -0.1212   -0.2769    0.0001    0.4447    0.2179    0.0007    0.0002
           7    0.0000   -0.0000   -0.0000   -0.1690    0.0001   -0.0013    0.3788    0.0000
           8   -0.0001    0.0000   -0.0000   -0.0000    0.0001   -0.0000    0.0000   -0.3439
           9   -0.0883    0.0003    0.3183   -0.0001   -0.1109   -0.0001   -0.0000   -0.0001
          10    0.0000   -0.0001   -0.0001   -0.2220    0.0000   -0.0004    0.0991   -0.0784
          11   -0.0000    0.0000   -0.0000    0.0335    0.0001   -0.0010    0.2879   -0.1453
          12   -0.2767    0.4368    0.2871   -0.0004   -0.0651    0.1478    0.0005    0.0001
          13    0.0000   -0.0001   -0.0001   -0.2219    0.0000   -0.0004    0.0991    0.0784
          14   -0.0000   -0.0000   -0.0001   -0.0335    0.0001    0.0010   -0.2879   -0.1453
          15   -0.2766   -0.4362    0.2879    0.0002   -0.0651   -0.1479   -0.0005    0.0001
          16   -0.0000   -0.0000   -0.0000   -0.0052    0.0000    0.0002   -0.0545   -0.3104
          17    0.0000   -0.0002   -0.0001   -0.1668   -0.0003    0.0002   -0.0885    0.1851
          18   -0.0627   -0.2650   -0.3151    0.0001   -0.3105   -0.3008   -0.0010   -0.0001
          19    0.0000    0.0000   -0.0000   -0.0052   -0.0001    0.0002   -0.0546    0.3104
          20    0.0000    0.0001   -0.0001    0.1667   -0.0001   -0.0002    0.0886    0.1851
          21   -0.0627    0.2644   -0.3156    0.0000   -0.3106    0.3006    0.0011   -0.0001
          22    0.0000   -0.0000    0.0001    0.1911    0.0000   -0.0006    0.1920   -0.0190
          23    0.0002   -0.0002    0.0002   -0.0606   -0.0001    0.0002    0.0281    0.3987
          24    0.2960   -0.2862    0.2425   -0.0000    0.1330    0.3654    0.0012   -0.0002
          25    0.0000    0.0000    0.0001    0.1911    0.0000   -0.0007    0.1920    0.0190
          26    0.0002    0.0001    0.0002    0.0606   -0.0000   -0.0001   -0.0281    0.3988
          27    0.2960    0.2866    0.2420   -0.0001    0.1332   -0.3653   -0.0012   -0.0001
          28   -0.0000    0.0003    0.0001    0.5645    0.0000    0.0005   -0.1367    0.0000
          29   -0.0002    0.0000    0.0001    0.0001    0.0001   -0.0000   -0.0000   -0.3985
          30    0.5585   -0.0002   -0.2082    0.0001    0.0196    0.0000   -0.0000   -0.0001
          31    0.0000   -0.0000   -0.0000   -0.0598    0.0000   -0.0003    0.0779   -0.0197
          32   -0.0000    0.0000    0.0000    0.0212    0.0000   -0.0007    0.2261   -0.0352
          33   -0.0854    0.2318    0.1819   -0.0002   -0.1755    0.1147    0.0004    0.0000
          34    0.0000   -0.0000   -0.0000   -0.0598    0.0000   -0.0003    0.0779    0.0197
          35   -0.0000   -0.0000   -0.0000   -0.0211    0.0000    0.0007   -0.2261   -0.0352
          36   -0.0854   -0.2314    0.1823    0.0001   -0.1755   -0.1148   -0.0003    0.0000
          37   -0.0000   -0.0000   -0.0000   -0.0020   -0.0000    0.0000   -0.0165   -0.0888
          38    0.0000   -0.0001   -0.0001   -0.1184   -0.0002    0.0004   -0.1309    0.0627
          39   -0.0387   -0.1754   -0.1810    0.0001   -0.3816   -0.1330   -0.0004   -0.0001
          40   -0.0000    0.0000   -0.0000   -0.0020   -0.0001    0.0001   -0.0165    0.0888
          41   -0.0000    0.0001   -0.0000    0.1184   -0.0001   -0.0004    0.1309    0.0627
          42   -0.0387    0.1751   -0.1814    0.0000   -0.3817    0.1328    0.0005   -0.0001
          43    0.0000   -0.0000    0.0000    0.0921    0.0000   -0.0002    0.0819    0.0470
          44    0.0001   -0.0001    0.0001   -0.0372   -0.0000    0.0003   -0.0067    0.0889
          45    0.1630   -0.2040    0.1608    0.0000   -0.0118    0.3962    0.0013   -0.0001
          46    0.0000    0.0000    0.0000    0.0921    0.0000   -0.0003    0.0819   -0.0470
          47    0.0001    0.0001    0.0001    0.0372   -0.0000   -0.0002    0.0067    0.0889
          48    0.1631    0.2043    0.1604   -0.0000   -0.0116   -0.3962   -0.0013   -0.0000
          49   -0.0000    0.0001    0.0001    0.2850   -0.0000    0.0006   -0.1587    0.0049
          50   -0.0001   -0.0000    0.0000   -0.1866    0.0000   -0.0006    0.1810   -0.1260
          51    0.2474   -0.1296   -0.1353    0.0001    0.0286   -0.1378   -0.0004   -0.0000
          52   -0.0000    0.0001    0.0001    0.2849   -0.0000    0.0005   -0.1586   -0.0049
          53   -0.0001    0.0000    0.0001    0.1867    0.0000    0.0006   -0.1811   -0.1260
          54    0.2474    0.1294   -0.1355   -0.0000    0.0286    0.1379    0.0004   -0.0000


   Root No.       9        10        11        12        13        14        15        16

                 9 A      10 A      11 A      12 A      13 A      14 A      15 A      16 A   

                 584.9     585.3     613.5     687.9     700.0     763.2     832.6     880.6
  
           1    0.0174    0.0000    0.0000   -0.0234    0.0001    0.0000   -0.0000    0.0205
           2    0.2563    0.0005   -0.0000   -0.2342    0.0003    0.0000   -0.0000    0.1724
           3   -0.0000   -0.0064    0.0494    0.0002    0.4967    0.1390    0.0134   -0.0000
           4    0.0174    0.0001    0.0000    0.0235    0.0001    0.0000    0.0000    0.0204
           5   -0.2563   -0.0007    0.0000   -0.2342   -0.0000    0.0001    0.0001   -0.1724
           6    0.0002   -0.0064   -0.0494   -0.0002   -0.4966    0.1392   -0.0134    0.0001
           7   -0.1938   -0.0005    0.0000   -0.0000   -0.0001    0.0000    0.0000   -0.0176
           8   -0.0000   -0.0000    0.0000    0.3224   -0.0001   -0.0000   -0.0000    0.0000
           9   -0.0018    0.7284   -0.0002   -0.0003   -0.0001   -0.1374   -0.0001   -0.0001
          10   -0.2233   -0.0005    0.0000    0.2457   -0.0002   -0.0000   -0.0000   -0.1702
          11    0.1777    0.0004   -0.0000   -0.1074    0.0001    0.0000   -0.0000    0.2011
          12    0.0005   -0.1994    0.0745    0.0000    0.0286    0.0843    0.2336    0.0000
          13   -0.2233   -0.0006    0.0000   -0.2457    0.0000    0.0001    0.0000   -0.1701
          14   -0.1778   -0.0005    0.0000   -0.1074   -0.0000    0.0001    0.0001   -0.2011
          15    0.0005   -0.1995   -0.0744    0.0000   -0.0285    0.0844   -0.2335    0.0001
          16    0.1734    0.0002   -0.0000   -0.3913    0.0002    0.0000   -0.0001    0.3716
          17    0.3340    0.0008   -0.0001   -0.1235    0.0001   -0.0001   -0.0001   -0.0260
          18   -0.0001    0.0166   -0.0586    0.0000   -0.0598   -0.2195   -0.2039   -0.0001
          19    0.1734    0.0006    0.0000    0.3913   -0.0001   -0.0001   -0.0000    0.3716
          20   -0.3340   -0.0008    0.0000   -0.1235    0.0000   -0.0001    0.0001    0.0261
          21   -0.0000    0.0167    0.0586   -0.0000    0.0597   -0.2196    0.2039   -0.0000
          22    0.1802    0.0004   -0.0000   -0.0389    0.0000    0.0000    0.0000   -0.2305
          23    0.3412    0.0010   -0.0000    0.0933    0.0001   -0.0001   -0.0000   -0.3849
          24   -0.0002   -0.0136    0.0535   -0.0000    0.1562   -0.1647   -0.1979    0.0001
          25    0.1801    0.0005   -0.0000    0.0389   -0.0000   -0.0000    0.0001   -0.2305
          26   -0.3411   -0.0008   -0.0000    0.0934   -0.0001   -0.0001   -0.0000    0.3849
          27    0.0002   -0.0137   -0.0535   -0.0001   -0.1562   -0.1647    0.1978   -0.0001
          28   -0.0632   -0.0002   -0.0000   -0.0000   -0.0000   -0.0000    0.0000    0.0454
          29   -0.0000    0.0002    0.0000    0.4253   -0.0002   -0.0001   -0.0000    0.0000
          30    0.0001   -0.0576    0.0000    0.0001   -0.0000   -0.0033   -0.0000   -0.0000
          31   -0.0762   -0.0001   -0.0000    0.0540   -0.0000    0.0000    0.0000   -0.0340
          32    0.0201    0.0000   -0.0000   -0.0800    0.0000    0.0000   -0.0000    0.1088
          33    0.0011   -0.3993    0.1997   -0.0000   -0.3513   -0.0871   -0.3435   -0.0001
          34   -0.0762   -0.0002    0.0000   -0.0540   -0.0000    0.0000   -0.0000   -0.0339
          35   -0.0201   -0.0001    0.0000   -0.0800    0.0000    0.0000    0.0000   -0.1089
          36    0.0009   -0.3994   -0.1995    0.0003    0.3513   -0.0872    0.3433   -0.0001
          37    0.0499    0.0001   -0.0000   -0.1135    0.0000    0.0000    0.0000    0.1099
          38    0.0790    0.0002   -0.0000   -0.0578   -0.0001    0.0001    0.0002    0.0933
          39   -0.0002    0.0712   -0.0688   -0.0001   -0.3090    0.3157    0.4305    0.0001
          40    0.0499    0.0002    0.0000    0.1135    0.0000    0.0000   -0.0001    0.1098
          41   -0.0790   -0.0002    0.0000   -0.0578    0.0001    0.0001   -0.0001   -0.0932
          42   -0.0003    0.0713    0.0688    0.0001    0.3091    0.3157   -0.4304   -0.0001
          43   -0.0467   -0.0001    0.0000    0.0676   -0.0000    0.0000    0.0000   -0.0534
          44    0.1501    0.0004    0.0000   -0.0154    0.0001    0.0003    0.0002   -0.1201
          45   -0.0002    0.0348    0.0549    0.0001    0.0744    0.5290    0.2267    0.0002
          46   -0.0467   -0.0001   -0.0000   -0.0676   -0.0000    0.0001   -0.0000   -0.0533
          47   -0.1501   -0.0003   -0.0000   -0.0154   -0.0000    0.0002   -0.0001    0.1201
          48    0.0000    0.0347   -0.0549    0.0000   -0.0743    0.5291   -0.2265   -0.0002
          49    0.0070    0.0000   -0.0001   -0.0110    0.0000    0.0000   -0.0000   -0.0406
          50   -0.0400    0.0000   -0.0002    0.1459   -0.0001   -0.0000   -0.0000    0.0808
          51    0.0004   -0.1641    0.6619    0.0001    0.0095    0.0401    0.1002    0.0000
          52    0.0070    0.0000    0.0001    0.0110    0.0000   -0.0000   -0.0000   -0.0405
          53    0.0400    0.0002    0.0002    0.1459   -0.0000   -0.0000   -0.0000   -0.0808
          54    0.0004   -0.1644   -0.6619    0.0002   -0.0094    0.0401   -0.1001    0.0000


   Root No.      17        18        19        20        21        22        23        24

                17 A      18 A      19 A      20 A      21 A      22 A      23 A      24 A   

                 902.5     903.4     907.1     932.1     971.6    1005.5    1019.3    1035.9
  
           1   -0.2668    0.0014    0.0002   -0.0242   -0.0000    0.0000   -0.0706    0.0000
           2    0.1222   -0.0005   -0.0000    0.0412    0.0000   -0.0000    0.0857   -0.0000
           3    0.0018    0.3476    0.1499   -0.0001    0.1139   -0.1422   -0.0001    0.0272
           4    0.2668   -0.0013   -0.0002   -0.0243    0.0000    0.0000    0.0706   -0.0000
           5    0.1222   -0.0006   -0.0001   -0.0413    0.0000    0.0000    0.0858   -0.0000
           6   -0.0017   -0.3465    0.1526    0.0001    0.1139    0.1422   -0.0000    0.0272
           7    0.0000   -0.0000   -0.0000   -0.0194   -0.0000   -0.0000   -0.0001   -0.0000
           8   -0.0624    0.0003    0.0000   -0.0000    0.0000   -0.0000    0.0845   -0.0001
           9    0.0002    0.0010    0.2507    0.0000    0.0333    0.0000    0.0000    0.2561
          10   -0.1621    0.0009    0.0001    0.1652   -0.0000    0.0000   -0.4573    0.0001
          11    0.2426   -0.0012   -0.0002    0.1096   -0.0000    0.0000   -0.0799    0.0000
          12   -0.0020   -0.3164   -0.3779    0.0001   -0.0995    0.0648   -0.0000   -0.0868
          13    0.1621   -0.0008   -0.0001    0.1652    0.0000   -0.0000    0.4574   -0.0001
          14    0.2425   -0.0013   -0.0002   -0.1097    0.0000    0.0000   -0.0799    0.0000
          15    0.0013    0.3135   -0.3804   -0.0001   -0.0996   -0.0648    0.0000   -0.0868
          16   -0.2584    0.0013    0.0003    0.0355   -0.0000   -0.0000   -0.0314    0.0000
          17   -0.1981    0.0009    0.0002   -0.0119   -0.0002    0.0001   -0.0499    0.0000
          18   -0.0006   -0.1415    0.0352    0.0000   -0.3326    0.2986    0.0001   -0.0137
          19    0.2585   -0.0014   -0.0001    0.0354   -0.0000   -0.0000    0.0314   -0.0000
          20   -0.1981    0.0011    0.0002    0.0119   -0.0001   -0.0001   -0.0499    0.0000
          21    0.0008    0.1418    0.0342   -0.0000   -0.3327   -0.2984    0.0000   -0.0137
          22   -0.0090    0.0001   -0.0000   -0.0266    0.0000   -0.0000    0.0417   -0.0000
          23   -0.0766    0.0003   -0.0000   -0.0603    0.0001   -0.0002    0.0339   -0.0000
          24   -0.0010   -0.1829   -0.0912    0.0001    0.2246   -0.3725   -0.0001    0.0056
          25    0.0089    0.0000   -0.0000   -0.0266    0.0000    0.0001   -0.0417    0.0000
          26   -0.0765    0.0004    0.0001    0.0603    0.0001    0.0002    0.0338   -0.0000
          27    0.0009    0.1822   -0.0926   -0.0001    0.2248    0.3724    0.0000    0.0056
          28   -0.0000   -0.0001    0.0000   -0.4623    0.0000   -0.0000   -0.0000    0.0000
          29   -0.0979    0.0005    0.0001   -0.0000    0.0000   -0.0000    0.1884    0.0001
          30    0.0000    0.0003    0.0761   -0.0000    0.0387   -0.0000   -0.0001   -0.5036
          31    0.0430   -0.0002   -0.0001    0.0924   -0.0000    0.0000   -0.2560    0.0001
          32    0.3430   -0.0017   -0.0003    0.1585   -0.0000    0.0000   -0.3618    0.0001
          33    0.0021    0.3375    0.4743   -0.0001    0.1274   -0.0569   -0.0000    0.0798
          34   -0.0430    0.0002    0.0000    0.0924    0.0000   -0.0000    0.2560   -0.0001
          35    0.3430   -0.0018   -0.0003   -0.1586    0.0000    0.0000   -0.3618    0.0001
          36   -0.0013   -0.3339    0.4770    0.0001    0.1274    0.0568    0.0000    0.0798
          37   -0.0790    0.0004    0.0001    0.0105    0.0000   -0.0000   -0.0105    0.0000
          38   -0.2631    0.0014    0.0002   -0.0092    0.0001   -0.0001   -0.1645    0.0001
          39    0.0008    0.1479   -0.0897    0.0000    0.4420   -0.3111    0.0000    0.0158
          40    0.0790   -0.0004   -0.0001    0.0105    0.0000    0.0000    0.0105   -0.0000
          41   -0.2631    0.0013    0.0002    0.0093    0.0001    0.0001   -0.1645    0.0001
          42   -0.0008   -0.1486   -0.0887   -0.0000    0.4421    0.3109    0.0001    0.0158
          43    0.0889   -0.0004   -0.0001    0.0068   -0.0000    0.0000    0.0763   -0.0000
          44   -0.0745    0.0006    0.0001   -0.0255   -0.0002    0.0002   -0.0244    0.0000
          45    0.0016    0.2883    0.1810   -0.0000   -0.3163    0.3843    0.0000   -0.0051
          46   -0.0889    0.0004    0.0001    0.0068   -0.0001   -0.0000   -0.0762    0.0000
          47   -0.0744    0.0002    0.0002    0.0256   -0.0002   -0.0002   -0.0244    0.0000
          48   -0.0012   -0.2868    0.1832    0.0000   -0.3166   -0.3842    0.0000   -0.0051
          49    0.0060    0.0000   -0.0000    0.2049    0.0000    0.0000   -0.0341   -0.0000
          50   -0.0402    0.0001    0.0001   -0.5187    0.0000   -0.0000    0.1151   -0.0002
          51   -0.0007   -0.0985   -0.1479   -0.0001   -0.0540    0.0127    0.0002    0.5704
          52   -0.0060    0.0001    0.0000    0.2046    0.0000    0.0000    0.0341   -0.0001
          53   -0.0401    0.0003    0.0001    0.5188    0.0000    0.0000    0.1152   -0.0002
          54    0.0003    0.0973   -0.1486    0.0001   -0.0540   -0.0127    0.0002    0.5703


   Root No.      25        26        27        28        29        30        31        32

                25 A      26 A      27 A      28 A      29 A      30 A      31 A      32 A   

                1068.3    1118.2    1148.9    1149.3    1193.6    1205.8    1331.4    1371.7
  
           1   -0.0378    0.0625   -0.0069   -0.0540   -0.2685   -0.0056    0.0144   -0.2019
           2    0.0374    0.0458    0.1766   -0.0155   -0.0582   -0.1538    0.0716   -0.1007
           3   -0.0000   -0.0000   -0.0001    0.0000    0.0000    0.0001   -0.0000    0.0001
           4    0.0378    0.0625   -0.0079    0.0539   -0.2686    0.0053   -0.0144   -0.2019
           5    0.0375   -0.0458   -0.1763   -0.0190    0.0584   -0.1538    0.0716    0.1006
           6   -0.0000    0.0000    0.0000    0.0000   -0.0000    0.0000   -0.0000   -0.0001
           7   -0.0000   -0.0334    0.1050    0.0010    0.1843    0.0000    0.0001    0.5328
           8    0.0130   -0.0000   -0.0000    0.0021    0.0001   -0.0373   -0.2307    0.0001
           9   -0.0000   -0.0000    0.0000   -0.0000    0.0000   -0.0001   -0.0000    0.0000
          10   -0.1858   -0.0353    0.0933    0.0324    0.0754   -0.2503    0.1554   -0.1772
          11    0.0327    0.0652    0.2067   -0.0237    0.0022   -0.2808    0.1289   -0.3233
          12   -0.0000   -0.0000    0.0000    0.0000   -0.0000   -0.0000    0.0000   -0.0000
          13    0.1858   -0.0352    0.0939   -0.0306    0.0752    0.2505   -0.1555   -0.1770
          14    0.0328   -0.0652   -0.2062   -0.0279   -0.0019   -0.2809    0.1290    0.3232
          15    0.0000   -0.0000   -0.0000   -0.0000   -0.0000    0.0000   -0.0000    0.0000
          16   -0.2256   -0.1657   -0.0234   -0.0063    0.0746    0.1226   -0.0343    0.2141
          17   -0.0160    0.0509    0.0448    0.0342   -0.1030    0.0109    0.0530    0.2035
          18   -0.0000   -0.0000   -0.0000   -0.0000    0.0001    0.0000   -0.0000   -0.0001
          19    0.2256   -0.1657   -0.0235    0.0057    0.0748   -0.1225    0.0344    0.2141
          20   -0.0160   -0.0509   -0.0455    0.0333    0.1030    0.0111    0.0529   -0.2035
          21   -0.0000    0.0001    0.0000   -0.0000   -0.0000    0.0000   -0.0000    0.0000
          22   -0.2980    0.0323   -0.0761   -0.0537    0.1254    0.1106   -0.0917   -0.1421
          23   -0.2283   -0.0033   -0.0376    0.0203   -0.0511    0.1113   -0.0583    0.1000
          24    0.0002    0.0000    0.0000    0.0000    0.0000   -0.0001    0.0000   -0.0000
          25    0.2980    0.0323   -0.0772    0.0523    0.1255   -0.1104    0.0916   -0.1422
          26   -0.2283    0.0032    0.0371    0.0211    0.0509    0.1114   -0.0583   -0.0999
          27    0.0001    0.0000   -0.0000   -0.0000   -0.0000   -0.0000    0.0000    0.0001
          28    0.0000    0.0013   -0.0658   -0.0007   -0.0497   -0.0000    0.0001   -0.0670
          29    0.0405   -0.0000   -0.0001    0.0061   -0.0001    0.1834   -0.3057    0.0000
          30    0.0000   -0.0000    0.0000    0.0000   -0.0000    0.0001   -0.0001   -0.0000
          31   -0.0546   -0.0073   -0.1746    0.0020   -0.0755    0.0899   -0.0030   -0.0166
          32    0.0185    0.0315   -0.5214   -0.0303   -0.2836    0.3932   -0.1136   -0.0034
          33   -0.0000   -0.0000   -0.0000    0.0000    0.0000   -0.0000    0.0000    0.0000
          34    0.0546   -0.0073   -0.1745   -0.0054   -0.0754   -0.0900    0.0030   -0.0166
          35    0.0185   -0.0314    0.5218   -0.0200    0.2831    0.3936   -0.1136    0.0034
          36   -0.0000    0.0000    0.0000    0.0000    0.0000    0.0000   -0.0000    0.0000
          37   -0.0700   -0.0469   -0.0087   -0.0067    0.0238    0.0397   -0.0121    0.0671
          38    0.4477    0.4047   -0.2457   -0.3225    0.4596    0.0756   -0.0624   -0.0646
          39   -0.0002   -0.0002    0.0001    0.0001   -0.0002   -0.0000    0.0000    0.0000
          40    0.0701   -0.0469   -0.0088    0.0064    0.0238   -0.0397    0.0121    0.0671
          41    0.4478   -0.4042    0.2520   -0.3182   -0.4596    0.0751   -0.0624    0.0646
[...]
 TRAVEL (Ang.)       0.3044         C  3 -- C  5          +6.8% ( 35.9%)     98.3%
 REDUCED MASS        0.6034         C  3 -- C  4          +6.8% ( 35.9%)     98.3%
 EFFECTIVE MASS      6.0317
 FORCE CONSTANT      0.5169

 VIBRATION         31   31A           ATOM PAIR      ENERGY CONTRIBUTION    RADIAL
 FREQUENCY          1331.36         C 10 -- H 18         +24.8% ( 60.8%)      2.3%
 TRANSITION DIPOLE   0.1523         C 10 -- H 17         +24.7% ( 60.8%)      2.3%
 TRAVEL (Ang.)       0.3460         C  3 -- C  5          +8.2% ( 35.0%)     75.2%
 REDUCED MASS        0.4231         C  3 -- C  4          +8.2% ( 35.0%)     75.2%
 EFFECTIVE MASS      3.7414
 FORCE CONSTANT      0.4419

 VIBRATION         32   32A           ATOM PAIR      ENERGY CONTRIBUTION    RADIAL
 FREQUENCY          1371.73         C  3 -- C  4         +13.4% ( 60.9%)     95.5%
 TRANSITION DIPOLE   0.1298         C  3 -- C  5         +13.4% ( 60.9%)     95.5%
 TRAVEL (Ang.)       0.1710         C  1 -- C  3          +8.3% ( 47.9%)     20.0%
 REDUCED MASS        1.6809         C  2 -- C  3          +8.3% ( 47.9%)     20.0%
 EFFECTIVE MASS     10.8674
 FORCE CONSTANT      1.8635

 VIBRATION         33   33A           ATOM PAIR      ENERGY CONTRIBUTION    RADIAL
 FREQUENCY          1401.50         C  8 -- C  9         +19.4% ( 65.1%)    100.0%
 TRANSITION DIPOLE   0.1713         C  6 -- C  8          +9.0% ( 44.4%)      4.4%
 TRAVEL (Ang.)       0.2036         C  7 -- C  9          +9.0% ( 44.3%)      4.4%
 REDUCED MASS        1.1604         C  8 -- H 15          +7.0% ( 39.1%)     13.5%
 EFFECTIVE MASS      8.9965
 FORCE CONSTANT      1.3429

 VIBRATION         34   34A           ATOM PAIR      ENERGY CONTRIBUTION    RADIAL
 FREQUENCY          1403.81         C  3 -- C  4         +13.4% ( 61.7%)     57.1%
 TRANSITION DIPOLE   0.5743         C  3 -- C  5         +13.4% ( 61.7%)     57.0%
 TRAVEL (Ang.)       0.1669         C  1 -- C  3          +8.9% ( 50.2%)      0.0%
 REDUCED MASS        1.7235         C  2 -- C  3          +8.9% ( 50.2%)      0.0%
 EFFECTIVE MASS     11.6726
 FORCE CONSTANT      2.0012

 VIBRATION         35   35A           ATOM PAIR      ENERGY CONTRIBUTION    RADIAL
 FREQUENCY          1542.05         C  1 -- C  2         +22.3% ( 77.2%)    100.0%
 TRANSITION DIPOLE   1.4531         C  1 -- C  4         +11.3% ( 54.9%)     33.3%
 TRAVEL (Ang.)       0.1210         C  2 -- C  5         +11.3% ( 54.9%)     33.3%
 REDUCED MASS        2.9877         C  1 -- C  6         +11.1% ( 54.6%)     43.5%
 EFFECTIVE MASS     11.8283         C  2 -- C  7         +11.1% ( 54.6%)     43.5%
 FORCE CONSTANT      4.1858

 VIBRATION         36   36A           ATOM PAIR      ENERGY CONTRIBUTION    RADIAL
 FREQUENCY          1746.66         C  6 -- C  8         +14.8% ( 61.5%)    100.0%
 TRANSITION DIPOLE   2.1133         C  7 -- C  9         +14.8% ( 61.5%)    100.0%
 TRAVEL (Ang.)       0.1456         C  8 -- C  9          +9.4% ( 49.1%)    100.0%
 REDUCED MASS        1.8222         C  1 -- C  6          +9.0% ( 47.9%)     67.8%
 EFFECTIVE MASS     11.9753
 FORCE CONSTANT      3.2754

 VIBRATION         37   37A           ATOM PAIR      ENERGY CONTRIBUTION    RADIAL
 FREQUENCY          1784.52         C  7 -- C  9         +13.9% ( 56.5%)    100.0%
 TRANSITION DIPOLE   0.1464         C  6 -- C  8         +13.6% ( 55.9%)    100.0%
 TRAVEL (Ang.)       0.1579         C  8 -- C  9          +9.6% ( 47.0%)      0.0%
 REDUCED MASS        1.5151         C  2 -- C  5          +7.8% ( 42.5%)     97.8%
 EFFECTIVE MASS     11.8185
 FORCE CONSTANT      2.8427

 VIBRATION         38   38A           ATOM PAIR      ENERGY CONTRIBUTION    RADIAL
 FREQUENCY          1785.03         C  1 -- C  4         +12.9% ( 56.9%)     93.3%
 TRANSITION DIPOLE   1.4808         C  2 -- C  5         +12.7% ( 56.3%)     93.3%
 TRAVEL (Ang.)       0.1536         C  1 -- C  2          +9.8% ( 49.6%)     99.3%
 REDUCED MASS        1.6017         C  1 -- C  6          +6.5% ( 40.3%)     99.9%
 EFFECTIVE MASS     11.9425
 FORCE CONSTANT      3.0069

 VIBRATION         39   39A           ATOM PAIR      ENERGY CONTRIBUTION    RADIAL
 FREQUENCY          1869.35         C  1 -- C  2         +13.2% ( 57.3%)      0.0%
 TRANSITION DIPOLE   0.2283         C  1 -- C  4         +11.1% ( 52.5%)     94.8%
 TRAVEL (Ang.)       0.1378         C  2 -- C  5         +11.1% ( 52.5%)     94.8%
 REDUCED MASS        1.9006         C  1 -- C  6         +11.1% ( 52.5%)     69.5%
 EFFECTIVE MASS     11.9069         C  2 -- C  7         +11.1% ( 52.5%)     69.5%
 FORCE CONSTANT      3.9131

 VIBRATION         40   40A           ATOM PAIR      ENERGY CONTRIBUTION    RADIAL
 FREQUENCY          1909.66         C  3 -- C 10         +29.4% ( 94.2%)    100.0%
 TRANSITION DIPOLE   1.7734         C  1 -- C  3         +13.9% ( 64.6%)     91.9%
 TRAVEL (Ang.)       0.0837         C  2 -- C  3         +13.9% ( 64.6%)     91.9%
 REDUCED MASS        5.0343         C  3 -- C  5         +13.0% ( 62.5%)     47.3%
 EFFECTIVE MASS     11.9157         C  3 -- C  4         +13.0% ( 62.5%)     47.2%
 FORCE CONSTANT     10.8169

 VIBRATION         41   41A           ATOM PAIR      ENERGY CONTRIBUTION    RADIAL
 FREQUENCY          3052.14         C  9 -- H 16         +41.1% ( 65.2%)    100.0%
 TRANSITION DIPOLE   0.0834         C  8 -- H 15         +40.3% ( 64.6%)    100.0%
 TRAVEL (Ang.)       0.2555         C  7 -- H 14          +8.0% ( 28.8%)     99.9%
 REDUCED MASS        0.3385         C  6 -- H 13          +7.9% ( 28.5%)     99.9%
 EFFECTIVE MASS      1.4894
 FORCE CONSTANT      1.8578

 VIBRATION         42   42A           ATOM PAIR      ENERGY CONTRIBUTION    RADIAL
 FREQUENCY          3058.57         C  8 -- H 15         +28.7% ( 54.4%)    100.0%
 TRANSITION DIPOLE   0.3847         C  9 -- H 16         +28.1% ( 53.8%)    100.0%
 TRAVEL (Ang.)       0.3036         C  6 -- H 13         +20.5% ( 46.0%)    100.0%
 REDUCED MASS        0.2392         C  7 -- H 14         +20.1% ( 45.5%)    100.0%
 EFFECTIVE MASS      1.4682
 FORCE CONSTANT      1.3183

 VIBRATION         43   43A           ATOM PAIR      ENERGY CONTRIBUTION    RADIAL
 FREQUENCY          3073.03         C  7 -- H 14         +40.6% ( 64.7%)    100.0%
 TRANSITION DIPOLE   0.4694         C  6 -- H 13         +40.3% ( 64.5%)    100.0%
 TRAVEL (Ang.)       0.2545         C  8 -- H 15          +7.8% ( 28.4%)     99.6%
 REDUCED MASS        0.3387         C  9 -- H 16          +7.8% ( 28.3%)     99.6%
 EFFECTIVE MASS      1.5614
 FORCE CONSTANT      1.8848

 VIBRATION         44   44A           ATOM PAIR      ENERGY CONTRIBUTION    RADIAL
 FREQUENCY          3078.77         C  7 -- H 14         +28.2% ( 53.9%)    100.0%
 TRANSITION DIPOLE   0.3325         C  6 -- H 13         +28.2% ( 53.9%)    100.0%
 TRAVEL (Ang.)       0.3021         C  8 -- H 15         +20.0% ( 45.4%)    100.0%
 REDUCED MASS        0.2399         C  9 -- H 16         +19.9% ( 45.2%)    100.0%
 EFFECTIVE MASS      1.6015
 FORCE CONSTANT      1.3399

 VIBRATION         45   45A           ATOM PAIR      ENERGY CONTRIBUTION    RADIAL
 FREQUENCY          3129.95         C 10 -- H 18         +49.5% ( 70.4%)     95.2%
 TRANSITION DIPOLE   0.3337         C 10 -- H 17         +48.7% ( 69.9%)     95.0%
 TRAVEL (Ang.)       0.2109         C  3 -- C 10          +1.5% ( 12.3%)    100.0%
 REDUCED MASS        0.4845
 EFFECTIVE MASS      1.3863
 FORCE CONSTANT      2.7963

 VIBRATION         46   46A           ATOM PAIR      ENERGY CONTRIBUTION    RADIAL
 FREQUENCY          3139.15         C 10 -- H 17         +49.7% ( 72.2%)     97.1%
 TRANSITION DIPOLE   0.2126         C 10 -- H 18         +49.0% ( 71.7%)     97.0%
 TRAVEL (Ang.)       0.2003         C  3 -- C 10          +1.3% ( 11.7%)      0.0%
 REDUCED MASS        0.5355
 EFFECTIVE MASS      1.6083
 FORCE CONSTANT      3.1089

 VIBRATION         47   47A           ATOM PAIR      ENERGY CONTRIBUTION    RADIAL
 FREQUENCY          3145.67         C  5 -- H 12         +49.1% ( 71.3%)    100.0%
 TRANSITION DIPOLE   0.5924         C  4 -- H 11         +47.4% ( 70.1%)    100.0%
 TRAVEL (Ang.)       0.2147         C  2 -- C  5          +0.9% (  9.6%)     48.2%
 REDUCED MASS        0.4649         C  1 -- C  4          +0.9% (  9.4%)     48.2%
 EFFECTIVE MASS      1.5355
 FORCE CONSTANT      2.7107

 VIBRATION         48   48A           ATOM PAIR      ENERGY CONTRIBUTION    RADIAL
 FREQUENCY          3149.85         C  4 -- H 11         +49.0% ( 71.2%)    100.0%
 TRANSITION DIPOLE   0.2498         C  5 -- H 12         +47.3% ( 69.9%)    100.0%
 TRAVEL (Ang.)       0.2148         C  1 -- C  4          +0.9% (  9.8%)     49.4%
 REDUCED MASS        0.4640         C  2 -- C  5          +0.9% (  9.6%)     49.4%
 EFFECTIVE MASS      1.5802
 FORCE CONSTANT      2.7124

      SYMMETRY NUMBER FOR POINT-GROUP C1  =  1


          SYSTEM IS A GROUND STATE



 InChI=1S/C10H8/c1-8-6-9-4-2-3-5-10(9)7-8/h2-7H,1H2


          MOLECULE IS NOT LINEAR

          THERE ARE 48 GENUINE VIBRATIONS IN THIS SYSTEM
          THIS THERMODYNAMICS CALCULATION IS LIMITED TO
          MOLECULES WHICH HAVE NO INTERNAL ROTATIONS




                    CALCULATED THERMODYNAMIC PROPERTIES
                                          *
   TEMP. (K)   PARTITION FUNCTION   H.O.F.    ENTHALPY  HEAT CAPACITY ENTROPY
                                   KCAL/MOL   CAL/MOLE    CAL/K/MOL  CAL/K/MOL


 298.00  VIB.     0.1952D+02                  2958.5984    24.7625    15.8332
         ROT.     0.4888D+06                   888.2803     2.9808    29.0127
         INT.     0.9543D+07                  3846.8787    27.7433    44.8459
         TRA.     0.1403D+28                  1480.4672     4.9680    40.4556
         TOT.                       82.435    5327.3458    32.7113    85.3015

 200.00  VIB.     0.4394D+01                  1071.3595    13.8489     8.2986
         ROT.     0.2688D+06                   596.1613     2.9808    27.8240
         INT.     0.1181D+07                  1667.5208    16.8297    36.1226
         TRA.     0.7713D+27                   993.6021     4.9680    38.4745
         TOT.                       79.769    2661.1229    21.7977    74.5971

 210.00  VIB.     0.5038D+01                  1215.1767    14.9180     9.0000
         ROT.     0.2892D+06                   625.9693     2.9808    27.9694
         INT.     0.1457D+07                  1841.1461    17.8988    36.9695
         TRA.     0.8299D+27                  1043.2822     4.9680    38.7169
         TOT.                       79.993    2884.4283    22.8668    75.6864

 220.00  VIB.     0.5799D+01                  1369.7813    16.0058     9.7191
         ROT.     0.3101D+06                   655.7774     2.9808    28.1081
         INT.     0.1798D+07                  2025.5587    18.9866    37.8272
         TRA.     0.8899D+27                  1092.9623     4.9680    38.9480
         TOT.                       80.227    3118.5210    23.9546    76.7752

 230.00  VIB.     0.6698D+01                  1535.3425    17.1087    10.4548
         ROT.     0.3314D+06                   685.5855     2.9808    28.2406
         INT.     0.2220D+07                  2220.9279    20.0895    38.6954
         TRA.     0.9512D+27                  1142.6424     4.9680    39.1689
         TOT.                       80.472    3363.5704    25.0576    77.8643

 240.00  VIB.     0.7766D+01                  1711.9955    18.2235    11.2065
         ROT.     0.3533D+06                   715.3935     2.9808    28.3675
         INT.     0.2744D+07                  2427.3890    21.2044    39.5739
         TRA.     0.1014D+28                  1192.3226     4.9680    39.3803
         TOT.                       80.728    3619.7115    26.1724    78.9542

 250.00  VIB.     0.9034D+01                  1899.8418    19.3469    11.9732
         ROT.     0.3756D+06                   745.2016     2.9808    28.4891
         INT.     0.3393D+07                  2645.0434    22.3277    40.4623
         TRA.     0.1078D+28                  1242.0027     4.9680    39.5831
         TOT.                       80.995    3887.0460    27.2957    80.0454

 260.00  VIB.     0.1054D+02                  2098.9504    20.4755    12.7539
         ROT.     0.3984D+06                   775.0097     2.9808    28.6061
         INT.     0.4201D+07                  2873.9601    23.4563    41.3600
         TRA.     0.1143D+28                  1291.6828     4.9680    39.7779
         TOT.                       81.274    4165.6429    28.4243    81.1379

 270.00  VIB.     0.1235D+02                  2309.3596    21.6065    13.5479
         ROT.     0.4216D+06                   804.8177     2.9808    28.7186
         INT.     0.5205D+07                  3114.1773    24.5873    42.2664
         TRA.     0.1210D+28                  1341.3629     4.9680    39.9654
         TOT.                       81.564    4455.5402    29.5553    82.2319

 280.00  VIB.     0.1450D+02                  2531.0782    22.7369    14.3541
         ROT.     0.4452D+06                   834.6258     2.9808    28.8270
         INT.     0.6457D+07                  3365.7039    25.7178    43.1811
         TRA.     0.1278D+28                  1391.0430     4.9680    40.1461
         TOT.                       81.865    4756.7469    30.6858    83.3272

 290.00  VIB.     0.1709D+02                  2764.0883    23.8644    15.1716
         ROT.     0.4693D+06                   864.4339     2.9808    28.9316
         INT.     0.8018D+07                  3628.5221    26.8452    44.1032
         TRA.     0.1347D+28                  1440.7231     4.9680    40.3205
         TOT.                       82.177    5069.2452    31.8132    84.4237

 300.00  VIB.     0.2019D+02                  3008.3473    24.9864    15.9996
         ROT.     0.4937D+06                   894.2419     2.9808    29.0326
         INT.     0.9968D+07                  3902.5892    27.9672    45.0322
         TRA.     0.1417D+28                  1490.4032     4.9680    40.4889
         TOT.                       82.501    5392.9924    32.9352    85.5211

 310.00  VIB.     0.2392D+02                  3263.7902    26.1008    16.8371
         ROT.     0.5186D+06                   924.0500     2.9808    29.1304
         INT.     0.1241D+08                  4187.8402    29.0816    45.9675
         TRA.     0.1488D+28                  1540.0833     4.9680    40.6518
         TOT.                       82.836    5727.9235    34.0496    86.6192

 320.00  VIB.     0.2841D+02                  3530.3320    27.2058    17.6832
         ROT.     0.5439D+06                   953.8580     2.9808    29.2250
         INT.     0.1546D+08                  4484.1900    30.1866    46.9082
         TRA.     0.1561D+28                  1589.7634     4.9680    40.8095
         TOT.                       83.182    6073.9534    35.1546    87.7177

 330.00  VIB.     0.3384D+02                  3807.8698    28.2998    18.5372
         ROT.     0.5696D+06                   983.6661     2.9808    29.3167
         INT.     0.1928D+08                  4791.5359    31.2806    47.8539
         TRA.     0.1635D+28                  1639.4435     4.9680    40.9624
         TOT.                       83.539    6430.9794    36.2486    88.8163

 340.00  VIB.     0.4040D+02                  4096.2854    29.3812    19.3981
         ROT.     0.5957D+06                  1013.4742     2.9808    29.4057
         INT.     0.2407D+08                  5109.7596    32.3620    48.8038
         TRA.     0.1710D+28                  1689.1236     4.9680    41.1107
         TOT.                       83.907    6798.8832    37.3300    89.9145

 350.00  VIB.     0.4834D+02                  4395.4470    30.4488    20.2652
         ROT.     0.6222D+06                  1043.2822     2.9808    29.4921
         INT.     0.3008D+08                  5438.7292    33.4296    49.7573
         TRA.     0.1786D+28                  1738.8037     4.9680    41.2547
         TOT.                       84.286    7177.5329    38.3976    91.0120

 360.00  VIB.     0.5797D+02                  4705.2111    31.5015    21.1378
         ROT.     0.6490D+06                  1073.0903     2.9808    29.5761
         INT.     0.3762D+08                  5778.3014    34.4823    50.7139
         TRA.     0.1863D+28                  1788.4838     4.9680    41.3947
         TOT.                       84.675    7566.7853    39.4503    92.1085

 370.00  VIB.     0.6966D+02                  5025.4250    32.5386    22.0151
         ROT.     0.6763D+06                  1102.8984     2.9808    29.6577
         INT.     0.4711D+08                  6128.3233    35.5194    51.6728
         TRA.     0.1941D+28                  1838.1639     4.9680    41.5308
         TOT.                       85.075    7966.4873    40.4874    93.2036

 380.00  VIB.     0.8387D+02                  5355.9275    33.5592    22.8964
         ROT.     0.7039D+06                  1132.7064     2.9808    29.7372
         INT.     0.5903D+08                  6488.6339    36.5400    52.6337
         TRA.     0.2020D+28                  1887.8440     4.9680    41.6633
         TOT.                       85.485    8376.4780    41.5080    94.2969

 390.00  VIB.     0.1012D+03                  5696.5515    34.5628    23.7812
         ROT.     0.7318D+06                  1162.5145     2.9808    29.8147
         INT.     0.7404D+08                  6859.0660    37.5436    53.5958
         TRA.     0.2100D+28                  1937.5242     4.9680    41.7923
         TOT.                       85.905    8796.5901    42.5116    95.3881

 400.00  VIB.     0.1223D+03                  6047.1244    35.5489    24.6687
         ROT.     0.7602D+06                  1192.3226     2.9808    29.8901
         INT.     0.9294D+08                  7239.4470    38.5297    54.5588
         TRA.     0.2182D+28                  1987.2043     4.9680    41.9181
         TOT.                       86.335    9226.6512    43.4977    96.4769

   *: NOTE: HEATS OF FORMATION ARE RELATIVE TO THE
            ELEMENTS IN THEIR STANDARD STATE AT 298K
              (=  Standard Enthalpy of Formation).

            Hvib:  Zero-point energy is not included.
                   frequencies of less than zero cm-1 are not included.
            Hrot = (3/2)RT
            Htra = (3/2)RT + pV = (5/2)RT

            Heat capacity is Cp, not Cv

          For more information, see: HTTP://OpenMOPAC.net/Manual/thermochemistry.html


           FORCE CONSTANT IN CARTESIAN COORDINATES (Millidynes/A)

    ATOM   CHEMICAL       X               Y               Z
   NUMBER   SYMBOL  FORCE CONSTANT  FORCE CONSTANT  FORCE CONSTANT

      1       C       10.308883       16.118337        2.377861
      2       C       10.308437       16.118007        2.377712
      3       C        8.528375       17.161973        2.287983
      4       C       12.104017       12.306444        2.097951
      5       C       12.103751       12.305384        2.098532
      6       C       11.951749       13.199928        2.241001
      7       C       11.952082       13.199798        2.240994
      8       C       11.238841       13.486158        2.237462
      9       C       11.239925       13.485690        2.237166
     10       C        9.097051       15.162851        2.021132
     11       H        4.923610        1.197031        0.315998
     12       H        4.923381        1.197007        0.316023
     13       H        5.175164        0.732900        0.343107
     14       H        5.175261        0.732888        0.343059
     15       H        1.700175        4.208048        0.342896
     16       H        1.700159        4.207806        0.342895
     17       H        4.053906        2.015563        0.336385
     18       H        4.056279        2.013042        0.336358

 **********************
 *                    *
 * JOB ENDED NORMALLY *
 *                    *
 **********************



 TOTAL JOB TIME:             1.62 SECONDS

 == MOPAC DONE ==
