 *******************************************************************************
 **                                                                           **
 **                              MOPAC v23.1.2                                **
 **                                                                           **
 *******************************************************************************
 **          Digital Object Identifier (DOI): 10.5281/zenodo.6511958          **
 **    Visit the DOI location for information on how to cite this program.    **
 *******************************************************************************

                              PM3 CALCULATION RESULTS

 *******************************************************************************
 *  CALCULATION DONE: (MAX THREADS = 1)              Tue Jun  3 16:26:56 2025  *
 *  PM3        - The PM3 Hamiltonian to be used
 *  PRECISE    - TIGHTER CRITERIA TO BE USED
 *  NOSYM      - POINT-GROUP SYMMETRY SET TO C1
 *  THREADS=1  - MULTI-THREADING NOT USED
 *  T=         - A TIME OF 172800.0 SECONDS REQUESTED
 *  DUMP=N     - RESTART FILE WRITTEN EVERY 7200.0 SECONDS REQUESTED
 *******************************************************************************
pm3  precise nosym THREADS=1
 InChI=1S/C10H12/c1-8-6-9-4-2-3-5-10(9)7-8/h2-5,9-10H,1,6-7H2

   ATOM   CHEMICAL          X               Y               Z
  NUMBER   SYMBOL      (ANGSTROMS)     (ANGSTROMS)     (ANGSTROMS)

     1       C          0.42760000  *  -0.98580000  *   0.41190000  *
     2       C          0.30180000  *  -0.39270000  *  -1.01540000  *
     3       C         -0.94030000  *   0.50050000  *  -1.00390000  *
     4       C         -1.00190000  *  -1.00940000  *   0.96950000  *
     5       C         -1.73810000  *  -0.01460000  *   0.14110000  *
     6       C          1.34150000  *  -0.17780000  *   1.31080000  *
     7       C          1.52290000  *   0.35700000  *  -1.48660000  *
     8       C          2.27630000  *   0.63770000  *   0.81860000  *
     9       C          2.40850000  *   0.86240000  *  -0.62720000  *
    10       C         -2.98960000  *   0.37720000  *   0.40080000  *
    11       H          0.83040000  *  -2.02130000  *   0.35760000  *
    12       H          0.12100000  *  -1.23380000  *  -1.72210000  *
    13       H         -1.50250000  *   0.40370000  *  -1.95840000  *
    14       H         -0.68410000  *   1.56720000  *  -0.81840000  *
    15       H         -1.45660000  *  -2.01340000  *   0.82420000  *
    16       H         -1.04850000  *  -0.74000000  *   2.04800000  *
    17       H          1.31130000  *  -0.34600000  *   2.38060000  *
    18       H          1.63610000  *   0.56090000  *  -2.54410000  *
    19       H          3.23810000  *   1.45130000  *  -0.99680000  *
    20       H          2.95810000  *   1.13900000  *   1.49370000  *
    21       H         -3.53000000  *  -0.02950000  *   1.25000000  *
    22       H         -3.48200000  *   1.10740000  *  -0.23390000  *



          CARTESIAN COORDINATES 

    NO.       ATOM           X           Y           Z

     1         C          0.4276     -0.9858      0.4119
     2         C          0.3018     -0.3927     -1.0154
     3         C         -0.9403      0.5005     -1.0039
     4         C         -1.0019     -1.0094      0.9695
     5         C         -1.7381     -0.0146      0.1411
     6         C          1.3415     -0.1778      1.3108
     7         C          1.5229      0.3570     -1.4866
     8         C          2.2763      0.6377      0.8186
     9         C          2.4085      0.8624     -0.6272
    10         C         -2.9896      0.3772      0.4008
    11         H          0.8304     -2.0213      0.3576
    12         H          0.1210     -1.2338     -1.7221
    13         H         -1.5025      0.4037     -1.9584
    14         H         -0.6841      1.5672     -0.8184
    15         H         -1.4566     -2.0134      0.8242
    16         H         -1.0485     -0.7400      2.0480
    17         H          1.3113     -0.3460      2.3806
    18         H          1.6361      0.5609     -2.5441
    19         H          3.2381      1.4513     -0.9968
    20         H          2.9581      1.1390      1.4937
    21         H         -3.5300     -0.0295      1.2500
    22         H         -3.4820      1.1074     -0.2339

  H: (PM3): J. J. P. STEWART, J. COMP. CHEM. 10, 209 (1989).
  C: (PM3): J. J. P. STEWART, J. COMP. CHEM. 10, 209 (1989).

           Empirical Formula: C10 H12  =    22 atoms



      MOLECULAR POINT GROUP   :   C1  


      RHF CALCULATION, NO. OF DOUBLY OCCUPIED LEVELS = 26


          Geometry optimization using EF

          DIAGONAL MATRIX USED AS START HESSIAN

 CYCLE:     1 TIME:   0.008 TIME LEFT:  2.00D  GRAD.:    72.632 HEAT:  36.82828
 CYCLE:     2 TIME:   0.016 TIME LEFT:  2.00D  GRAD.:    58.757 HEAT:  35.88408
 CYCLE:     3 TIME:   0.008 TIME LEFT:  2.00D  GRAD.:    55.744 HEAT:  35.35100
 CYCLE:     4 TIME:   0.012 TIME LEFT:  2.00D  GRAD.:    30.156 HEAT:  34.78325
 CYCLE:     5 TIME:   0.008 TIME LEFT:  2.00D  GRAD.:    25.061 HEAT:  34.60639
 CYCLE:     6 TIME:   0.008 TIME LEFT:  2.00D  GRAD.:    15.504 HEAT:  34.40936
 CYCLE:     7 TIME:   0.008 TIME LEFT:  2.00D  GRAD.:    21.622 HEAT:  34.26736
 CYCLE:     8 TIME:   0.008 TIME LEFT:  2.00D  GRAD.:    31.890 HEAT:  34.21917
 CYCLE:     9 TIME:   0.008 TIME LEFT:  2.00D  GRAD.:    33.563 HEAT:  34.18864
 CYCLE:    10 TIME:   0.012 TIME LEFT:  2.00D  GRAD.:    15.695 HEAT:  33.99134
 CYCLE:    11 TIME:   0.012 TIME LEFT:  2.00D  GRAD.:    13.451 HEAT:  33.96160
 CYCLE:    12 TIME:   0.004 TIME LEFT:  2.00D  GRAD.:    14.266 HEAT:  33.95847
 CYCLE:    13 TIME:   0.008 TIME LEFT:  2.00D  GRAD.:    15.216 HEAT:  33.94844
 CYCLE:    14 TIME:   0.008 TIME LEFT:  2.00D  GRAD.:    12.350 HEAT:  33.93927
 CYCLE:    15 TIME:   0.008 TIME LEFT:  2.00D  GRAD.:     9.354 HEAT:  33.91214
 CYCLE:    16 TIME:   0.012 TIME LEFT:  2.00D  GRAD.:     4.010 HEAT:  33.88919
 CYCLE:    17 TIME:   0.008 TIME LEFT:  2.00D  GRAD.:     3.507 HEAT:  33.88463
 CYCLE:    18 TIME:   0.008 TIME LEFT:  2.00D  GRAD.:     2.705 HEAT:  33.87862
 CYCLE:    19 TIME:   0.008 TIME LEFT:  2.00D  GRAD.:     4.891 HEAT:  33.87129
 CYCLE:    20 TIME:   0.012 TIME LEFT:  2.00D  GRAD.:     7.227 HEAT:  33.87089
 CYCLE:    21 TIME:   0.012 TIME LEFT:  2.00D  GRAD.:     5.410 HEAT:  33.85972
 CYCLE:    22 TIME:   0.004 TIME LEFT:  2.00D  GRAD.:     5.194 HEAT:  33.85411
 CYCLE:    23 TIME:   0.008 TIME LEFT:  2.00D  GRAD.:     5.163 HEAT:  33.84879
 CYCLE:    24 TIME:   0.008 TIME LEFT:  2.00D  GRAD.:     5.651 HEAT:  33.84542
 CYCLE:    25 TIME:   0.012 TIME LEFT:  2.00D  GRAD.:     4.446 HEAT:  33.83934
 CYCLE:    26 TIME:   0.004 TIME LEFT:  2.00D  GRAD.:     3.690 HEAT:  33.83480
 CYCLE:    27 TIME:   0.008 TIME LEFT:  2.00D  GRAD.:     2.803 HEAT:  33.82632
 CYCLE:    28 TIME:   0.008 TIME LEFT:  2.00D  GRAD.:     3.596 HEAT:  33.81738
 CYCLE:    29 TIME:   0.008 TIME LEFT:  2.00D  GRAD.:     5.012 HEAT:  33.80701
 CYCLE:    30 TIME:   0.008 TIME LEFT:  2.00D  GRAD.:     3.123 HEAT:  33.79298
 CYCLE:    31 TIME:   0.004 TIME LEFT:  2.00D  GRAD.:     4.452 HEAT:  33.78680
 CYCLE:    32 TIME:   0.008 TIME LEFT:  2.00D  GRAD.:     3.566 HEAT:  33.77314
 CYCLE:    33 TIME:   0.008 TIME LEFT:  2.00D  GRAD.:     3.365 HEAT:  33.75841
 CYCLE:    34 TIME:   0.008 TIME LEFT:  2.00D  GRAD.:     3.622 HEAT:  33.74682
 CYCLE:    35 TIME:   0.008 TIME LEFT:  2.00D  GRAD.:     3.571 HEAT:  33.73504
 CYCLE:    36 TIME:   0.008 TIME LEFT:  2.00D  GRAD.:     4.135 HEAT:  33.71442
 CYCLE:    37 TIME:   0.008 TIME LEFT:  2.00D  GRAD.:     3.756 HEAT:  33.69044
 CYCLE:    38 TIME:   0.008 TIME LEFT:  2.00D  GRAD.:     2.547 HEAT:  33.67409
 CYCLE:    39 TIME:   0.008 TIME LEFT:  2.00D  GRAD.:     2.282 HEAT:  33.66520
 CYCLE:    40 TIME:   0.008 TIME LEFT:  2.00D  GRAD.:     2.503 HEAT:  33.65351
 CYCLE:    41 TIME:   0.004 TIME LEFT:  2.00D  GRAD.:     2.078 HEAT:  33.64253
 CYCLE:    42 TIME:   0.008 TIME LEFT:  2.00D  GRAD.:     1.522 HEAT:  33.63530
 CYCLE:    43 TIME:   0.008 TIME LEFT:  2.00D  GRAD.:     1.649 HEAT:  33.62821
 CYCLE:    44 TIME:   0.012 TIME LEFT:  2.00D  GRAD.:     1.786 HEAT:  33.62138
 CYCLE:    45 TIME:   0.004 TIME LEFT:  2.00D  GRAD.:     1.614 HEAT:  33.61693
 CYCLE:    46 TIME:   0.008 TIME LEFT:  2.00D  GRAD.:     1.465 HEAT:  33.61241
 CYCLE:    47 TIME:   0.008 TIME LEFT:  2.00D  GRAD.:     1.776 HEAT:  33.60705
 CYCLE:    48 TIME:   0.008 TIME LEFT:  2.00D  GRAD.:     2.073 HEAT:  33.60018
 CYCLE:    49 TIME:   0.008 TIME LEFT:  2.00D  GRAD.:     1.721 HEAT:  33.59330
 CYCLE:    50 TIME:   0.008 TIME LEFT:  2.00D  GRAD.:     1.453 HEAT:  33.58785
 CYCLE:    51 TIME:   0.008 TIME LEFT:  2.00D  GRAD.:     1.249 HEAT:  33.58498
 CYCLE:    52 TIME:   0.008 TIME LEFT:  2.00D  GRAD.:     1.378 HEAT:  33.58061
 CYCLE:    53 TIME:   0.008 TIME LEFT:  2.00D  GRAD.:     1.234 HEAT:  33.57786
 CYCLE:    54 TIME:   0.008 TIME LEFT:  2.00D  GRAD.:     0.902 HEAT:  33.57500
 CYCLE:    55 TIME:   0.008 TIME LEFT:  2.00D  GRAD.:     0.821 HEAT:  33.57326
 CYCLE:    56 TIME:   0.004 TIME LEFT:  2.00D  GRAD.:     0.823 HEAT:  33.57162
 CYCLE:    57 TIME:   0.008 TIME LEFT:  2.00D  GRAD.:     0.796 HEAT:  33.57010
 CYCLE:    58 TIME:   0.008 TIME LEFT:  2.00D  GRAD.:     0.794 HEAT:  33.56867
 CYCLE:    59 TIME:   0.008 TIME LEFT:  2.00D  GRAD.:     0.743 HEAT:  33.56746
 CYCLE:    60 TIME:   0.008 TIME LEFT:  2.00D  GRAD.:     0.678 HEAT:  33.56641
 CYCLE:    61 TIME:   0.008 TIME LEFT:  2.00D  GRAD.:     0.555 HEAT:  33.56565
 CYCLE:    62 TIME:   0.008 TIME LEFT:  2.00D  GRAD.:     0.462 HEAT:  33.56495
 CYCLE:    63 TIME:   0.008 TIME LEFT:  2.00D  GRAD.:     0.456 HEAT:  33.56448
 CYCLE:    64 TIME:   0.004 TIME LEFT:  2.00D  GRAD.:     0.474 HEAT:  33.56400
 CYCLE:    65 TIME:   0.008 TIME LEFT:  2.00D  GRAD.:     0.391 HEAT:  33.56366
 CYCLE:    66 TIME:   0.008 TIME LEFT:  2.00D  GRAD.:     0.363 HEAT:  33.56319
 CYCLE:    67 TIME:   0.008 TIME LEFT:  2.00D  GRAD.:     0.330 HEAT:  33.56301
 CYCLE:    68 TIME:   0.008 TIME LEFT:  2.00D  GRAD.:     0.334 HEAT:  33.56269
 CYCLE:    69 TIME:   0.004 TIME LEFT:  2.00D  GRAD.:     0.263 HEAT:  33.56255
 CYCLE:    70 TIME:   0.008 TIME LEFT:  2.00D  GRAD.:     0.654 HEAT:  33.56252
 CYCLE:    71 TIME:   0.008 TIME LEFT:  2.00D  GRAD.:     0.260 HEAT:  33.56214
 CYCLE:    72 TIME:   0.008 TIME LEFT:  2.00D  GRAD.:     0.216 HEAT:  33.56200
 CYCLE:    73 TIME:   0.008 TIME LEFT:  2.00D  GRAD.:     0.625 HEAT:  33.56144
 CYCLE:    74 TIME:   0.008 TIME LEFT:  2.00D  GRAD.:     0.501 HEAT:  33.56107
 CYCLE:    75 TIME:   0.008 TIME LEFT:  2.00D  GRAD.:     0.797 HEAT:  33.55982
 CYCLE:    76 TIME:   0.004 TIME LEFT:  2.00D  GRAD.:     0.518 HEAT:  33.55922
 CYCLE:    77 TIME:   0.012 TIME LEFT:  2.00D  GRAD.:     0.461 HEAT:  33.55836
 CYCLE:    78 TIME:   0.008 TIME LEFT:  2.00D  GRAD.:     0.731 HEAT:  33.55730
 CYCLE:    79 TIME:   0.008 TIME LEFT:  2.00D  GRAD.:     0.763 HEAT:  33.55623
 CYCLE:    80 TIME:   0.008 TIME LEFT:  2.00D  GRAD.:     3.469 HEAT:  33.56011
 CYCLE:    81 TIME:   0.008 TIME LEFT:  2.00D  GRAD.:     1.077 HEAT:  33.55190
 CYCLE:    82 TIME:   0.008 TIME LEFT:  2.00D  GRAD.:     0.528 HEAT:  33.55100
 CYCLE:    83 TIME:   0.008 TIME LEFT:  2.00D  GRAD.:     2.239 HEAT:  33.55154
 CYCLE:    84 TIME:   0.008 TIME LEFT:  2.00D  GRAD.:     0.540 HEAT:  33.54967
 CYCLE:    85 TIME:   0.008 TIME LEFT:  2.00D  GRAD.:     0.374 HEAT:  33.54944
 CYCLE:    86 TIME:   0.008 TIME LEFT:  2.00D  GRAD.:     0.453 HEAT:  33.54896
 CYCLE:    87 TIME:   0.004 TIME LEFT:  2.00D  GRAD.:     0.199 HEAT:  33.54869
 CYCLE:    88 TIME:   0.012 TIME LEFT:  2.00D  GRAD.:     1.347 HEAT:  33.54958
 CYCLE:    89 TIME:   0.008 TIME LEFT:  2.00D  GRAD.:     0.167 HEAT:  33.54841
 CYCLE:    90 TIME:   0.008 TIME LEFT:  2.00D  GRAD.:     0.106 HEAT:  33.54837
 CYCLE:    91 TIME:   0.004 TIME LEFT:  2.00D  GRAD.:     0.068 HEAT:  33.54834
 CYCLE:    92 TIME:   0.008 TIME LEFT:  2.00D  GRAD.:     0.096 HEAT:  33.54832
 CYCLE:    93 TIME:   0.012 TIME LEFT:  2.00D  GRAD.:     0.078 HEAT:  33.54832
 CYCLE:    94 TIME:   0.004 TIME LEFT:  2.00D  GRAD.:     0.085 HEAT:  33.54836
 CYCLE:    95 TIME:   0.008 TIME LEFT:  2.00D  GRAD.:     0.420 HEAT:  33.54908
 CYCLE:    96 TIME:   0.008 TIME LEFT:  2.00D  GRAD.:     0.078 HEAT:  33.54837
 CYCLE:    97 TIME:   0.008 TIME LEFT:  2.00D  GRAD.:     0.108 HEAT:  33.54831
 CYCLE:    98 TIME:   0.008 TIME LEFT:  2.00D  GRAD.:     0.029 HEAT:  33.54830

     GRADIENT =  0.02933 IS LESS THAN CUTOFF =  0.05000



 -------------------------------------------------------------------------------
 pm3  precise nosym THREADS=1
 InChI=1S/C10H12/c1-8-6-9-4-2-3-5-10(9)7-8/h2-5,9-10H,1,6-7H2



     GEOMETRY OPTIMISED USING EIGENVECTOR FOLLOWING (EF).     
     SCF FIELD WAS ACHIEVED                                   


                              PM3 CALCULATION
                                                       MOPAC v23.1.2 MacOS
                                                       Tue Jun  3 16:26:57 2025




          FINAL HEAT OF FORMATION =         33.54830 KCAL/MOL =     140.36610 KJ/MOL


          COSMO AREA              =        176.37 SQUARE ANGSTROMS
          COSMO VOLUME            =        180.41 CUBIC ANGSTROMS

          GRADIENT NORM           =          0.02933          =       0.00625 PER ATOM
          IONIZATION POTENTIAL    =          9.035660 EV
          HOMO LUMO ENERGIES (EV) =         -9.036  0.241
          NO. OF FILLED LEVELS    =         26
          MOLECULAR WEIGHT        =        132.2048         POINT GROUP:  C1  

          MOLECULAR DIMENSIONS (Angstroms)

            Atom       Atom       Distance
            H    21    H    19     7.35164
            H    17    H    13     5.17591
            H    11    H    14     3.19060


          SCF CALCULATIONS        =        109

          WALL-CLOCK TIME         =      0.785 SECONDS
          COMPUTATION TIME        =      0.508 SECONDS




   ATOM   CHEMICAL          X               Y               Z
  NUMBER   SYMBOL      (ANGSTROMS)     (ANGSTROMS)     (ANGSTROMS)

     1       C          0.42204506  *  -0.95426384  *   0.41910362  *
     2       C          0.32126438  *  -0.36466294  *  -1.00429239  *
     3       C         -1.00252040  *   0.41418603  *  -1.07502737  *
     4       C         -0.97219775  *  -0.81095387  *   1.05361417  *
     5       C         -1.80173815  *  -0.00165978  *   0.11358254  *
     6       C          1.47136478  *  -0.34310465  *   1.28300380  *
     7       C          1.45761787  *   0.50613083  *  -1.41622085  *
     8       C          2.40326251  *   0.49677621  *   0.81825164  *
     9       C          2.42091657  *   0.89754408  *  -0.57457675  *
    10       C         -3.07987089  *   0.30728084  *   0.30998432  *
    11       H          0.68948572  *  -2.03607764  *   0.34340951  *
    12       H          0.28555157  *  -1.21497499  *  -1.72740922  *
    13       H         -1.54405552  *   0.21314952  *  -2.01792038  *
    14       H         -0.83131237  *   1.50816074  *  -1.04907809  *
    15       H         -1.43696980  *  -1.80076871  *   1.22247069  *
    16       H         -0.92735989  *  -0.32445853  *   2.04727981  *
    17       H          1.45383372  *  -0.63643983  *   2.33936314  *
    18       H          1.45552092  *   0.82876309  *  -2.46351747  *
    19       H          3.24494909  *   1.53668160  *  -0.90803081  *
    20       H          3.17664659  *   0.90967381  *   1.47407116  *
    21       H         -3.62899896  *  -0.00866863  *   1.19134879  *
    22       H         -3.65453818  *   0.89540803  *  -0.39859181  *

                             CARTESIAN COORDINATES

   1    C        0.422045055    -0.954263837     0.419103625
   2    C        0.321264378    -0.364662943    -1.004292385
   3    C       -1.002520402     0.414186034    -1.075027372
   4    C       -0.972197750    -0.810953866     1.053614167
   5    C       -1.801738149    -0.001659777     0.113582539
   6    C        1.471364782    -0.343104647     1.283003799
   7    C        1.457617874     0.506130826    -1.416220853
   8    C        2.403262506     0.496776207     0.818251640
   9    C        2.420916566     0.897544080    -0.574576749
  10    C       -3.079870889     0.307280840     0.309984318
  11    H        0.689485716    -2.036077638     0.343409507
  12    H        0.285551573    -1.214974989    -1.727409223
  13    H       -1.544055517     0.213149516    -2.017920377
  14    H       -0.831312369     1.508160737    -1.049078087
  15    H       -1.436969803    -1.800768711     1.222470689
  16    H       -0.927359894    -0.324458527     2.047279808
  17    H        1.453833718    -0.636439828     2.339363144
  18    H        1.455520920     0.828763088    -2.463517473
  19    H        3.244949091     1.536681600    -0.908030815
  20    H        3.176646594     0.909673807     1.474071156
  21    H       -3.628998960    -0.008668629     1.191348789
  22    H       -3.654538178     0.895408032    -0.398591807


           Empirical Formula: C10 H12  =    22 atoms



      MOLECULAR POINT GROUP   :   C1  


                  EIGENVALUES  
 -41.92072 -35.38518 -31.50689 -29.89394 -26.52067 -24.13187 -21.02465 -20.80094
 -18.71471 -17.57522 -16.69413 -16.25530 -15.87268 -14.94606 -14.60251 -14.21260
 -13.89625 -13.70355 -12.94612 -12.70813 -12.18183 -11.86037 -11.57168 -11.45195
  -9.72191  -9.03566   0.24121   1.11921   2.05882   3.24840   3.29404   3.40284
   3.43474   3.52450   3.65956   3.76865   3.88068   4.01893   4.03151   4.10325
   4.16516   4.54015   4.64225   4.70814   4.81986   5.00484   5.08222   5.37101
   5.64188   5.97524   6.00017   6.22336


              NET ATOMIC CHARGES AND DIPOLE CONTRIBUTIONS

  ATOM NO.   TYPE          CHARGE      No. of ELECS.   s-Pop       p-Pop       
    1          C          -0.036767        4.0368     1.16889     2.86787
    2          C          -0.035390        4.0354     1.16886     2.86653
    3          C          -0.056403        4.0564     1.15261     2.90379
    4          C          -0.055106        4.0551     1.15275     2.90235
    5          C          -0.107306        4.1073     1.20075     2.90655
    6          C          -0.129912        4.1299     1.19778     2.93213
    7          C          -0.133574        4.1336     1.19620     2.93737
    8          C          -0.112336        4.1123     1.17784     2.93450
    9          C          -0.106003        4.1060     1.17764     2.92836
   10          C          -0.181447        4.1814     1.17708     3.00437
   11          H           0.067890        0.9321     0.93211
   12          H           0.066922        0.9331     0.93308
   13          H           0.058211        0.9418     0.94179
   14          H           0.066529        0.9335     0.93347
   15          H           0.057629        0.9424     0.94237
   16          H           0.065013        0.9350     0.93499
   17          H           0.099965        0.9000     0.90003
   18          H           0.099493        0.9005     0.90051
   19          H           0.101074        0.8989     0.89893
   20          H           0.101518        0.8985     0.89848
   21          H           0.084799        0.9152     0.91520
   22          H           0.085202        0.9148     0.91480
 DIPOLE           X         Y         Z       TOTAL
 POINT-CHG.     0.106    -0.239    -0.080     0.274
 HYBRID        -0.032     0.039     0.025     0.056
 SUM            0.074    -0.201    -0.055     0.221


          ATOMIC ORBITAL ELECTRON POPULATIONS

     Atom    s        px        py        pz   
    1  C   1.16889   0.93894   0.99015   0.93878
    2  C   1.16886   0.93764   0.96920   0.95969
    3  C   1.15261   0.94294   0.99934   0.96152
    4  C   1.15275   0.93642   0.99070   0.97523
    5  C   1.20075   0.95828   0.98059   0.96768
    6  C   1.19778   0.96482   0.98362   0.98369
    7  C   1.19620   0.96399   0.98915   0.98424
    8  C   1.17784   0.98772   0.99051   0.95627
    9  C   1.17764   0.98523   0.99922   0.94391
   10  C   1.17708   0.95338   1.03090   1.02009
   11  H   0.93211
   12  H   0.93308
   13  H   0.94179
   14  H   0.93347
   15  H   0.94237
   16  H   0.93499
   17  H   0.90003
   18  H   0.90051
   19  H   0.89893
   20  H   0.89848
   21  H   0.91520
   22  H   0.91480
 *******************************************************************************
 **                                                                           **
 **                              MOPAC v23.1.2                                **
 **                                                                           **
 *******************************************************************************
 **          Digital Object Identifier (DOI): 10.5281/zenodo.6511958          **
 **    Visit the DOI location for information on how to cite this program.    **
 *******************************************************************************

                              PM3 CALCULATION RESULTS

 *******************************************************************************
 *  CALCULATION DONE: (MAX THREADS = 1)              Tue Jun  3 16:26:57 2025  *
 *  PM3        - The PM3 Hamiltonian to be used
 *  OLDGEO     - PREVIOUS GEOMETRY TO BE USED
 *  PRECISE    - TIGHTER CRITERIA TO BE USED
 *  NOSYM      - POINT-GROUP SYMMETRY SET TO C1
 *  THREADS=1  - MULTI-THREADING NOT USED
 *  T=         - A TIME OF 172800.0 SECONDS REQUESTED
 *  DUMP=N     - RESTART FILE WRITTEN EVERY 7200.0 SECONDS REQUESTED
 *  THERMO     - THERMODYNAMIC QUANTITIES TO BE CALCULATED
 *******************************************************************************
oldgeo thermo nosym precise THREADS=1  pm3
 InChI=1S/C10H12/c1-8-6-9-4-2-3-5-10(9)7-8/h2-5,9-10H,1,6-7H2

   ATOM   CHEMICAL          X               Y               Z
  NUMBER   SYMBOL      (ANGSTROMS)     (ANGSTROMS)     (ANGSTROMS)

     1       C          0.42204506  *  -0.95426384  *   0.41910362  *
     2       C          0.32126438  *  -0.36466294  *  -1.00429239  *
     3       C         -1.00252040  *   0.41418603  *  -1.07502737  *
     4       C         -0.97219775  *  -0.81095387  *   1.05361417  *
     5       C         -1.80173815  *  -0.00165978  *   0.11358254  *
     6       C          1.47136478  *  -0.34310465  *   1.28300380  *
     7       C          1.45761787  *   0.50613083  *  -1.41622085  *
     8       C          2.40326251  *   0.49677621  *   0.81825164  *
     9       C          2.42091657  *   0.89754408  *  -0.57457675  *
    10       C         -3.07987089  *   0.30728084  *   0.30998432  *
    11       H          0.68948572  *  -2.03607764  *   0.34340951  *
    12       H          0.28555157  *  -1.21497499  *  -1.72740922  *
    13       H         -1.54405552  *   0.21314952  *  -2.01792038  *
    14       H         -0.83131237  *   1.50816074  *  -1.04907809  *
    15       H         -1.43696980  *  -1.80076871  *   1.22247069  *
    16       H         -0.92735989  *  -0.32445853  *   2.04727981  *
    17       H          1.45383372  *  -0.63643983  *   2.33936314  *
    18       H          1.45552092  *   0.82876309  *  -2.46351747  *
    19       H          3.24494909  *   1.53668160  *  -0.90803081  *
    20       H          3.17664659  *   0.90967381  *   1.47407116  *
    21       H         -3.62899896  *  -0.00866863  *   1.19134879  *
    22       H         -3.65453818  *   0.89540803  *  -0.39859181  *



          CARTESIAN COORDINATES 

    NO.       ATOM           X           Y           Z

     1         C          0.4220     -0.9543      0.4191
     2         C          0.3213     -0.3647     -1.0043
     3         C         -1.0025      0.4142     -1.0750
     4         C         -0.9722     -0.8110      1.0536
     5         C         -1.8017     -0.0017      0.1136
     6         C          1.4714     -0.3431      1.2830
     7         C          1.4576      0.5061     -1.4162
     8         C          2.4033      0.4968      0.8183
     9         C          2.4209      0.8975     -0.5746
    10         C         -3.0799      0.3073      0.3100
    11         H          0.6895     -2.0361      0.3434
    12         H          0.2856     -1.2150     -1.7274
    13         H         -1.5441      0.2131     -2.0179
    14         H         -0.8313      1.5082     -1.0491
    15         H         -1.4370     -1.8008      1.2225
    16         H         -0.9274     -0.3245      2.0473
    17         H          1.4538     -0.6364      2.3394
    18         H          1.4555      0.8288     -2.4635
    19         H          3.2449      1.5367     -0.9080
    20         H          3.1766      0.9097      1.4741
    21         H         -3.6290     -0.0087      1.1913
    22         H         -3.6545      0.8954     -0.3986

  H: (PM3): J. J. P. STEWART, J. COMP. CHEM. 10, 209 (1989).
  C: (PM3): J. J. P. STEWART, J. COMP. CHEM. 10, 209 (1989).

           Empirical Formula: C10 H12  =    22 atoms



      MOLECULAR POINT GROUP   :   C1  


      RHF CALCULATION, NO. OF DOUBLY OCCUPIED LEVELS = 26



          HEAT OF FORMATION =      33.548303 KCALS/MOLE


          CARTESIAN COORDINATE DERIVATIVES

   NUMBER  ATOM         X            Y            Z

     1       C      0.001152    -0.001380    -0.002363
     2       C     -0.002774    -0.001218    -0.000773
     3       C     -0.001669    -0.000076     0.000272
     4       C     -0.006089     0.000956    -0.001116
     5       C      0.002889     0.006091    -0.002015
     6       C      0.000953    -0.001580     0.001032
     7       C      0.000018    -0.001677     0.001901
     8       C     -0.005046     0.001467    -0.002641
     9       C      0.001017    -0.000345    -0.002433
    10       C      0.001724    -0.007424     0.002826
    11       H     -0.001098    -0.013871     0.005092
    12       H      0.001533     0.005871    -0.004424
    13       H      0.003334     0.003806    -0.003683
    14       H      0.003185     0.008656     0.004667
    15       H      0.000469     0.002914    -0.001054
    16       H     -0.001080    -0.007166     0.004613
    17       H     -0.004671    -0.000178     0.000794
    18       H     -0.000170    -0.001088     0.000199
    19       H      0.000201     0.002407    -0.001633
    20       H     -0.001472     0.000027     0.002307
    21       H      0.002737     0.002433     0.001911
    22       H      0.004859     0.001376    -0.003481



          GRADIENT NORM =   0.02879

          MOLECULAR WEIGHT =  132.20



          ROTATIONAL CONSTANTS IN CM(-1)

          A =    0.09249429   B =    0.03585904   C =    0.02937393



           PRINCIPAL MOMENTS OF INERTIA IN UNITS OF 10**(-40)*GRAM-CM**2

          A =      302.6430   B =      780.6330   C =      952.9793


          ORIENTATION OF MOLECULE IN FORCE CALCULATION

    NO.       ATOM         X         Y         Z

     1          C      -0.7799   -0.5519   -0.5333
     2          C       0.7641   -0.5519   -0.5333
     3          C       1.2131    0.9186   -0.5333
     4          C      -1.2191    0.8828   -0.8738
     5          C       0.0107    1.7279   -0.8851
     6          C      -1.4114   -1.0215    0.7322
     7          C       1.4022   -1.2887    0.5933
     8          C      -0.7231   -1.6034    1.7209
     9          C       0.7129   -1.7785    1.6298
    10          C       0.0310    3.0264   -1.1696
    11          H      -1.1407   -1.2518   -1.3254
    12          H       1.1083   -1.0404   -1.4767
    13          H       2.0410    1.0922   -1.2455
    14          H       1.5958    1.2258    0.4597
    15          H      -1.7224    0.9225   -1.8583
    16          H      -1.9523    1.2762   -0.1432
    17          H      -2.4962   -0.8807    0.8081
    18          H       2.4910   -1.3980    0.5353
    19          H       1.2106   -2.3178    2.4424
    20          H      -1.2205   -1.9606    2.6284
    21          H      -0.8663    3.5851   -1.4163
    22          H       0.9464    3.6098   -1.1725


    FIRST DERIVATIVES WILL BE USED IN THE CALCULATION OF SECOND DERIVATIVES

          ESTIMATED TIME TO COMPLETE CALCULATION =        2.06 SECONDS

    FOR POINT-GROUP C1   THERE ARE   1 UNIQUE SYMMETRY FUNCTIONS.

 STEP:   1 TIME =     0.02 SECS, INTEGRAL =      0.02 TIME LEFT: 172799.97
 STEP:   2 TIME =     0.02 SECS, INTEGRAL =      0.04 TIME LEFT: 172799.95
 STEP:   3 TIME =     0.02 SECS, INTEGRAL =      0.06 TIME LEFT: 172799.93
 STEP:   4 TIME =     0.02 SECS, INTEGRAL =      0.08 TIME LEFT: 172799.91
 STEP:   5 TIME =     0.02 SECS, INTEGRAL =      0.11 TIME LEFT: 172799.89
 STEP:   6 TIME =     0.02 SECS, INTEGRAL =      0.12 TIME LEFT: 172799.87
 STEP:   7 TIME =     0.02 SECS, INTEGRAL =      0.14 TIME LEFT: 172799.85
 STEP:   8 TIME =     0.02 SECS, INTEGRAL =      0.16 TIME LEFT: 172799.83
 STEP:   9 TIME =     0.02 SECS, INTEGRAL =      0.19 TIME LEFT: 172799.80
 STEP:  10 TIME =     0.02 SECS, INTEGRAL =      0.21 TIME LEFT: 172799.79
 STEP:  11 TIME =     0.02 SECS, INTEGRAL =      0.23 TIME LEFT: 172799.77
 STEP:  12 TIME =     0.02 SECS, INTEGRAL =      0.25 TIME LEFT: 172799.75
 STEP:  13 TIME =     0.02 SECS, INTEGRAL =      0.27 TIME LEFT: 172799.73
 STEP:  14 TIME =     0.02 SECS, INTEGRAL =      0.29 TIME LEFT: 172799.71
 STEP:  15 TIME =     0.02 SECS, INTEGRAL =      0.31 TIME LEFT: 172799.68
 STEP:  16 TIME =     0.02 SECS, INTEGRAL =      0.33 TIME LEFT: 172799.66
 STEP:  17 TIME =     0.02 SECS, INTEGRAL =      0.35 TIME LEFT: 172799.64
 STEP:  18 TIME =     0.02 SECS, INTEGRAL =      0.37 TIME LEFT: 172799.62
 STEP:  19 TIME =     0.02 SECS, INTEGRAL =      0.39 TIME LEFT: 172799.60
 STEP:  20 TIME =     0.02 SECS, INTEGRAL =      0.41 TIME LEFT: 172799.58
 STEP:  21 TIME =     0.02 SECS, INTEGRAL =      0.43 TIME LEFT: 172799.56
 STEP:  22 TIME =     0.02 SECS, INTEGRAL =      0.45 TIME LEFT: 172799.54
 STEP:  23 TIME =     0.02 SECS, INTEGRAL =      0.47 TIME LEFT: 172799.52
 STEP:  24 TIME =     0.02 SECS, INTEGRAL =      0.49 TIME LEFT: 172799.50
 STEP:  25 TIME =     0.02 SECS, INTEGRAL =      0.52 TIME LEFT: 172799.48
 STEP:  26 TIME =     0.02 SECS, INTEGRAL =      0.54 TIME LEFT: 172799.46
 STEP:  27 TIME =     0.02 SECS, INTEGRAL =      0.55 TIME LEFT: 172799.44
 STEP:  28 TIME =     0.02 SECS, INTEGRAL =      0.57 TIME LEFT: 172799.42
 STEP:  29 TIME =     0.02 SECS, INTEGRAL =      0.59 TIME LEFT: 172799.40
 STEP:  30 TIME =     0.02 SECS, INTEGRAL =      0.62 TIME LEFT: 172799.38
 STEP:  31 TIME =     0.02 SECS, INTEGRAL =      0.64 TIME LEFT: 172799.35
 STEP:  32 TIME =     0.02 SECS, INTEGRAL =      0.66 TIME LEFT: 172799.33
 STEP:  33 TIME =     0.02 SECS, INTEGRAL =      0.68 TIME LEFT: 172799.31
 STEP:  34 TIME =     0.02 SECS, INTEGRAL =      0.71 TIME LEFT: 172799.29
 STEP:  35 TIME =     0.02 SECS, INTEGRAL =      0.73 TIME LEFT: 172799.27
 STEP:  36 TIME =     0.02 SECS, INTEGRAL =      0.75 TIME LEFT: 172799.25
 STEP:  37 TIME =     0.02 SECS, INTEGRAL =      0.77 TIME LEFT: 172799.23
 STEP:  38 TIME =     0.02 SECS, INTEGRAL =      0.79 TIME LEFT: 172799.20
 STEP:  39 TIME =     0.02 SECS, INTEGRAL =      0.81 TIME LEFT: 172799.18
 STEP:  40 TIME =     0.02 SECS, INTEGRAL =      0.83 TIME LEFT: 172799.16
 STEP:  41 TIME =     0.02 SECS, INTEGRAL =      0.85 TIME LEFT: 172799.14
 STEP:  42 TIME =     0.02 SECS, INTEGRAL =      0.87 TIME LEFT: 172799.12
 STEP:  43 TIME =     0.02 SECS, INTEGRAL =      0.89 TIME LEFT: 172799.10
 STEP:  44 TIME =     0.02 SECS, INTEGRAL =      0.91 TIME LEFT: 172799.08
 STEP:  45 TIME =     0.02 SECS, INTEGRAL =      0.94 TIME LEFT: 172799.05
 STEP:  46 TIME =     0.02 SECS, INTEGRAL =      0.96 TIME LEFT: 172799.04
 STEP:  47 TIME =     0.02 SECS, INTEGRAL =      0.98 TIME LEFT: 172799.02
 STEP:  48 TIME =     0.02 SECS, INTEGRAL =      1.00 TIME LEFT: 172798.99
 STEP:  49 TIME =     0.02 SECS, INTEGRAL =      1.02 TIME LEFT: 172798.97
 STEP:  50 TIME =     0.02 SECS, INTEGRAL =      1.04 TIME LEFT: 172798.95
 STEP:  51 TIME =     0.02 SECS, INTEGRAL =      1.06 TIME LEFT: 172798.93
 STEP:  52 TIME =     0.02 SECS, INTEGRAL =      1.09 TIME LEFT: 172798.91
 STEP:  53 TIME =     0.02 SECS, INTEGRAL =      1.11 TIME LEFT: 172798.88
 STEP:  54 TIME =     0.02 SECS, INTEGRAL =      1.13 TIME LEFT: 172798.86
 STEP:  55 TIME =     0.02 SECS, INTEGRAL =      1.16 TIME LEFT: 172798.84
 STEP:  56 TIME =     0.02 SECS, INTEGRAL =      1.18 TIME LEFT: 172798.81
 STEP:  57 TIME =     0.02 SECS, INTEGRAL =      1.20 TIME LEFT: 172798.79
 STEP:  58 TIME =     0.02 SECS, INTEGRAL =      1.22 TIME LEFT: 172798.77
 STEP:  59 TIME =     0.02 SECS, INTEGRAL =      1.24 TIME LEFT: 172798.75
 STEP:  60 TIME =     0.02 SECS, INTEGRAL =      1.26 TIME LEFT: 172798.73
 STEP:  61 TIME =     0.02 SECS, INTEGRAL =      1.28 TIME LEFT: 172798.71
 STEP:  62 TIME =     0.02 SECS, INTEGRAL =      1.30 TIME LEFT: 172798.69
 STEP:  63 TIME =     0.02 SECS, INTEGRAL =      1.32 TIME LEFT: 172798.67
 STEP:  64 TIME =     0.02 SECS, INTEGRAL =      1.35 TIME LEFT: 172798.64
 STEP:  65 TIME =     0.02 SECS, INTEGRAL =      1.37 TIME LEFT: 172798.62
 STEP:  66 TIME =     0.02 SECS, INTEGRAL =      1.39 TIME LEFT: 172798.60

(To convert to Hartree/Bohr^2, multiply by (10^(-21) x N x a0^2)/(4.184 x 627.51) =  0.0642)


           FORCE MATRIX IN MILLIDYNES/ANGSTROM


                  C  1       C  2       C  3       C  4       C  5       C  6
 ------------------------------------------------------------------------------
     C    1  14.581729
     C    2   3.463877  14.660802
     C    3   0.691249   3.634894  14.651639
     C    4   3.618005   0.697966   0.744786  14.628813
     C    5   0.799360   0.825112   4.786076   4.764089  19.054683
     C    6   4.826898   0.592802   0.022732   0.673660   0.026369  18.100091
     C    7   0.583333   4.862535   0.678121   0.039249   0.040338   0.167481
     C    8   0.826393   0.116975   0.019464   0.045258   0.009107  10.333988
     C    9   0.121053   0.825132   0.042239   0.015081   0.008899   1.144280
     C   10   0.052123   0.052842   0.757711   0.755955  10.837287   0.007015
     H   11   4.228491   0.422391   0.035272   0.429045   0.029934   0.385298
     H   12   0.417828   4.239334   0.432999   0.019712   0.016455   0.036318
     H   13   0.035510   0.436353   4.522926   0.031637   0.441567   0.001709
     H   14   0.012534   0.455065   4.470125   0.022112   0.425805   0.001464
     H   15   0.434927   0.022528   0.028514   4.501576   0.433774   0.031532
     H   16   0.451701   0.026427   0.024847   4.475719   0.431944   0.073825
     H   17   0.430158   0.043354   0.004796   0.030574   0.001514   4.801352
     H   18   0.043554   0.429304   0.013933   0.006782   0.001878   0.013566
     H   19   0.003025   0.121183   0.017790   0.000538   0.002615   0.047607
     H   20   0.120834   0.004386   0.000632   0.015692   0.001458   0.443764
     H   21   0.001997   0.007606   0.127117   0.089261   0.479276   0.001091
     H   22   0.006410   0.003270   0.089858   0.126322   0.479246   0.001111


                  C  7       C  8       C  9       C 10       H 11       H 12
 ------------------------------------------------------------------------------
     C    7  18.102964
     C    8   1.144775  18.442927
     C    9  10.345684   5.698625  18.452579
     C   10   0.009600   0.003859   0.003574  18.083959
     H   11   0.020703   0.036726   0.014970   0.005131   4.652067
     H   12   0.401114   0.011207   0.041061   0.002432   0.021349   4.663266
     H   13   0.018669   0.000940   0.002169   0.025186   0.003596   0.030532
     H   14   0.064595   0.001433   0.005563   0.024516   0.001337   0.034961
     H   15   0.002504   0.004596   0.001233   0.025399   0.026533   0.001435
     H   16   0.003053   0.004054   0.000989   0.024757   0.023343   0.001213
     H   17   0.012258   0.444024   0.128514   0.000944   0.025820   0.006202
     H   18   4.821024   0.128325   0.445022   0.001289   0.004622   0.035423
     H   19   0.443358   0.435311   4.854463   0.001003   0.000761   0.014881
     H   20   0.047573   4.854516   0.435512   0.000770   0.016512   0.000753
     H   21   0.001353   0.000546   0.000513   5.111163   0.000450   0.000540
     H   22   0.001126   0.000511   0.000489   5.110975   0.000849   0.000399


                  H 13       H 14       H 15       H 16       H 17       H 18
 ------------------------------------------------------------------------------
     H   13   5.125875
     H   14   0.569683   5.075161
     H   15   0.003471   0.000956   5.094983
     H   16   0.000745   0.003081   0.573615   5.089995
     H   17   0.000882   0.000605   0.001288   0.032067   5.180773
     H   18   0.001499   0.006818   0.000822   0.000952   0.010361   5.196123
     H   19   0.001041   0.000938   0.000155   0.000258   0.007587   0.067047
     H   20   0.000182   0.000375   0.001633   0.000902   0.067030   0.007473
     H   21   0.010689   0.014870   0.011227   0.010961   0.000355   0.000225
     H   22   0.011133   0.011821   0.012867   0.012795   0.000218   0.000302


                  H 19       H 20       H 21       H 22
 ------------------------------------------------------
     H   19   5.219034
     H   20   0.031975   5.219465
     H   21   0.000189   0.000214   5.493488
     H   22   0.000212   0.000200   0.410740   5.493160


          HEAT OF FORMATION =      33.548303 KCALS/MOLE

          ZERO POINT ENERGY     118.519 KCAL/MOL


           NORMAL COORDINATE ANALYSIS (Total motion = 1 Angstrom)


   Root No.       1         2         3         4         5         6         7         8

                 1 A       2 A       3 A       4 A       5 A       6 A       7 A       8 A   

                  32.4      50.7     181.9     277.1     386.1     427.1     435.3     491.6
  
           1   -0.0002    0.0006   -0.0038   -0.0229   -0.0097   -0.0026   -0.0011   -0.0163
           2    0.0094   -0.0089   -0.0128    0.0025    0.0129   -0.0062   -0.0030    0.0210
           3    0.0050   -0.0105   -0.0233    0.0071    0.0146   -0.0182    0.0006   -0.0361
           4    0.0000    0.0006   -0.0034   -0.0235   -0.0107    0.0025    0.0006   -0.0198
           5    0.0053   -0.0167   -0.0113   -0.0016   -0.0095   -0.0163    0.0076   -0.0316
           6    0.0074   -0.0106   -0.0210   -0.0035   -0.0130   -0.0175   -0.0019    0.0208
           7    0.0076    0.0141   -0.0079   -0.0207    0.0208    0.0013    0.0105   -0.0251
           8    0.0029   -0.0205   -0.0092   -0.0063   -0.0124   -0.0210    0.0039   -0.0283
           9   -0.0198   -0.0631    0.0303    0.0098    0.0114    0.0158   -0.0022    0.0029
          10   -0.0026    0.0037   -0.0052   -0.0139    0.0252   -0.0072   -0.0036   -0.0126
          11    0.0206   -0.0066    0.0003    0.0017    0.0119   -0.0053   -0.0078    0.0374
          12    0.0544   -0.0033    0.0252   -0.0260   -0.0081    0.0173    0.0008   -0.0150
          13    0.0060    0.0038   -0.0013   -0.0100    0.0332    0.0028   -0.0138   -0.0030
          14    0.0066   -0.0077   -0.0061   -0.0006    0.0026   -0.0275    0.0072    0.0184
          15   -0.0044    0.0028    0.0190   -0.0055    0.0076    0.0123    0.0933    0.0147
          16   -0.0078   -0.0055   -0.0031   -0.0022   -0.0079    0.0019   -0.0073    0.0336
          17   -0.0341   -0.0106   -0.0253   -0.0136    0.0008    0.0518    0.0012    0.0080
          18   -0.0152   -0.0142   -0.0273    0.0120    0.0119    0.0011   -0.0026   -0.0242
          19   -0.0009   -0.0018   -0.0008    0.0027   -0.0076    0.0143    0.0021    0.0070
          20    0.0228    0.0203   -0.0143    0.0274   -0.0071    0.0402    0.0098   -0.0219
          21    0.0193    0.0152   -0.0244   -0.0009   -0.0159    0.0106   -0.0056    0.0311
          22   -0.0103   -0.0082    0.0065    0.0127   -0.0048   -0.0017   -0.0023    0.0301
          23   -0.0361    0.0116    0.0402   -0.0309   -0.0279   -0.0000    0.0058    0.0067
          24   -0.0148    0.0006    0.0041   -0.0067   -0.0063   -0.0297   -0.0045   -0.0189
          25   -0.0045   -0.0044    0.0076    0.0197    0.0033   -0.0012   -0.0029    0.0284
          26    0.0023    0.0344    0.0470    0.0201    0.0301    0.0018    0.0031   -0.0281
          27    0.0071    0.0200    0.0097    0.0058    0.0089   -0.0197   -0.0129    0.0414
          28    0.0117   -0.0044    0.0117    0.0494   -0.0326   -0.0073    0.0081   -0.0140
          29   -0.0011    0.0060   -0.0104    0.0011    0.0005   -0.0312   -0.0198    0.0152
          30   -0.0393    0.0642    0.0011    0.0071   -0.0068    0.0078   -0.0241   -0.0096
          31    0.0037   -0.0009   -0.0054   -0.0313   -0.0328   -0.0173    0.0038   -0.0332
          32    0.0383   -0.0035    0.0099   -0.0053    0.0130   -0.0101   -0.0075    0.0526
          33   -0.0224   -0.0146   -0.0417    0.0170    0.0239   -0.0065    0.0020   -0.0559
          34   -0.0000   -0.0020    0.0029   -0.0305   -0.0331    0.0115   -0.0020   -0.0040
          35   -0.0145   -0.0550    0.0153   -0.0024   -0.0016   -0.0274    0.0069   -0.0623
          36    0.0176    0.0083   -0.0317   -0.0053   -0.0246   -0.0071   -0.0027    0.0425
          37   -0.0060   -0.0334    0.0149   -0.0042    0.0361    0.0230   -0.0750   -0.0390
          38   -0.0106   -0.0410    0.0133   -0.0051   -0.0191    0.0005    0.0104   -0.0488
          39   -0.0390   -0.1237    0.0627    0.0292    0.0283    0.0473   -0.1029   -0.0181
          40    0.0303    0.0880   -0.0423   -0.0415    0.0097   -0.0327    0.1379    0.0029
          41    0.0131   -0.0090   -0.0335   -0.0101   -0.0340   -0.0372   -0.0159   -0.0337
          42   -0.0316   -0.0951    0.0516    0.0198    0.0227    0.0356   -0.0468   -0.0068
          43   -0.0659    0.0072   -0.0342    0.0213    0.0616   -0.0458    0.1108    0.0035
          44    0.0436   -0.0006    0.0307   -0.0152    0.0071    0.0270   -0.0039    0.0654
          45    0.0878   -0.0050    0.0415   -0.0448   -0.0277    0.0390   -0.0594   -0.0226
          46    0.0496    0.0012    0.0187   -0.0394    0.0048    0.0260   -0.0990   -0.0233
          47    0.0180   -0.0101   -0.0146    0.0080    0.0290   -0.0050   -0.0396    0.0239
          48    0.1085   -0.0039    0.0577   -0.0565   -0.0387    0.0530   -0.0802   -0.0188
          49   -0.0124   -0.0088   -0.0107   -0.0031   -0.0095    0.0151   -0.0070    0.0353
          50   -0.0612   -0.0281   -0.0717   -0.0293   -0.0119    0.1340    0.0034    0.0084
          51   -0.0302   -0.0287   -0.0489    0.0254    0.0105    0.0427   -0.0027    0.0060
          52    0.0030    0.0006   -0.0054    0.0073   -0.0078    0.0259    0.0029    0.0081
          53    0.0510    0.0350   -0.0478    0.0722   -0.0063    0.1297    0.0150   -0.0002
          54    0.0370    0.0293   -0.0452    0.0003   -0.0213    0.0613   -0.0016    0.0120
          55   -0.0028   -0.0037    0.0116    0.0383    0.0216   -0.0063   -0.0038    0.0095
          56    0.0138    0.0621    0.0800    0.0584    0.0916    0.0181   -0.0050   -0.0226
          57    0.0137    0.0379    0.0292    0.0197    0.0386   -0.0060   -0.0178    0.0561
          58   -0.0170   -0.0136    0.0092    0.0181   -0.0064   -0.0019    0.0044   -0.0028
          59   -0.0654    0.0129    0.0659   -0.0742   -0.0917    0.0012    0.0121    0.0305
          60   -0.0299   -0.0018    0.0158   -0.0205   -0.0322   -0.0294    0.0015   -0.0271
          61    0.0106   -0.0111    0.0184    0.0858   -0.0772   -0.0166    0.0214   -0.0271
          62    0.0019    0.0171   -0.0049    0.0506   -0.0687   -0.0451   -0.0279   -0.0106
          63   -0.0282    0.1137   -0.0104   -0.0101   -0.0067    0.0100   -0.0893   -0.0247
          64    0.0179   -0.0050    0.0178    0.0806   -0.0766   -0.0138    0.0220   -0.0287
          65   -0.0109    0.0070   -0.0199   -0.0463    0.0671   -0.0219   -0.0416    0.0371
          66   -0.0812    0.0692   -0.0037    0.0379   -0.0248   -0.0002   -0.0885   -0.0258


   Root No.       9        10        11        12        13        14        15        16

                 9 A      10 A      11 A      12 A      13 A      14 A      15 A      16 A   

                 501.8     554.2     599.3     618.9     687.9     758.7     824.8     839.7
  
           1   -0.0292   -0.0103   -0.0052    0.0043    0.0212    0.0001    0.0094    0.0037
           2   -0.0068    0.0309    0.0021   -0.0282    0.0375    0.0127    0.0033    0.0037
           3    0.0001    0.0256   -0.0128    0.0146    0.0254    0.0098    0.0088    0.0183
           4   -0.0267    0.0048   -0.0079    0.0041    0.0263    0.0116   -0.0120   -0.0106
           5    0.0066    0.0127    0.0158   -0.0330   -0.0210    0.0016    0.0006    0.0054
           6    0.0122    0.0498   -0.0004    0.0042   -0.0295   -0.0005    0.0035   -0.0093
           7    0.0141    0.0115    0.0146   -0.0314   -0.0076    0.0104   -0.0021    0.0099
           8   -0.0083   -0.0019    0.0090   -0.0120   -0.0192    0.0088    0.0015    0.0094
           9    0.0093    0.0051    0.0041   -0.0032   -0.0108   -0.0005    0.0115   -0.0247
          10    0.0163   -0.0263   -0.0065    0.0291   -0.0187   -0.0137    0.0083    0.0141
          11    0.0055    0.0086    0.0004   -0.0132    0.0229    0.0126   -0.0129   -0.0180
          12   -0.0074   -0.0044   -0.0067    0.0112    0.0019    0.0005   -0.0015    0.0393
          13    0.0289   -0.0043    0.0033   -0.0042   -0.0084   -0.0023   -0.0012   -0.0031
          14   -0.0040   -0.0310   -0.0121    0.0372   -0.0055   -0.0044    0.0014   -0.0020
          15   -0.0049   -0.0131   -0.0005    0.0024    0.0026   -0.0064   -0.0027   -0.0027
          16   -0.0232   -0.0404    0.0163   -0.0365    0.0102   -0.0088    0.0044   -0.0124
          17   -0.0356    0.0113    0.0009    0.0031   -0.0071   -0.0240    0.0237    0.0063
          18   -0.0039   -0.0109    0.0010    0.0068    0.0000   -0.0059    0.0011   -0.0154
          19    0.0041    0.0508   -0.0224    0.0407    0.0100    0.0037   -0.0176   -0.0304
          20    0.0381   -0.0227    0.0031   -0.0099    0.0077   -0.0265   -0.0180    0.0052
          21    0.0062   -0.0014   -0.0045    0.0023    0.0056   -0.0092   -0.0129    0.0059
          22    0.0135    0.0069    0.0029   -0.0063   -0.0081   -0.0039    0.0098    0.0186
          23    0.0275    0.0180   -0.0071    0.0051    0.0086   -0.0147    0.0276    0.0115
          24    0.0099   -0.0423    0.0074   -0.0158    0.0206   -0.0028   -0.0025   -0.0385
          25    0.0068    0.0143    0.0013   -0.0008   -0.0122   -0.0036    0.0021    0.0180
          26   -0.0216    0.0176   -0.0014    0.0074   -0.0028   -0.0173   -0.0269   -0.0151
          27   -0.0236   -0.0101    0.0093   -0.0180   -0.0119   -0.0075   -0.0044    0.0287
          28   -0.0045   -0.0029    0.0008    0.0004   -0.0042   -0.0014   -0.0014   -0.0057
          29   -0.0025   -0.0307   -0.0135    0.0423   -0.0079   -0.0037    0.0022   -0.0030
          30    0.0015    0.0089    0.0035   -0.0098    0.0009    0.0004   -0.0009   -0.0005
          31   -0.0232    0.0283   -0.0020   -0.0042    0.0011    0.0150    0.0127   -0.0072
          32    0.0094    0.0253   -0.0023   -0.0295    0.0548    0.0342   -0.0289    0.0129
          33   -0.0169    0.0121   -0.0099    0.0197    0.0185   -0.0156    0.0345    0.0131
          34   -0.0340   -0.0323   -0.0012   -0.0016    0.0112   -0.0009   -0.0209   -0.0346
          35   -0.0095    0.0104    0.0246   -0.0391   -0.0519    0.0224    0.0267   -0.0171
          36    0.0175    0.0364   -0.0029    0.0056   -0.0181   -0.0154   -0.0139   -0.0060
          37    0.0300   -0.0100   -0.0239   -0.0436    0.0190    0.0072   -0.0258    0.0674
          38   -0.0373   -0.0297   -0.0022   -0.0194    0.0326    0.0188   -0.0252    0.0343
          39    0.0209   -0.0282   -0.0459   -0.0185    0.0352   -0.0024   -0.0238    0.0515
          40    0.0088    0.0413    0.0779   -0.0127   -0.0642    0.0096    0.0414   -0.0822
          41   -0.0079    0.0434    0.0124   -0.0256   -0.0516    0.0190    0.0106   -0.0030
          42    0.0121   -0.0213   -0.0229   -0.0070    0.0226   -0.0037   -0.0094    0.0164
          43    0.0323   -0.0338   -0.0655    0.0117    0.0214    0.0090   -0.0212    0.1031
          44    0.0140   -0.0093    0.0233   -0.0266   -0.0158   -0.0075   -0.0270   -0.0836
          45   -0.0155   -0.0017    0.0257    0.0208   -0.0218   -0.0131    0.0141   -0.0107
          46    0.0173   -0.0184    0.0447    0.0390   -0.0581   -0.0329    0.0272   -0.0612
          47    0.0236    0.0367    0.0086   -0.0203    0.0309    0.0292   -0.0183   -0.0105
          48   -0.0174   -0.0109    0.0426    0.0255   -0.0435   -0.0286    0.0212   -0.0432
          49   -0.0270   -0.0480    0.0177   -0.0321   -0.0062    0.0102   -0.0247   -0.0092
          50   -0.0720   -0.0453    0.0082    0.0302   -0.0977    0.0916   -0.1512    0.0238
          51    0.0017   -0.0218    0.0096    0.0152   -0.0686    0.0521   -0.0920    0.0031
          52    0.0092    0.0415   -0.0237    0.0441    0.0141    0.0222    0.0049   -0.0352
          53    0.0879   -0.0874   -0.0040    0.0146    0.0235    0.1086    0.1670   -0.0122
          54    0.0064   -0.0435   -0.0189    0.0276    0.0497    0.0810    0.0644   -0.0412
          55    0.0023   -0.0273    0.0175   -0.0238   -0.0189    0.0217    0.0183    0.0052
          56   -0.0926    0.0002    0.0046    0.0273   -0.0477    0.1704    0.0782   -0.0270
          57   -0.0683    0.0040    0.0031    0.0098   -0.0373    0.1020    0.0549    0.0286
          58    0.0458    0.0145   -0.0066    0.0195   -0.0118    0.0304   -0.0184   -0.0064
          59    0.1019   -0.0364   -0.0099    0.0121   -0.0164    0.1729   -0.0674    0.0462
          60    0.0571   -0.0591    0.0010    0.0013    0.0086    0.0900   -0.0558   -0.0396
          61   -0.0302   -0.0008    0.0299    0.0243    0.0044    0.0018    0.0029    0.0237
          62   -0.0428   -0.0302   -0.0655    0.0248   -0.0243    0.0010    0.0170    0.0227
          63    0.0007    0.0045   -0.2190   -0.1392   -0.0681   -0.0002    0.0176   -0.0446
          64   -0.0320   -0.0033   -0.0307   -0.0135   -0.0127    0.0001    0.0066    0.0118
          65    0.0393   -0.0308    0.0366    0.0662    0.0049   -0.0058   -0.0099   -0.0288
          66    0.0083    0.0423    0.2315    0.1022    0.0659    0.0160   -0.0111    0.0595


   Root No.      17        18        19        20        21        22        23        24

                17 A      18 A      19 A      20 A      21 A      22 A      23 A      24 A   

                 856.9     922.4     924.8     943.0     957.7     975.8     991.0    1008.3
  
           1    0.0361    0.0155   -0.0103    0.0033    0.0017    0.0097    0.0139    0.0079
           2    0.0136    0.0059   -0.0183    0.0001    0.0055    0.0066    0.0022   -0.0017
           3    0.0187    0.0192   -0.0172   -0.0046    0.0007    0.0068   -0.0031   -0.0072
           4   -0.0279    0.0049   -0.0028   -0.0135    0.0000   -0.0024    0.0128    0.0016
           5    0.0048    0.0038    0.0104    0.0090    0.0042    0.0032   -0.0015    0.0025
           6    0.0270   -0.0117    0.0149    0.0219    0.0056    0.0072    0.0010    0.0103
           7   -0.0281   -0.0082   -0.0086    0.0232   -0.0361   -0.0121   -0.0015   -0.0028
           8   -0.0271   -0.0056    0.0067   -0.0090    0.0083    0.0014   -0.0139   -0.0051
           9    0.0178   -0.0036   -0.0191   -0.0258   -0.0151   -0.0132    0.0074   -0.0093
          10    0.0098   -0.0202   -0.0144   -0.0108    0.0384    0.0133   -0.0050    0.0006
          11   -0.0055   -0.0074    0.0011   -0.0056    0.0066    0.0036    0.0063    0.0060
          12    0.0167   -0.0205    0.0273   -0.0127   -0.0076   -0.0116   -0.0024   -0.0005
          13    0.0011    0.0028    0.0065   -0.0013   -0.0014   -0.0018   -0.0010   -0.0008
          14   -0.0020    0.0058   -0.0022    0.0084   -0.0117   -0.0037    0.0018    0.0007
          15   -0.0111    0.0106   -0.0048    0.0177    0.0081    0.0066   -0.0000    0.0075
          16    0.0351   -0.0152    0.0102    0.0094   -0.0006   -0.0114   -0.0283   -0.0109
          17   -0.0031    0.0012    0.0038    0.0053    0.0099   -0.0225   -0.0079    0.0181
          18   -0.0216   -0.0008    0.0017    0.0015    0.0068   -0.0083    0.0079    0.0146
          19   -0.0100   -0.0158    0.0099    0.0067   -0.0016   -0.0078   -0.0247   -0.0109
          20    0.0156    0.0080   -0.0090    0.0030    0.0112   -0.0206    0.0182   -0.0173
          21   -0.0152    0.0036   -0.0035   -0.0015    0.0042   -0.0141   -0.0001   -0.0143
          22   -0.0095    0.0068   -0.0031   -0.0058   -0.0011    0.0026    0.0107   -0.0031
          23   -0.0097   -0.0051    0.0099   -0.0039   -0.0085    0.0169    0.0184   -0.0230
          24    0.0004   -0.0202    0.0138    0.0074   -0.0016    0.0095    0.0058   -0.0084
          25   -0.0090    0.0097   -0.0070   -0.0057   -0.0012    0.0063    0.0039    0.0071
          26    0.0167   -0.0060   -0.0034   -0.0051   -0.0132    0.0120   -0.0193    0.0223
          27   -0.0189    0.0140   -0.0117   -0.0154   -0.0085    0.0112   -0.0099    0.0126
          28    0.0018    0.0330    0.0311   -0.0108    0.0008   -0.0018   -0.0031   -0.0002
          29   -0.0019    0.0072   -0.0017    0.0106   -0.0234   -0.0064    0.0008   -0.0056
          30   -0.0014    0.0088    0.0015    0.0114    0.0119    0.0189   -0.0132   -0.0159
          31    0.0699    0.0612    0.0007    0.0579   -0.0226    0.0595    0.1101    0.0796
          32    0.0199   -0.0617   -0.0010   -0.0371    0.0280    0.0261    0.0349   -0.0163
          33   -0.0046    0.0585   -0.0374    0.0030   -0.0072   -0.0325   -0.0738   -0.0255
          34   -0.0573   -0.0068    0.0236   -0.0555    0.0283   -0.0126    0.0894    0.0379
          35   -0.0039    0.0020    0.0190   -0.0612   -0.0049    0.0059   -0.0601   -0.0055
          36    0.0182   -0.0158    0.0200    0.0428    0.0209    0.0016    0.0577    0.0266
          37   -0.0493   -0.0156    0.0239    0.1124   -0.0542   -0.0035   -0.0104    0.0189
          38   -0.1203    0.0305   -0.0063   -0.0401    0.0613    0.0200   -0.0160   -0.0252
          39   -0.0297   -0.0032    0.0164    0.0733   -0.0208    0.0029   -0.0034    0.0119
          40    0.0240   -0.0055   -0.0711   -0.0744   -0.0825   -0.0550    0.0198   -0.0380
          41    0.0049   -0.0407    0.0556   -0.0242    0.0465    0.0205   -0.0363    0.0192
          42   -0.0136    0.0067   -0.0097    0.0197   -0.0101   -0.0028    0.0065   -0.0031
          43    0.0340   -0.1040    0.0734   -0.0476    0.0448   -0.0106   -0.0038    0.0269
          44   -0.0791   -0.0365    0.0065    0.0301    0.0664    0.0139    0.0144    0.0900
          45    0.0011    0.0228   -0.0191    0.0083   -0.0068    0.0019   -0.0032   -0.0103
          46   -0.0186    0.0222   -0.0916    0.0021    0.0831    0.0510   -0.0165   -0.0185
          47    0.0055   -0.0152   -0.0276   -0.0486    0.0339    0.0306   -0.0107   -0.0519
          48   -0.0196    0.0290   -0.0371    0.0256    0.0213    0.0117   -0.0046    0.0120
          49    0.0436   -0.0174    0.0099    0.0041   -0.0122    0.0106   -0.0190   -0.0236
          50    0.0741   -0.0097    0.0011   -0.0233   -0.0604    0.1161    0.0387   -0.0608
          51   -0.0508   -0.0098    0.0028   -0.0249   -0.0310    0.0470    0.0471   -0.0220
          52   -0.0143   -0.0206    0.0135    0.0026   -0.0112    0.0080   -0.0331    0.0009
          53    0.0048   -0.0221    0.0145   -0.0204   -0.0617    0.1099   -0.0472    0.0783
          54   -0.0674   -0.0254    0.0185   -0.0366   -0.0404    0.0350   -0.0441    0.0192
          55    0.0172    0.0099   -0.0041    0.0135    0.0231    0.0048    0.0752    0.0212
          56    0.0161   -0.0134    0.0453    0.0706    0.0762   -0.0724    0.0854   -0.0772
          57   -0.0374    0.0093    0.0186    0.0224    0.0358   -0.0437    0.0156   -0.0621
          58   -0.0217    0.0164   -0.0178   -0.0011    0.0156   -0.0065    0.0589    0.0449
          59    0.0596    0.0711   -0.0770    0.0068    0.0440   -0.0904   -0.0976    0.0663
          60    0.0194    0.0145   -0.0283    0.0142    0.0283   -0.0375   -0.0131    0.0534
          61   -0.0109   -0.0513   -0.0470    0.0288   -0.0088    0.0044   -0.0015   -0.0064
          62   -0.0116   -0.1264   -0.1209    0.0284   -0.0562   -0.0365    0.0305    0.0147
          63    0.0215    0.0011    0.0076   -0.0920   -0.0208   -0.0690    0.0475    0.0535
          64   -0.0082   -0.0473   -0.0501    0.0188    0.0102    0.0126   -0.0040   -0.0067
          65    0.0130    0.1291    0.1219   -0.0341   -0.0414   -0.0307    0.0032    0.0047
          66    0.0138   -0.0798    0.0143   -0.0545   -0.0217   -0.0704    0.0489    0.0727


   Root No.      25        26        27        28        29        30        31        32

                25 A      26 A      27 A      28 A      29 A      30 A      31 A      32 A   

                1015.9    1040.8    1062.9    1074.1    1088.6    1096.4    1123.9    1147.0
  
           1    0.0022    0.0082   -0.0006    0.0008    0.0120    0.0082    0.0037    0.0009
           2    0.0042   -0.0128    0.0004    0.0199    0.0135    0.0030   -0.0167   -0.0015
           3    0.0084    0.0039    0.0124    0.0004    0.0070    0.0028   -0.0047   -0.0029
           4   -0.0125    0.0052    0.0094    0.0002    0.0070   -0.0056   -0.0027   -0.0026
           5    0.0047    0.0132    0.0010    0.0088   -0.0186   -0.0036   -0.0238    0.0054
           6    0.0034   -0.0140    0.0077   -0.0030   -0.0107   -0.0007   -0.0167    0.0103
           7   -0.0005   -0.0119   -0.0035   -0.0058    0.0057   -0.0003    0.0061    0.0004
           8    0.0067   -0.0231   -0.0024   -0.0093    0.0117    0.0074    0.0217   -0.0020
           9   -0.0138   -0.0058    0.0002   -0.0053    0.0104    0.0142    0.0120   -0.0041
          10    0.0072   -0.0056   -0.0023    0.0114    0.0004   -0.0001   -0.0063    0.0001
          11   -0.0021    0.0224    0.0109   -0.0202   -0.0098    0.0022    0.0142   -0.0035
          12   -0.0136    0.0026   -0.0018   -0.0080   -0.0094    0.0089    0.0017    0.0013
          13   -0.0027    0.0050    0.0011   -0.0033   -0.0059    0.0030   -0.0010   -0.0021
          14    0.0025   -0.0012    0.0006    0.0029    0.0006   -0.0073    0.0000   -0.0003
          15    0.0221   -0.0020    0.0066    0.0077    0.0016   -0.0318    0.0077   -0.0028
          16    0.0069   -0.0101    0.0154    0.0069   -0.0127    0.0030    0.0014   -0.0051
          17   -0.0132   -0.0056   -0.0172   -0.0018   -0.0058   -0.0029    0.0049    0.0039
          18   -0.0108   -0.0004   -0.0146    0.0046   -0.0029   -0.0005    0.0038   -0.0091
          19    0.0129    0.0083   -0.0228   -0.0044    0.0017   -0.0020   -0.0039   -0.0058
          20   -0.0020    0.0108   -0.0019    0.0012    0.0057    0.0009    0.0044   -0.0039
          21    0.0031    0.0123   -0.0079    0.0064    0.0011    0.0012    0.0050    0.0081
          22   -0.0043   -0.0017    0.0207    0.0163   -0.0093    0.0049    0.0073    0.0011
          23    0.0094    0.0058    0.0116    0.0024    0.0036    0.0022   -0.0014    0.0012
          24    0.0082    0.0030   -0.0176   -0.0091    0.0061   -0.0036   -0.0025   -0.0011
          25   -0.0002    0.0072   -0.0171   -0.0175    0.0103   -0.0062   -0.0050    0.0010
          26   -0.0063   -0.0160    0.0121    0.0058   -0.0091    0.0019   -0.0002    0.0009
          27   -0.0007    0.0093   -0.0144   -0.0059    0.0054   -0.0027   -0.0001    0.0007
          28    0.0059   -0.0101   -0.0025    0.0031    0.0049   -0.0009    0.0009    0.0011
          29   -0.0123   -0.0017   -0.0022   -0.0008    0.0001    0.0028   -0.0026    0.0007
          30   -0.0325    0.0012   -0.0036   -0.0043   -0.0004    0.0131   -0.0013    0.0006
          31    0.0058    0.0722   -0.0834    0.0030   -0.1020    0.0537    0.1167   -0.0746
          32   -0.0343   -0.1009   -0.1304    0.0973    0.0614   -0.0396   -0.0431    0.0108
          33    0.0402    0.0546    0.1678   -0.0692    0.0170    0.0207   -0.0342    0.0190
          34   -0.1020   -0.0138    0.0938   -0.0516   -0.0269   -0.0962   -0.1489   -0.0726
          35   -0.0205    0.1997   -0.0638    0.0720   -0.0351   -0.0687   -0.0884    0.0351
          36   -0.0150   -0.1205    0.0724   -0.0548   -0.0155    0.0011   -0.0369   -0.0285
          37    0.0020    0.0156    0.0122    0.0162    0.0204   -0.0576    0.0003    0.0010
          38    0.0836   -0.1079   -0.0603   -0.0613   -0.0926    0.1045   -0.0325    0.0238
          39    0.0100    0.0031    0.0050    0.0076    0.0021   -0.0281   -0.0069    0.0031
          40   -0.0290   -0.0158   -0.0293   -0.0202   -0.0130    0.0531   -0.0185    0.0051
          41   -0.0498    0.0072    0.0649    0.0057    0.1470   -0.0648    0.1619   -0.0443
          42    0.0158   -0.0143   -0.0111   -0.0048   -0.0262    0.0159   -0.0240    0.0078
          43   -0.0209    0.0435    0.0094   -0.0217   -0.0137    0.0680    0.0004    0.0029
          44    0.0388    0.1103    0.0520   -0.0145    0.0779    0.1480   -0.0251    0.0108
          45    0.0040   -0.0179   -0.0047    0.0088    0.0004   -0.0200   -0.0029    0.0002
          46    0.0415   -0.0179    0.0079    0.0084   -0.0275   -0.0589    0.0197   -0.0067
          47   -0.0093    0.0080    0.0108   -0.0891   -0.1300   -0.1213    0.1093   -0.0167
          48    0.0260   -0.0030    0.0089    0.0274    0.0309    0.0173   -0.0254    0.0025
          49    0.0159   -0.0075    0.0254    0.0103   -0.0098    0.0057   -0.0009   -0.0068
          50    0.0560    0.0281    0.0037   -0.0503    0.0426   -0.0084   -0.0088    0.0736
          51   -0.0044   -0.0181    0.0724    0.1160   -0.0252    0.0403   -0.0233   -0.1436
          52    0.0127    0.0026   -0.0219   -0.0071    0.0004   -0.0031   -0.0080   -0.0067
          53    0.0094   -0.0283   -0.0286   -0.0508    0.0169   -0.0042   -0.0375   -0.0822
          54   -0.0192   -0.0127    0.0832    0.0938   -0.0636    0.0037    0.0350    0.1629
          55   -0.0213   -0.0110   -0.0302   -0.0901    0.0526   -0.0419   -0.0433    0.1611
          56    0.0110    0.0071    0.0102   -0.0043    0.0036   -0.0023   -0.0086    0.0198
          57    0.0239    0.0373   -0.0094    0.0321   -0.0118    0.0161    0.0185   -0.0838
          58   -0.0453   -0.0249    0.0397    0.0694   -0.0391    0.0199    0.0808    0.1317
          59   -0.0241   -0.0119   -0.0100   -0.0163    0.0023   -0.0063   -0.0274   -0.0456
          60   -0.0275   -0.0164   -0.0176    0.0130   -0.0106    0.0013    0.0277    0.0508
          61   -0.0214    0.0099    0.0004   -0.0051   -0.0049    0.0049   -0.0027   -0.0004
          62    0.0161    0.0201    0.0072   -0.0052   -0.0130   -0.0111   -0.0044   -0.0025
          63    0.1327   -0.0203    0.0081    0.0154    0.0048   -0.0394    0.0085   -0.0021
          64   -0.0157    0.0093    0.0012   -0.0036   -0.0056    0.0046    0.0002   -0.0017
          65    0.0218   -0.0322   -0.0080    0.0095    0.0162   -0.0060   -0.0019    0.0051
          66    0.1267    0.0091    0.0181    0.0125    0.0004   -0.0407    0.0064   -0.0027


   Root No.      33        34        35        36        37        38        39        40

                33 A      34 A      35 A      36 A      37 A      38 A      39 A      40 A   

                1151.3    1200.8    1226.6    1236.4    1262.1    1269.3    1331.2    1357.7
  
           1    0.0165    0.0037   -0.0170    0.0211    0.0324    0.0140    0.0378   -0.0139
           2   -0.0026    0.0109    0.0375   -0.0227   -0.0217   -0.0295    0.0001   -0.0096
           3   -0.0019   -0.0144   -0.0360    0.0010   -0.0013   -0.0091   -0.0133    0.0253
           4   -0.0132    0.0019    0.0174    0.0247   -0.0287    0.0295   -0.0349   -0.0015
           5    0.0000   -0.0218    0.0374    0.0111   -0.0137    0.0379    0.0048    0.0071
           6    0.0011    0.0145   -0.0236    0.0092   -0.0014    0.0086   -0.0083   -0.0170
           7    0.0029    0.0063   -0.0180   -0.0027   -0.0074   -0.0044   -0.0041   -0.0090
           8    0.0033   -0.0099    0.0044    0.0049    0.0369   -0.0333    0.0167    0.0305
           9   -0.0037   -0.0028    0.0056   -0.0021   -0.0070    0.0047   -0.0027   -0.0016
          10   -0.0029    0.0023    0.0158   -0.0074    0.0075   -0.0007    0.0036   -0.0031
          11    0.0045    0.0097   -0.0068   -0.0024    0.0423    0.0279    0.0180   -0.0183
          12   -0.0019    0.0032    0.0127   -0.0002   -0.0062   -0.0046   -0.0003   -0.0005
          13   -0.0009    0.0092   -0.0020   -0.0227    0.0027    0.0247   -0.0002    0.0435
          14   -0.0004    0.0000    0.0028   -0.0007    0.0089    0.0003   -0.0237   -0.0020
          15   -0.0006    0.0024   -0.0035   -0.0024   -0.0030    0.0037    0.0046    0.0060
          16   -0.0023    0.0025   -0.0117    0.0002   -0.0075   -0.0102   -0.0127    0.0137
          17   -0.0022    0.0029   -0.0001    0.0049    0.0010   -0.0001    0.0023    0.0035
          18    0.0009   -0.0127   -0.0063   -0.0046    0.0032    0.0118   -0.0023   -0.0106
          19   -0.0000    0.0002    0.0164   -0.0060    0.0055   -0.0113    0.0106    0.0091
          20   -0.0021   -0.0021   -0.0099   -0.0045   -0.0007    0.0025    0.0008   -0.0098
          21    0.0026    0.0130    0.0024    0.0051    0.0010   -0.0122   -0.0052    0.0124
          22    0.0019   -0.0109   -0.0204   -0.0039   -0.0012    0.0062   -0.0142   -0.0044
          23   -0.0012    0.0033   -0.0033    0.0032    0.0006   -0.0028   -0.0010    0.0048
          24    0.0015   -0.0009    0.0149   -0.0074   -0.0016    0.0002    0.0065   -0.0087
          25   -0.0025   -0.0143    0.0109   -0.0105    0.0013    0.0091    0.0152   -0.0148
          26   -0.0006    0.0007   -0.0087    0.0006   -0.0000   -0.0001   -0.0047   -0.0010
          27    0.0025    0.0005    0.0139    0.0037   -0.0007    0.0013    0.0039    0.0063
          28    0.0002   -0.0035    0.0012    0.0057   -0.0010   -0.0090   -0.0005   -0.0063
          29   -0.0019    0.0009   -0.0052    0.0007   -0.0090    0.0000   -0.0286   -0.0046
          30    0.0005   -0.0009    0.0020    0.0005    0.0022   -0.0013    0.0063    0.0002
          31   -0.0790   -0.0052    0.0221   -0.0889   -0.0245   -0.0941   -0.0313    0.0256
          32    0.0196   -0.0496   -0.0972    0.0435    0.0036    0.0280   -0.0052    0.0253
          33    0.0215    0.0431    0.0652   -0.0072    0.0023   -0.0104    0.0230   -0.0238
          34    0.0641   -0.0196   -0.0457   -0.0914    0.0177   -0.1065    0.0216    0.0251
          35    0.0252    0.0752   -0.1025   -0.0201    0.0068   -0.0549   -0.0097   -0.0189
          36    0.0156   -0.0441    0.0256   -0.0172    0.0052    0.0071    0.0198    0.0066
          37    0.0129   -0.0259   -0.0055    0.0346    0.0420   -0.0703   -0.0007   -0.0695
          38    0.0050    0.0912   -0.1133   -0.0656   -0.0530    0.0435   -0.0220   -0.0837
          39    0.0077   -0.0151   -0.0070    0.0232    0.0268   -0.0489   -0.0057   -0.0872
          40    0.0095   -0.0339    0.0082    0.0347    0.0448   -0.0728   -0.0073   -0.0944
          41   -0.0261    0.0565   -0.0465   -0.0793   -0.0729    0.0399   -0.0174   -0.0592
          42    0.0034   -0.0090    0.0107    0.0115    0.0083    0.0059    0.0079    0.0501
          43   -0.0116   -0.0245    0.0288    0.0375   -0.0571   -0.0701    0.0088   -0.1004
          44   -0.0002   -0.0722   -0.0865    0.0647   -0.0711   -0.0619   -0.0339    0.0692
          45    0.0019    0.0132    0.0044   -0.0198    0.0205    0.0244   -0.0036    0.0440
          46   -0.0118   -0.0276    0.0089    0.0426   -0.0567   -0.0644    0.0033   -0.0762
          47   -0.0102   -0.0342   -0.0291    0.1084   -0.0669   -0.0494   -0.0024    0.0175
          48   -0.0022   -0.0021    0.0166   -0.0129   -0.0098   -0.0240    0.0074   -0.0811
          49   -0.0022    0.0051   -0.0112    0.0004   -0.0072   -0.0129   -0.0120    0.0147
          50    0.0661   -0.0481   -0.0035   -0.0518   -0.0283    0.0016   -0.0308   -0.0067
          51   -0.1239    0.1035    0.0296    0.0827    0.0550   -0.0163    0.0687    0.0058
          52   -0.0000   -0.0003    0.0204   -0.0045    0.0046   -0.0099    0.0107    0.0103
          53    0.0648    0.0469    0.0160    0.0504   -0.0262    0.0082   -0.0355    0.0191
          54   -0.1179   -0.0975   -0.0111   -0.0746    0.0403    0.0139    0.0613   -0.0355
          55   -0.1769    0.0794    0.0131    0.0389    0.0184   -0.0460   -0.0026    0.0445
          56   -0.0247    0.0141   -0.0077    0.0072    0.0010   -0.0069   -0.0078    0.0070
          57    0.0947   -0.0492    0.0165   -0.0230   -0.0103    0.0310    0.0149   -0.0247
          58    0.2004    0.0755    0.0516    0.0303   -0.0224   -0.0388   -0.0035    0.0390
          59   -0.0716   -0.0280   -0.0284   -0.0081    0.0071    0.0128   -0.0051   -0.0101
          60    0.0838    0.0347    0.0476    0.0067   -0.0106   -0.0182    0.0128    0.0078
          61   -0.0021    0.0066   -0.0209   -0.0055   -0.0641    0.0095    0.1282    0.0243
          62   -0.0059    0.0156   -0.0426   -0.0143   -0.1139    0.0273    0.1781    0.0413
          63    0.0004   -0.0039    0.0054    0.0033    0.0164   -0.0054   -0.0215   -0.0047
          64    0.0011    0.0011    0.0181   -0.0097    0.0622    0.0057   -0.1230   -0.0028
          65   -0.0039   -0.0053   -0.0351    0.0240   -0.1174   -0.0220    0.1750   -0.0074
          66    0.0008    0.0036    0.0089   -0.0069    0.0329    0.0064   -0.0553    0.0002


   Root No.      41        42        43        44        45        46        47        48

                41 A      42 A      43 A      44 A      45 A      46 A      47 A      48 A   

                1370.3    1392.4    1398.7    1436.4    1458.4    1851.5    1867.4    1905.3
  
           1    0.0356   -0.0027   -0.0086    0.0201   -0.0361   -0.0030   -0.0047   -0.0054
           2    0.0055   -0.0009   -0.0271    0.0226   -0.0168   -0.0068   -0.0111   -0.0058
           3   -0.0073    0.0063    0.0356   -0.0284    0.0346    0.0161    0.0223    0.0029
           4   -0.0342   -0.0018   -0.0128    0.0168    0.0403    0.0032   -0.0053    0.0059
           5    0.0116    0.0140    0.0306   -0.0233   -0.0333   -0.0088    0.0133   -0.0074
           6   -0.0093   -0.0080   -0.0294    0.0213    0.0352    0.0146   -0.0211    0.0043
           7    0.0162   -0.0345   -0.0121   -0.0536   -0.0075   -0.0000   -0.0000    0.0210
           8   -0.0203   -0.0173   -0.0141    0.0306    0.0161   -0.0010    0.0009   -0.0260
           9    0.0066   -0.0052    0.0021   -0.0160   -0.0060    0.0001    0.0002    0.0086
          10   -0.0215    0.0257   -0.0252   -0.0538   -0.0042   -0.0005   -0.0003   -0.0214
          11   -0.0319   -0.0110    0.0164   -0.0320    0.0073   -0.0007   -0.0011   -0.0264
          12    0.0055    0.0052   -0.0123    0.0029   -0.0055    0.0010    0.0004    0.0029
          13    0.0103    0.0055    0.0193    0.0840    0.0090    0.0000    0.0006    0.0033
          14    0.0091   -0.0016    0.0007    0.0011   -0.0006   -0.0097    0.0022    0.2521
          15   -0.0004    0.0016    0.0025    0.0113    0.0020    0.0021   -0.0005   -0.0546
          16   -0.0085    0.0036    0.0152   -0.0146    0.0187   -0.0578   -0.0490   -0.0011
          17    0.0053    0.0029    0.0068   -0.0061    0.0224    0.0636    0.0616    0.0029
          18   -0.0094   -0.0083   -0.0147    0.0168   -0.0508   -0.1134   -0.1117   -0.0051
          19    0.0105    0.0042    0.0157   -0.0121   -0.0226    0.0567   -0.0495    0.0019
          20    0.0029   -0.0021   -0.0122    0.0038    0.0327    0.0579   -0.0592    0.0048
          21   -0.0077   -0.0014    0.0117   -0.0037   -0.0489   -0.1139    0.1150   -0.0081
          22   -0.0224   -0.0100   -0.0127    0.0166   -0.0668    0.1175    0.0668    0.0039
          23    0.0004    0.0013    0.0065   -0.0046    0.0039   -0.0593   -0.0552   -0.0019
          24    0.0065    0.0002   -0.0105    0.0047    0.0129    0.0862    0.0925    0.0027
          25    0.0202    0.0037   -0.0113    0.0001    0.0690   -0.1164    0.0686   -0.0054
          26   -0.0062   -0.0028   -0.0038    0.0044   -0.0122   -0.0372    0.0459   -0.0022
          27    0.0051    0.0045    0.0112   -0.0081    0.0022    0.0955   -0.0990    0.0053
          28   -0.0012   -0.0011   -0.0042   -0.0113   -0.0012    0.0001    0.0000   -0.0030
          29    0.0187   -0.0029    0.0004   -0.0006    0.0002    0.0087   -0.0018   -0.1934
          30   -0.0043    0.0004   -0.0007   -0.0014   -0.0003   -0.0019    0.0004    0.0422
          31   -0.0396    0.0076    0.0147   -0.0374    0.0171   -0.0109   -0.0026   -0.0030
          32    0.0173   -0.0008    0.0441   -0.0009    0.0129    0.0001    0.0046   -0.0027
          33    0.0157    0.0016   -0.0379    0.0186   -0.0158    0.0087    0.0032   -0.0059
          34    0.0318   -0.0001    0.0339   -0.0473   -0.0155    0.0165   -0.0013    0.0023
          35   -0.0051   -0.0253   -0.0452    0.0150    0.0268   -0.0070    0.0017    0.0004
          36    0.0230    0.0128    0.0268   -0.0220   -0.0154    0.0160   -0.0112   -0.0032
          37   -0.0412    0.1020    0.0233    0.0398    0.0066   -0.0001   -0.0001   -0.0062
          38    0.0463    0.0803    0.0370    0.0115   -0.0199    0.0009   -0.0020    0.0313
          39   -0.0396    0.1530    0.0460    0.0757    0.0024    0.0012   -0.0017   -0.0085
          40   -0.0497    0.1682    0.0522    0.0776    0.0014    0.0007   -0.0005    0.0007
          41    0.0504    0.0763    0.0620   -0.0182   -0.0475   -0.0044    0.0061    0.0203
          42    0.0065   -0.0949   -0.0399   -0.0420    0.0108    0.0027   -0.0026   -0.0017
          43    0.0113   -0.1277    0.0973    0.0674    0.0066    0.0012    0.0004    0.0043
          44    0.0669    0.0738   -0.0585   -0.0223   -0.0095    0.0011    0.0029    0.0266
          45   -0.0083    0.0730   -0.0639   -0.0502   -0.0089    0.0015    0.0018   -0.0061
          46    0.0131   -0.0987    0.0803    0.0472    0.0075   -0.0019   -0.0010    0.0032
          47    0.0929    0.0378   -0.0738    0.0285   -0.0413   -0.0055   -0.0066    0.0264
          48   -0.0274   -0.1276    0.1248    0.0593    0.0310    0.0050    0.0045   -0.0040
          49   -0.0077    0.0040    0.0162   -0.0156    0.0186   -0.0791   -0.0699   -0.0020
          50   -0.0358   -0.0126   -0.0112    0.0137   -0.0373    0.0003   -0.0086   -0.0001
          51    0.0744    0.0202    0.0190   -0.0184    0.0697    0.0245    0.0422   -0.0005
          52    0.0108    0.0051    0.0177   -0.0135   -0.0230    0.0776   -0.0713    0.0032
          53   -0.0342   -0.0024    0.0108    0.0025   -0.0393   -0.0211    0.0293   -0.0008
          54    0.0590    0.0063   -0.0187   -0.0027    0.0705    0.0116   -0.0307   -0.0002
          55   -0.0049    0.0062    0.0481   -0.0226   -0.0696    0.0277   -0.0901    0.0015
          56   -0.0102   -0.0023    0.0042    0.0019   -0.0331   -0.0281    0.0345   -0.0020
          57    0.0208    0.0046   -0.0185    0.0024    0.0786    0.0422   -0.0369    0.0028
          58    0.0130    0.0184    0.0474   -0.0373    0.0616   -0.0290   -0.0894    0.0002
          59   -0.0123   -0.0085   -0.0153    0.0150   -0.0448   -0.0173   -0.0088   -0.0012
          60    0.0235    0.0125    0.0126   -0.0170    0.0692    0.0486    0.0493    0.0018
          61   -0.0464    0.0105    0.0022    0.0183    0.0012   -0.0066    0.0015    0.1440
          62   -0.0534    0.0152    0.0096    0.0406    0.0034    0.0008   -0.0002   -0.0273
          63    0.0051   -0.0020   -0.0013   -0.0069   -0.0005   -0.0011    0.0003    0.0263
          64    0.0495   -0.0079    0.0052    0.0153    0.0023    0.0067   -0.0013   -0.1450
          65   -0.0632    0.0085   -0.0139   -0.0387   -0.0048    0.0009   -0.0002   -0.0311
          66    0.0208   -0.0028    0.0033    0.0110    0.0014    0.0008   -0.0001   -0.0130


   Root No.      49        50        51        52        53        54        55        56

                49 A      50 A      51 A      52 A      53 A      54 A      55 A      56 A   

                2868.8    2878.4    2963.9    2967.0    3043.7    3044.7    3047.2    3048.6
  
           1   -0.0132   -0.0093   -0.0006   -0.0002   -0.0004   -0.0000    0.0003    0.0003
           2   -0.0248   -0.0188   -0.0015   -0.0006    0.0001   -0.0003    0.0002    0.0000
           3   -0.0278   -0.0212   -0.0018   -0.0006   -0.0004    0.0001    0.0001    0.0003
           4   -0.0100    0.0115   -0.0002    0.0008    0.0002    0.0001   -0.0004   -0.0004
           5    0.0134   -0.0168    0.0002   -0.0013   -0.0002    0.0002   -0.0004    0.0003
           6    0.0260   -0.0325    0.0002   -0.0025   -0.0001   -0.0002    0.0002    0.0005
           7    0.0008   -0.0008   -0.0018    0.0091   -0.0038    0.0037   -0.0295   -0.0039
           8    0.0003   -0.0002    0.0010   -0.0050   -0.0014    0.0014   -0.0107   -0.0013
           9   -0.0019    0.0028    0.0094   -0.0476   -0.0003    0.0002   -0.0019   -0.0003
          10    0.0001   -0.0001    0.0074    0.0015   -0.0196    0.0136    0.0069    0.0001
          11   -0.0001    0.0000   -0.0102   -0.0020    0.0065   -0.0047   -0.0023    0.0000
          12    0.0024    0.0022   -0.0476   -0.0095   -0.0050    0.0034    0.0017    0.0000
          13    0.0001    0.0000    0.0000   -0.0001   -0.0002    0.0002   -0.0002   -0.0000
          14    0.0003    0.0005   -0.0000    0.0002   -0.0001    0.0001    0.0003    0.0000
          15   -0.0001   -0.0002   -0.0000   -0.0002   -0.0000    0.0000   -0.0001    0.0000
          16    0.0008    0.0004    0.0003    0.0001   -0.0179   -0.0231   -0.0021    0.0089
          17    0.0003    0.0001   -0.0005   -0.0001    0.0026    0.0033    0.0003   -0.0013
          18   -0.0006   -0.0003    0.0003    0.0001    0.0007    0.0010    0.0001   -0.0002
          19    0.0008   -0.0009    0.0000   -0.0001   -0.0019   -0.0034    0.0039   -0.0356
          20   -0.0003    0.0002    0.0001   -0.0004    0.0002    0.0003   -0.0005    0.0032
          21    0.0002   -0.0002   -0.0000    0.0002    0.0001    0.0002   -0.0003    0.0026
          22    0.0001    0.0002   -0.0001   -0.0000    0.0048    0.0065    0.0004   -0.0001
          23   -0.0003   -0.0002    0.0000    0.0000    0.0028    0.0038    0.0002    0.0005
          24    0.0001    0.0001   -0.0000    0.0000   -0.0073   -0.0101   -0.0005   -0.0011
          25    0.0000   -0.0002   -0.0000    0.0000    0.0012    0.0020   -0.0010    0.0118
          26    0.0002   -0.0002   -0.0000   -0.0000   -0.0013   -0.0021    0.0010   -0.0116
          27   -0.0001    0.0002    0.0000   -0.0000    0.0019    0.0032   -0.0015    0.0173
          28    0.0000   -0.0000    0.0000    0.0000   -0.0000   -0.0000   -0.0000   -0.0000
          29   -0.0000   -0.0001   -0.0000   -0.0001    0.0000   -0.0000   -0.0001   -0.0000
          30    0.0000    0.0000   -0.0001   -0.0001   -0.0000    0.0000    0.0000    0.0000
          31    0.1507    0.1190    0.0084    0.0029    0.0008   -0.0004   -0.0004   -0.0004
          32    0.2983    0.2274    0.0207    0.0062    0.0042    0.0000   -0.0015   -0.0014
          33    0.3362    0.2566    0.0188    0.0061    0.0048    0.0013   -0.0014   -0.0019
          34    0.1112   -0.1439    0.0007   -0.0090   -0.0001   -0.0001    0.0007    0.0008
          35   -0.1634    0.2041   -0.0022    0.0180    0.0001    0.0003   -0.0023   -0.0029
          36   -0.3131    0.3911   -0.0029    0.0271    0.0000    0.0000   -0.0028   -0.0087
          37   -0.0103    0.0176    0.0507   -0.2517    0.0364   -0.0355    0.2682    0.0345
          38    0.0003    0.0011    0.0109   -0.0547    0.0069   -0.0068    0.0517    0.0068
[...]
 EFFECTIVE MASS      2.9658
 FORCE CONSTANT      0.3778

 VIBRATION         43   43A           ATOM PAIR      ENERGY CONTRIBUTION    RADIAL
 FREQUENCY          1398.70         C  1 -- C  2         +11.5% ( 47.1%)      0.2%
 TRANSITION DIPOLE   0.1525         C  4 -- H 16          +9.6% ( 42.9%)      3.0%
 TRAVEL (Ang.)       0.2573         C  1 -- C  4          +9.3% ( 42.1%)     70.1%
 REDUCED MASS        0.7282         C  2 -- C  7          +9.0% ( 41.6%)     95.9%
 EFFECTIVE MASS      6.8697
 FORCE CONSTANT      0.8393

 VIBRATION         44   44A           ATOM PAIR      ENERGY CONTRIBUTION    RADIAL
 FREQUENCY          1436.35         C  3 -- C  5         +18.3% ( 65.2%)     86.6%
 TRANSITION DIPOLE   0.1185         C  4 -- C  5         +17.9% ( 64.5%)     86.8%
 TRAVEL (Ang.)       0.1521         C  5 -- C 10          +8.7% ( 45.1%)      0.0%
 REDUCED MASS        2.0301         C  1 -- C  4          +7.3% ( 41.1%)     14.3%
 EFFECTIVE MASS     10.2776
 FORCE CONSTANT      2.4676

 VIBRATION         45   45A           ATOM PAIR      ENERGY CONTRIBUTION    RADIAL
 FREQUENCY          1458.45         C  8 -- C  9         +16.0% ( 61.3%)    100.0%
 TRANSITION DIPOLE   0.1457         C  2 -- C  7         +11.9% ( 52.8%)     98.6%
 TRAVEL (Ang.)       0.1760         C  1 -- C  6          +9.3% ( 46.7%)     98.7%
 REDUCED MASS        1.4934         C  7 -- C  9          +8.9% ( 45.7%)      0.6%
 EFFECTIVE MASS     10.5265
 FORCE CONSTANT      1.8716

 VIBRATION         46   46A           ATOM PAIR      ENERGY CONTRIBUTION    RADIAL
 FREQUENCY          1851.45         C  6 -- C  8         +22.2% ( 70.2%)     98.9%
 TRANSITION DIPOLE   0.2763         C  7 -- C  9         +21.5% ( 69.1%)     98.9%
 TRAVEL (Ang.)       0.1127         C  8 -- C  9         +16.6% ( 60.8%)     99.9%
 REDUCED MASS        2.8657         C  8 -- H 20          +7.3% ( 40.2%)      1.7%
 EFFECTIVE MASS     11.9563
 FORCE CONSTANT      5.7877

 VIBRATION         47   47A           ATOM PAIR      ENERGY CONTRIBUTION    RADIAL
 FREQUENCY          1867.41         C  7 -- C  9         +22.6% ( 69.6%)     99.3%
 TRANSITION DIPOLE   0.3740         C  6 -- C  8         +22.0% ( 68.5%)     99.3%
 TRAVEL (Ang.)       0.1159         C  8 -- C  9         +12.2% ( 51.0%)      0.0%
 REDUCED MASS        2.6886         C  2 -- C  7          +8.0% ( 41.4%)     55.8%
 EFFECTIVE MASS     11.7827
 FORCE CONSTANT      5.5240

 VIBRATION         48   48A           ATOM PAIR      ENERGY CONTRIBUTION    RADIAL
 FREQUENCY          1905.29         C  5 -- C 10         +44.1% ( 98.5%)    100.0%
 TRANSITION DIPOLE   0.3493         C  3 -- C  5         +18.3% ( 63.4%)     39.7%
 TRAVEL (Ang.)       0.0790         C  4 -- C  5         +18.3% ( 63.4%)     39.1%
 REDUCED MASS        5.6676         C 10 -- H 22          +9.0% ( 44.6%)     11.7%
 EFFECTIVE MASS     11.8904
 FORCE CONSTANT     12.1219

 VIBRATION         49   49A           ATOM PAIR      ENERGY CONTRIBUTION    RADIAL
 FREQUENCY          2868.75         C  1 -- H 11         +59.8% ( 78.8%)    100.0%
 TRANSITION DIPOLE   0.0474         C  2 -- H 12         +36.6% ( 61.6%)    100.0%
 TRAVEL (Ang.)       0.2192         C  1 -- C  2          +1.1% ( 10.8%)      0.2%
 REDUCED MASS        0.4891         C  1 -- C  4          +0.7% (  8.3%)      9.2%
 EFFECTIVE MASS      1.4592
 FORCE CONSTANT      2.3715

 VIBRATION         50   50A           ATOM PAIR      ENERGY CONTRIBUTION    RADIAL
 FREQUENCY          2878.42         C  2 -- H 12         +59.9% ( 78.5%)    100.0%
 TRANSITION DIPOLE   0.0915         C  1 -- H 11         +36.5% ( 61.3%)    100.0%
 TRAVEL (Ang.)       0.2193         C  1 -- C  2          +0.9% (  9.9%)     76.5%
 REDUCED MASS        0.4872         C  2 -- C  3          +0.7% (  8.2%)      9.1%
 EFFECTIVE MASS      1.4389
 FORCE CONSTANT      2.3784

 VIBRATION         51   51A           ATOM PAIR      ENERGY CONTRIBUTION    RADIAL
 FREQUENCY          2963.91         C  4 -- H 16         +49.8% ( 73.2%)     96.9%
 TRANSITION DIPOLE   0.0571         C  4 -- H 15         +44.0% ( 68.9%)     96.2%
 TRAVEL (Ang.)       0.2179         C  3 -- H 14          +2.2% ( 15.5%)     97.6%
 REDUCED MASS        0.4791         C  3 -- H 13          +1.5% ( 12.7%)     95.4%
 EFFECTIVE MASS      1.5373
 FORCE CONSTANT      2.4795

 VIBRATION         52   52A           ATOM PAIR      ENERGY CONTRIBUTION    RADIAL
 FREQUENCY          2967.00         C  3 -- H 14         +56.3% ( 77.8%)     97.5%
 TRANSITION DIPOLE   0.0865         C  3 -- H 13         +37.5% ( 63.5%)     95.2%
 TRAVEL (Ang.)       0.2145         C  4 -- H 16          +2.0% ( 14.6%)     96.8%
 REDUCED MASS        0.4940         C  4 -- H 15          +1.7% ( 13.6%)     96.0%
 EFFECTIVE MASS      1.5364
 FORCE CONSTANT      2.5621

 VIBRATION         53   53A           ATOM PAIR      ENERGY CONTRIBUTION    RADIAL
 FREQUENCY          3043.69         C  4 -- H 15         +32.4% ( 56.7%)     98.1%
 TRANSITION DIPOLE   0.2520         C  4 -- H 16         +28.1% ( 52.8%)     97.2%
 TRAVEL (Ang.)       0.2909         C  6 -- H 17         +26.9% ( 51.6%)    100.0%
 REDUCED MASS        0.2618         C  8 -- H 20          +7.6% ( 27.5%)     99.9%
 EFFECTIVE MASS      1.3465
 FORCE CONSTANT      1.4292

 VIBRATION         54   54A           ATOM PAIR      ENERGY CONTRIBUTION    RADIAL
 FREQUENCY          3044.67         C  6 -- H 17         +47.1% ( 69.0%)    100.0%
 TRANSITION DIPOLE   0.1599         C  4 -- H 15         +16.2% ( 40.5%)     98.0%
 TRAVEL (Ang.)       0.2803         C  8 -- H 20         +15.0% ( 38.9%)     99.9%
 REDUCED MASS        0.2819         C  4 -- H 16         +14.5% ( 38.3%)     97.3%
 EFFECTIVE MASS      1.4027
 FORCE CONSTANT      1.5395

 VIBRATION         55   55A           ATOM PAIR      ENERGY CONTRIBUTION    RADIAL
 FREQUENCY          3047.20         C  3 -- H 13         +56.2% ( 74.0%)     98.6%
 TRANSITION DIPOLE   0.0761         C  3 -- H 14         +36.1% ( 59.3%)     95.9%
 TRAVEL (Ang.)       0.2235         C  4 -- H 15          +2.6% ( 15.8%)     97.8%
 REDUCED MASS        0.4429         C  4 -- H 16          +2.3% ( 14.8%)     97.0%
 EFFECTIVE MASS      1.2894
 FORCE CONSTANT      2.4230

 VIBRATION         56   56A           ATOM PAIR      ENERGY CONTRIBUTION    RADIAL
 FREQUENCY          3048.61         C  7 -- H 18         +62.7% ( 80.4%)    100.0%
 TRANSITION DIPOLE   0.2517         C  9 -- H 19         +29.6% ( 55.2%)    100.0%
 TRAVEL (Ang.)       0.2166         C  6 -- H 17          +3.9% ( 20.0%)    100.0%
 REDUCED MASS        0.4715         C  7 -- C  9          +1.1% ( 10.5%)      2.1%
 EFFECTIVE MASS      1.4626
 FORCE CONSTANT      2.5818

 VIBRATION         57   57A           ATOM PAIR      ENERGY CONTRIBUTION    RADIAL
 FREQUENCY          3063.96         C  8 -- H 20         +39.4% ( 63.8%)     99.9%
 TRANSITION DIPOLE   0.3467         C  9 -- H 19         +24.2% ( 50.0%)     99.9%
 TRAVEL (Ang.)       0.2861         C  7 -- H 18         +19.2% ( 44.5%)     99.9%
 REDUCED MASS        0.2689         C  6 -- H 17         +13.7% ( 37.6%)     99.8%
 EFFECTIVE MASS      1.5714
 FORCE CONSTANT      1.4874

 VIBRATION         58   58A           ATOM PAIR      ENERGY CONTRIBUTION    RADIAL
 FREQUENCY          3074.61         C  9 -- H 19         +40.9% ( 64.8%)    100.0%
 TRANSITION DIPOLE   0.3734         C  8 -- H 20         +35.5% ( 60.4%)    100.0%
 TRAVEL (Ang.)       0.2638         C  7 -- H 18         +12.9% ( 36.4%)     99.8%
 REDUCED MASS        0.3153         C  6 -- H 17          +7.1% ( 27.0%)     99.7%
 EFFECTIVE MASS      1.6012
 FORCE CONSTANT      1.7559

 VIBRATION         59   59A           ATOM PAIR      ENERGY CONTRIBUTION    RADIAL
 FREQUENCY          3144.49         C 10 -- H 22         +51.8% ( 72.0%)     95.7%
 TRANSITION DIPOLE   0.3250         C 10 -- H 21         +46.6% ( 68.3%)     94.7%
 TRAVEL (Ang.)       0.2098         C  5 -- C 10          +1.5% ( 12.4%)     99.9%
 REDUCED MASS        0.4872
 EFFECTIVE MASS      1.3870
 FORCE CONSTANT      2.8383

 VIBRATION         60   60A           ATOM PAIR      ENERGY CONTRIBUTION    RADIAL
 FREQUENCY          3147.13         C 10 -- H 21         +51.8% ( 73.8%)     97.3%
 TRANSITION DIPOLE   0.1934         C 10 -- H 22         +46.9% ( 70.2%)     96.7%
 TRAVEL (Ang.)       0.1999         C  5 -- C 10          +1.3% ( 11.7%)      0.1%
 REDUCED MASS        0.5360
 EFFECTIVE MASS      1.6060
 FORCE CONSTANT      3.1279

      SYMMETRY NUMBER FOR POINT-GROUP C1  =  1


          SYSTEM IS A GROUND STATE



 InChI=1S/C10H12/c1-8-6-9-4-2-3-5-10(9)7-8/h2-5,9-10H,1,6-7H2


          MOLECULE IS NOT LINEAR

          THERE ARE 60 GENUINE VIBRATIONS IN THIS SYSTEM
          THIS THERMODYNAMICS CALCULATION IS LIMITED TO
          MOLECULES WHICH HAVE NO INTERNAL ROTATIONS




                    CALCULATED THERMODYNAMIC PROPERTIES
                                          *
   TEMP. (K)   PARTITION FUNCTION   H.O.F.    ENTHALPY  HEAT CAPACITY ENTROPY
                                   KCAL/MOL   CAL/MOLE    CAL/K/MOL  CAL/K/MOL


 298.00  VIB.     0.2129D+03                  3547.4339    28.1545    22.5571
         ROT.     0.5353D+06                   888.2803     2.9808    29.1931
         INT.     0.1140D+09                  4435.7143    31.1353    51.7502
         TRA.     0.1470D+28                  1480.4672     4.9680    40.5480
         TOT.                       33.548    5916.1814    36.1033    92.2982

 200.00  VIB.     0.3330D+02                  1420.5761    15.5911    14.0692
         ROT.     0.2943D+06                   596.1613     2.9808    28.0044
         INT.     0.9800D+07                  2016.7374    18.5719    42.0736
         TRA.     0.8080D+27                   993.6021     4.9680    38.5668
         TOT.                       30.642    3010.3395    23.5399    80.6404

 210.00  VIB.     0.3985D+02                  1582.2810    16.7563    14.8579
         ROT.     0.3166D+06                   625.9693     2.9808    28.1498
         INT.     0.1262D+08                  2208.2504    19.7371    43.0077
         TRA.     0.8694D+27                  1043.2822     4.9680    38.8092
         TOT.                       30.884    3251.5326    24.7051    81.8170

 220.00  VIB.     0.4779D+02                  1755.8242    17.9582    15.6650
         ROT.     0.3395D+06                   655.7774     2.9808    28.2885
         INT.     0.1623D+08                  2411.6016    20.9390    43.9535
         TRA.     0.9322D+27                  1092.9623     4.9680    39.0403
         TOT.                       31.137    3504.5639    25.9070    82.9939

 230.00  VIB.     0.5742D+02                  1941.5553    19.1933    16.4904
         ROT.     0.3629D+06                   685.5855     2.9808    28.4210
         INT.     0.2084D+08                  2627.1408    22.1741    44.9114
         TRA.     0.9965D+27                  1142.6424     4.9680    39.2612
         TOT.                       31.402    3769.7832    27.1421    84.1726

 240.00  VIB.     0.6914D+02                  2139.7872    20.4577    17.3339
         ROT.     0.3869D+06                   715.3935     2.9808    28.5479
         INT.     0.2675D+08                  2855.1807    23.4385    45.8818
         TRA.     0.1062D+28                  1192.3226     4.9680    39.4726
         TOT.                       31.680    4047.5033    28.4065    85.3544

 250.00  VIB.     0.8345D+02                  2350.7926    21.7473    18.1951
         ROT.     0.4113D+06                   745.2016     2.9808    28.6695
         INT.     0.3432D+08                  3095.9942    24.7281    46.8646
         TRA.     0.1129D+28                  1242.0027     4.9680    39.6754
         TOT.                       31.970    4337.9969    29.6961    86.5400

 260.00  VIB.     0.1010D+03                  2574.8024    23.0578    19.0735
         ROT.     0.4362D+06                   775.0097     2.9808    28.7865
         INT.     0.4404D+08                  3349.8121    26.0386    47.8600
         TRA.     0.1198D+28                  1291.6828     4.9680    39.8703
         TOT.                       32.274    4641.4948    31.0066    87.7302

 270.00  VIB.     0.1224D+03                  2812.0047    24.3850    19.9686
         ROT.     0.4616D+06                   804.8177     2.9808    28.8989
         INT.     0.5652D+08                  3616.8224    27.3659    48.8675
         TRA.     0.1267D+28                  1341.3629     4.9680    40.0578
         TOT.                       32.590    4958.1853    32.3339    88.9253

 280.00  VIB.     0.1489D+03                  3062.5448    25.7247    20.8796
         ROT.     0.4875D+06                   834.6258     2.9808    29.0074
         INT.     0.7257D+08                  3897.1706    28.7055    49.8869
         TRA.     0.1338D+28                  1391.0430     4.9680    40.2384
         TOT.                       32.920    5288.2135    33.6735    90.1254

 290.00  VIB.     0.1814D+03                  3326.5265    27.0727    21.8058
         ROT.     0.5139D+06                   864.4339     2.9808    29.1120
         INT.     0.9322D+08                  4190.9603    30.0535    50.9177
         TRA.     0.1411D+28                  1440.7231     4.9680    40.4128
         TOT.                       33.264    5631.6834    35.0215    91.3305

 300.00  VIB.     0.2216D+03                  3604.0136    28.4251    22.7464
         ROT.     0.5407D+06                   894.2419     2.9808    29.2130
         INT.     0.1198D+09                  4498.2555    31.4060    51.9594
         TRA.     0.1484D+28                  1490.4032     4.9680    40.5812
         TOT.                       33.621    5988.6587    36.3740    92.5406

 310.00  VIB.     0.2715D+03                  3895.0320    29.7784    23.7005
         ROT.     0.5679D+06                   924.0500     2.9808    29.3107
         INT.     0.1542D+09                  4819.0820    32.7592    53.0112
         TRA.     0.1559D+28                  1540.0833     4.9680    40.7441
         TOT.                       33.991    6359.1653    37.7272    93.7553

 320.00  VIB.     0.3333D+03                  4199.5728    31.1291    24.6673
         ROT.     0.5956D+06                   953.8580     2.9808    29.4054
         INT.     0.1985D+09                  5153.4308    34.1099    54.0726
         TRA.     0.1635D+28                  1589.7634     4.9680    40.9018
         TOT.                       34.375    6743.1943    39.0779    94.9745

 330.00  VIB.     0.4102D+03                  4517.5945    32.4741    25.6458
         ROT.     0.6238D+06                   983.6661     2.9808    29.4971
         INT.     0.2558D+09                  5501.2606    35.4549    55.1429
         TRA.     0.1713D+28                  1639.4435     4.9680    41.0547
         TOT.                       34.773    7140.7041    40.4229    96.1976

 340.00  VIB.     0.5060D+03                  4849.0265    33.8107    26.6351
         ROT.     0.6523D+06                  1013.4742     2.9808    29.5861
         INT.     0.3301D+09                  5862.5006    36.7915    56.2212
         TRA.     0.1791D+28                  1689.1236     4.9680    41.2030
         TOT.                       35.184    7551.6242    41.7595    97.4242

 350.00  VIB.     0.6256D+03                  5193.7720    35.1364    27.6343
         ROT.     0.6813D+06                  1043.2822     2.9808    29.6725
         INT.     0.4262D+09                  6237.0542    38.1172    57.3068
         TRA.     0.1871D+28                  1738.8037     4.9680    41.3470
         TOT.                       35.608    7975.8579    43.0852    98.6538

 360.00  VIB.     0.7752D+03                  5551.7111    36.4491    28.6426
         ROT.     0.7107D+06                  1073.0903     2.9808    29.7565
         INT.     0.5510D+09                  6624.8014    39.4299    58.3991
         TRA.     0.1951D+28                  1788.4838     4.9680    41.4870
         TOT.                       36.045    8413.2852    44.3979    99.8860

 370.00  VIB.     0.9627D+03                  5922.7037    37.7468    29.6590
         ROT.     0.7405D+06                  1102.8984     2.9808    29.8381
         INT.     0.7130D+09                  7025.6021    40.7276    59.4971
         TRA.     0.2033D+28                  1838.1639     4.9680    41.6231
         TOT.                       36.496    8863.7660    45.6956   101.1202

 380.00  VIB.     0.1198D+04                  6306.5924    39.0280    30.6827
         ROT.     0.7708D+06                  1132.7064     2.9808    29.9176
         INT.     0.9235D+09                  7439.2988    42.0088    60.6003
         TRA.     0.2116D+28                  1887.8440     4.9680    41.7556
         TOT.                       36.959    9327.1429    46.9769   102.3559

 390.00  VIB.     0.1494D+04                  6703.2049    40.2914    31.7128
         ROT.     0.8014D+06                  1162.5145     2.9808    29.9951
         INT.     0.1197D+10                  7865.7194    43.2722    61.7079
         TRA.     0.2200D+28                  1937.5242     4.9680    41.8846
         TOT.                       37.435    9803.2436    48.2402   103.5925

 400.00  VIB.     0.1867D+04                  7112.3570    41.5358    32.7486
         ROT.     0.8324D+06                  1192.3226     2.9808    30.0705
         INT.     0.1554D+10                  8304.6795    44.5166    62.8192
         TRA.     0.2285D+28                  1987.2043     4.9680    42.0104
         TOT.                       37.924   10291.8838    49.4846   104.8296

   *: NOTE: HEATS OF FORMATION ARE RELATIVE TO THE
            ELEMENTS IN THEIR STANDARD STATE AT 298K
              (=  Standard Enthalpy of Formation).

            Hvib:  Zero-point energy is not included.
                   frequencies of less than zero cm-1 are not included.
            Hrot = (3/2)RT
            Htra = (3/2)RT + pV = (5/2)RT

            Heat capacity is Cp, not Cv

          For more information, see: HTTP://OpenMOPAC.net/Manual/thermochemistry.html


           FORCE CONSTANT IN CARTESIAN COORDINATES (Millidynes/A)

    ATOM   CHEMICAL       X               Y               Z
   NUMBER   SYMBOL  FORCE CONSTANT  FORCE CONSTANT  FORCE CONSTANT

      1       C        8.060973        8.322632        8.765558
      2       C        8.062173        8.318594        8.868906
      3       C        9.335443        7.903114        8.061309
      4       C        9.270238        7.898649        8.102104
      5       C        8.821675       15.993531        3.461358
      6       C       11.023760        5.009739       11.076393
      7       C       11.100368        5.117686       10.947808
      8       C       11.455451        4.738877       11.492496
      9       C       11.467061        4.955687       11.282105
     10       C        9.064096       14.834882        2.691599
     11       H        1.079892        2.200286        2.602235
     12       H        1.065037        1.418975        3.435614
     13       H        3.017156        0.802637        2.577455
     14       H        1.095954        1.063287        4.199469
     15       H        1.465661        0.707465        4.180056
     16       H        2.451371        1.298001        2.655923
     17       H        5.010173        0.510590        0.716356
     18       H        5.066809        0.489931        0.675748
     19       H        1.668146        1.516472        3.073665
     20       H        1.666711        0.894777        3.697900
     21       H        3.944242        1.906317        0.596980
     22       H        4.075310        2.021716        0.351668

 **********************
 *                    *
 * JOB ENDED NORMALLY *
 *                    *
 **********************



 TOTAL JOB TIME:             3.11 SECONDS

 == MOPAC DONE ==
