 *******************************************************************************
 **                                                                           **
 **                              MOPAC v23.1.2                                **
 **                                                                           **
 *******************************************************************************
 **          Digital Object Identifier (DOI): 10.5281/zenodo.6511958          **
 **    Visit the DOI location for information on how to cite this program.    **
 *******************************************************************************

                              PM3 CALCULATION RESULTS

 *******************************************************************************
 *  CALCULATION DONE: (MAX THREADS = 1)              Tue Jun  3 16:35:45 2025  *
 *  PM3        - The PM3 Hamiltonian to be used
 *  PRECISE    - TIGHTER CRITERIA TO BE USED
 *  NOSYM      - POINT-GROUP SYMMETRY SET TO C1
 *  THREADS=1  - MULTI-THREADING NOT USED
 *  T=         - A TIME OF 172800.0 SECONDS REQUESTED
 *  DUMP=N     - RESTART FILE WRITTEN EVERY 7200.0 SECONDS REQUESTED
 *******************************************************************************
pm3  precise nosym THREADS=1
 InChI=1S/C12H20/c1-4-5-6-12-9-10(2)7-8-11(12)3/h5-8,10-12H,4,9H2,1-3H3

   ATOM   CHEMICAL          X               Y               Z
  NUMBER   SYMBOL      (ANGSTROMS)     (ANGSTROMS)     (ANGSTROMS)

     1       C         -0.19840000  *   0.34250000  *  -0.49110000  *
     2       C         -0.82390000  *   1.62800000  *   0.11470000  *
     3       C         -2.32470000  *  -0.95550000  *  -0.08130000  *
     4       C         -0.80950000  *  -0.90010000  *   0.17800000  *
     5       C          3.57770000  *  -0.51070000  *  -0.87100000  *
     6       C         -2.96740000  *  -2.08500000  *   0.72910000  *
     7       C         -0.45930000  *   2.86540000  *  -0.71780000  *
     8       C          3.99390000  *  -1.09450000  *   0.47620000  *
     9       C         -2.99510000  *   0.36280000  *   0.23270000  *
    10       C         -2.33200000  *   1.53110000  *   0.23690000  *
    11       C          1.30550000  *   0.33050000  *  -0.31860000  *
    12       C          2.08220000  *  -0.50540000  *  -1.02520000  *
    13       H         -2.48990000  *  -1.16920000  *  -1.16040000  *
    14       H         -0.42700000  *   1.77430000  *   1.14420000  *
    15       H         -0.43100000  *   0.31100000  *  -1.58070000  *
    16       H         -0.34130000  *  -1.82210000  *  -0.23210000  *
    17       H         -0.60870000  *  -0.86910000  *   1.27300000  *
    18       H          4.02110000  *  -1.12970000  *  -1.68030000  *
    19       H          3.97250000  *   0.52340000  *  -0.97330000  *
    20       H         -0.86510000  *   2.77580000  *  -1.74850000  *
    21       H         -4.04870000  *  -2.16390000  *   0.48620000  *
    22       H         -2.85720000  *  -1.89670000  *   1.81900000  *
    23       H         -2.48630000  *  -3.05530000  *   0.48130000  *
    24       H          0.64260000  *   2.98770000  *  -0.77630000  *
    25       H         -0.87700000  *   3.78140000  *  -0.24740000  *
    26       H          3.60920000  *  -0.46780000  *   1.30860000  *
    27       H          3.60270000  *  -2.12870000  *   0.58470000  *
    28       H          5.10200000  *  -1.12470000  *   0.54080000  *
    29       H         -4.07480000  *   0.38310000  *   0.35350000  *
    30       H         -2.89370000  *   2.43700000  *   0.44850000  *
    31       H          1.63270000  *  -1.17960000  *  -1.74940000  *
    32       H          1.76930000  *   1.02400000  *   0.37860000  *



          CARTESIAN COORDINATES 

    NO.       ATOM           X           Y           Z

     1         C         -0.1984      0.3425     -0.4911
     2         C         -0.8239      1.6280      0.1147
     3         C         -2.3247     -0.9555     -0.0813
     4         C         -0.8095     -0.9001      0.1780
     5         C          3.5777     -0.5107     -0.8710
     6         C         -2.9674     -2.0850      0.7291
     7         C         -0.4593      2.8654     -0.7178
     8         C          3.9939     -1.0945      0.4762
     9         C         -2.9951      0.3628      0.2327
    10         C         -2.3320      1.5311      0.2369
    11         C          1.3055      0.3305     -0.3186
    12         C          2.0822     -0.5054     -1.0252
    13         H         -2.4899     -1.1692     -1.1604
    14         H         -0.4270      1.7743      1.1442
    15         H         -0.4310      0.3110     -1.5807
    16         H         -0.3413     -1.8221     -0.2321
    17         H         -0.6087     -0.8691      1.2730
    18         H          4.0211     -1.1297     -1.6803
    19         H          3.9725      0.5234     -0.9733
    20         H         -0.8651      2.7758     -1.7485
    21         H         -4.0487     -2.1639      0.4862
    22         H         -2.8572     -1.8967      1.8190
    23         H         -2.4863     -3.0553      0.4813
    24         H          0.6426      2.9877     -0.7763
    25         H         -0.8770      3.7814     -0.2474
    26         H          3.6092     -0.4678      1.3086
    27         H          3.6027     -2.1287      0.5847
    28         H          5.1020     -1.1247      0.5408
    29         H         -4.0748      0.3831      0.3535
    30         H         -2.8937      2.4370      0.4485
    31         H          1.6327     -1.1796     -1.7494
    32         H          1.7693      1.0240      0.3786

  H: (PM3): J. J. P. STEWART, J. COMP. CHEM. 10, 209 (1989).
  C: (PM3): J. J. P. STEWART, J. COMP. CHEM. 10, 209 (1989).

           Empirical Formula: C12 H20  =    32 atoms



      MOLECULAR POINT GROUP   :   C1  


      RHF CALCULATION, NO. OF DOUBLY OCCUPIED LEVELS = 34


          Geometry optimization using EF

          DIAGONAL MATRIX USED AS START HESSIAN

 CYCLE:     1 TIME:   0.012 TIME LEFT:  2.00D  GRAD.:    75.386 HEAT: -5.834795
 CYCLE:     2 TIME:   0.027 TIME LEFT:  2.00D  GRAD.:    59.003 HEAT: -7.431598
 CYCLE:     3 TIME:   0.020 TIME LEFT:  2.00D  GRAD.:    38.343 HEAT: -8.199684
 CYCLE:     4 TIME:   0.008 TIME LEFT:  2.00D  GRAD.:    44.873 HEAT: -8.318610
 CYCLE:     5 TIME:   0.020 TIME LEFT:  2.00D  GRAD.:    23.331 HEAT: -8.789962
 CYCLE:     6 TIME:   0.016 TIME LEFT:  2.00D  GRAD.:    18.546 HEAT: -8.916611
 CYCLE:     7 TIME:   0.012 TIME LEFT:  2.00D  GRAD.:    21.871 HEAT: -8.964636
 CYCLE:     8 TIME:   0.012 TIME LEFT:  2.00D  GRAD.:    11.070 HEAT: -9.090992
 CYCLE:     9 TIME:   0.012 TIME LEFT:  2.00D  GRAD.:    18.435 HEAT: -9.096476
 CYCLE:    10 TIME:   0.012 TIME LEFT:  2.00D  GRAD.:    20.429 HEAT: -9.116026
 CYCLE:    11 TIME:   0.020 TIME LEFT:  2.00D  GRAD.:     9.630 HEAT: -9.214553
 CYCLE:    12 TIME:   0.012 TIME LEFT:  2.00D  GRAD.:    10.610 HEAT: -9.217234
 CYCLE:    13 TIME:   0.016 TIME LEFT:  2.00D  GRAD.:     8.252 HEAT: -9.242780
 CYCLE:    14 TIME:   0.012 TIME LEFT:  2.00D  GRAD.:     7.277 HEAT: -9.251326
 CYCLE:    15 TIME:   0.008 TIME LEFT:  2.00D  GRAD.:     6.881 HEAT: -9.263238
 CYCLE:    16 TIME:   0.012 TIME LEFT:  2.00D  GRAD.:     7.358 HEAT: -9.267690
 CYCLE:    17 TIME:   0.012 TIME LEFT:  2.00D  GRAD.:     8.110 HEAT: -9.269002
 CYCLE:    18 TIME:   0.012 TIME LEFT:  2.00D  GRAD.:     7.406 HEAT: -9.277299
 CYCLE:    19 TIME:   0.008 TIME LEFT:  2.00D  GRAD.:     7.216 HEAT: -9.282218
 CYCLE:    20 TIME:   0.016 TIME LEFT:  2.00D  GRAD.:     3.274 HEAT: -9.295381
 CYCLE:    21 TIME:   0.020 TIME LEFT:  2.00D  GRAD.:     2.538 HEAT: -9.298282
 CYCLE:    22 TIME:   0.012 TIME LEFT:  2.00D  GRAD.:     2.657 HEAT: -9.302391
 CYCLE:    23 TIME:   0.012 TIME LEFT:  2.00D  GRAD.:     6.256 HEAT: -9.302074
 CYCLE:    24 TIME:   0.012 TIME LEFT:  2.00D  GRAD.:     3.771 HEAT: -9.308858
 CYCLE:    25 TIME:   0.008 TIME LEFT:  2.00D  GRAD.:     4.107 HEAT: -9.310325
 CYCLE:    26 TIME:   0.012 TIME LEFT:  2.00D  GRAD.:     1.689 HEAT: -9.314768
 CYCLE:    27 TIME:   0.012 TIME LEFT:  2.00D  GRAD.:     4.116 HEAT: -9.311773
 CYCLE:    28 TIME:   0.008 TIME LEFT:  2.00D  GRAD.:     1.543 HEAT: -9.317072
 CYCLE:    29 TIME:   0.012 TIME LEFT:  2.00D  GRAD.:     2.852 HEAT: -9.316538
 CYCLE:    30 TIME:   0.012 TIME LEFT:  2.00D  GRAD.:     0.995 HEAT: -9.319573
 CYCLE:    31 TIME:   0.012 TIME LEFT:  2.00D  GRAD.:     1.602 HEAT: -9.320510
 CYCLE:    32 TIME:   0.012 TIME LEFT:  2.00D  GRAD.:     1.149 HEAT: -9.322411
 CYCLE:    33 TIME:   0.008 TIME LEFT:  2.00D  GRAD.:     2.131 HEAT: -9.322896
 CYCLE:    34 TIME:   0.012 TIME LEFT:  2.00D  GRAD.:     1.147 HEAT: -9.324631
 CYCLE:    35 TIME:   0.012 TIME LEFT:  2.00D  GRAD.:     1.247 HEAT: -9.325397
 CYCLE:    36 TIME:   0.012 TIME LEFT:  2.00D  GRAD.:     1.046 HEAT: -9.326692
 CYCLE:    37 TIME:   0.012 TIME LEFT:  2.00D  GRAD.:     1.408 HEAT: -9.329848
 CYCLE:    38 TIME:   0.008 TIME LEFT:  2.00D  GRAD.:     1.986 HEAT: -9.331719
 CYCLE:    39 TIME:   0.012 TIME LEFT:  2.00D  GRAD.:     1.750 HEAT: -9.334530
 CYCLE:    40 TIME:   0.012 TIME LEFT:  2.00D  GRAD.:     1.649 HEAT: -9.338359
 CYCLE:    41 TIME:   0.012 TIME LEFT:  2.00D  GRAD.:     2.310 HEAT: -9.344507
 CYCLE:    42 TIME:   0.012 TIME LEFT:  2.00D  GRAD.:     1.965 HEAT: -9.348659
 CYCLE:    43 TIME:   0.008 TIME LEFT:  2.00D  GRAD.:     1.709 HEAT: -9.353581
 CYCLE:    44 TIME:   0.012 TIME LEFT:  2.00D  GRAD.:     2.424 HEAT: -9.360110
 CYCLE:    45 TIME:   0.012 TIME LEFT:  2.00D  GRAD.:     2.637 HEAT: -9.367962
 CYCLE:    46 TIME:   0.012 TIME LEFT:  2.00D  GRAD.:     2.464 HEAT: -9.378686
 CYCLE:    47 TIME:   0.008 TIME LEFT:  2.00D  GRAD.:     2.429 HEAT: -9.388733
 CYCLE:    48 TIME:   0.012 TIME LEFT:  2.00D  GRAD.:     2.597 HEAT: -9.396647
 CYCLE:    49 TIME:   0.012 TIME LEFT:  2.00D  GRAD.:     3.590 HEAT: -9.398487
 CYCLE:    50 TIME:   0.012 TIME LEFT:  2.00D  GRAD.:     2.594 HEAT: -9.406849
 CYCLE:    51 TIME:   0.012 TIME LEFT:  2.00D  GRAD.:     1.629 HEAT: -9.412097
 CYCLE:    52 TIME:   0.008 TIME LEFT:  2.00D  GRAD.:     1.190 HEAT: -9.416335
 CYCLE:    53 TIME:   0.012 TIME LEFT:  2.00D  GRAD.:     1.727 HEAT: -9.425587
 CYCLE:    54 TIME:   0.012 TIME LEFT:  2.00D  GRAD.:     2.040 HEAT: -9.432224
 CYCLE:    55 TIME:   0.012 TIME LEFT:  2.00D  GRAD.:     2.077 HEAT: -9.440743
 CYCLE:    56 TIME:   0.012 TIME LEFT:  2.00D  GRAD.:     2.136 HEAT: -9.455059
 CYCLE:    57 TIME:   0.012 TIME LEFT:  2.00D  GRAD.:     2.550 HEAT: -9.467816
 CYCLE:    58 TIME:   0.027 TIME LEFT:  2.00D  GRAD.:     3.353 HEAT: -9.475523
 CYCLE:    59 TIME:   0.012 TIME LEFT:  2.00D  GRAD.:     1.988 HEAT: -9.488488
 CYCLE:    60 TIME:   0.012 TIME LEFT:  2.00D  GRAD.:     1.878 HEAT: -9.499200
 CYCLE:    61 TIME:   0.012 TIME LEFT:  2.00D  GRAD.:     2.046 HEAT: -9.511507
 CYCLE:    62 TIME:   0.012 TIME LEFT:  2.00D  GRAD.:     2.136 HEAT: -9.525086
 CYCLE:    63 TIME:   0.012 TIME LEFT:  2.00D  GRAD.:     2.800 HEAT: -9.536281
 CYCLE:    64 TIME:   0.012 TIME LEFT:  2.00D  GRAD.:     2.401 HEAT: -9.540601
 CYCLE:    65 TIME:   0.012 TIME LEFT:  2.00D  GRAD.:     2.129 HEAT: -9.548588
 CYCLE:    66 TIME:   0.012 TIME LEFT:  2.00D  GRAD.:     1.781 HEAT: -9.555293
 CYCLE:    67 TIME:   0.008 TIME LEFT:  2.00D  GRAD.:     2.274 HEAT: -9.568493
 CYCLE:    68 TIME:   0.012 TIME LEFT:  2.00D  GRAD.:     2.858 HEAT: -9.581986
 CYCLE:    69 TIME:   0.012 TIME LEFT:  2.00D  GRAD.:     3.421 HEAT: -9.601494
 CYCLE:    70 TIME:   0.012 TIME LEFT:  2.00D  GRAD.:     2.856 HEAT: -9.620938
 CYCLE:    71 TIME:   0.008 TIME LEFT:  2.00D  GRAD.:     3.827 HEAT: -9.657897
 CYCLE:    72 TIME:   0.012 TIME LEFT:  2.00D  GRAD.:     6.300 HEAT: -9.687969
 CYCLE:    73 TIME:   0.020 TIME LEFT:  2.00D  GRAD.:     7.121 HEAT: -9.710017
 CYCLE:    74 TIME:   0.012 TIME LEFT:  2.00D  GRAD.:     5.957 HEAT: -9.711244
 CYCLE:    75 TIME:   0.012 TIME LEFT:  2.00D  GRAD.:     2.191 HEAT: -9.755980
 CYCLE:    76 TIME:   0.012 TIME LEFT:  2.00D  GRAD.:     4.072 HEAT: -9.780250
 CYCLE:    77 TIME:   0.012 TIME LEFT:  2.00D  GRAD.:     4.408 HEAT: -9.805888
 CYCLE:    78 TIME:   0.008 TIME LEFT:  2.00D  GRAD.:     3.629 HEAT: -9.842561
 CYCLE:    79 TIME:   0.012 TIME LEFT:  2.00D  GRAD.:     3.629 HEAT: -9.855235
 CYCLE:    80 TIME:   0.012 TIME LEFT:  2.00D  GRAD.:     3.245 HEAT: -9.863933
 CYCLE:    81 TIME:   0.012 TIME LEFT:  2.00D  GRAD.:     2.342 HEAT: -9.881252
 CYCLE:    82 TIME:   0.012 TIME LEFT:  2.00D  GRAD.:     2.856 HEAT: -9.892605
 CYCLE:    83 TIME:   0.012 TIME LEFT:  2.00D  GRAD.:     2.619 HEAT: -9.904376
 CYCLE:    84 TIME:   0.008 TIME LEFT:  2.00D  GRAD.:     2.491 HEAT: -9.919237
 CYCLE:    85 TIME:   0.012 TIME LEFT:  2.00D  GRAD.:     3.078 HEAT: -9.932681
 CYCLE:    86 TIME:   0.012 TIME LEFT:  2.00D  GRAD.:     3.742 HEAT: -9.948738
 CYCLE:    87 TIME:   0.012 TIME LEFT:  2.00D  GRAD.:     4.278 HEAT: -9.965043
 CYCLE:    88 TIME:   0.012 TIME LEFT:  2.00D  GRAD.:     3.991 HEAT: -9.989693
 CYCLE:    89 TIME:   0.008 TIME LEFT:  2.00D  GRAD.:     2.910 HEAT: -10.00816
 CYCLE:    90 TIME:   0.012 TIME LEFT:  2.00D  GRAD.:     2.573 HEAT: -10.02203
 CYCLE:    91 TIME:   0.012 TIME LEFT:  2.00D  GRAD.:     3.519 HEAT: -10.04223
 CYCLE:    92 TIME:   0.016 TIME LEFT:  2.00D  GRAD.:     3.626 HEAT: -10.05634
 CYCLE:    93 TIME:   0.008 TIME LEFT:  2.00D  GRAD.:     3.409 HEAT: -10.07064
 CYCLE:    94 TIME:   0.012 TIME LEFT:  2.00D  GRAD.:     2.563 HEAT: -10.08362
 CYCLE:    95 TIME:   0.012 TIME LEFT:  2.00D  GRAD.:     1.980 HEAT: -10.09274
 CYCLE:    96 TIME:   0.012 TIME LEFT:  2.00D  GRAD.:     1.593 HEAT: -10.09984
 CYCLE:    97 TIME:   0.012 TIME LEFT:  2.00D  GRAD.:     1.794 HEAT: -10.10542
 CYCLE:    98 TIME:   0.008 TIME LEFT:  2.00D  GRAD.:     2.116 HEAT: -10.11205
 CYCLE:    99 TIME:   0.012 TIME LEFT:  2.00D  GRAD.:     2.470 HEAT: -10.12187
 CYCLE:   100 TIME:   0.012 TIME LEFT:  2.00D  GRAD.:     3.396 HEAT: -10.13637
 CYCLE:   101 TIME:   0.012 TIME LEFT:  2.00D  GRAD.:     2.370 HEAT: -10.14550
 CYCLE:   102 TIME:   0.012 TIME LEFT:  2.00D  GRAD.:     1.972 HEAT: -10.15837
 CYCLE:   103 TIME:   0.012 TIME LEFT:  2.00D  GRAD.:     2.019 HEAT: -10.16453
 CYCLE:   104 TIME:   0.012 TIME LEFT:  2.00D  GRAD.:     2.237 HEAT: -10.17598
 CYCLE:   105 TIME:   0.012 TIME LEFT:  2.00D  GRAD.:     2.716 HEAT: -10.18182
 CYCLE:   106 TIME:   0.012 TIME LEFT:  2.00D  GRAD.:     2.420 HEAT: -10.19583
 CYCLE:   107 TIME:   0.012 TIME LEFT:  2.00D  GRAD.:     2.249 HEAT: -10.20961
 CYCLE:   108 TIME:   0.012 TIME LEFT:  2.00D  GRAD.:     1.739 HEAT: -10.21921
 CYCLE:   109 TIME:   0.008 TIME LEFT:  2.00D  GRAD.:     1.433 HEAT: -10.22618
 CYCLE:   110 TIME:   0.012 TIME LEFT:  2.00D  GRAD.:     1.418 HEAT: -10.23028
 CYCLE:   111 TIME:   0.012 TIME LEFT:  2.00D  GRAD.:     1.566 HEAT: -10.23458
 CYCLE:   112 TIME:   0.012 TIME LEFT:  2.00D  GRAD.:     1.422 HEAT: -10.23910
 CYCLE:   113 TIME:   0.012 TIME LEFT:  2.00D  GRAD.:     1.355 HEAT: -10.24277
 CYCLE:   114 TIME:   0.012 TIME LEFT:  2.00D  GRAD.:     1.331 HEAT: -10.24603
 CYCLE:   115 TIME:   0.012 TIME LEFT:  2.00D  GRAD.:     1.482 HEAT: -10.25036
 CYCLE:   116 TIME:   0.012 TIME LEFT:  2.00D  GRAD.:     1.628 HEAT: -10.25584
 CYCLE:   117 TIME:   0.012 TIME LEFT:  2.00D  GRAD.:     1.673 HEAT: -10.26330
 CYCLE:   118 TIME:   0.012 TIME LEFT:  2.00D  GRAD.:     1.460 HEAT: -10.26837
 CYCLE:   119 TIME:   0.012 TIME LEFT:  2.00D  GRAD.:     1.595 HEAT: -10.27602
 CYCLE:   120 TIME:   0.012 TIME LEFT:  2.00D  GRAD.:     1.634 HEAT: -10.28057
 CYCLE:   121 TIME:   0.008 TIME LEFT:  2.00D  GRAD.:     1.373 HEAT: -10.28651
 CYCLE:   122 TIME:   0.012 TIME LEFT:  2.00D  GRAD.:     1.143 HEAT: -10.29050
 CYCLE:   123 TIME:   0.016 TIME LEFT:  2.00D  GRAD.:     0.899 HEAT: -10.29286
 CYCLE:   124 TIME:   0.008 TIME LEFT:  2.00D  GRAD.:     0.743 HEAT: -10.29419
 CYCLE:   125 TIME:   0.012 TIME LEFT:  2.00D  GRAD.:     0.661 HEAT: -10.29540
 CYCLE:   126 TIME:   0.012 TIME LEFT:  2.00D  GRAD.:     0.606 HEAT: -10.29639
 CYCLE:   127 TIME:   0.012 TIME LEFT:  2.00D  GRAD.:     0.555 HEAT: -10.29717
 CYCLE:   128 TIME:   0.012 TIME LEFT:  2.00D  GRAD.:     0.496 HEAT: -10.29785
 CYCLE:   129 TIME:   0.012 TIME LEFT:  2.00D  GRAD.:     0.565 HEAT: -10.29859
 CYCLE:   130 TIME:   0.012 TIME LEFT:  2.00D  GRAD.:     0.687 HEAT: -10.29947
 CYCLE:   131 TIME:   0.012 TIME LEFT:  2.00D  GRAD.:     0.842 HEAT: -10.30059
 CYCLE:   132 TIME:   0.012 TIME LEFT:  2.00D  GRAD.:     1.132 HEAT: -10.30254
 CYCLE:   133 TIME:   0.012 TIME LEFT:  2.00D  GRAD.:     1.177 HEAT: -10.30435
 CYCLE:   134 TIME:   0.012 TIME LEFT:  2.00D  GRAD.:     2.447 HEAT: -10.30798
 CYCLE:   135 TIME:   0.012 TIME LEFT:  2.00D  GRAD.:     1.701 HEAT: -10.31165
 CYCLE:   136 TIME:   0.012 TIME LEFT:  2.00D  GRAD.:     0.933 HEAT: -10.31484
 CYCLE:   137 TIME:   0.012 TIME LEFT:  2.00D  GRAD.:     0.776 HEAT: -10.31762
 CYCLE:   138 TIME:   0.012 TIME LEFT:  2.00D  GRAD.:     1.162 HEAT: -10.32081
 CYCLE:   139 TIME:   0.008 TIME LEFT:  2.00D  GRAD.:     1.019 HEAT: -10.32297
 CYCLE:   140 TIME:   0.012 TIME LEFT:  2.00D  GRAD.:     0.999 HEAT: -10.32663
 CYCLE:   141 TIME:   0.016 TIME LEFT:  2.00D  GRAD.:     1.104 HEAT: -10.33040
 CYCLE:   142 TIME:   0.012 TIME LEFT:  2.00D  GRAD.:     1.138 HEAT: -10.33283
 CYCLE:   143 TIME:   0.008 TIME LEFT:  2.00D  GRAD.:     1.583 HEAT: -10.33594
 CYCLE:   144 TIME:   0.012 TIME LEFT:  2.00D  GRAD.:     1.399 HEAT: -10.33979
 CYCLE:   145 TIME:   0.012 TIME LEFT:  2.00D  GRAD.:     1.874 HEAT: -10.34911
 CYCLE:   146 TIME:   0.012 TIME LEFT:  2.00D  GRAD.:     1.703 HEAT: -10.35426
 CYCLE:   147 TIME:   0.012 TIME LEFT:  2.00D  GRAD.:     1.883 HEAT: -10.36080
 CYCLE:   148 TIME:   0.016 TIME LEFT:  2.00D  GRAD.:     1.415 HEAT: -10.36629
 CYCLE:   149 TIME:   0.012 TIME LEFT:  2.00D  GRAD.:     1.525 HEAT: -10.37027
 CYCLE:   150 TIME:   0.008 TIME LEFT:  2.00D  GRAD.:     1.222 HEAT: -10.37458
 CYCLE:   151 TIME:   0.016 TIME LEFT:  2.00D  GRAD.:     2.645 HEAT: -10.37572
 CYCLE:   152 TIME:   0.012 TIME LEFT:  2.00D  GRAD.:     1.114 HEAT: -10.38081
 CYCLE:   153 TIME:   0.012 TIME LEFT:  2.00D  GRAD.:     1.077 HEAT: -10.38325
 CYCLE:   154 TIME:   0.012 TIME LEFT:  2.00D  GRAD.:     1.344 HEAT: -10.38657
 CYCLE:   155 TIME:   0.012 TIME LEFT:  2.00D  GRAD.:     1.485 HEAT: -10.38877
 CYCLE:   156 TIME:   0.012 TIME LEFT:  2.00D  GRAD.:     1.534 HEAT: -10.39219
 CYCLE:   157 TIME:   0.008 TIME LEFT:  2.00D  GRAD.:     1.857 HEAT: -10.40062
 CYCLE:   158 TIME:   0.012 TIME LEFT:  2.00D  GRAD.:     3.019 HEAT: -10.40854
 CYCLE:   159 TIME:   0.012 TIME LEFT:  2.00D  GRAD.:     2.389 HEAT: -10.41783
 CYCLE:   160 TIME:   0.012 TIME LEFT:  2.00D  GRAD.:     2.166 HEAT: -10.43205
 CYCLE:   161 TIME:   0.012 TIME LEFT:  2.00D  GRAD.:     3.240 HEAT: -10.44935
 CYCLE:   162 TIME:   0.012 TIME LEFT:  2.00D  GRAD.:     3.370 HEAT: -10.45186
 CYCLE:   163 TIME:   0.012 TIME LEFT:  2.00D  GRAD.:     2.029 HEAT: -10.46091
 CYCLE:   164 TIME:   0.012 TIME LEFT:  2.00D  GRAD.:     2.740 HEAT: -10.46634
 CYCLE:   165 TIME:   0.012 TIME LEFT:  2.00D  GRAD.:     2.068 HEAT: -10.47101
 CYCLE:   166 TIME:   0.012 TIME LEFT:  2.00D  GRAD.:     1.608 HEAT: -10.47622
 CYCLE:   167 TIME:   0.012 TIME LEFT:  2.00D  GRAD.:     1.682 HEAT: -10.48290
 CYCLE:   168 TIME:   0.012 TIME LEFT:  2.00D  GRAD.:     2.050 HEAT: -10.49267
 CYCLE:   169 TIME:   0.012 TIME LEFT:  2.00D  GRAD.:     2.376 HEAT: -10.50029
 CYCLE:   170 TIME:   0.012 TIME LEFT:  2.00D  GRAD.:     2.424 HEAT: -10.50777
 CYCLE:   171 TIME:   0.012 TIME LEFT:  2.00D  GRAD.:     3.259 HEAT: -10.51228
 CYCLE:   172 TIME:   0.008 TIME LEFT:  2.00D  GRAD.:     1.995 HEAT: -10.52100
 CYCLE:   173 TIME:   0.016 TIME LEFT:  2.00D  GRAD.:     1.580 HEAT: -10.52674
 CYCLE:   174 TIME:   0.012 TIME LEFT:  2.00D  GRAD.:     1.927 HEAT: -10.53311
 CYCLE:   175 TIME:   0.012 TIME LEFT:  2.00D  GRAD.:     2.086 HEAT: -10.53652
 CYCLE:   176 TIME:   0.008 TIME LEFT:  2.00D  GRAD.:     1.432 HEAT: -10.53908
 CYCLE:   177 TIME:   0.012 TIME LEFT:  2.00D  GRAD.:     1.323 HEAT: -10.54161
 CYCLE:   178 TIME:   0.012 TIME LEFT:  2.00D  GRAD.:     0.912 HEAT: -10.54397
 CYCLE:   179 TIME:   0.016 TIME LEFT:  2.00D  GRAD.:     1.671 HEAT: -10.54726
 CYCLE:   180 TIME:   0.008 TIME LEFT:  2.00D  GRAD.:     1.370 HEAT: -10.55091
 CYCLE:   181 TIME:   0.016 TIME LEFT:  2.00D  GRAD.:     1.635 HEAT: -10.55554
 CYCLE:   182 TIME:   0.012 TIME LEFT:  2.00D  GRAD.:     1.967 HEAT: -10.56022
 CYCLE:   183 TIME:   0.008 TIME LEFT:  2.00D  GRAD.:     1.633 HEAT: -10.56315
 CYCLE:   184 TIME:   0.016 TIME LEFT:  2.00D  GRAD.:     1.939 HEAT: -10.56637
 CYCLE:   185 TIME:   0.008 TIME LEFT:  2.00D  GRAD.:     1.067 HEAT: -10.56920
 CYCLE:   186 TIME:   0.012 TIME LEFT:  2.00D  GRAD.:     1.169 HEAT: -10.57064
 CYCLE:   187 TIME:   0.012 TIME LEFT:  2.00D  GRAD.:     0.753 HEAT: -10.57182
 CYCLE:   188 TIME:   0.012 TIME LEFT:  2.00D  GRAD.:     0.698 HEAT: -10.57257
 CYCLE:   189 TIME:   0.012 TIME LEFT:  2.00D  GRAD.:     0.635 HEAT: -10.57323
 CYCLE:   190 TIME:   0.012 TIME LEFT:  2.00D  GRAD.:     0.620 HEAT: -10.57362
 CYCLE:   191 TIME:   0.008 TIME LEFT:  2.00D  GRAD.:     0.483 HEAT: -10.57386
 CYCLE:   192 TIME:   0.016 TIME LEFT:  2.00D  GRAD.:     0.427 HEAT: -10.57406
 CYCLE:   193 TIME:   0.008 TIME LEFT:  2.00D  GRAD.:     0.406 HEAT: -10.57433
 CYCLE:   194 TIME:   0.012 TIME LEFT:  2.00D  GRAD.:     0.452 HEAT: -10.57453
 CYCLE:   195 TIME:   0.012 TIME LEFT:  2.00D  GRAD.:     0.501 HEAT: -10.57484
 CYCLE:   196 TIME:   0.012 TIME LEFT:  2.00D  GRAD.:     0.527 HEAT: -10.57518
 CYCLE:   197 TIME:   0.012 TIME LEFT:  2.00D  GRAD.:     1.707 HEAT: -10.57430
 CYCLE:   198 TIME:   0.012 TIME LEFT:  2.00D  GRAD.:     0.776 HEAT: -10.57608
 CYCLE:   199 TIME:   0.012 TIME LEFT:  2.00D  GRAD.:     0.474 HEAT: -10.57654
 CYCLE:   200 TIME:   0.008 TIME LEFT:  2.00D  GRAD.:     0.525 HEAT: -10.57703
 CYCLE:   201 TIME:   0.016 TIME LEFT:  2.00D  GRAD.:     0.709 HEAT: -10.57814
 CYCLE:   202 TIME:   0.008 TIME LEFT:  2.00D  GRAD.:     0.561 HEAT: -10.57892
 CYCLE:   203 TIME:   0.012 TIME LEFT:  2.00D  GRAD.:     0.578 HEAT: -10.57969
 CYCLE:   204 TIME:   0.016 TIME LEFT:  2.00D  GRAD.:     0.530 HEAT: -10.58035
 CYCLE:   205 TIME:   0.012 TIME LEFT:  2.00D  GRAD.:     0.557 HEAT: -10.58067
 CYCLE:   206 TIME:   0.012 TIME LEFT:  2.00D  GRAD.:     0.485 HEAT: -10.58090
 CYCLE:   207 TIME:   0.012 TIME LEFT:  2.00D  GRAD.:     0.623 HEAT: -10.58084
 CYCLE:   208 TIME:   0.012 TIME LEFT:  2.00D  GRAD.:     0.474 HEAT: -10.58125
 CYCLE:   209 TIME:   0.012 TIME LEFT:  2.00D  GRAD.:     0.432 HEAT: -10.58142
 CYCLE:   210 TIME:   0.012 TIME LEFT:  2.00D  GRAD.:     0.433 HEAT: -10.58176
 CYCLE:   211 TIME:   0.008 TIME LEFT:  2.00D  GRAD.:     0.643 HEAT: -10.58254
 CYCLE:   212 TIME:   0.012 TIME LEFT:  2.00D  GRAD.:     1.038 HEAT: -10.58398
 CYCLE:   213 TIME:   0.012 TIME LEFT:  2.00D  GRAD.:     1.077 HEAT: -10.58597
 CYCLE:   214 TIME:   0.012 TIME LEFT:  2.00D  GRAD.:     0.805 HEAT: -10.58772
 CYCLE:   215 TIME:   0.012 TIME LEFT:  2.00D  GRAD.:     0.857 HEAT: -10.58878
 CYCLE:   216 TIME:   0.008 TIME LEFT:  2.00D  GRAD.:     0.759 HEAT: -10.58982
 CYCLE:   217 TIME:   0.012 TIME LEFT:  2.00D  GRAD.:     0.798 HEAT: -10.59081
 CYCLE:   218 TIME:   0.012 TIME LEFT:  2.00D  GRAD.:     0.646 HEAT: -10.59145
 CYCLE:   219 TIME:   0.012 TIME LEFT:  2.00D  GRAD.:     0.366 HEAT: -10.59176
 CYCLE:   220 TIME:   0.012 TIME LEFT:  2.00D  GRAD.:     0.220 HEAT: -10.59193
 CYCLE:   221 TIME:   0.012 TIME LEFT:  2.00D  GRAD.:     0.268 HEAT: -10.59202
 CYCLE:   222 TIME:   0.008 TIME LEFT:  2.00D  GRAD.:     0.247 HEAT: -10.59207
 CYCLE:   223 TIME:   0.012 TIME LEFT:  2.00D  GRAD.:     0.184 HEAT: -10.59213
 CYCLE:   224 TIME:   0.012 TIME LEFT:  2.00D  GRAD.:     0.176 HEAT: -10.59220
 CYCLE:   225 TIME:   0.012 TIME LEFT:  2.00D  GRAD.:     0.367 HEAT: -10.59221
 CYCLE:   226 TIME:   0.012 TIME LEFT:  2.00D  GRAD.:     0.259 HEAT: -10.59234
 CYCLE:   227 TIME:   0.012 TIME LEFT:  2.00D  GRAD.:     0.137 HEAT: -10.59242
 CYCLE:   228 TIME:   0.012 TIME LEFT:  2.00D  GRAD.:     0.127 HEAT: -10.59244
 CYCLE:   229 TIME:   0.012 TIME LEFT:  2.00D  GRAD.:     0.240 HEAT: -10.59258
 CYCLE:   230 TIME:   0.008 TIME LEFT:  2.00D  GRAD.:     0.138 HEAT: -10.59271
 CYCLE:   231 TIME:   0.016 TIME LEFT:  2.00D  GRAD.:     0.436 HEAT: -10.59274
 CYCLE:   232 TIME:   0.012 TIME LEFT:  2.00D  GRAD.:     0.178 HEAT: -10.59290
 CYCLE:   233 TIME:   0.008 TIME LEFT:  2.00D  GRAD.:     0.103 HEAT: -10.59294
 CYCLE:   234 TIME:   0.012 TIME LEFT:  2.00D  GRAD.:     0.145 HEAT: -10.59299
 CYCLE:   235 TIME:   0.012 TIME LEFT:  2.00D  GRAD.:     0.258 HEAT: -10.59298
 CYCLE:   236 TIME:   0.012 TIME LEFT:  2.00D  GRAD.:     0.144 HEAT: -10.59306
 CYCLE:   237 TIME:   0.012 TIME LEFT:  2.00D  GRAD.:     0.114 HEAT: -10.59307
 CYCLE:   238 TIME:   0.008 TIME LEFT:  2.00D  GRAD.:     0.103 HEAT: -10.59308
 CYCLE:   239 TIME:   0.012 TIME LEFT:  2.00D  GRAD.:     0.148 HEAT: -10.59316
 CYCLE:   240 TIME:   0.012 TIME LEFT:  2.00D  GRAD.:     0.110 HEAT: -10.59319
 CYCLE:   241 TIME:   0.012 TIME LEFT:  2.00D  GRAD.:     0.291 HEAT: -10.59326
 CYCLE:   242 TIME:   0.012 TIME LEFT:  2.00D  GRAD.:     0.226 HEAT: -10.59329
 CYCLE:   243 TIME:   0.012 TIME LEFT:  2.00D  GRAD.:     0.096 HEAT: -10.59333
 CYCLE:   244 TIME:   0.012 TIME LEFT:  2.00D  GRAD.:     0.247 HEAT: -10.59334
 CYCLE:   245 TIME:   0.012 TIME LEFT:  2.00D  GRAD.:     0.178 HEAT: -10.59337
 CYCLE:   246 TIME:   0.012 TIME LEFT:  2.00D  GRAD.:     0.299 HEAT: -10.59335
 CYCLE:   247 TIME:   0.012 TIME LEFT:  2.00D  GRAD.:     0.084 HEAT: -10.59343
 CYCLE:   248 TIME:   0.012 TIME LEFT:  2.00D  GRAD.:     0.073 HEAT: -10.59345
 CYCLE:   249 TIME:   0.012 TIME LEFT:  2.00D  GRAD.:     0.087 HEAT: -10.59348
 CYCLE:   250 TIME:   0.012 TIME LEFT:  2.00D  GRAD.:     0.055 HEAT: -10.59349
 CYCLE:   251 TIME:   0.012 TIME LEFT:  2.00D  GRAD.:     0.075 HEAT: -10.59349
 CYCLE:   252 TIME:   0.012 TIME LEFT:  2.00D  GRAD.:     0.072 HEAT: -10.59346
 CYCLE:   253 TIME:   0.008 TIME LEFT:  2.00D  GRAD.:     0.038 HEAT: -10.59349

     GRADIENT =  0.03785 IS LESS THAN CUTOFF =  0.05000



 -------------------------------------------------------------------------------
 pm3  precise nosym THREADS=1
 InChI=1S/C12H20/c1-4-5-6-12-9-10(2)7-8-11(12)3/h5-8,10-12H,4,9H2,1-3H3



     GEOMETRY OPTIMISED USING EIGENVECTOR FOLLOWING (EF).     
     SCF FIELD WAS ACHIEVED                                   


                              PM3 CALCULATION
                                                       MOPAC v23.1.2 MacOS
                                                       Tue Jun  3 16:35:48 2025




          FINAL HEAT OF FORMATION =        -10.59349 KCAL/MOL =     -44.32315 KJ/MOL


          COSMO AREA              =        232.86 SQUARE ANGSTROMS
          COSMO VOLUME            =        246.13 CUBIC ANGSTROMS

          GRADIENT NORM           =          0.03785          =       0.00669 PER ATOM
          IONIZATION POTENTIAL    =          9.688764 EV
          HOMO LUMO ENERGIES (EV) =         -9.689  1.061
          NO. OF FILLED LEVELS    =         34
          MOLECULAR WEIGHT        =        164.2900         POINT GROUP:  C1  

          MOLECULAR DIMENSIONS (Angstroms)

            Atom       Atom       Distance
            H    28    H    21     9.76884
            H    25    H    23     6.49598
            H    27    H    32     3.11882


          SCF CALCULATIONS        =        266

          WALL-CLOCK TIME         =      2.965 SECONDS
          COMPUTATION TIME        =      2.236 SECONDS




   ATOM   CHEMICAL          X               Y               Z
  NUMBER   SYMBOL      (ANGSTROMS)     (ANGSTROMS)     (ANGSTROMS)

     1       C         -0.22260038  *   0.16796606  *  -0.26323858  *
     2       C         -0.85006618  *   1.56117470  *  -0.07502787  *
     3       C         -2.43791927  *  -0.96450254  *   0.09770435  *
     4       C         -0.98528633  *  -0.87007662  *   0.55982709  *
     5       C          3.64112012  *  -0.10296668  *  -0.22471966  *
     6       C         -3.24340528  *  -1.83259053  *   1.05112651  *
     7       C         -0.32280283  *   2.53319982  *  -1.11987996  *
     8       C          4.35660020  *  -1.37286574  *  -0.63278784  *
     9       C         -3.05503800  *   0.38900264  *  -0.03489419  *
    10       C         -2.34271031  *   1.51154134  *  -0.12904745  *
    11       C          1.21011155  *   0.18216668  *   0.17009252  *
    12       C          2.21531800  *  -0.12487695  *  -0.65041954  *
    13       H         -2.46283612  *  -1.42860270  *  -0.92035628  *
    14       H         -0.57950628  *   1.94135398  *   0.94261436  *
    15       H         -0.29396319  *  -0.11148726  *  -1.34449334  *
    16       H         -0.49563723  *  -1.85930192  *   0.47091067  *
    17       H         -0.94140438  *  -0.60659112  *   1.63598135  *
    18       H          4.12929078  *   0.77756056  *  -0.68917519  *
    19       H          3.73047354  *   0.04777503  *   0.86985394  *
    20       H         -0.62093446  *   2.23909519  *  -2.13493539  *
    21       H         -4.27860760  *  -1.95318283  *   0.70611744  *
    22       H         -3.28186471  *  -1.40027245  *   2.05976802  *
    23       H         -2.80443586  *  -2.83492270  *   1.13900826  *
    24       H          0.77432999  *   2.57528821  *  -1.09765063  *
    25       H         -0.69952411  *   3.54980472  *  -0.94798362  *
    26       H          3.91074876  *  -2.25708811  *  -0.15930606  *
    27       H          4.31771307  *  -1.53044141  *  -1.71886411  *
    28       H          5.41456642  *  -1.34268071  *  -0.34265559  *
    29       H         -4.15065438  *   0.41684435  *  -0.06574188  *
    30       H         -2.84378948  *   2.48053206  *  -0.24249781  *
    31       H          2.03127273  *  -0.40671546  *  -1.69540413  *
    32       H          1.39193230  *   0.45894197  *   1.21704772  *

                             CARTESIAN COORDINATES

   1    C       -0.222600377     0.167966057    -0.263238576
   2    C       -0.850066184     1.561174701    -0.075027871
   3    C       -2.437919267    -0.964502538     0.097704351
   4    C       -0.985286326    -0.870076616     0.559827085
   5    C        3.641120124    -0.102966685    -0.224719662
   6    C       -3.243405280    -1.832590528     1.051126511
   7    C       -0.322802829     2.533199824    -1.119879956
   8    C        4.356600201    -1.372865740    -0.632787837
   9    C       -3.055038004     0.389002643    -0.034894194
  10    C       -2.342710309     1.511541336    -0.129047449
  11    C        1.210111546     0.182166677     0.170092515
  12    C        2.215317995    -0.124876953    -0.650419538
  13    H       -2.462836117    -1.428602702    -0.920356281
  14    H       -0.579506281     1.941353978     0.942614363
  15    H       -0.293963191    -0.111487256    -1.344493344
  16    H       -0.495637231    -1.859301919     0.470910673
  17    H       -0.941404378    -0.606591116     1.635981347
  18    H        4.129290781     0.777560559    -0.689175188
  19    H        3.730473543     0.047775034     0.869853945
  20    H       -0.620934465     2.239095194    -2.134935394
  21    H       -4.278607601    -1.953182830     0.706117438
  22    H       -3.281864710    -1.400272452     2.059768021
  23    H       -2.804435864    -2.834922704     1.139008261
  24    H        0.774329994     2.575288211    -1.097650631
  25    H       -0.699524113     3.549804717    -0.947983624
  26    H        3.910748759    -2.257088109    -0.159306058
  27    H        4.317713070    -1.530441411    -1.718864114
  28    H        5.414566419    -1.342680711    -0.342655588
  29    H       -4.150654378     0.416844350    -0.065741883
  30    H       -2.843789483     2.480532059    -0.242497810
  31    H        2.031272731    -0.406715460    -1.695404133
  32    H        1.391932299     0.458941967     1.217047724


           Empirical Formula: C12 H20  =    32 atoms



      MOLECULAR POINT GROUP   :   C1  


                  EIGENVALUES  
 -41.94525 -36.98363 -34.56162 -31.69979 -28.47197 -27.64452 -23.74709 -22.74149
 -21.22027 -20.26157 -19.83100 -17.97644 -16.91990 -15.95518 -15.81523 -15.67164
 -15.10723 -14.95462 -14.40185 -14.08805 -13.55032 -13.45080 -13.38660 -13.00025
 -12.85527 -12.57437 -12.30838 -12.27452 -12.09115 -11.94698 -11.57080 -11.26105
  -9.82909  -9.68876   1.06067   1.18339   3.16379   3.43027   3.54422   3.62117
   3.68051   3.70993   3.77688   3.86606   3.91722   3.96983   4.01521   4.12172
   4.17552   4.24425   4.25861   4.29873   4.43841   4.47687   4.58018   4.64660
   4.65984   4.75192   4.84502   4.89004   4.94356   4.97848   5.10220   5.17352
   5.65858   5.84494   5.97915   6.02430


              NET ATOMIC CHARGES AND DIPOLE CONTRIBUTIONS

  ATOM NO.   TYPE          CHARGE      No. of ELECS.   s-Pop       p-Pop       
    1          C          -0.043173        4.0432     1.16890     2.87428
    2          C          -0.035004        4.0350     1.16443     2.87057
    3          C          -0.039572        4.0396     1.16181     2.87776
    4          C          -0.095644        4.0956     1.16504     2.93060
    5          C          -0.062295        4.0623     1.14588     2.91641
    6          C          -0.106614        4.1066     1.14093     2.96568
    7          C          -0.110840        4.1108     1.14162     2.96922
    8          C          -0.105893        4.1059     1.13765     2.96825
    9          C          -0.147345        4.1473     1.19682     2.95052
   10          C          -0.145936        4.1459     1.19705     2.94889
   11          C          -0.149496        4.1495     1.19915     2.95035
   12          C          -0.146759        4.1468     1.19790     2.94886
   13          H           0.067031        0.9330     0.93297
   14          H           0.069279        0.9307     0.93072
   15          H           0.071624        0.9284     0.92838
   16          H           0.054731        0.9453     0.94527
   17          H           0.056686        0.9433     0.94331
   18          H           0.053065        0.9469     0.94694
   19          H           0.051423        0.9486     0.94858
   20          H           0.041493        0.9585     0.95851
   21          H           0.038958        0.9610     0.96104
   22          H           0.041919        0.9581     0.95808
   23          H           0.038904        0.9611     0.96110
   24          H           0.044617        0.9554     0.95538
   25          H           0.038707        0.9613     0.96129
   26          H           0.039996        0.9600     0.96000
   27          H           0.037933        0.9621     0.96207
   28          H           0.036887        0.9631     0.96311
   29          H           0.099994        0.9000     0.90001
   30          H           0.099269        0.9007     0.90073
   31          H           0.102509        0.8975     0.89749
   32          H           0.103545        0.8965     0.89645
 DIPOLE           X         Y         Z       TOTAL
 POINT-CHG.     0.274    -0.128    -0.005     0.302
 HYBRID        -0.044     0.037     0.003     0.058
 SUM            0.230    -0.090    -0.002     0.247


          ATOMIC ORBITAL ELECTRON POPULATIONS

     Atom    s        px        py        pz   
    1  C   1.16890   0.92531   0.94959   0.99937
    2  C   1.16443   0.93016   0.94955   0.99087
    3  C   1.16181   0.94646   0.94351   0.98780
    4  C   1.16504   0.94692   0.98721   0.99648
    5  C   1.14588   0.93818   0.97448   1.00375
    6  C   1.14093   0.99003   0.98674   0.98891
    7  C   1.14162   1.00632   0.98001   0.98290
    8  C   1.13765   0.99184   0.97073   1.00568
    9  C   1.19682   0.98598   0.95024   1.01430
   10  C   1.19705   0.95904   0.97678   1.01307
   11  C   1.19915   0.94877   1.01091   0.99067
   12  C   1.19790   0.95245   1.00545   0.99097
   13  H   0.93297
   14  H   0.93072
   15  H   0.92838
   16  H   0.94527
   17  H   0.94331
   18  H   0.94694
   19  H   0.94858
   20  H   0.95851
   21  H   0.96104
   22  H   0.95808
   23  H   0.96110
   24  H   0.95538
   25  H   0.96129
   26  H   0.96000
   27  H   0.96207
   28  H   0.96311
   29  H   0.90001
   30  H   0.90073
   31  H   0.89749
   32  H   0.89645
 *******************************************************************************
 **                                                                           **
 **                              MOPAC v23.1.2                                **
 **                                                                           **
 *******************************************************************************
 **          Digital Object Identifier (DOI): 10.5281/zenodo.6511958          **
 **    Visit the DOI location for information on how to cite this program.    **
 *******************************************************************************

                              PM3 CALCULATION RESULTS

 *******************************************************************************
 *  CALCULATION DONE: (MAX THREADS = 1)              Tue Jun  3 16:35:48 2025  *
 *  PM3        - The PM3 Hamiltonian to be used
 *  OLDGEO     - PREVIOUS GEOMETRY TO BE USED
 *  PRECISE    - TIGHTER CRITERIA TO BE USED
 *  NOSYM      - POINT-GROUP SYMMETRY SET TO C1
 *  THREADS=1  - MULTI-THREADING NOT USED
 *  T=         - A TIME OF 172800.0 SECONDS REQUESTED
 *  DUMP=N     - RESTART FILE WRITTEN EVERY 7200.0 SECONDS REQUESTED
 *  THERMO     - THERMODYNAMIC QUANTITIES TO BE CALCULATED
 *******************************************************************************
oldgeo thermo nosym precise THREADS=1  pm3
 InChI=1S/C12H20/c1-4-5-6-12-9-10(2)7-8-11(12)3/h5-8,10-12H,4,9H2,1-3H3

   ATOM   CHEMICAL          X               Y               Z
  NUMBER   SYMBOL      (ANGSTROMS)     (ANGSTROMS)     (ANGSTROMS)

     1       C         -0.22260038  *   0.16796606  *  -0.26323858  *
     2       C         -0.85006618  *   1.56117470  *  -0.07502787  *
     3       C         -2.43791927  *  -0.96450254  *   0.09770435  *
     4       C         -0.98528633  *  -0.87007662  *   0.55982709  *
     5       C          3.64112012  *  -0.10296668  *  -0.22471966  *
     6       C         -3.24340528  *  -1.83259053  *   1.05112651  *
     7       C         -0.32280283  *   2.53319982  *  -1.11987996  *
     8       C          4.35660020  *  -1.37286574  *  -0.63278784  *
     9       C         -3.05503800  *   0.38900264  *  -0.03489419  *
    10       C         -2.34271031  *   1.51154134  *  -0.12904745  *
    11       C          1.21011155  *   0.18216668  *   0.17009252  *
    12       C          2.21531800  *  -0.12487695  *  -0.65041954  *
    13       H         -2.46283612  *  -1.42860270  *  -0.92035628  *
    14       H         -0.57950628  *   1.94135398  *   0.94261436  *
    15       H         -0.29396319  *  -0.11148726  *  -1.34449334  *
    16       H         -0.49563723  *  -1.85930192  *   0.47091067  *
    17       H         -0.94140438  *  -0.60659112  *   1.63598135  *
    18       H          4.12929078  *   0.77756056  *  -0.68917519  *
    19       H          3.73047354  *   0.04777503  *   0.86985394  *
    20       H         -0.62093446  *   2.23909519  *  -2.13493539  *
    21       H         -4.27860760  *  -1.95318283  *   0.70611744  *
    22       H         -3.28186471  *  -1.40027245  *   2.05976802  *
    23       H         -2.80443586  *  -2.83492270  *   1.13900826  *
    24       H          0.77432999  *   2.57528821  *  -1.09765063  *
    25       H         -0.69952411  *   3.54980472  *  -0.94798362  *
    26       H          3.91074876  *  -2.25708811  *  -0.15930606  *
    27       H          4.31771307  *  -1.53044141  *  -1.71886411  *
    28       H          5.41456642  *  -1.34268071  *  -0.34265559  *
    29       H         -4.15065438  *   0.41684435  *  -0.06574188  *
    30       H         -2.84378948  *   2.48053206  *  -0.24249781  *
    31       H          2.03127273  *  -0.40671546  *  -1.69540413  *
    32       H          1.39193230  *   0.45894197  *   1.21704772  *



          CARTESIAN COORDINATES 

    NO.       ATOM           X           Y           Z

     1         C         -0.2226      0.1680     -0.2632
     2         C         -0.8501      1.5612     -0.0750
     3         C         -2.4379     -0.9645      0.0977
     4         C         -0.9853     -0.8701      0.5598
     5         C          3.6411     -0.1030     -0.2247
     6         C         -3.2434     -1.8326      1.0511
     7         C         -0.3228      2.5332     -1.1199
     8         C          4.3566     -1.3729     -0.6328
     9         C         -3.0550      0.3890     -0.0349
    10         C         -2.3427      1.5115     -0.1290
    11         C          1.2101      0.1822      0.1701
    12         C          2.2153     -0.1249     -0.6504
    13         H         -2.4628     -1.4286     -0.9204
    14         H         -0.5795      1.9414      0.9426
    15         H         -0.2940     -0.1115     -1.3445
    16         H         -0.4956     -1.8593      0.4709
    17         H         -0.9414     -0.6066      1.6360
    18         H          4.1293      0.7776     -0.6892
    19         H          3.7305      0.0478      0.8699
    20         H         -0.6209      2.2391     -2.1349
    21         H         -4.2786     -1.9532      0.7061
    22         H         -3.2819     -1.4003      2.0598
    23         H         -2.8044     -2.8349      1.1390
    24         H          0.7743      2.5753     -1.0977
    25         H         -0.6995      3.5498     -0.9480
    26         H          3.9107     -2.2571     -0.1593
    27         H          4.3177     -1.5304     -1.7189
    28         H          5.4146     -1.3427     -0.3427
    29         H         -4.1507      0.4168     -0.0657
    30         H         -2.8438      2.4805     -0.2425
    31         H          2.0313     -0.4067     -1.6954
    32         H          1.3919      0.4589      1.2170

  H: (PM3): J. J. P. STEWART, J. COMP. CHEM. 10, 209 (1989).
  C: (PM3): J. J. P. STEWART, J. COMP. CHEM. 10, 209 (1989).

           Empirical Formula: C12 H20  =    32 atoms



      MOLECULAR POINT GROUP   :   C1  


      RHF CALCULATION, NO. OF DOUBLY OCCUPIED LEVELS = 34



          HEAT OF FORMATION =     -10.593488 KCALS/MOLE


          CARTESIAN COORDINATE DERIVATIVES

   NUMBER  ATOM         X            Y            Z

     1       C     -0.005402     0.000928    -0.003855
     2       C     -0.000696     0.001666     0.000791
     3       C      0.001743    -0.000486     0.006369
     4       C     -0.000571     0.003224    -0.001619
     5       C     -0.005385    -0.007425    -0.002905
     6       C      0.004674    -0.001877    -0.001226
     7       C     -0.002503    -0.004263    -0.000541
     8       C      0.004382     0.006107     0.000769
     9       C     -0.001372    -0.003974     0.003296
    10       C     -0.001741    -0.001475     0.001838
    11       C     -0.011945    -0.007137    -0.010190
    12       C      0.011476     0.009777     0.007803
    13       H      0.003799    -0.001943    -0.003289
    14       H      0.000054    -0.005035     0.001443
    15       H      0.002125    -0.001219     0.006926
    16       H      0.002775     0.001142    -0.001851
    17       H      0.000784     0.003073    -0.000626
    18       H     -0.000602     0.001251     0.002823
    19       H      0.002651     0.000698     0.000268
    20       H     -0.001645     0.008793    -0.002821
    21       H      0.001278    -0.000709     0.000210
    22       H     -0.002995     0.002438    -0.003816
    23       H     -0.000036    -0.000333    -0.000474
    24       H      0.000727     0.005932    -0.001684
    25       H      0.002499    -0.002377     0.000806
    26       H      0.000867    -0.004888    -0.006147
    27       H      0.001172     0.001806     0.006324
    28       H     -0.003901    -0.005649     0.001646
    29       H     -0.000746    -0.002257     0.000890
    30       H     -0.001592     0.004288    -0.000635
    31       H     -0.002384    -0.000476    -0.000949
    32       H      0.002511     0.000400     0.000429



          GRADIENT NORM =   0.03808

          MOLECULAR WEIGHT =  164.29



          ROTATIONAL CONSTANTS IN CM(-1)

          A =    0.05010721   B =    0.01557744   C =    0.01245658



           PRINCIPAL MOMENTS OF INERTIA IN UNITS OF 10**(-40)*GRAM-CM**2

          A =      558.6572   B =     1797.0063   C =     2247.2267


          ORIENTATION OF MOLECULE IN FORCE CALCULATION

    NO.       ATOM         X         Y         Z

     1          C       0.1040    0.0141   -0.1756
     2          C       1.6436    0.0141   -0.1756
     3          C       0.0262    2.5269   -0.1756
     4          C      -0.4239    1.2562    0.5422
     5          C      -1.7112   -3.3208    0.5907
     6          C      -0.3145    3.7547    0.6538
     7          C       2.1806   -1.0223   -1.1514
     8          C      -3.2019   -3.4840    0.3851
     9          C       1.4864    2.4871   -0.4866
    10          C       2.2004    1.3618   -0.5024
    11          C      -0.4141   -1.2092    0.5142
    12          C      -1.2019   -2.0993   -0.0900
    13          H      -0.5081    2.5953   -1.1566
    14          H       2.0018   -0.2385    0.8546
    15          H      -0.2520    0.0366   -1.2363
    16          H      -1.5295    1.2233    0.5943
    17          H      -0.0718    1.2642    1.5936
    18          H      -1.1701   -4.1979    0.1818
    19          H      -1.4774   -3.3030    1.6741
    20          H       1.9118   -0.7810   -2.1883
    21          H      -0.0439    4.6805    0.1296
    22          H       0.2157    3.7550    1.6154
    23          H      -1.3897    3.7987    0.8707
    24          H       1.7742   -2.0179   -0.9286
    25          H       3.2751   -1.0897   -1.1024
    26          H      -3.7624   -2.6418    0.8108
    27          H      -3.4614   -3.5427   -0.6803
    28          H      -3.5703   -4.4000    0.8642
    29          H       1.9544    3.4506   -0.7210
    30          H       3.2677    1.3836   -0.7542
    31          H      -1.5097   -1.9696   -1.1358
    32          H      -0.1097   -1.3344    1.5618


    FIRST DERIVATIVES WILL BE USED IN THE CALCULATION OF SECOND DERIVATIVES

          ESTIMATED TIME TO COMPLETE CALCULATION =        4.50 SECONDS

    FOR POINT-GROUP C1   THERE ARE   1 UNIQUE SYMMETRY FUNCTIONS.

 STEP:   1 TIME =     0.04 SECS, INTEGRAL =      0.04 TIME LEFT: 172799.95
 STEP:   2 TIME =     0.04 SECS, INTEGRAL =      0.08 TIME LEFT: 172799.91
 STEP:   3 TIME =     0.04 SECS, INTEGRAL =      0.11 TIME LEFT: 172799.88
 STEP:   4 TIME =     0.04 SECS, INTEGRAL =      0.15 TIME LEFT: 172799.84
 STEP:   5 TIME =     0.04 SECS, INTEGRAL =      0.19 TIME LEFT: 172799.80
 STEP:   6 TIME =     0.04 SECS, INTEGRAL =      0.22 TIME LEFT: 172799.77
 STEP:   7 TIME =     0.04 SECS, INTEGRAL =      0.26 TIME LEFT: 172799.73
 STEP:   8 TIME =     0.04 SECS, INTEGRAL =      0.30 TIME LEFT: 172799.69
 STEP:   9 TIME =     0.04 SECS, INTEGRAL =      0.34 TIME LEFT: 172799.65
 STEP:  10 TIME =     0.04 SECS, INTEGRAL =      0.38 TIME LEFT: 172799.61
 STEP:  11 TIME =     0.04 SECS, INTEGRAL =      0.41 TIME LEFT: 172799.58
 STEP:  12 TIME =     0.04 SECS, INTEGRAL =      0.45 TIME LEFT: 172799.54
 STEP:  13 TIME =     0.04 SECS, INTEGRAL =      0.48 TIME LEFT: 172799.50
 STEP:  14 TIME =     0.04 SECS, INTEGRAL =      0.52 TIME LEFT: 172799.46
 STEP:  15 TIME =     0.04 SECS, INTEGRAL =      0.56 TIME LEFT: 172799.43
 STEP:  16 TIME =     0.04 SECS, INTEGRAL =      0.60 TIME LEFT: 172799.39
 STEP:  17 TIME =     0.04 SECS, INTEGRAL =      0.64 TIME LEFT: 172799.35
 STEP:  18 TIME =     0.04 SECS, INTEGRAL =      0.68 TIME LEFT: 172799.31
 STEP:  19 TIME =     0.04 SECS, INTEGRAL =      0.71 TIME LEFT: 172799.27
 STEP:  20 TIME =     0.04 SECS, INTEGRAL =      0.75 TIME LEFT: 172799.23
 STEP:  21 TIME =     0.04 SECS, INTEGRAL =      0.79 TIME LEFT: 172799.20
 STEP:  22 TIME =     0.04 SECS, INTEGRAL =      0.82 TIME LEFT: 172799.16
 STEP:  23 TIME =     0.04 SECS, INTEGRAL =      0.86 TIME LEFT: 172799.12
 STEP:  24 TIME =     0.04 SECS, INTEGRAL =      0.90 TIME LEFT: 172799.09
 STEP:  25 TIME =     0.04 SECS, INTEGRAL =      0.94 TIME LEFT: 172799.05
 STEP:  26 TIME =     0.04 SECS, INTEGRAL =      0.97 TIME LEFT: 172799.02
 STEP:  27 TIME =     0.04 SECS, INTEGRAL =      1.01 TIME LEFT: 172798.98
 STEP:  28 TIME =     0.04 SECS, INTEGRAL =      1.05 TIME LEFT: 172798.94
 STEP:  29 TIME =     0.04 SECS, INTEGRAL =      1.09 TIME LEFT: 172798.90
 STEP:  30 TIME =     0.04 SECS, INTEGRAL =      1.13 TIME LEFT: 172798.86
 STEP:  31 TIME =     0.04 SECS, INTEGRAL =      1.17 TIME LEFT: 172798.82
 STEP:  32 TIME =     0.04 SECS, INTEGRAL =      1.21 TIME LEFT: 172798.78
 STEP:  33 TIME =     0.04 SECS, INTEGRAL =      1.25 TIME LEFT: 172798.74
 STEP:  34 TIME =     0.04 SECS, INTEGRAL =      1.29 TIME LEFT: 172798.70
 STEP:  35 TIME =     0.04 SECS, INTEGRAL =      1.33 TIME LEFT: 172798.66
 STEP:  36 TIME =     0.04 SECS, INTEGRAL =      1.36 TIME LEFT: 172798.62
 STEP:  37 TIME =     0.04 SECS, INTEGRAL =      1.40 TIME LEFT: 172798.59
 STEP:  38 TIME =     0.04 SECS, INTEGRAL =      1.45 TIME LEFT: 172798.54
 STEP:  39 TIME =     0.04 SECS, INTEGRAL =      1.48 TIME LEFT: 172798.51
 STEP:  40 TIME =     0.04 SECS, INTEGRAL =      1.52 TIME LEFT: 172798.47
 STEP:  41 TIME =     0.04 SECS, INTEGRAL =      1.55 TIME LEFT: 172798.43
 STEP:  42 TIME =     0.04 SECS, INTEGRAL =      1.59 TIME LEFT: 172798.40
 STEP:  43 TIME =     0.04 SECS, INTEGRAL =      1.62 TIME LEFT: 172798.36
 STEP:  44 TIME =     0.04 SECS, INTEGRAL =      1.66 TIME LEFT: 172798.32
 STEP:  45 TIME =     0.04 SECS, INTEGRAL =      1.70 TIME LEFT: 172798.29
 STEP:  46 TIME =     0.04 SECS, INTEGRAL =      1.74 TIME LEFT: 172798.25
 STEP:  47 TIME =     0.04 SECS, INTEGRAL =      1.78 TIME LEFT: 172798.21
 STEP:  48 TIME =     0.04 SECS, INTEGRAL =      1.82 TIME LEFT: 172798.16
 STEP:  49 TIME =     0.04 SECS, INTEGRAL =      1.86 TIME LEFT: 172798.12
 STEP:  50 TIME =     0.04 SECS, INTEGRAL =      1.91 TIME LEFT: 172798.08
 STEP:  51 TIME =     0.04 SECS, INTEGRAL =      1.94 TIME LEFT: 172798.05
 STEP:  52 TIME =     0.04 SECS, INTEGRAL =      1.98 TIME LEFT: 172798.01
 STEP:  53 TIME =     0.04 SECS, INTEGRAL =      2.01 TIME LEFT: 172797.98
 STEP:  54 TIME =     0.04 SECS, INTEGRAL =      2.05 TIME LEFT: 172797.94
 STEP:  55 TIME =     0.04 SECS, INTEGRAL =      2.09 TIME LEFT: 172797.90
 STEP:  56 TIME =     0.04 SECS, INTEGRAL =      2.13 TIME LEFT: 172797.86
 STEP:  57 TIME =     0.04 SECS, INTEGRAL =      2.16 TIME LEFT: 172797.82
 STEP:  58 TIME =     0.04 SECS, INTEGRAL =      2.20 TIME LEFT: 172797.79
 STEP:  59 TIME =     0.04 SECS, INTEGRAL =      2.24 TIME LEFT: 172797.75
 STEP:  60 TIME =     0.04 SECS, INTEGRAL =      2.27 TIME LEFT: 172797.71
 STEP:  61 TIME =     0.04 SECS, INTEGRAL =      2.31 TIME LEFT: 172797.68
 STEP:  62 TIME =     0.04 SECS, INTEGRAL =      2.35 TIME LEFT: 172797.64
 STEP:  63 TIME =     0.04 SECS, INTEGRAL =      2.38 TIME LEFT: 172797.61
 STEP:  64 TIME =     0.04 SECS, INTEGRAL =      2.42 TIME LEFT: 172797.57
 STEP:  65 TIME =     0.04 SECS, INTEGRAL =      2.46 TIME LEFT: 172797.53
 STEP:  66 TIME =     0.04 SECS, INTEGRAL =      2.49 TIME LEFT: 172797.50
 STEP:  67 TIME =     0.03 SECS, INTEGRAL =      2.52 TIME LEFT: 172797.46
 STEP:  68 TIME =     0.04 SECS, INTEGRAL =      2.56 TIME LEFT: 172797.43
 STEP:  69 TIME =     0.04 SECS, INTEGRAL =      2.60 TIME LEFT: 172797.39
 STEP:  70 TIME =     0.04 SECS, INTEGRAL =      2.64 TIME LEFT: 172797.35
 STEP:  71 TIME =     0.04 SECS, INTEGRAL =      2.67 TIME LEFT: 172797.32
 STEP:  72 TIME =     0.04 SECS, INTEGRAL =      2.71 TIME LEFT: 172797.28
 STEP:  73 TIME =     0.04 SECS, INTEGRAL =      2.75 TIME LEFT: 172797.24
 STEP:  74 TIME =     0.04 SECS, INTEGRAL =      2.79 TIME LEFT: 172797.20
 STEP:  75 TIME =     0.04 SECS, INTEGRAL =      2.83 TIME LEFT: 172797.16
 STEP:  76 TIME =     0.04 SECS, INTEGRAL =      2.87 TIME LEFT: 172797.12
 STEP:  77 TIME =     0.04 SECS, INTEGRAL =      2.91 TIME LEFT: 172797.08
 STEP:  78 TIME =     0.04 SECS, INTEGRAL =      2.94 TIME LEFT: 172797.05
 STEP:  79 TIME =     0.04 SECS, INTEGRAL =      2.98 TIME LEFT: 172797.01
 STEP:  80 TIME =     0.04 SECS, INTEGRAL =      3.02 TIME LEFT: 172796.96
 STEP:  81 TIME =     0.04 SECS, INTEGRAL =      3.06 TIME LEFT: 172796.93
 STEP:  82 TIME =     0.04 SECS, INTEGRAL =      3.09 TIME LEFT: 172796.89
 STEP:  83 TIME =     0.04 SECS, INTEGRAL =      3.13 TIME LEFT: 172796.86
 STEP:  84 TIME =     0.04 SECS, INTEGRAL =      3.17 TIME LEFT: 172796.82
 STEP:  85 TIME =     0.04 SECS, INTEGRAL =      3.21 TIME LEFT: 172796.78
 STEP:  86 TIME =     0.04 SECS, INTEGRAL =      3.24 TIME LEFT: 172796.75
 STEP:  87 TIME =     0.04 SECS, INTEGRAL =      3.28 TIME LEFT: 172796.71
 STEP:  88 TIME =     0.04 SECS, INTEGRAL =      3.32 TIME LEFT: 172796.67
 STEP:  89 TIME =     0.04 SECS, INTEGRAL =      3.36 TIME LEFT: 172796.63
 STEP:  90 TIME =     0.04 SECS, INTEGRAL =      3.40 TIME LEFT: 172796.59
 STEP:  91 TIME =     0.04 SECS, INTEGRAL =      3.44 TIME LEFT: 172796.55
 STEP:  92 TIME =     0.04 SECS, INTEGRAL =      3.48 TIME LEFT: 172796.51
 STEP:  93 TIME =     0.04 SECS, INTEGRAL =      3.52 TIME LEFT: 172796.47
 STEP:  94 TIME =     0.04 SECS, INTEGRAL =      3.56 TIME LEFT: 172796.43
 STEP:  95 TIME =     0.04 SECS, INTEGRAL =      3.60 TIME LEFT: 172796.39
 STEP:  96 TIME =     0.04 SECS, INTEGRAL =      3.64 TIME LEFT: 172796.35

(To convert to Hartree/Bohr^2, multiply by (10^(-21) x N x a0^2)/(4.184 x 627.51) =  0.0642)


           FORCE MATRIX IN MILLIDYNES/ANGSTROM


                  C  1       C  2       C  3       C  4       C  5       C  6
 ------------------------------------------------------------------------------
     C    1  14.621838
     C    2   3.548579  14.598002
     C    3   0.645726   0.101932  14.756094
     C    4   3.884731   0.640051   3.941719  14.371134
     C    5   0.142805   0.020522   0.003736   0.020216  14.689427
     C    6   0.051987   0.008916   4.176398   0.651208   0.000818  14.371988
     C    7   0.625483   4.143071   0.009295   0.051598   0.000925   0.002065
     C    8   0.019443   0.002296   0.001012   0.004170   4.413757   0.000489
     C    9   0.065726   0.793100   4.754640   0.685224   0.000425   0.706590
     C   10   0.648035   4.714113   0.812104   0.071339   0.003881   0.046760
     C   11   4.663486   0.666139   0.052690   0.708049   0.821719   0.011721
     C   12   0.797721   0.035550   0.005940   0.038836   4.960327   0.001295
     H   13   0.019823   0.014266   4.154296   0.428409   0.000190   0.425224
     H   14   0.436812   4.141228   0.014036   0.014444   0.000912   0.000861
     H   15   4.169343   0.431151   0.032079   0.425301   0.001923   0.001538
     H   16   0.441828   0.049334   0.436658   4.485936   0.000748   0.021530
     H   17   0.450215   0.023347   0.450273   4.434559   0.000598   0.038511
     H   18   0.019174   0.003569   0.000280   0.002256   4.421262   0.000180
     H   19   0.003226   0.000948   0.000121   0.000429   4.441932   0.000114
     H   20   0.021922   0.467385   0.000959   0.001476   0.000220   0.000430
     H   21   0.009057   0.001264   0.455953   0.049209   0.000165   4.736845
     H   22   0.001656   0.000983   0.467319   0.023531   0.000073   4.731186
     H   23   0.002115   0.001571   0.453767   0.028351   0.000085   4.739116
     H   24   0.030452   0.455009   0.001649   0.001895   0.001239   0.000571
     H   25   0.048499   0.455260   0.001197   0.009271   0.000175   0.000570
     H   26   0.000834   0.000235   0.000110   0.000265   0.461317   0.000095
     H   27   0.000836   0.000165   0.000086   0.000208   0.464998   0.000075
     H   28   0.003300   0.000364   0.000238   0.000910   0.450027   0.000142
     H   29   0.004437   0.124424   0.433355   0.041217   0.000157   0.037713
     H   30   0.040213   0.432671   0.123358   0.004939   0.000786   0.015224
     H   31   0.085012   0.009494   0.002183   0.010110   0.430725   0.000644
     H   32   0.433496   0.022884   0.001607   0.020218   0.084745   0.000959


                  C  7       C  8       C  9       C 10       C 11       C 12
 ------------------------------------------------------------------------------
     C    7  14.360185
     C    8   0.000478  14.354292
     C    9   0.045912   0.000297  18.258424
     C   10   0.723335   0.000261  10.733319  18.247729
     C   11   0.048735   0.041324   0.004786   0.050673  18.168351
     C   12   0.012978   0.715803   0.001364   0.006610  10.711690  18.188278
     H   13   0.000862   0.000102   0.387288   0.029947   0.001319   0.000566
     H   14   0.426775   0.000224   0.030998   0.387788   0.048052   0.002143
     H   15   0.041680   0.000743   0.007057   0.010578   0.443380   0.056572
     H   16   0.009204   0.000320   0.049688   0.004149   0.030806   0.003104
     H   17   0.001672   0.000201   0.010679   0.007100   0.029630   0.001765
     H   18   0.000405   0.445824   0.000155   0.001037   0.032192   0.409299
     H   19   0.000196   0.434941   0.000108   0.000296   0.049900   0.460558
     H   20   4.730679   0.000156   0.002623   0.018601   0.002105   0.000844
     H   21   0.000598   0.000139   0.030482   0.002445   0.002353   0.000304
     H   22   0.000452   0.000051   0.016027   0.002419   0.000847   0.000128
     H   23   0.000578   0.000048   0.051647   0.008390   0.001183   0.000089
     H   24   4.728507   0.000397   0.008183   0.051739   0.010318   0.007499
     H   25   4.740633   0.000152   0.002343   0.031022   0.002577   0.000558
     H   26   0.000158   4.746186   0.000087   0.000193   0.002390   0.015875
     H   27   0.000141   4.726740   0.000071   0.000140   0.001998   0.027289
     H   28   0.000142   4.750581   0.000112   0.000091   0.007169   0.052914
     H   29   0.016022   0.000076   4.798905   0.441900   0.001647   0.000208
     H   30   0.038641   0.000166   0.441683   4.787836   0.008214   0.001107
     H   31   0.000845   0.026293   0.000588   0.002303   0.469387   4.757500
     H   32   0.002473   0.008795   0.001200   0.002089   4.748777   0.468461


                  H 13       H 14       H 15       H 16       H 17       H 18
 ------------------------------------------------------------------------------
     H   13   4.617693
     H   14   0.002110   4.612808
     H   15   0.017513   0.039685   4.655815
     H   16   0.033929   0.001286   0.026332   5.101887
     H   17   0.042866   0.010366   0.042639   0.564565   5.058263
     H   18   0.000062   0.000237   0.000439   0.000263   0.000181   5.019099
     H   19   0.000065   0.000216   0.000543   0.000182   0.000188   0.566808
     H   20   0.000353   0.045883   0.024306   0.000343   0.000455   0.000136
     H   21   0.030155   0.000307   0.000489   0.001196   0.002159   0.000058
     H   22   0.046199   0.000336   0.000470   0.001341   0.023680   0.000034
     H   23   0.027196   0.000123   0.000344   0.015377   0.002501   0.000034
     H   24   0.000144   0.026089   0.003306   0.000495   0.000421   0.000419
     H   25   0.000327   0.031009   0.002236   0.001808   0.000509   0.000182
     H   26   0.000023   0.000062   0.000134   0.000124   0.000045   0.049401
     H   27   0.000023   0.000073   0.000207   0.000071   0.000043   0.023684
     H   28   0.000033   0.000086   0.000177   0.000098   0.000072   0.028483
     H   29   0.016589   0.016821   0.000541   0.006870   0.001499   0.000058
     H   30   0.016688   0.019020   0.000990   0.001096   0.000566   0.000252
     H   31   0.000277   0.000789   0.029664   0.000621   0.000665   0.017319
     H   32   0.000656   0.026489   0.036764   0.002630   0.015604   0.009952


                  H 19       H 20       H 21       H 22       H 23       H 24
 ------------------------------------------------------------------------------
     H   19   5.052796
     H   20   0.000114   5.469933
     H   21   0.000031   0.000108   5.477039
     H   22   0.000028   0.000096   0.574210   5.470816
     H   23   0.000029   0.000105   0.569549   0.571809   5.474735
     H   24   0.000148   0.570844   0.000143   0.000115   0.000145   5.455178
     H   25   0.000074   0.573667   0.000155   0.000107   0.000128   0.562800
     H   26   0.024451   0.000035   0.000033   0.000016   0.000024   0.000092
     H   27   0.048061   0.000045   0.000026   0.000012   0.000011   0.000089
     H   28   0.030151   0.000044   0.000036   0.000018   0.000016   0.000152
     H   29   0.000043   0.000620   0.025318   0.003424   0.002294   0.002662
     H   30   0.000079   0.003470   0.000607   0.000605   0.002626   0.002050
     H   31   0.038979   0.000385   0.000157   0.000107   0.000102   0.000969
     H   32   0.030097   0.000545   0.000216   0.000265   0.000291   0.001405


                  H 25       H 26       H 27       H 28       H 29       H 30
 ------------------------------------------------------------------------------
     H   25   5.477630
     H   26   0.000052   5.484506
     H   27   0.000039   0.578599   5.470835
     H   28   0.000037   0.574188   0.573049   5.487823
     H   29   0.000597   0.000035   0.000024   0.000032   5.179870
     H   30   0.025306   0.000053   0.000048   0.000067   0.072147   5.167819
     H   31   0.000352   0.002644   0.020271   0.002076   0.000208   0.000402
     H   32   0.000486   0.000503   0.000578   0.001674   0.000568   0.000545


                  H 31       H 32
 ------------------------------
     H   31   5.137946
     H   32   0.106407   5.134160


          HEAT OF FORMATION =     -10.593488 KCALS/MOLE

          ZERO POINT ENERGY     180.555 KCAL/MOL


           NORMAL COORDINATE ANALYSIS (Total motion = 1 Angstrom)


   Root No.       1         2         3         4         5         6         7         8

                 1 A       2 A       3 A       4 A       5 A       6 A       7 A       8 A   

                  25.3      53.8      58.9      94.3     105.0     170.7     173.9     181.0
  
           1    0.0142   -0.0094   -0.0093    0.0052   -0.0010    0.0012   -0.0005    0.0013
           2   -0.0099    0.0023    0.0057   -0.0040   -0.0046   -0.0043    0.0004    0.0007
           3   -0.0076   -0.0039    0.0012    0.0227   -0.0163    0.0011    0.0015    0.0036
           4    0.0140   -0.0091   -0.0094    0.0046   -0.0013    0.0010   -0.0003    0.0011
           5    0.0040   -0.0085    0.0030   -0.0026    0.0010    0.0001   -0.0002    0.0012
           6    0.0014   -0.0011    0.0088    0.0003   -0.0065    0.0018    0.0055    0.0001
           7   -0.0086    0.0085   -0.0039   -0.0080   -0.0034   -0.0028   -0.0023   -0.0016
           8   -0.0106    0.0025    0.0068   -0.0106    0.0024    0.0003   -0.0018   -0.0012
           9   -0.0015   -0.0041    0.0018    0.0034    0.0002   -0.0074   -0.0018    0.0035
          10   -0.0005   -0.0066   -0.0070    0.0157   -0.0142   -0.0096    0.0022    0.0052
          11   -0.0164    0.0057    0.0069   -0.0038   -0.0061   -0.0009   -0.0000   -0.0007
          12   -0.0068   -0.0080    0.0006    0.0301   -0.0230   -0.0138    0.0044    0.0088
          13   -0.0096    0.0138    0.0171   -0.0029   -0.0047   -0.0045    0.0000    0.0013
          14    0.0020   -0.0119   -0.0147   -0.0040    0.0061   -0.0010   -0.0013   -0.0001
          15   -0.0132   -0.0072   -0.0250   -0.0039    0.0278    0.0091   -0.0044   -0.0029
          16   -0.0218   -0.0076    0.0186   -0.0164    0.0047    0.0089    0.0068   -0.0044
          17   -0.0159    0.0066    0.0051    0.0014   -0.0126   -0.0050    0.0018    0.0002
          18    0.0011   -0.0171    0.0139   -0.0187    0.0268    0.0061   -0.0035   -0.0001
          19    0.0293   -0.0168   -0.0045   -0.0092    0.0091    0.0034    0.0031    0.0004
          20    0.0083    0.0083   -0.0178    0.0010    0.0037    0.0088    0.0069   -0.0014
          21    0.0053   -0.0237    0.0340   -0.0112   -0.0037   -0.0069   -0.0004    0.0025
          22   -0.0192    0.0068    0.0085   -0.0051   -0.0024   -0.0026   -0.0008    0.0009
          23    0.0336    0.0113    0.0151    0.0373    0.0220    0.0029   -0.0043    0.0004
          24    0.0314    0.0249    0.0137   -0.0246   -0.0039   -0.0099    0.0047    0.0005
          25   -0.0072    0.0150   -0.0084   -0.0100   -0.0035   -0.0033   -0.0027   -0.0036
          26    0.0028   -0.0026   -0.0015   -0.0034    0.0019   -0.0012   -0.0015   -0.0004
          27    0.0033    0.0275   -0.0189   -0.0080    0.0012   -0.0081   -0.0044   -0.0071
          28    0.0030    0.0067   -0.0102   -0.0045   -0.0028   -0.0005    0.0002   -0.0024
          29    0.0092   -0.0078   -0.0027   -0.0002    0.0026    0.0008    0.0003    0.0002
          30    0.0041    0.0295   -0.0161   -0.0080   -0.0017    0.0030    0.0076   -0.0099
          31    0.0185   -0.0140   -0.0127    0.0069   -0.0021    0.0026   -0.0036    0.0033
          32   -0.0153    0.0051    0.0048   -0.0049    0.0020    0.0011   -0.0013   -0.0015
          33   -0.0140   -0.0021   -0.0034    0.0220   -0.0049    0.0138   -0.0043    0.0009
          34   -0.0089    0.0144    0.0169    0.0294    0.0235    0.0063   -0.0046   -0.0012
          35    0.0047   -0.0140   -0.0110   -0.0132   -0.0221   -0.0028    0.0003    0.0028
          36   -0.0078   -0.0108   -0.0186    0.0049   -0.0021    0.0149   -0.0056    0.0003
          37   -0.0058    0.0291   -0.0164   -0.0176   -0.0018   -0.0049   -0.0092   -0.0052
          38   -0.0122   -0.0012    0.0171   -0.0356    0.0252    0.0109   -0.0058   -0.0049
          39   -0.0031   -0.0156    0.0094    0.0068    0.0012   -0.0052    0.0018    0.0050
          40    0.0107   -0.0132   -0.0152    0.0201   -0.0074    0.0013   -0.0040    0.0019
          41    0.0080   -0.0343    0.0242   -0.0044    0.0013   -0.0047   -0.0055    0.0056
          42    0.0036   -0.0060    0.0161   -0.0058   -0.0043    0.0003    0.0053    0.0008
          43    0.0204   -0.0079   -0.0043   -0.0078    0.0048    0.0040    0.0026    0.0000
          44   -0.0097    0.0018    0.0079    0.0001   -0.0134   -0.0167    0.0038    0.0032
          45   -0.0097   -0.0045   -0.0003    0.0267   -0.0181   -0.0002    0.0006    0.0041
          46   -0.0005   -0.0072   -0.0071    0.0173   -0.0154   -0.0104    0.0025    0.0058
          47   -0.0265    0.0131    0.0097   -0.0092   -0.0075   -0.0028   -0.0012   -0.0012
          48   -0.0122   -0.0174   -0.0000    0.0597   -0.0453   -0.0306    0.0116    0.0188
          49   -0.0056   -0.0152   -0.0079    0.0440   -0.0359   -0.0260    0.0091    0.0148
          50   -0.0163    0.0038    0.0055    0.0077   -0.0136    0.0024    0.0032   -0.0015
          51   -0.0052   -0.0051    0.0010    0.0204   -0.0154   -0.0083    0.0019    0.0057
          52   -0.0390   -0.0076   -0.0091   -0.0202   -0.0071   -0.0019   -0.0008    0.0005
          53   -0.0009   -0.0168   -0.0167   -0.0167   -0.0162   -0.0003   -0.0008    0.0014
          54   -0.0459   -0.0248   -0.0553    0.0007    0.0730    0.0108   -0.0067   -0.0071
          55    0.0252    0.0379    0.0475   -0.0158   -0.0317   -0.0163    0.0058    0.0043
          56   -0.0216   -0.0224   -0.0375   -0.0120    0.0418   -0.0061   -0.0006   -0.0033
          57   -0.0203   -0.0122   -0.0312   -0.0011    0.0331    0.0115   -0.0055   -0.0035
          58    0.0314   -0.0084    0.0009   -0.0262    0.0212    0.0517    0.0832    0.1117
          59    0.0041    0.0371   -0.0401    0.0036    0.0073    0.0483    0.0639    0.0672
          60    0.0037   -0.0192    0.0275   -0.0062   -0.0060   -0.0102   -0.0078   -0.0102
          61   -0.0292    0.0064    0.0185   -0.0336    0.0094   -0.0084   -0.1028    0.0962
          62   -0.0120    0.0038    0.0058   -0.0058   -0.0030   -0.0010    0.0020   -0.0032
          63    0.0041   -0.0150    0.0152   -0.0404    0.0464    0.0042   -0.0596    0.0455
          64   -0.0239   -0.0295    0.0330   -0.0076    0.0061    0.0317    0.1061   -0.0920
          65   -0.0136    0.0095   -0.0048    0.0282   -0.0362   -0.0067    0.0622   -0.0512
          66    0.0022   -0.0051    0.0060   -0.0236    0.0261   -0.0064   -0.0583    0.0482
          67   -0.0227   -0.0124    0.0222   -0.0150    0.0053    0.0138    0.0264   -0.0215
          68   -0.0265    0.0101    0.0127   -0.0084   -0.0110   -0.0120   -0.0566    0.0573
          69   -0.0012   -0.0418    0.0302   -0.0097    0.0293    0.0317    0.1059   -0.0968
          70    0.0388   -0.0304   -0.0059   -0.0043    0.0059   -0.0386   -0.0673   -0.1018
          71    0.0044    0.0079   -0.0129   -0.0002    0.0032    0.0160    0.0209    0.0222
          72    0.0048   -0.0502    0.0534   -0.0077   -0.0117   -0.0514   -0.0660   -0.0770
          73    0.0297   -0.0179   -0.0047   -0.0084    0.0085   -0.0008   -0.0039   -0.0096
          74    0.0198   -0.0064   -0.0169    0.0026    0.0029   -0.0291   -0.0562   -0.0935
          75    0.0103   -0.0197    0.0413   -0.0290    0.0086    0.0336    0.0675    0.0966
          76    0.0101    0.0285    0.0351    0.0129    0.0017   -0.0156    0.0037    0.0040
          77    0.0366    0.0150    0.0152    0.0535    0.0567   -0.0658    0.0209    0.0135
          78    0.0643    0.0463    0.0483   -0.0329   -0.0671    0.1087   -0.0390   -0.0212
          79   -0.0541   -0.0178   -0.0225    0.0082    0.0263   -0.0053   -0.0012    0.0013
          80    0.0576    0.0263    0.0434    0.0444   -0.0330    0.1463   -0.0585   -0.0256
          81    0.0386    0.0301    0.0197   -0.0282   -0.0079   -0.0174    0.0079    0.0019
          82   -0.0212    0.0046    0.0065   -0.0378   -0.0329    0.0135   -0.0052   -0.0029
          83    0.0320    0.0116    0.0107    0.0480    0.0560   -0.0697    0.0226    0.0141
          84    0.0267    0.0236    0.0038   -0.0294    0.0374   -0.1362    0.0527    0.0237
          85   -0.0152    0.0273   -0.0100   -0.0168   -0.0034   -0.0048   -0.0055   -0.0061
          86    0.0073   -0.0031   -0.0051   -0.0021    0.0028   -0.0019   -0.0016   -0.0014
          87    0.0058    0.0500   -0.0371   -0.0161    0.0046   -0.0142   -0.0100   -0.0164
          88    0.0036    0.0124   -0.0138   -0.0064   -0.0026    0.0008    0.0016   -0.0053
          89    0.0191   -0.0126   -0.0076    0.0039    0.0046    0.0018    0.0001   -0.0016
          90    0.0073    0.0532   -0.0315   -0.0159   -0.0007    0.0083    0.0138   -0.0218
          91   -0.0336    0.0381    0.0409    0.0636    0.0580    0.0172   -0.0079   -0.0073
          92    0.0248   -0.0320   -0.0216   -0.0210   -0.0592   -0.0057    0.0015    0.0088
          93    0.0020   -0.0199   -0.0269   -0.0064   -0.0168    0.0109   -0.0043    0.0029
          94    0.0428   -0.0393   -0.0377   -0.0188   -0.0325   -0.0026   -0.0034    0.0090
          95   -0.0352    0.0223    0.0159    0.0067    0.0332    0.0113   -0.0053   -0.0073
          96   -0.0235    0.0074    0.0052    0.0305    0.0078    0.0162   -0.0047   -0.0015


   Root No.       9        10        11        12        13        14        15        16

                 9 A      10 A      11 A      12 A      13 A      14 A      15 A      16 A   

                 212.1     233.1     294.5     308.7     341.2     376.0     425.4     449.8
  
           1    0.0006   -0.0013    0.0088   -0.0064   -0.0098   -0.0215   -0.0186    0.0052
           2   -0.0057   -0.0015    0.0075    0.0012   -0.0014    0.0027    0.0023    0.0007
           3    0.0143    0.0001    0.0010   -0.0057   -0.0098   -0.0205    0.0100    0.0104
           4    0.0008    0.0008    0.0066   -0.0075   -0.0099   -0.0218   -0.0170    0.0043
           5    0.0001    0.0007   -0.0112    0.0066   -0.0257    0.0018    0.0125   -0.0237
           6    0.0139    0.0082    0.0186    0.0009   -0.0189   -0.0074    0.0130    0.0218
           7   -0.0069   -0.0046   -0.0158   -0.0104   -0.0163    0.0022    0.0241    0.0121
           8   -0.0011   -0.0024   -0.0155   -0.0010   -0.0026    0.0034   -0.0223    0.0325
           9   -0.0127    0.0002   -0.0091    0.0137    0.0142   -0.0181    0.0112    0.0101
          10   -0.0162    0.0171   -0.0032   -0.0174   -0.0120    0.0228   -0.0189    0.0061
          11    0.0012   -0.0009   -0.0069   -0.0057   -0.0048    0.0061   -0.0054    0.0193
          12   -0.0117    0.0182    0.0074    0.0088    0.0063    0.0014    0.0133   -0.0085
          13    0.0018   -0.0135    0.0166    0.0018    0.0157    0.0112    0.0114    0.0031
          14   -0.0129   -0.0023    0.0376   -0.0020    0.0091   -0.0173    0.0008   -0.0080
          15   -0.0139    0.0066    0.0049    0.0166    0.0000    0.0108    0.0081    0.0075
          16    0.0247    0.0171   -0.0022    0.0257    0.0075   -0.0016    0.0017   -0.0272
          17   -0.0000    0.0077   -0.0220    0.0307    0.0185   -0.0141   -0.0222    0.0257
          18   -0.0000   -0.0056    0.0046   -0.0173   -0.0059    0.0056   -0.0089    0.0157
          19   -0.0019    0.0248   -0.0212   -0.0156    0.0438   -0.0005    0.0017    0.0071
          20    0.0201    0.0256   -0.0068   -0.0023   -0.0091    0.0016    0.0338   -0.0007
          21   -0.0102   -0.0047   -0.0026    0.0072   -0.0110    0.0081    0.0069   -0.0073
          22   -0.0014   -0.0128    0.0225    0.0029    0.0179    0.0103    0.0139    0.0030
          23    0.0020   -0.0152    0.0119    0.0094    0.0140    0.0145    0.0117    0.0043
          24   -0.0047    0.0102    0.0028   -0.0035   -0.0058   -0.0098   -0.0034   -0.0018
          25   -0.0086   -0.0084   -0.0166   -0.0101   -0.0169    0.0044    0.0210    0.0041
          26   -0.0052   -0.0000   -0.0207   -0.0001   -0.0203    0.0062   -0.0055   -0.0115
          27   -0.0179   -0.0166   -0.0185    0.0145    0.0180   -0.0103   -0.0028   -0.0218
          28   -0.0007   -0.0021    0.0032   -0.0054   -0.0195   -0.0029    0.0092   -0.0092
          29    0.0004    0.0043   -0.0096    0.0041   -0.0212    0.0008   -0.0091   -0.0229
          30    0.0162    0.0121    0.0266    0.0081   -0.0034    0.0200   -0.0263    0.0022
          31    0.0078   -0.0228    0.0015    0.0361   -0.0101    0.0011   -0.0125    0.0041
          32   -0.0070   -0.0014    0.0126   -0.0310    0.0162   -0.0011   -0.0040   -0.0125
          33    0.0200   -0.0148   -0.0145   -0.0319    0.0112   -0.0079   -0.0047   -0.0125
          34   -0.0027   -0.0025   -0.0003    0.0054   -0.0082   -0.0118   -0.0140   -0.0059
          35    0.0047   -0.0182    0.0244   -0.0176    0.0196   -0.0045    0.0011   -0.0090
          36    0.0158   -0.0185   -0.0252   -0.0110    0.0091    0.0173   -0.0076   -0.0055
          37   -0.0150   -0.0239   -0.0307   -0.0125   -0.0173   -0.0068    0.0392    0.0114
          38    0.0104   -0.0119   -0.0158   -0.0063   -0.0032    0.0020   -0.0341    0.0491
          39   -0.0070    0.0103   -0.0006    0.0142    0.0144   -0.0122    0.0008    0.0108
          40    0.0062   -0.0061    0.0045   -0.0097   -0.0178   -0.0420   -0.0216    0.0072
          41   -0.0131   -0.0094   -0.0306    0.0091   -0.0306   -0.0035    0.0251   -0.0379
          42    0.0082    0.0077    0.0140    0.0028   -0.0166   -0.0004    0.0171    0.0163
          43    0.0045    0.0015    0.0209   -0.0092   -0.0164   -0.0350   -0.0180    0.0177
          44   -0.0197    0.0134    0.0201    0.0137   -0.0020    0.0065    0.0081    0.0068
          45    0.0120    0.0000   -0.0034   -0.0043   -0.0070   -0.0146    0.0096    0.0062
          46   -0.0173    0.0192   -0.0024   -0.0174   -0.0116    0.0263   -0.0218    0.0049
          47   -0.0015   -0.0004   -0.0194   -0.0076   -0.0112    0.0197    0.0178    0.0218
          48   -0.0356    0.0557    0.0169   -0.0007    0.0100    0.0691   -0.0209   -0.0323
          49   -0.0397    0.0531    0.0058   -0.0258   -0.0080    0.0878   -0.0526   -0.0158
          50    0.0114    0.0001    0.0000   -0.0129   -0.0121    0.0021   -0.0155    0.0206
          51   -0.0040    0.0063    0.0045    0.0108    0.0048   -0.0193    0.0241   -0.0017
          52   -0.0070   -0.0115    0.0346    0.0018    0.0219    0.0075    0.0175    0.0025
          53   -0.0035   -0.0123    0.0345   -0.0178    0.0193   -0.0134   -0.0009   -0.0141
          54   -0.0457    0.0305    0.0359    0.0516   -0.0135   -0.0018    0.0209    0.0206
          55    0.0142   -0.0185    0.0093   -0.0150    0.0199    0.0108    0.0080   -0.0019
          56   -0.0450    0.0230    0.0741    0.0290   -0.0022   -0.0325    0.0152    0.0038
          57   -0.0162    0.0075    0.0065    0.0198   -0.0008    0.0105    0.0088    0.0085
          58   -0.0285    0.0121   -0.0427   -0.0139    0.0672    0.0107    0.0009   -0.0048
          59    0.0293    0.0295    0.0058   -0.0064   -0.0151   -0.0111    0.0489    0.0267
          60   -0.0014   -0.0006    0.0056    0.0058   -0.0181    0.0025    0.0102    0.0018
          61    0.0576    0.0515    0.0070    0.0521    0.0225   -0.0066   -0.0089   -0.0546
          62   -0.0018   -0.0006   -0.0177    0.0060    0.0018   -0.0004   -0.0242    0.0367
          63    0.0136   -0.0029    0.0176   -0.0489   -0.0287    0.0281   -0.0175    0.0219
          64    0.0192    0.0035   -0.0014    0.0326    0.0138   -0.0004   -0.0086   -0.0441
          65   -0.0289   -0.0063   -0.0410    0.0446    0.0300   -0.0349   -0.0026    0.0441
          66    0.0032    0.0019    0.0045   -0.0214   -0.0096    0.0054   -0.0033    0.0243
          67    0.0250    0.0155   -0.0016    0.0290    0.0100   -0.0016   -0.0017   -0.0330
          68    0.0316    0.0392   -0.0146    0.0727    0.0446   -0.0250   -0.0381   -0.0147
          69   -0.0059   -0.0212    0.0064   -0.0127   -0.0009    0.0087   -0.0212   -0.0002
          70    0.0205    0.0572   -0.0268   -0.0258    0.0753    0.0080    0.0243    0.0218
          71    0.0101    0.0108   -0.0049    0.0029   -0.0246   -0.0010    0.0210   -0.0119
          72   -0.0149   -0.0141   -0.0034    0.0139   -0.0266    0.0124   -0.0136   -0.0334
          73    0.0004    0.0275   -0.0211   -0.0165    0.0457   -0.0003    0.0036    0.0086
          74    0.0385    0.0587   -0.0178   -0.0126    0.0308    0.0144    0.0579    0.0113
          75   -0.0354   -0.0117   -0.0285    0.0079    0.0219    0.0243    0.0096   -0.0203
          76    0.0135   -0.0214    0.0060    0.0032    0.0210    0.0270    0.0200    0.0097
          77    0.0309   -0.0293   -0.0036    0.0051    0.0180    0.0279    0.0161    0.0089
          78   -0.0422    0.0266    0.0118    0.0056   -0.0094   -0.0139   -0.0037   -0.0017
          79   -0.0032   -0.0175    0.0246    0.0155    0.0239    0.0266    0.0243    0.0105
          80   -0.0414   -0.0017    0.0186    0.0320    0.0158    0.0302    0.0228    0.0137
          81   -0.0019    0.0107    0.0019   -0.0081   -0.0075   -0.0151   -0.0069   -0.0043
          82   -0.0164    0.0008    0.0405   -0.0098    0.0099   -0.0236   -0.0016   -0.0117
          83    0.0298   -0.0275   -0.0006    0.0027    0.0164    0.0216    0.0129    0.0061
          84    0.0368   -0.0023   -0.0074   -0.0264   -0.0080   -0.0237   -0.0141   -0.0102
          85   -0.0120   -0.0142   -0.0264   -0.0099   -0.0051    0.0112    0.0103    0.0142
          86   -0.0086   -0.0029   -0.0231    0.0017   -0.0215    0.0036   -0.0046   -0.0316
          87   -0.0394   -0.0401   -0.0481    0.0212    0.0353   -0.0053   -0.0188   -0.0834
          88    0.0033    0.0008    0.0087   -0.0049   -0.0205    0.0076   -0.0017   -0.0157
          89    0.0041    0.0088   -0.0001    0.0071   -0.0118   -0.0070   -0.0336   -0.0319
[...]
 TRANSITION DIPOLE   0.0189         C  5 -- H 19         +44.9% ( 69.6%)     96.1%
 TRAVEL (Ang.)       0.2106         C  5 -- C  8          +1.2% ( 11.2%)      0.0%
 REDUCED MASS        0.5165         C  5 -- C 12          +1.2% ( 11.1%)      0.2%
 EFFECTIVE MASS      1.5435
 FORCE CONSTANT      2.6394

 VIBRATION         75   75A           ATOM PAIR      ENERGY CONTRIBUTION    RADIAL
 FREQUENCY          2958.24         C  4 -- H 17         +57.5% ( 78.7%)     97.4%
 TRANSITION DIPOLE   0.0286         C  4 -- H 16         +39.7% ( 65.4%)     95.4%
 TRAVEL (Ang.)       0.2076         C  1 -- C  4          +1.1% ( 11.1%)      0.0%
 REDUCED MASS        0.5288         C  3 -- C  4          +1.1% ( 11.1%)      0.1%
 EFFECTIVE MASS      1.5390
 FORCE CONSTANT      2.7264

 VIBRATION         76   76A           ATOM PAIR      ENERGY CONTRIBUTION    RADIAL
 FREQUENCY          3024.49         C  5 -- H 19         +50.8% ( 70.4%)     98.1%
 TRANSITION DIPOLE   0.0447         C  5 -- H 18         +44.4% ( 65.7%)     97.3%
 TRAVEL (Ang.)       0.2213         C 12 -- H 31          +2.0% ( 13.9%)     99.8%
 REDUCED MASS        0.4553         C 11 -- H 32          +0.9% (  9.3%)     99.7%
 EFFECTIVE MASS      1.2878
 FORCE CONSTANT      2.4537

 VIBRATION         77   77A           ATOM PAIR      ENERGY CONTRIBUTION    RADIAL
 FREQUENCY          3033.09         C 11 -- H 32         +81.2% ( 91.1%)    100.0%
 TRANSITION DIPOLE   0.3190         C 12 -- H 31         +15.9% ( 40.3%)    100.0%
 TRAVEL (Ang.)       0.1829         C  1 -- C 11          +1.1% ( 10.5%)     16.5%
 REDUCED MASS        0.6649         C 11 -- C 12          +1.0% (  9.9%)     40.8%
 EFFECTIVE MASS      1.4524
 FORCE CONSTANT      3.6040

 VIBRATION         78   78A           ATOM PAIR      ENERGY CONTRIBUTION    RADIAL
 FREQUENCY          3035.81         C  4 -- H 16         +42.9% ( 65.1%)     98.6%
 TRANSITION DIPOLE   0.0612         C  4 -- H 17         +28.7% ( 53.2%)     96.2%
 TRAVEL (Ang.)       0.2722         C 12 -- H 31         +16.2% ( 40.0%)    100.0%
 REDUCED MASS        0.2997         C 11 -- H 32          +6.4% ( 25.1%)     99.9%
 EFFECTIVE MASS      1.3472
 FORCE CONSTANT      1.6276

 VIBRATION         79   79A           ATOM PAIR      ENERGY CONTRIBUTION    RADIAL
 FREQUENCY          3035.91         C 12 -- H 31         +64.1% ( 80.9%)    100.0%
 TRANSITION DIPOLE   0.1213         C  4 -- H 16         +11.7% ( 34.5%)     98.6%
 TRAVEL (Ang.)       0.2274         C 11 -- H 32          +9.5% ( 31.1%)     99.8%
 REDUCED MASS        0.4295         C  4 -- H 17          +7.8% ( 28.2%)     96.2%
 EFFECTIVE MASS      1.4976
 FORCE CONSTANT      2.3321

 VIBRATION         80   80A           ATOM PAIR      ENERGY CONTRIBUTION    RADIAL
 FREQUENCY          3036.65         C 10 -- H 30         +55.5% ( 75.5%)    100.0%
 TRANSITION DIPOLE   0.2803         C  9 -- H 29         +37.4% ( 62.0%)    100.0%
 TRAVEL (Ang.)       0.2258         C  4 -- H 16          +2.8% ( 17.1%)     98.6%
 REDUCED MASS        0.4355         C  4 -- H 17          +1.8% ( 13.7%)     95.8%
 EFFECTIVE MASS      1.4493
 FORCE CONSTANT      2.3660

 VIBRATION         81   81A           ATOM PAIR      ENERGY CONTRIBUTION    RADIAL
 FREQUENCY          3057.10         C  9 -- H 29         +57.2% ( 76.8%)     99.9%
 TRANSITION DIPOLE   0.2755         C 10 -- H 30         +39.0% ( 63.4%)     99.9%
 TRAVEL (Ang.)       0.2141         C  9 -- C 10          +2.0% ( 14.4%)     98.6%
 REDUCED MASS        0.4813         C  3 -- C  9          +0.9% (  9.8%)     11.3%
 EFFECTIVE MASS      1.5853
 FORCE CONSTANT      2.6501

 VIBRATION         82   82A           ATOM PAIR      ENERGY CONTRIBUTION    RADIAL
 FREQUENCY          3079.21         C  7 -- H 24         +49.1% ( 72.3%)     97.0%
 TRANSITION DIPOLE   0.0392         C  7 -- H 20         +48.7% ( 72.0%)     97.1%
 TRAVEL (Ang.)       0.2076         C  7 -- H 25          +1.1% ( 10.6%)      2.2%
 REDUCED MASS        0.5081         C  2 -- C  7          +1.0% ( 10.4%)      0.0%
 EFFECTIVE MASS      1.5062
 FORCE CONSTANT      2.8382

 VIBRATION         83   83A           ATOM PAIR      ENERGY CONTRIBUTION    RADIAL
 FREQUENCY          3081.00         C  6 -- H 22         +65.0% ( 83.2%)     98.9%
 TRANSITION DIPOLE   0.0174         C  6 -- H 21         +21.2% ( 47.5%)     88.1%
 TRAVEL (Ang.)       0.2068         C  6 -- H 23         +12.7% ( 36.8%)     79.1%
 REDUCED MASS        0.5118         C  3 -- C  6          +1.0% ( 10.3%)      0.0%
 EFFECTIVE MASS      1.5040
 FORCE CONSTANT      2.8624

 VIBRATION         84   84A           ATOM PAIR      ENERGY CONTRIBUTION    RADIAL
 FREQUENCY          3081.39         C  8 -- H 27         +63.9% ( 82.4%)     98.7%
 TRANSITION DIPOLE   0.0071         C  8 -- H 26         +28.7% ( 55.2%)     92.3%
 TRAVEL (Ang.)       0.2048         C  8 -- H 28          +6.2% ( 25.7%)     61.4%
 REDUCED MASS        0.5216         C  5 -- C  8          +1.0% ( 10.2%)      0.0%
 EFFECTIVE MASS      1.5013
 FORCE CONSTANT      2.9182

 VIBRATION         85   85A           ATOM PAIR      ENERGY CONTRIBUTION    RADIAL
 FREQUENCY          3082.65         C  7 -- H 25         +63.5% ( 82.2%)     98.8%
 TRANSITION DIPOLE   0.0112         C  7 -- H 24         +19.1% ( 45.1%)     86.5%
 TRAVEL (Ang.)       0.2100         C  7 -- H 20         +16.4% ( 41.8%)     83.7%
 REDUCED MASS        0.4960         C  2 -- C  7          +1.0% ( 10.5%)      0.0%
 EFFECTIVE MASS      1.5079
 FORCE CONSTANT      2.7769

 VIBRATION         86   86A           ATOM PAIR      ENERGY CONTRIBUTION    RADIAL
 FREQUENCY          3083.28         C  6 -- H 23         +53.2% ( 75.3%)     97.7%
 TRANSITION DIPOLE   0.0124         C  6 -- H 21         +44.4% ( 68.7%)     96.4%
 TRAVEL (Ang.)       0.2070         C  6 -- H 22          +1.3% ( 12.0%)      9.2%
 REDUCED MASS        0.5104         C  3 -- C  6          +1.0% ( 10.5%)      0.0%
 EFFECTIVE MASS      1.5082
 FORCE CONSTANT      2.8587

 VIBRATION         87   87A           ATOM PAIR      ENERGY CONTRIBUTION    RADIAL
 FREQUENCY          3086.03         C  8 -- H 28         +58.4% ( 78.9%)     98.3%
 TRANSITION DIPOLE   0.0109         C  8 -- H 26         +36.2% ( 62.1%)     94.5%
 TRAVEL (Ang.)       0.2085         C  8 -- H 27          +3.9% ( 20.5%)     46.1%
 REDUCED MASS        0.5025         C  5 -- C  8          +1.0% ( 10.3%)      0.1%
 EFFECTIVE MASS      1.5042
 FORCE CONSTANT      2.8197

 VIBRATION         88   88A           ATOM PAIR      ENERGY CONTRIBUTION    RADIAL
 FREQUENCY          3176.88         C  7 -- H 25         +34.9% ( 56.9%)     97.3%
 TRANSITION DIPOLE   0.0368         C  7 -- H 20         +34.2% ( 56.3%)     97.2%
 TRAVEL (Ang.)       0.2544         C  7 -- H 24         +30.6% ( 53.3%)     96.6%
 REDUCED MASS        0.3279         C  2 -- C  7          +0.3% (  5.0%)     99.8%
 EFFECTIVE MASS      1.1345
 FORCE CONSTANT      1.9499

 VIBRATION         89   89A           ATOM PAIR      ENERGY CONTRIBUTION    RADIAL
 FREQUENCY          3179.43         C  6 -- H 21         +33.7% ( 55.8%)     97.2%
 TRANSITION DIPOLE   0.0276         C  6 -- H 23         +33.2% ( 55.5%)     97.1%
 TRAVEL (Ang.)       0.2546         C  6 -- H 22         +32.8% ( 55.1%)     97.0%
 REDUCED MASS        0.3271         C  3 -- C  6          +0.3% (  5.0%)    100.0%
 EFFECTIVE MASS      1.1347
 FORCE CONSTANT      1.9479

 VIBRATION         90   90A           ATOM PAIR      ENERGY CONTRIBUTION    RADIAL
 FREQUENCY          3183.12         C  8 -- H 28         +34.4% ( 56.4%)     97.3%
 TRANSITION DIPOLE   0.0197         C  8 -- H 26         +34.4% ( 56.4%)     97.3%
 TRAVEL (Ang.)       0.2543         C  8 -- H 27         +30.9% ( 53.5%)     96.7%
 REDUCED MASS        0.3277         C  5 -- C  8          +0.3% (  5.1%)     99.8%
 EFFECTIVE MASS      1.1360
 FORCE CONSTANT      1.9561

      SYMMETRY NUMBER FOR POINT-GROUP C1  =  1


          SYSTEM IS A GROUND STATE



 InChI=1S/C12H20/c1-4-5-6-12-9-10(2)7-8-11(12)3/h5-8,10-12H,4,9H2,1-3H3


          MOLECULE IS NOT LINEAR

          THERE ARE 90 GENUINE VIBRATIONS IN THIS SYSTEM
          THIS THERMODYNAMICS CALCULATION IS LIMITED TO
          MOLECULES WHICH HAVE NO INTERNAL ROTATIONS




                    CALCULATED THERMODYNAMIC PROPERTIES
                                          *
   TEMP. (K)   PARTITION FUNCTION   H.O.F.    ENTHALPY  HEAT CAPACITY ENTROPY
                                   KCAL/MOL   CAL/MOLE    CAL/K/MOL  CAL/K/MOL


 298.00  VIB.     0.7601D+05                  6863.3330    45.6647    45.3648
         ROT.     0.1694D+07                   888.2803     2.9808    31.4829
         INT.     0.1288D+12                  7751.6133    48.6455    76.8477
         TRA.     0.2036D+28                  1480.4672     4.9680    41.1956
         TOT.                      -10.593    9232.0805    53.6136   118.0434

 200.00  VIB.     0.1621D+04                  3173.7620    30.1650    30.5562
         ROT.     0.9316D+06                   596.1613     2.9808    30.2943
         INT.     0.1510D+10                  3769.9232    33.1458    60.8505
         TRA.     0.1119D+28                   993.6021     4.9680    39.2145
         TOT.                      -15.062    4763.5254    38.1138   100.0650

 210.00  VIB.     0.2415D+04                  3482.4975    31.5884    32.0623
         ROT.     0.1002D+07                   625.9693     2.9808    30.4397
         INT.     0.2420D+10                  4108.4669    34.5692    62.5020
         TRA.     0.1204D+28                  1043.2822     4.9680    39.4569
         TOT.                      -14.674    5151.7491    39.5372   101.9589

 220.00  VIB.     0.3590D+04                  3805.6582    33.0503    33.5654
         ROT.     0.1075D+07                   655.7774     2.9808    30.5784
         INT.     0.3858D+10                  4461.4357    36.0311    64.1437
         TRA.     0.1291D+28                  1092.9623     4.9680    39.6880
         TOT.                      -14.271    5554.3980    40.9992   103.8317

 230.00  VIB.     0.5328D+04                  4143.6367    34.5520    35.0675
         ROT.     0.1149D+07                   685.5855     2.9808    30.7109
         INT.     0.6121D+10                  4829.2222    37.5328    65.7784
         TRA.     0.1380D+28                  1142.6424     4.9680    39.9088
         TOT.                      -13.854    5971.8646    42.5008   105.6872

 240.00  VIB.     0.7897D+04                  4496.8284    36.0928    36.5704
         ROT.     0.1225D+07                   715.3935     2.9808    30.8377
         INT.     0.9671D+10                  5212.2220    39.0736    67.4082
         TRA.     0.1471D+28                  1192.3226     4.9680    40.1203
         TOT.                      -13.421    6404.5445    44.0416   107.5284

 250.00  VIB.     0.1169D+05                  4865.6180    37.6712    38.0757
         ROT.     0.1302D+07                   745.2016     2.9808    30.9594
         INT.     0.1522D+11                  5610.8196    40.6520    69.0351
         TRA.     0.1564D+28                  1242.0027     4.9680    40.3231
         TOT.                      -12.973    6852.8222    45.6200   109.3582

 260.00  VIB.     0.1729D+05                  5250.3678    39.2843    39.5845
         ROT.     0.1381D+07                   775.0097     2.9808    31.0763
         INT.     0.2387D+11                  6025.3775    42.2651    70.6608
         TRA.     0.1659D+28                  1291.6828     4.9680    40.5179
         TOT.                      -12.509    7317.0602    47.2332   111.1788

 270.00  VIB.     0.2555D+05                  5651.4092    40.9288    41.0978
         ROT.     0.1461D+07                   804.8177     2.9808    31.1888
         INT.     0.3733D+11                  6456.2270    43.9097    72.2867
         TRA.     0.1756D+28                  1341.3629     4.9680    40.7054
         TOT.                      -12.028    7797.5898    48.8777   112.9921

 280.00  VIB.     0.3773D+05                  6069.0359    42.6007    42.6165
         ROT.     0.1543D+07                   834.6258     2.9808    31.2972
         INT.     0.5822D+11                  6903.6617    45.5815    73.9137
         TRA.     0.1854D+28                  1391.0430     4.9680    40.8861
         TOT.                      -11.531    8294.7047    50.5495   114.7998

 290.00  VIB.     0.5568D+05                  6503.4993    44.2955    44.1409
         ROT.     0.1627D+07                   864.4339     2.9808    31.4018
         INT.     0.9057D+11                  7367.9331    47.2763    75.5427
         TRA.     0.1954D+28                  1440.7231     4.9680    41.0604
         TOT.                      -11.017    8808.6562    52.2443   116.6032

 300.00  VIB.     0.8216D+05                  6955.0062    46.0086    45.6714
         ROT.     0.1711D+07                   894.2419     2.9808    31.5029
         INT.     0.1406D+12                  7849.2482    48.9894    77.1743
         TRA.     0.2056D+28                  1490.4032     4.9680    41.2289
         TOT.                      -10.486    9339.6514    53.9574   118.4031

 310.00  VIB.     0.1212D+06                  7423.7177    47.7356    47.2081
         ROT.     0.1798D+07                   924.0500     2.9808    31.6006
         INT.     0.2179D+12                  8347.7677    50.7164    78.8088
         TRA.     0.2160D+28                  1540.0833     4.9680    41.3918
         TOT.                       -9.938    9887.8510    55.6844   120.2005

 320.00  VIB.     0.1788D+06                  7909.7493    49.4719    48.7511
         ROT.     0.1885D+07                   953.8580     2.9808    31.6953
         INT.     0.3371D+12                  8863.6073    52.4527    80.4463
         TRA.     0.2265D+28                  1589.7634     4.9680    41.5495
         TOT.                       -9.372   10453.3707    57.4207   121.9958

 330.00  VIB.     0.2637D+06                  8413.1720    51.2131    50.3001
         ROT.     0.1975D+07                   983.6661     2.9808    31.7870
         INT.     0.5207D+12                  9396.8381    54.1939    82.0870
         TRA.     0.2372D+28                  1639.4435     4.9680    41.7024
         TOT.                       -8.789   11036.2816    59.1620   123.7894

 340.00  VIB.     0.3891D+06                  8934.0149    52.9553    51.8548
         ROT.     0.2065D+07                  1013.4742     2.9808    31.8760
         INT.     0.8034D+12                  9947.4890    55.9361    83.7308
         TRA.     0.2481D+28                  1689.1236     4.9680    41.8507
         TOT.                       -8.189   11636.6127    60.9041   125.5815

 350.00  VIB.     0.5741D+06                  9472.2672    54.6944    53.4149
         ROT.     0.2157D+07                  1043.2822     2.9808    31.9624
         INT.     0.1238D+13                 10515.5495    57.6752    85.3773
         TRA.     0.2591D+28                  1738.8037     4.9680    41.9947
         TOT.                       -7.571   12254.3532    62.6432   127.3720

 360.00  VIB.     0.8472D+06                 10027.8818    56.4271    54.9800
         ROT.     0.2250D+07                  1073.0903     2.9808    32.0463
         INT.     0.1906D+13                 11100.9721    59.4079    87.0264
         TRA.     0.2703D+28                  1788.4838     4.9680    42.1347
         TOT.                       -6.936   12889.4559    64.3759   129.1610

 370.00  VIB.     0.1251D+07                 10600.7777    58.1502    56.5496
         ROT.     0.2344D+07                  1102.8984     2.9808    32.1280
         INT.     0.2932D+13                 11703.6761    61.1310    88.6776
         TRA.     0.2817D+28                  1838.1639     4.9680    42.2708
         TOT.                       -6.284   13541.8400    66.0990   130.9484

 380.00  VIB.     0.1847D+07                 11190.8444    59.8608    58.1231
         ROT.     0.2440D+07                  1132.7064     2.9808    32.2075
         INT.     0.4506D+13                 12323.5508    62.8416    90.3306
         TRA.     0.2932D+28                  1887.8440     4.9680    42.4033
         TOT.                       -5.614   14211.3948    67.8096   132.7339

 390.00  VIB.     0.2728D+07                 11797.9441    61.5564    59.7000
         ROT.     0.2537D+07                  1162.5145     2.9808    32.2849
         INT.     0.6921D+13                 12960.4586    64.5373    91.9849
         TRA.     0.3048D+28                  1937.5242     4.9680    42.5323
         TOT.                       -4.928   14897.9828    69.5053   134.5172

 400.00  VIB.     0.4032D+07                 12421.9161    63.2349    61.2797
         ROT.     0.2635D+07                  1192.3226     2.9808    32.3604
         INT.     0.1062D+14                 13614.2387    66.2157    93.6401
         TRA.     0.3166D+28                  1987.2043     4.9680    42.6581
         TOT.                       -4.224   15601.4429    71.1837   136.2981

   *: NOTE: HEATS OF FORMATION ARE RELATIVE TO THE
            ELEMENTS IN THEIR STANDARD STATE AT 298K
              (=  Standard Enthalpy of Formation).

            Hvib:  Zero-point energy is not included.
                   frequencies of less than zero cm-1 are not included.
            Hrot = (3/2)RT
            Htra = (3/2)RT + pV = (5/2)RT

            Heat capacity is Cp, not Cv

          For more information, see: HTTP://OpenMOPAC.net/Manual/thermochemistry.html


           FORCE CONSTANT IN CARTESIAN COORDINATES (Millidynes/A)

    ATOM   CHEMICAL       X               Y               Z
   NUMBER   SYMBOL  FORCE CONSTANT  FORCE CONSTANT  FORCE CONSTANT

      1       C        7.817116        8.854463        8.580952
      2       C        8.129075        9.018336        8.095232
      3       C        8.873680        8.518546        8.133272
      4       C        8.605609        8.092414        8.182714
      5       C        8.316645        8.600482        8.497327
      6       C        8.390643        8.307987        8.190625
      7       C        8.439725        8.312945        8.114647
      8       C        8.276810        8.345274        8.237874
      9       C       10.595974       13.785428        2.895768
     10       C       10.876325       13.489348        2.871490
     11       C        7.090184       10.436243        9.689510
     12       C        7.114801       10.338642        9.703493
     13       H        1.521462        0.731019        3.637020
     14       H        1.132533        0.851107        3.922161
     15       H        1.132098        0.762217        4.145147
     16       H        4.993637        0.737098        0.704575
     17       H        1.180411        0.761941        4.465115
     18       H        1.673682        3.279820        1.322968
     19       H        0.887664        0.729896        4.779854
     20       H        0.990093        0.963180        4.822411
     21       H        0.979092        3.960945        1.852159
     22       H        1.815597        0.720589        4.241193
     23       H        5.219156        0.715118        0.845780
     24       H        1.344648        4.484971        0.919282
     25       H        5.358745        0.717264        0.715643
     26       H        1.849156        3.521737        1.409834
     27       H        0.948333        0.685764        5.149602
     28       H        1.190447        4.000180        1.600568
     29       H        1.574684        4.088845        0.577069
     30       H        4.843146        0.786061        0.603044
     31       H        0.839957        0.731122        4.633818
     32       H        0.835757        0.732618        4.641829

 **********************
 *                    *
 * JOB ENDED NORMALLY *
 *                    *
 **********************



 TOTAL JOB TIME:             9.76 SECONDS

 == MOPAC DONE ==
