 *******************************************************************************
 **                                                                           **
 **                              MOPAC v23.1.2                                **
 **                                                                           **
 *******************************************************************************
 **          Digital Object Identifier (DOI): 10.5281/zenodo.6511958          **
 **    Visit the DOI location for information on how to cite this program.    **
 *******************************************************************************

                              PM3 CALCULATION RESULTS

 *******************************************************************************
 *  CALCULATION DONE: (MAX THREADS = 1)              Tue Jun  3 16:28:05 2025  *
 *  PM3        - The PM3 Hamiltonian to be used
 *  PRECISE    - TIGHTER CRITERIA TO BE USED
 *  NOSYM      - POINT-GROUP SYMMETRY SET TO C1
 *  THREADS=1  - MULTI-THREADING NOT USED
 *  T=         - A TIME OF 172800.0 SECONDS REQUESTED
 *  DUMP=N     - RESTART FILE WRITTEN EVERY 7200.0 SECONDS REQUESTED
 *******************************************************************************
pm3  precise nosym THREADS=1
 InChI=1S/C7H10/c1-2-7-5-3-4-6-7/h3-5H,2,6H2,1H3

   ATOM   CHEMICAL          X               Y               Z
  NUMBER   SYMBOL      (ANGSTROMS)     (ANGSTROMS)     (ANGSTROMS)

     1       C         -1.34370000  *  -0.72840000  *   0.00780000  *
     2       C          0.96760000  *  -0.23830000  *  -1.19680000  *
     3       C         -2.28300000  *   0.43390000  *   0.31460000  *
     4       C          0.08900000  *  -0.28260000  *   0.01150000  *
     5       C          2.24930000  *   0.24410000  *  -0.60160000  *
     6       C          0.75950000  *   0.09360000  *   1.09160000  *
     7       C          2.11660000  *   0.42790000  *   0.70210000  *
     8       H         -1.48480000  *  -1.53330000  *   0.76090000  *
     9       H         -1.60000000  *  -1.14230000  *  -0.99120000  *
    10       H          1.09320000  *  -1.25090000  *  -1.63520000  *
    11       H          0.58030000  *   0.48680000  *  -1.94340000  *
    12       H         -2.14930000  *   1.24400000  *  -0.43410000  *
    13       H         -2.08410000  *   0.83660000  *   1.33060000  *
    14       H         -3.33510000  *   0.08160000  *   0.27380000  *
    15       H          3.16470000  *   0.41900000  *  -1.15120000  *
    16       H          2.90030000  *   0.77090000  *   1.36420000  *
    17       H          0.35960000  *   0.13740000  *   2.09640000  *



          CARTESIAN COORDINATES 

    NO.       ATOM           X           Y           Z

     1         C         -1.3437     -0.7284      0.0078
     2         C          0.9676     -0.2383     -1.1968
     3         C         -2.2830      0.4339      0.3146
     4         C          0.0890     -0.2826      0.0115
     5         C          2.2493      0.2441     -0.6016
     6         C          0.7595      0.0936      1.0916
     7         C          2.1166      0.4279      0.7021
     8         H         -1.4848     -1.5333      0.7609
     9         H         -1.6000     -1.1423     -0.9912
    10         H          1.0932     -1.2509     -1.6352
    11         H          0.5803      0.4868     -1.9434
    12         H         -2.1493      1.2440     -0.4341
    13         H         -2.0841      0.8366      1.3306
    14         H         -3.3351      0.0816      0.2738
    15         H          3.1647      0.4190     -1.1512
    16         H          2.9003      0.7709      1.3642
    17         H          0.3596      0.1374      2.0964

  H: (PM3): J. J. P. STEWART, J. COMP. CHEM. 10, 209 (1989).
  C: (PM3): J. J. P. STEWART, J. COMP. CHEM. 10, 209 (1989).

           Empirical Formula: C7 H10  =    17 atoms



      MOLECULAR POINT GROUP   :   C1  


      RHF CALCULATION, NO. OF DOUBLY OCCUPIED LEVELS = 19


          Geometry optimization using EF

          DIAGONAL MATRIX USED AS START HESSIAN

 CYCLE:     1 TIME:   0.004 TIME LEFT:  2.00D  GRAD.:   113.630 HEAT:  21.01760
 CYCLE:     2 TIME:   0.012 TIME LEFT:  2.00D  GRAD.:    71.785 HEAT:  19.48501
 CYCLE:     3 TIME:   0.004 TIME LEFT:  2.00D  GRAD.:    41.408 HEAT:  18.33598
 CYCLE:     4 TIME:   0.012 TIME LEFT:  2.00D  GRAD.:    43.852 HEAT:  18.07913
 CYCLE:     5 TIME:   0.004 TIME LEFT:  2.00D  GRAD.:    28.202 HEAT:  17.83069
 CYCLE:     6 TIME:   0.008 TIME LEFT:  2.00D  GRAD.:    13.474 HEAT:  17.67324
 CYCLE:     7 TIME:   0.008 TIME LEFT:  2.00D  GRAD.:     9.227 HEAT:  17.54152
 CYCLE:     8 TIME:   0.004 TIME LEFT:  2.00D  GRAD.:    26.306 HEAT:  17.53234
 CYCLE:     9 TIME:   0.004 TIME LEFT:  2.00D  GRAD.:    13.519 HEAT:  17.40902
 CYCLE:    10 TIME:   0.008 TIME LEFT:  2.00D  GRAD.:     8.402 HEAT:  17.35476
 CYCLE:    11 TIME:   0.008 TIME LEFT:  2.00D  GRAD.:     5.533 HEAT:  17.33060
 CYCLE:    12 TIME:   0.008 TIME LEFT:  2.00D  GRAD.:     5.005 HEAT:  17.31826
 CYCLE:    13 TIME:   0.004 TIME LEFT:  2.00D  GRAD.:     4.541 HEAT:  17.30311
 CYCLE:    14 TIME:   0.004 TIME LEFT:  2.00D  GRAD.:     6.696 HEAT:  17.29031
 CYCLE:    15 TIME:   0.008 TIME LEFT:  2.00D  GRAD.:     5.185 HEAT:  17.26856
 CYCLE:    16 TIME:   0.004 TIME LEFT:  2.00D  GRAD.:     7.151 HEAT:  17.25556
 CYCLE:    17 TIME:   0.004 TIME LEFT:  2.00D  GRAD.:     5.845 HEAT:  17.24719
 CYCLE:    18 TIME:   0.008 TIME LEFT:  2.00D  GRAD.:     4.864 HEAT:  17.23733
 CYCLE:    19 TIME:   0.004 TIME LEFT:  2.00D  GRAD.:     2.276 HEAT:  17.22834
 CYCLE:    20 TIME:   0.008 TIME LEFT:  2.00D  GRAD.:     4.665 HEAT:  17.22414
 CYCLE:    21 TIME:   0.004 TIME LEFT:  2.00D  GRAD.:     3.670 HEAT:  17.21735
 CYCLE:    22 TIME:   0.004 TIME LEFT:  2.00D  GRAD.:     1.985 HEAT:  17.21450
 CYCLE:    23 TIME:   0.008 TIME LEFT:  2.00D  GRAD.:     2.609 HEAT:  17.21365
 CYCLE:    24 TIME:   0.004 TIME LEFT:  2.00D  GRAD.:     0.883 HEAT:  17.21171
 CYCLE:    25 TIME:   0.004 TIME LEFT:  2.00D  GRAD.:     0.943 HEAT:  17.21129
 CYCLE:    26 TIME:   0.008 TIME LEFT:  2.00D  GRAD.:     0.643 HEAT:  17.21075
 CYCLE:    27 TIME:   0.004 TIME LEFT:  2.00D  GRAD.:     0.559 HEAT:  17.21045
 CYCLE:    28 TIME:   0.004 TIME LEFT:  2.00D  GRAD.:     0.400 HEAT:  17.21018
 CYCLE:    29 TIME:   0.008 TIME LEFT:  2.00D  GRAD.:     0.637 HEAT:  17.20951
 CYCLE:    30 TIME:   0.004 TIME LEFT:  2.00D  GRAD.:     0.838 HEAT:  17.20878
 CYCLE:    31 TIME:   0.004 TIME LEFT:  2.00D  GRAD.:     0.643 HEAT:  17.20805
 CYCLE:    32 TIME:   0.004 TIME LEFT:  2.00D  GRAD.:     0.475 HEAT:  17.20745
 CYCLE:    33 TIME:   0.008 TIME LEFT:  2.00D  GRAD.:     0.563 HEAT:  17.20686
 CYCLE:    34 TIME:   0.004 TIME LEFT:  2.00D  GRAD.:     0.685 HEAT:  17.20617
 CYCLE:    35 TIME:   0.008 TIME LEFT:  2.00D  GRAD.:     0.534 HEAT:  17.20562
 CYCLE:    36 TIME:   0.004 TIME LEFT:  2.00D  GRAD.:     0.386 HEAT:  17.20517
 CYCLE:    37 TIME:   0.004 TIME LEFT:  2.00D  GRAD.:     0.414 HEAT:  17.20482
 CYCLE:    38 TIME:   0.008 TIME LEFT:  2.00D  GRAD.:     0.412 HEAT:  17.20453
 CYCLE:    39 TIME:   0.004 TIME LEFT:  2.00D  GRAD.:     0.376 HEAT:  17.20425
 CYCLE:    40 TIME:   0.004 TIME LEFT:  2.00D  GRAD.:     0.398 HEAT:  17.20392
 CYCLE:    41 TIME:   0.008 TIME LEFT:  2.00D  GRAD.:     0.538 HEAT:  17.20344
 CYCLE:    42 TIME:   0.004 TIME LEFT:  2.00D  GRAD.:     0.653 HEAT:  17.20283
 CYCLE:    43 TIME:   0.004 TIME LEFT:  2.00D  GRAD.:     0.592 HEAT:  17.20208
 CYCLE:    44 TIME:   0.008 TIME LEFT:  2.00D  GRAD.:     0.442 HEAT:  17.20163
 CYCLE:    45 TIME:   0.008 TIME LEFT:  2.00D  GRAD.:     0.451 HEAT:  17.20100
 CYCLE:    46 TIME:   0.004 TIME LEFT:  2.00D  GRAD.:     0.463 HEAT:  17.20072
 CYCLE:    47 TIME:   0.008 TIME LEFT:  2.00D  GRAD.:     0.516 HEAT:  17.20010
 CYCLE:    48 TIME:   0.004 TIME LEFT:  2.00D  GRAD.:     0.464 HEAT:  17.19974
 CYCLE:    49 TIME:   0.008 TIME LEFT:  2.00D  GRAD.:     1.058 HEAT:  17.19972
 CYCLE:    50 TIME:   0.004 TIME LEFT:  2.00D  GRAD.:     0.577 HEAT:  17.19797
 CYCLE:    51 TIME:   0.008 TIME LEFT:  2.00D  GRAD.:     0.603 HEAT:  17.19673
 CYCLE:    52 TIME:   0.004 TIME LEFT:  2.00D  GRAD.:     0.960 HEAT:  17.19435
 CYCLE:    53 TIME:   0.008 TIME LEFT:  2.00D  GRAD.:     1.848 HEAT:  17.18969
 CYCLE:    54 TIME:   0.004 TIME LEFT:  2.00D  GRAD.:     3.194 HEAT:  17.17942
 CYCLE:    55 TIME:   0.008 TIME LEFT:  2.00D  GRAD.:     4.714 HEAT:  17.16003
 CYCLE:    56 TIME:   0.004 TIME LEFT:  2.00D  GRAD.:     3.366 HEAT:  17.14961
 CYCLE:    57 TIME:   0.008 TIME LEFT:  2.00D  GRAD.:     5.931 HEAT:  17.14437
 CYCLE:    58 TIME:   0.004 TIME LEFT:  2.00D  GRAD.:     2.969 HEAT:  17.11893
 CYCLE:    59 TIME:   0.008 TIME LEFT:  2.00D  GRAD.:     2.391 HEAT:  17.09632
 CYCLE:    60 TIME:   0.004 TIME LEFT:  2.00D  GRAD.:     3.339 HEAT:  17.06222
 CYCLE:    61 TIME:   0.008 TIME LEFT:  2.00D  GRAD.:     3.551 HEAT:  17.01576
 CYCLE:    62 TIME:   0.004 TIME LEFT:  2.00D  GRAD.:     5.328 HEAT:  16.98647
 CYCLE:    63 TIME:   0.008 TIME LEFT:  2.00D  GRAD.:     2.220 HEAT:  16.96108
 CYCLE:    64 TIME:   0.012 TIME LEFT:  2.00D  GRAD.:     6.253 HEAT:  16.96767
 CYCLE:    65 TIME:   0.004 TIME LEFT:  2.00D  GRAD.:     3.057 HEAT:  16.94850
 CYCLE:    66 TIME:   0.008 TIME LEFT:  2.00D  GRAD.:     2.606 HEAT:  16.93639
 CYCLE:    67 TIME:   0.008 TIME LEFT:  2.00D  GRAD.:     2.158 HEAT:  16.92776
 CYCLE:    68 TIME:   0.004 TIME LEFT:  2.00D  GRAD.:     2.564 HEAT:  16.91674
 CYCLE:    69 TIME:   0.008 TIME LEFT:  2.00D  GRAD.:     2.145 HEAT:  16.90796
 CYCLE:    70 TIME:   0.004 TIME LEFT:  2.00D  GRAD.:     1.509 HEAT:  16.90375
 CYCLE:    71 TIME:   0.008 TIME LEFT:  2.00D  GRAD.:     1.209 HEAT:  16.89984
 CYCLE:    72 TIME:   0.008 TIME LEFT:  2.00D  GRAD.:     1.297 HEAT:  16.89525
 CYCLE:    73 TIME:   0.004 TIME LEFT:  2.00D  GRAD.:     1.322 HEAT:  16.89019
 CYCLE:    74 TIME:   0.008 TIME LEFT:  2.00D  GRAD.:     1.304 HEAT:  16.88716
 CYCLE:    75 TIME:   0.008 TIME LEFT:  2.00D  GRAD.:     1.630 HEAT:  16.88595
 CYCLE:    76 TIME:   0.008 TIME LEFT:  2.00D  GRAD.:     0.714 HEAT:  16.88354
 CYCLE:    77 TIME:   0.008 TIME LEFT:  2.00D  GRAD.:     0.530 HEAT:  16.88263
 CYCLE:    78 TIME:   0.008 TIME LEFT:  2.00D  GRAD.:     0.525 HEAT:  16.88202
 CYCLE:    79 TIME:   0.008 TIME LEFT:  2.00D  GRAD.:     0.347 HEAT:  16.88169
 CYCLE:    80 TIME:   0.008 TIME LEFT:  2.00D  GRAD.:     0.219 HEAT:  16.88152
 CYCLE:    81 TIME:   0.004 TIME LEFT:  2.00D  GRAD.:     0.161 HEAT:  16.88144
 CYCLE:    82 TIME:   0.008 TIME LEFT:  2.00D  GRAD.:     0.225 HEAT:  16.88143
 CYCLE:    83 TIME:   0.004 TIME LEFT:  2.00D  GRAD.:     0.180 HEAT:  16.88136
 CYCLE:    84 TIME:   0.008 TIME LEFT:  2.00D  GRAD.:     0.264 HEAT:  16.88129
 CYCLE:    85 TIME:   0.008 TIME LEFT:  2.00D  GRAD.:     0.219 HEAT:  16.88122
 CYCLE:    86 TIME:   0.008 TIME LEFT:  2.00D  GRAD.:     0.205 HEAT:  16.88109
 CYCLE:    87 TIME:   0.008 TIME LEFT:  2.00D  GRAD.:     0.309 HEAT:  16.88082
 CYCLE:    88 TIME:   0.008 TIME LEFT:  2.00D  GRAD.:     0.482 HEAT:  16.88054
 CYCLE:    89 TIME:   0.008 TIME LEFT:  2.00D  GRAD.:     0.358 HEAT:  16.88033
 CYCLE:    90 TIME:   0.008 TIME LEFT:  2.00D  GRAD.:     0.681 HEAT:  16.88039
 CYCLE:    91 TIME:   0.008 TIME LEFT:  2.00D  GRAD.:     0.244 HEAT:  16.87988
 CYCLE:    92 TIME:   0.008 TIME LEFT:  2.00D  GRAD.:     0.177 HEAT:  16.87985
 CYCLE:    93 TIME:   0.004 TIME LEFT:  2.00D  GRAD.:     0.149 HEAT:  16.87979
 CYCLE:    94 TIME:   0.008 TIME LEFT:  2.00D  GRAD.:     0.223 HEAT:  16.87970
 CYCLE:    95 TIME:   0.004 TIME LEFT:  2.00D  GRAD.:     0.112 HEAT:  16.87962
 CYCLE:    96 TIME:   0.008 TIME LEFT:  2.00D  GRAD.:     0.050 HEAT:  16.87963
 CYCLE:    97 TIME:   0.004 TIME LEFT:  2.00D  GRAD.:     0.024 HEAT:  16.87961

     GRADIENT =  0.02428 IS LESS THAN CUTOFF =  0.05000



 -------------------------------------------------------------------------------
 pm3  precise nosym THREADS=1
 InChI=1S/C7H10/c1-2-7-5-3-4-6-7/h3-5H,2,6H2,1H3



     GEOMETRY OPTIMISED USING EIGENVECTOR FOLLOWING (EF).     
     SCF FIELD WAS ACHIEVED                                   


                              PM3 CALCULATION
                                                       MOPAC v23.1.2 MacOS
                                                       Tue Jun  3 16:28:06 2025




          FINAL HEAT OF FORMATION =         16.87961 KCAL/MOL =      70.62429 KJ/MOL


          COSMO AREA              =        146.76 SQUARE ANGSTROMS
          COSMO VOLUME            =        139.41 CUBIC ANGSTROMS

          GRADIENT NORM           =          0.02428          =       0.00589 PER ATOM
          IONIZATION POTENTIAL    =          9.032522 EV
          HOMO LUMO ENERGIES (EV) =         -9.033  0.302
          NO. OF FILLED LEVELS    =         19
          MOLECULAR WEIGHT        =         94.1560         POINT GROUP:  C1  

          MOLECULAR DIMENSIONS (Angstroms)

            Atom       Atom       Distance
            H    16    H    14     6.56793
            H    17    H    15     4.08392
            H    13    H     9     2.98839


          SCF CALCULATIONS        =        108

          WALL-CLOCK TIME         =      0.617 SECONDS
          COMPUTATION TIME        =      0.351 SECONDS




   ATOM   CHEMICAL          X               Y               Z
  NUMBER   SYMBOL      (ANGSTROMS)     (ANGSTROMS)     (ANGSTROMS)

     1       C         -1.33552047  *  -0.73626702  *   0.22251097  *
     2       C          0.80017184  *  -0.01465682  *  -1.11815224  *
     3       C         -2.27646951  *   0.41902995  *  -0.05206063  *
     4       C          0.08003557  *  -0.31028476  *   0.17203237  *
     5       C          2.17610937  *   0.36450834  *  -0.65083025  *
     6       C          0.92872246  *  -0.12540920  *   1.21342625  *
     7       C          2.23193058  *   0.29479625  *   0.69869775  *
     8       H         -1.55767714  *  -1.17956248  *   1.21329042  *
     9       H         -1.49612672  *  -1.54573516  *  -0.51716138  *
    10       H          0.82224210  *  -0.89539389  *  -1.78526567  *
    11       H          0.31453089  *   0.80667547  *  -1.67712589  *
    12       H         -2.08793966  *   0.86959460  *  -1.03585503  *
    13       H         -2.16850959  *   1.21460680  *   0.69637758  *
    14       H         -3.32292652  *   0.08918772  *  -0.03487353  *
    15       H          2.97092977  *   0.64421103  *  -1.33824797  *
    16       H          3.08626832  *   0.50778260  *   1.33799027  *
    17       H          0.71250976  *  -0.25967777  *   2.27168223  *

                             CARTESIAN COORDINATES

   1    C       -1.335520470    -0.736267022     0.222510974
   2    C        0.800171838    -0.014656821    -1.118152245
   3    C       -2.276469514     0.419029948    -0.052060628
   4    C        0.080035575    -0.310284762     0.172032375
   5    C        2.176109371     0.364508342    -0.650830250
   6    C        0.928722456    -0.125409200     1.213426250
   7    C        2.231930583     0.294796246     0.698697751
   8    H       -1.557677135    -1.179562484     1.213290418
   9    H       -1.496126719    -1.545735155    -0.517161378
  10    H        0.822242103    -0.895393886    -1.785265668
  11    H        0.314530892     0.806675468    -1.677125892
  12    H       -2.087939665     0.869594603    -1.035855030
  13    H       -2.168509586     1.214606804     0.696377584
  14    H       -3.322926517     0.089187723    -0.034873528
  15    H        2.970929767     0.644211029    -1.338247966
  16    H        3.086268319     0.507782597     1.337990266
  17    H        0.712509757    -0.259677772     2.271682233


           Empirical Formula: C7 H10  =    17 atoms



      MOLECULAR POINT GROUP   :   C1  


                  EIGENVALUES  
 -40.29538 -33.91354 -27.41545 -26.51828 -22.47513 -19.11865 -18.45176 -17.25319
 -15.32508 -15.12421 -14.35491 -13.87898 -13.56338 -13.29669 -12.80152 -12.34981
 -11.72009 -10.83431  -9.03252   0.30234   2.01067   3.23426   3.40641   3.70480
   3.77032   3.91273   4.01240   4.13613   4.25773   4.29035   4.46062   4.55742
   4.72603   4.82127   5.03859   5.82567   5.87540   6.22545


              NET ATOMIC CHARGES AND DIPOLE CONTRIBUTIONS

  ATOM NO.   TYPE          CHARGE      No. of ELECS.   s-Pop       p-Pop       
    1          C          -0.033465        4.0335     1.13691     2.89656
    2          C          -0.042088        4.0421     1.14440     2.89769
    3          C          -0.106270        4.1063     1.13791     2.96836
    4          C          -0.142726        4.1427     1.21178     2.93094
    5          C          -0.166120        4.1661     1.20709     2.95903
    6          C          -0.121883        4.1219     1.19057     2.93132
    7          C          -0.116373        4.1164     1.19121     2.92516
    8          H           0.052282        0.9477     0.94772
    9          H           0.051256        0.9487     0.94874
   10          H           0.081375        0.9186     0.91862
   11          H           0.082969        0.9170     0.91703
   12          H           0.037915        0.9621     0.96209
   13          H           0.042014        0.9580     0.95799
   14          H           0.037188        0.9628     0.96281
   15          H           0.115056        0.8849     0.88494
   16          H           0.113008        0.8870     0.88699
   17          H           0.115863        0.8841     0.88414
 DIPOLE           X         Y         Z       TOTAL
 POINT-CHG.    -0.378    -0.061    -0.475     0.610
 HYBRID         0.024     0.028    -0.031     0.049
 SUM           -0.354    -0.033    -0.506     0.618


          ATOMIC ORBITAL ELECTRON POPULATIONS

     Atom    s        px        py        pz   
    1  C   1.13691   0.91343   0.96886   1.01426
    2  C   1.14440   0.93698   1.00273   0.95797
    3  C   1.13791   0.98009   0.97805   1.01022
    4  C   1.21178   0.96001   1.00982   0.96111
    5  C   1.20709   0.97249   1.01914   0.96741
    6  C   1.19057   0.94330   1.01604   0.97197
    7  C   1.19121   0.96602   1.00597   0.95317
    8  H   0.94772
    9  H   0.94874
   10  H   0.91862
   11  H   0.91703
   12  H   0.96209
   13  H   0.95799
   14  H   0.96281
   15  H   0.88494
   16  H   0.88699
   17  H   0.88414
 *******************************************************************************
 **                                                                           **
 **                              MOPAC v23.1.2                                **
 **                                                                           **
 *******************************************************************************
 **          Digital Object Identifier (DOI): 10.5281/zenodo.6511958          **
 **    Visit the DOI location for information on how to cite this program.    **
 *******************************************************************************

                              PM3 CALCULATION RESULTS

 *******************************************************************************
 *  CALCULATION DONE: (MAX THREADS = 1)              Tue Jun  3 16:28:06 2025  *
 *  PM3        - The PM3 Hamiltonian to be used
 *  OLDGEO     - PREVIOUS GEOMETRY TO BE USED
 *  PRECISE    - TIGHTER CRITERIA TO BE USED
 *  NOSYM      - POINT-GROUP SYMMETRY SET TO C1
 *  THREADS=1  - MULTI-THREADING NOT USED
 *  T=         - A TIME OF 172800.0 SECONDS REQUESTED
 *  DUMP=N     - RESTART FILE WRITTEN EVERY 7200.0 SECONDS REQUESTED
 *  THERMO     - THERMODYNAMIC QUANTITIES TO BE CALCULATED
 *******************************************************************************
oldgeo thermo nosym precise THREADS=1  pm3
 InChI=1S/C7H10/c1-2-7-5-3-4-6-7/h3-5H,2,6H2,1H3

   ATOM   CHEMICAL          X               Y               Z
  NUMBER   SYMBOL      (ANGSTROMS)     (ANGSTROMS)     (ANGSTROMS)

     1       C         -1.33552047  *  -0.73626702  *   0.22251097  *
     2       C          0.80017184  *  -0.01465682  *  -1.11815224  *
     3       C         -2.27646951  *   0.41902995  *  -0.05206063  *
     4       C          0.08003557  *  -0.31028476  *   0.17203237  *
     5       C          2.17610937  *   0.36450834  *  -0.65083025  *
     6       C          0.92872246  *  -0.12540920  *   1.21342625  *
     7       C          2.23193058  *   0.29479625  *   0.69869775  *
     8       H         -1.55767714  *  -1.17956248  *   1.21329042  *
     9       H         -1.49612672  *  -1.54573516  *  -0.51716138  *
    10       H          0.82224210  *  -0.89539389  *  -1.78526567  *
    11       H          0.31453089  *   0.80667547  *  -1.67712589  *
    12       H         -2.08793966  *   0.86959460  *  -1.03585503  *
    13       H         -2.16850959  *   1.21460680  *   0.69637758  *
    14       H         -3.32292652  *   0.08918772  *  -0.03487353  *
    15       H          2.97092977  *   0.64421103  *  -1.33824797  *
    16       H          3.08626832  *   0.50778260  *   1.33799027  *
    17       H          0.71250976  *  -0.25967777  *   2.27168223  *



          CARTESIAN COORDINATES 

    NO.       ATOM           X           Y           Z

     1         C         -1.3355     -0.7363      0.2225
     2         C          0.8002     -0.0147     -1.1182
     3         C         -2.2765      0.4190     -0.0521
     4         C          0.0800     -0.3103      0.1720
     5         C          2.1761      0.3645     -0.6508
     6         C          0.9287     -0.1254      1.2134
     7         C          2.2319      0.2948      0.6987
     8         H         -1.5577     -1.1796      1.2133
     9         H         -1.4961     -1.5457     -0.5172
    10         H          0.8222     -0.8954     -1.7853
    11         H          0.3145      0.8067     -1.6771
    12         H         -2.0879      0.8696     -1.0359
    13         H         -2.1685      1.2146      0.6964
    14         H         -3.3229      0.0892     -0.0349
    15         H          2.9709      0.6442     -1.3382
    16         H          3.0863      0.5078      1.3380
    17         H          0.7125     -0.2597      2.2717

  H: (PM3): J. J. P. STEWART, J. COMP. CHEM. 10, 209 (1989).
  C: (PM3): J. J. P. STEWART, J. COMP. CHEM. 10, 209 (1989).

           Empirical Formula: C7 H10  =    17 atoms



      MOLECULAR POINT GROUP   :   C1  


      RHF CALCULATION, NO. OF DOUBLY OCCUPIED LEVELS = 19



          HEAT OF FORMATION =      16.879610 KCALS/MOLE


          CARTESIAN COORDINATE DERIVATIVES

   NUMBER  ATOM         X            Y            Z

     1       C     -0.003624    -0.001229    -0.000165
     2       C      0.000975     0.004640     0.000974
     3       C      0.000113    -0.003819    -0.003010
     4       C      0.001691     0.000735     0.006027
     5       C      0.003884    -0.002361    -0.000358
     6       C      0.001278     0.004067    -0.003570
     7       C     -0.000818     0.000103    -0.003009
     8       H      0.002217     0.005729     0.000058
     9       H     -0.001982    -0.000439    -0.001487
    10       H      0.002919    -0.002134     0.003861
    11       H     -0.012271     0.003331    -0.003830
    12       H      0.002712     0.004700     0.003031
    13       H     -0.000983    -0.005940     0.002013
    14       H     -0.002379     0.000727    -0.003522
    15       H      0.005823    -0.007995     0.000752
    16       H      0.000266     0.000850     0.003155
    17       H      0.000180    -0.000964    -0.000920



          GRADIENT NORM =   0.02490

          MOLECULAR WEIGHT =   94.16



          ROTATIONAL CONSTANTS IN CM(-1)

          A =    0.20563999   B =    0.06137974   C =    0.05276967



           PRINCIPAL MOMENTS OF INERTIA IN UNITS OF 10**(-40)*GRAM-CM**2

          A =      136.1250   B =      456.0585   C =      530.4705


          ORIENTATION OF MOLECULE IN FORCE CALCULATION

    NO.       ATOM         X         Y         Z

     1          C      -1.6206    0.1067   -0.7759
     2          C       1.0022    0.1067   -0.7759
     3          C      -1.9286    1.5902   -0.7759
     4          C      -0.3250   -0.1811   -0.1230
     5          C       1.9880   -0.3525    0.2597
     6          C      -0.1154   -0.7246    1.1016
     7          C       1.3245   -0.8298    1.3373
     8          H      -2.4299   -0.4490   -0.2624
     9          H      -1.5960   -0.2798   -1.8142
    10          H       1.1189   -0.4455   -1.7260
    11          H       1.1185    1.1820   -1.0064
    12          H      -1.1483    2.1656   -1.2920
    13          H      -2.0044    1.9870    0.2447
    14          H      -2.8802    1.7963   -1.2819
    15          H       3.0636   -0.2883    0.1126
    16          H       1.7520   -1.2354    2.2520
    17          H      -0.8693   -1.0444    1.8185


    FIRST DERIVATIVES WILL BE USED IN THE CALCULATION OF SECOND DERIVATIVES

          ESTIMATED TIME TO COMPLETE CALCULATION =        1.59 SECONDS

    FOR POINT-GROUP C1   THERE ARE   1 UNIQUE SYMMETRY FUNCTIONS.

 STEP:   1 TIME =     0.02 SECS, INTEGRAL =      0.02 TIME LEFT: 172799.97
 STEP:   2 TIME =     0.02 SECS, INTEGRAL =      0.04 TIME LEFT: 172799.96
 STEP:   3 TIME =     0.01 SECS, INTEGRAL =      0.05 TIME LEFT: 172799.95
 STEP:   4 TIME =     0.01 SECS, INTEGRAL =      0.06 TIME LEFT: 172799.93
 STEP:   5 TIME =     0.01 SECS, INTEGRAL =      0.07 TIME LEFT: 172799.92
 STEP:   6 TIME =     0.01 SECS, INTEGRAL =      0.08 TIME LEFT: 172799.91
 STEP:   7 TIME =     0.01 SECS, INTEGRAL =      0.09 TIME LEFT: 172799.90
 STEP:   8 TIME =     0.01 SECS, INTEGRAL =      0.11 TIME LEFT: 172799.89
 STEP:   9 TIME =     0.01 SECS, INTEGRAL =      0.12 TIME LEFT: 172799.88
 STEP:  10 TIME =     0.01 SECS, INTEGRAL =      0.13 TIME LEFT: 172799.86
 STEP:  11 TIME =     0.01 SECS, INTEGRAL =      0.14 TIME LEFT: 172799.85
 STEP:  12 TIME =     0.02 SECS, INTEGRAL =      0.16 TIME LEFT: 172799.84
 STEP:  13 TIME =     0.01 SECS, INTEGRAL =      0.17 TIME LEFT: 172799.82
 STEP:  14 TIME =     0.01 SECS, INTEGRAL =      0.18 TIME LEFT: 172799.81
 STEP:  15 TIME =     0.01 SECS, INTEGRAL =      0.19 TIME LEFT: 172799.80
 STEP:  16 TIME =     0.02 SECS, INTEGRAL =      0.21 TIME LEFT: 172799.79
 STEP:  17 TIME =     0.02 SECS, INTEGRAL =      0.22 TIME LEFT: 172799.77
 STEP:  18 TIME =     0.01 SECS, INTEGRAL =      0.23 TIME LEFT: 172799.76
 STEP:  19 TIME =     0.02 SECS, INTEGRAL =      0.25 TIME LEFT: 172799.74
 STEP:  20 TIME =     0.01 SECS, INTEGRAL =      0.26 TIME LEFT: 172799.73
 STEP:  21 TIME =     0.01 SECS, INTEGRAL =      0.27 TIME LEFT: 172799.72
 STEP:  22 TIME =     0.01 SECS, INTEGRAL =      0.29 TIME LEFT: 172799.71
 STEP:  23 TIME =     0.01 SECS, INTEGRAL =      0.30 TIME LEFT: 172799.70
 STEP:  24 TIME =     0.01 SECS, INTEGRAL =      0.31 TIME LEFT: 172799.68
 STEP:  25 TIME =     0.01 SECS, INTEGRAL =      0.32 TIME LEFT: 172799.67
 STEP:  26 TIME =     0.02 SECS, INTEGRAL =      0.34 TIME LEFT: 172799.66
 STEP:  27 TIME =     0.01 SECS, INTEGRAL =      0.35 TIME LEFT: 172799.64
 STEP:  28 TIME =     0.01 SECS, INTEGRAL =      0.36 TIME LEFT: 172799.63
 STEP:  29 TIME =     0.01 SECS, INTEGRAL =      0.37 TIME LEFT: 172799.62
 STEP:  30 TIME =     0.02 SECS, INTEGRAL =      0.39 TIME LEFT: 172799.61
 STEP:  31 TIME =     0.02 SECS, INTEGRAL =      0.40 TIME LEFT: 172799.59
 STEP:  32 TIME =     0.01 SECS, INTEGRAL =      0.41 TIME LEFT: 172799.58
 STEP:  33 TIME =     0.02 SECS, INTEGRAL =      0.43 TIME LEFT: 172799.56
 STEP:  34 TIME =     0.01 SECS, INTEGRAL =      0.44 TIME LEFT: 172799.55
 STEP:  35 TIME =     0.02 SECS, INTEGRAL =      0.46 TIME LEFT: 172799.54
 STEP:  36 TIME =     0.01 SECS, INTEGRAL =      0.47 TIME LEFT: 172799.52
 STEP:  37 TIME =     0.01 SECS, INTEGRAL =      0.48 TIME LEFT: 172799.51
 STEP:  38 TIME =     0.01 SECS, INTEGRAL =      0.49 TIME LEFT: 172799.50
 STEP:  39 TIME =     0.01 SECS, INTEGRAL =      0.50 TIME LEFT: 172799.49
 STEP:  40 TIME =     0.01 SECS, INTEGRAL =      0.52 TIME LEFT: 172799.48
 STEP:  41 TIME =     0.01 SECS, INTEGRAL =      0.53 TIME LEFT: 172799.46
 STEP:  42 TIME =     0.01 SECS, INTEGRAL =      0.54 TIME LEFT: 172799.45
 STEP:  43 TIME =     0.01 SECS, INTEGRAL =      0.55 TIME LEFT: 172799.44
 STEP:  44 TIME =     0.01 SECS, INTEGRAL =      0.56 TIME LEFT: 172799.43
 STEP:  45 TIME =     0.01 SECS, INTEGRAL =      0.57 TIME LEFT: 172799.42
 STEP:  46 TIME =     0.01 SECS, INTEGRAL =      0.59 TIME LEFT: 172799.41
 STEP:  47 TIME =     0.02 SECS, INTEGRAL =      0.60 TIME LEFT: 172799.39
 STEP:  48 TIME =     0.01 SECS, INTEGRAL =      0.61 TIME LEFT: 172799.38
 STEP:  49 TIME =     0.01 SECS, INTEGRAL =      0.62 TIME LEFT: 172799.37
 STEP:  50 TIME =     0.01 SECS, INTEGRAL =      0.64 TIME LEFT: 172799.36
 STEP:  51 TIME =     0.01 SECS, INTEGRAL =      0.65 TIME LEFT: 172799.34

(To convert to Hartree/Bohr^2, multiply by (10^(-21) x N x a0^2)/(4.184 x 627.51) =  0.0642)


           FORCE MATRIX IN MILLIDYNES/ANGSTROM


                  C  1       C  2       C  3       C  4       C  5       C  6
 ------------------------------------------------------------------------------
     C    1  14.808059
     C    2   0.470607  14.813927
     C    3   4.345880   0.028868  14.313107
     C    4   5.220177   4.202903   0.717797  18.377250
     C    5   0.048474   4.417747   0.007506   1.106318  17.882711
     C    6   0.665793   1.209081   0.027894   9.378907   1.614840  18.207241
     C    7   0.111847   1.254993   0.018016   1.611359   9.657375   5.176152
     H    8   4.463190   0.040233   0.439281   0.449539   0.007717   0.028967
     H    9   4.441694   0.016813   0.446210   0.432647   0.005316   0.033765
     H   10   0.012043   4.518048   0.002518   0.425903   0.415175   0.045257
     H   11   0.009886   4.493147   0.011952   0.426051   0.417379   0.045368
     H   12   0.463008   0.009900   4.716296   0.022117   0.001012   0.001665
     H   13   0.460847   0.001972   4.751129   0.017017   0.000722   0.002832
     H   14   0.450403   0.001653   4.752745   0.052069   0.001630   0.003948
     H   15   0.012042   0.402567   0.001738   0.044523   5.085474   0.102652
     H   16   0.006857   0.115608   0.000806   0.050234   0.447101   0.419913
     H   17   0.049196   0.107889   0.008091   0.456347   0.048985   5.060338


                  C  7       H  8       H  9       H 10       H 11       H 12
 ------------------------------------------------------------------------------
     C    7  18.258987
     H    8   0.002353   5.051038
     H    9   0.012975   0.559273   5.030849
     H   10   0.044979   0.001184   0.006627   5.122437
     H   11   0.045716   0.001514   0.001504   0.544263   5.100486
     H   12   0.000780   0.048725   0.023085   0.000417   0.016860   5.459002
     H   13   0.000935   0.024986   0.049025   0.000366   0.000664   0.578240
     H   14   0.002928   0.028916   0.029144   0.000571   0.000962   0.570499
     H   15   0.444514   0.001677   0.000739   0.011115   0.011083   0.000265
     H   16   5.070652   0.000619   0.001111   0.015602   0.015693   0.000200
     H   17   0.418713   0.011004   0.004408   0.014769   0.015061   0.000541


                  H 13       H 14       H 15       H 16       H 17
 ------------------------------------------------------------------
     H   13   5.486671
     H   14   0.570834   5.487128
     H   15   0.000176   0.000312   5.485734
     H   16   0.000228   0.000274   0.042193   5.462167
     H   17   0.000718   0.001636   0.005427   0.009171   5.457001


          HEAT OF FORMATION =      16.879610 KCALS/MOLE

          ZERO POINT ENERGY      93.304 KCAL/MOL


           NORMAL COORDINATE ANALYSIS (Total motion = 1 Angstrom)


   Root No.       1         2         3         4         5         6         7         8

                 1 A       2 A       3 A       4 A       5 A       6 A       7 A       8 A   

                  53.9     153.0     180.2     300.1     343.9     440.5     536.8     647.7
  
           1    0.0155   -0.0089    0.0084    0.0087    0.0243    0.0016    0.0111    0.0693
           2    0.0017   -0.0050    0.0016   -0.0229    0.0250    0.0198   -0.0166    0.0133
           3   -0.0338   -0.0043   -0.0081   -0.0324   -0.0259    0.0005    0.0072    0.0358
           4    0.0141   -0.0099    0.0168   -0.0291   -0.0265   -0.0003   -0.0017   -0.0061
           5   -0.0336   -0.0186    0.0079    0.0301   -0.0231   -0.0017    0.0140    0.0052
           6   -0.0178   -0.0134    0.0064    0.0129    0.0051    0.0081   -0.0099   -0.0368
           7   -0.0211    0.0465   -0.0285    0.0401   -0.0163   -0.0188    0.0194    0.0081
           8   -0.0058    0.0078   -0.0070   -0.0167    0.0184    0.0198   -0.0232   -0.0059
           9    0.0522    0.0256   -0.0011    0.0075   -0.0170   -0.0082    0.0079    0.0039
          10    0.0070   -0.0087    0.0101   -0.0164   -0.0129   -0.0019    0.0078    0.0363
          11   -0.0014   -0.0364    0.0191   -0.0101    0.0005   -0.0258    0.0724   -0.0244
          12   -0.0184   -0.0196   -0.0030    0.0173    0.0394   -0.0040    0.0282    0.0024
          13    0.0025   -0.0093    0.0059   -0.0142   -0.0023    0.0063   -0.0137   -0.0405
          14   -0.0141    0.0410   -0.0230   -0.0155    0.0201   -0.0385   -0.0132    0.0092
          15    0.0019    0.0121    0.0043   -0.0257   -0.0037   -0.0144   -0.0128   -0.0156
          16   -0.0070   -0.0085   -0.0025   -0.0031    0.0120    0.0081   -0.0137   -0.0270
          17    0.0320   -0.0251    0.0181    0.0213   -0.0271   -0.0413   -0.0219   -0.0100
          18   -0.0012   -0.0147   -0.0011    0.0281    0.0240   -0.0109   -0.0133    0.0168
          19   -0.0097   -0.0083   -0.0057    0.0030    0.0217    0.0104   -0.0170   -0.0332
          20    0.0241    0.0289   -0.0122    0.0077   -0.0115    0.0516    0.0204    0.0004
          21    0.0114    0.0074    0.0020   -0.0046   -0.0031    0.0274    0.0019   -0.0077
          22    0.0177   -0.0180    0.0212   -0.0162   -0.0057   -0.0048    0.0224    0.0838
          23   -0.0510    0.0147   -0.0186   -0.0374   -0.0074    0.0233   -0.0363    0.0086
          24   -0.0877    0.0024   -0.0091   -0.0899   -0.1104   -0.0056    0.0033    0.0551
          25    0.0502   -0.0380    0.0150    0.0609    0.1123   -0.0011    0.0427    0.0710
          26    0.0674    0.0083    0.0063    0.0097    0.0643    0.0292   -0.0336   -0.0008
          27   -0.0574   -0.0094   -0.0096   -0.0435   -0.0398   -0.0034    0.0144    0.0407
          28    0.0150    0.0160    0.0134   -0.0385   -0.0532   -0.0097   -0.0876    0.0072
          29   -0.0616   -0.0491    0.0234    0.1063   -0.0861    0.0875   -0.0755    0.0569
          30   -0.0015    0.0073   -0.0028   -0.0313    0.0368   -0.0428    0.0286   -0.0647
          31    0.0249   -0.0368    0.0305   -0.0433   -0.0351    0.0047    0.0819   -0.0509
          32   -0.0411   -0.0237    0.0106    0.0505   -0.0390    0.0210   -0.0175    0.0216
          33   -0.0473   -0.0502    0.0262    0.0943   -0.0687    0.1081   -0.1042    0.0061
          34   -0.0173    0.0112   -0.1457    0.0459   -0.0498   -0.0331    0.0315   -0.0421
          35    0.0458   -0.0235   -0.0084   -0.0224    0.0439    0.0317   -0.0358    0.0422
          36    0.1155   -0.0628   -0.1791    0.0090   -0.0387   -0.0157    0.0109   -0.0163
          37   -0.0645    0.1766    0.1665    0.0716   -0.0042   -0.0293    0.0315   -0.0419
          38   -0.0736    0.0129    0.0293   -0.0437    0.0178    0.0310   -0.0302    0.0311
          39    0.0754    0.0334   -0.0007    0.0206   -0.0162   -0.0137    0.0118   -0.0149
          40   -0.0093   -0.0016   -0.1354    0.0368   -0.0367   -0.0243    0.0230   -0.0078
          41    0.0041    0.0440   -0.0504    0.0230   -0.0148   -0.0071   -0.0048   -0.1193
          42    0.0340    0.1314    0.1821    0.0313    0.0069   -0.0106    0.0113   -0.0155
          43    0.0041   -0.0094    0.0075   -0.0168   -0.0061    0.0054   -0.0125   -0.0381
          44   -0.0303    0.0828   -0.0482   -0.0529    0.0621   -0.0875   -0.0454    0.0294
          45    0.0070    0.0298    0.0051   -0.0608   -0.0133   -0.0427   -0.0167    0.0143
          46   -0.0199   -0.0071   -0.0162    0.0202    0.0451    0.0136   -0.0162   -0.0087
          47    0.0458    0.0592   -0.0266    0.0028   -0.0150    0.1662    0.0612    0.0225
          48    0.0258    0.0202    0.0005   -0.0148   -0.0155    0.0767    0.0194   -0.0099
          49   -0.0152   -0.0081   -0.0108    0.0095    0.0331    0.0145   -0.0245   -0.0548
          50    0.0606   -0.0368    0.0290    0.0370   -0.0520   -0.1033   -0.1618    0.0549
          51    0.0029   -0.0195   -0.0048    0.0479    0.0346   -0.0318   -0.0871    0.0165


   Root No.       9        10        11        12        13        14        15        16

                 9 A      10 A      11 A      12 A      13 A      14 A      15 A      16 A   

                 747.1     816.2     830.7     871.2     933.9     939.4     967.1    1002.5
  
           1   -0.0081    0.0124   -0.0178   -0.0000    0.0071   -0.0147   -0.0003    0.0175
           2   -0.0029    0.0024   -0.0040    0.0008    0.0000   -0.0071    0.0009    0.0009
           3    0.0001   -0.0315    0.0254   -0.0006    0.0010   -0.0074    0.0049   -0.0220
           4    0.0017   -0.0263   -0.0053   -0.0004   -0.0115    0.0383   -0.0051   -0.0023
           5   -0.0221    0.0084    0.0107    0.0461    0.0259    0.0294   -0.0228   -0.0101
           6   -0.0071   -0.0145   -0.0282    0.0209    0.0257   -0.0302   -0.0054    0.0132
           7    0.0002    0.0021   -0.0051    0.0004    0.0099   -0.0171    0.0006   -0.0238
           8   -0.0038    0.0027    0.0001   -0.0019    0.0002    0.0131   -0.0020    0.0032
           9    0.0002   -0.0079    0.0073   -0.0005    0.0106   -0.0108   -0.0027    0.0051
          10   -0.0037    0.0096    0.0069   -0.0003   -0.0021    0.0079   -0.0015    0.0154
          11    0.0266    0.0106    0.0027   -0.0069   -0.0272   -0.0236    0.0181    0.0020
          12    0.0101   -0.0123   -0.0132   -0.0033   -0.0190    0.0135    0.0043    0.0008
          13    0.0047   -0.0454   -0.0350   -0.0001    0.0058   -0.0203    0.0024   -0.0050
          14   -0.0206   -0.0090   -0.0027   -0.0051   -0.0246   -0.0074    0.0282    0.0106
          15   -0.0080    0.0111    0.0121   -0.0021   -0.0093   -0.0106    0.0137   -0.0027
          16    0.0002    0.0361    0.0293    0.0004    0.0015   -0.0085    0.0023   -0.0117
          17   -0.0004    0.0069    0.0035   -0.0360    0.0416    0.0018    0.0202   -0.0047
          18   -0.0038   -0.0078   -0.0141   -0.0165    0.0072    0.0458    0.0006    0.0128
          19    0.0005    0.0247    0.0138    0.0004    0.0020   -0.0071    0.0008    0.0002
          20   -0.0233   -0.0242   -0.0148   -0.0209   -0.0147   -0.0092   -0.0399   -0.0047
          21   -0.0126    0.0487    0.0374   -0.0089   -0.0071   -0.0042   -0.0172   -0.0040
          22   -0.0091    0.0364   -0.0252   -0.0012    0.0174   -0.0434   -0.0036    0.1510
          23   -0.0170    0.0801   -0.1076    0.0023   -0.0096    0.0218   -0.0018   -0.0909
          24   -0.0176    0.0966   -0.1070   -0.0007    0.0069   -0.0214   -0.0035    0.0871
          25    0.0189   -0.1008    0.0869    0.0000   -0.0426   -0.0130    0.0406   -0.1314
          26   -0.0017   -0.0954    0.1202   -0.0021    0.0538   -0.0210   -0.0237    0.0551
          27    0.0000    0.0053   -0.0223    0.0002   -0.0211   -0.0012    0.0155   -0.0454
          28   -0.0397   -0.0354    0.0243   -0.0137   -0.0220    0.1134    0.1443   -0.0311
          29    0.0753    0.0071    0.0198   -0.0989   -0.0694   -0.0006    0.0244   -0.0034
          30   -0.0652   -0.0159   -0.0307    0.0988    0.0771   -0.0064   -0.0121    0.0061
          31    0.0471   -0.0110    0.0125    0.0132   -0.0335    0.0723   -0.1628    0.0042
          32    0.0000    0.0060    0.0099    0.0063    0.0038    0.0136    0.0053   -0.0064
          33    0.1060   -0.0217   -0.0271   -0.1384   -0.0735   -0.0867    0.0374    0.0313
          34    0.0152   -0.0326    0.0458   -0.0004   -0.0182    0.0114    0.0031    0.0624
          35   -0.0222    0.0888   -0.1082    0.0006    0.0060    0.0010    0.0038   -0.1214
          36    0.0015    0.0405   -0.0434    0.0014   -0.0252    0.0183    0.0076   -0.0116
          37    0.0134    0.0017    0.0050    0.0010   -0.0342    0.0228    0.0098    0.0240
          38   -0.0056   -0.1038    0.1155   -0.0069    0.0727   -0.0396   -0.0250    0.0641
          39    0.0020    0.0362   -0.0400    0.0015   -0.0229    0.0141    0.0075   -0.0166
          40    0.0052   -0.0188    0.0234   -0.0004    0.0056   -0.0104    0.0008    0.0154
          41    0.0210    0.0125    0.0135   -0.0007   -0.0935    0.1101    0.0170    0.1133
          42    0.0023    0.0361   -0.0408    0.0015   -0.0239    0.0181    0.0060   -0.0198
          43    0.0052   -0.0536   -0.0375   -0.0003    0.0019   -0.0071    0.0002   -0.0112
          44    0.2752    0.0398   -0.0133   -0.0715    0.0932   -0.0019   -0.1255   -0.0032
          45    0.1244   -0.0210   -0.0063   -0.0328    0.0148    0.0857   -0.0689   -0.0554
          46   -0.0033    0.0426    0.0187    0.0010   -0.0193    0.0805   -0.0155    0.0554
          47    0.1712   -0.0076   -0.0232    0.2001    0.0649    0.0577    0.1719    0.0284
          48    0.0751    0.0487    0.0322    0.0887    0.0379   -0.0150    0.0841   -0.0157
          49    0.0016    0.0137    0.0034   -0.0013   -0.0056    0.0307   -0.0064   -0.0241
          50    0.0571   -0.0004    0.0274    0.2554   -0.1357   -0.1048   -0.0783   -0.0016
          51    0.0233   -0.0352   -0.0315    0.1116   -0.0800    0.0420   -0.0530    0.0021


   Root No.      17        18        19        20        21        22        23        24

                17 A      18 A      19 A      20 A      21 A      22 A      23 A      24 A   

                1020.8    1032.1    1047.7    1080.1    1114.8    1121.2    1122.9    1204.2
  
           1   -0.0087   -0.0027    0.0028   -0.0111   -0.0019    0.0013   -0.0196    0.0077
           2    0.0012    0.0040   -0.0017   -0.0034    0.0664    0.0034   -0.0288    0.0010
           3   -0.0136    0.0031    0.0183   -0.0040    0.0294   -0.0226    0.0118   -0.0058
           4    0.0104    0.0073   -0.0001    0.0033    0.0014    0.0121    0.0106   -0.0318
           5   -0.0102   -0.0103   -0.0026   -0.0000    0.0028    0.0066    0.0026    0.0020
           6   -0.0050    0.0297    0.0129   -0.0038   -0.0017   -0.0182   -0.0115   -0.0049
           7    0.0201    0.0064   -0.0107    0.0063    0.0026   -0.0090    0.0173   -0.0018
           8   -0.0074   -0.0059    0.0066   -0.0012   -0.0700   -0.0094    0.0246    0.0007
           9    0.0136    0.0026   -0.0113    0.0022   -0.0337    0.0193   -0.0203   -0.0004
          10   -0.0115   -0.0062    0.0078    0.0069    0.0035    0.0084    0.0095   -0.0147
          11    0.0043    0.0162   -0.0248    0.0064   -0.0043   -0.0001    0.0038   -0.0083
          12    0.0018   -0.0012   -0.0124    0.0052    0.0002    0.0161    0.0125    0.0202
          13   -0.0138   -0.0259   -0.0006    0.0128    0.0029    0.0168    0.0117   -0.0013
          14    0.0273   -0.0148    0.0182   -0.0034   -0.0011   -0.0010    0.0002    0.0091
          15    0.0085   -0.0228    0.0026    0.0032   -0.0000    0.0009    0.0001   -0.0202
          16   -0.0021   -0.0129   -0.0073   -0.0133   -0.0023   -0.0114   -0.0096    0.0241
          17    0.0010   -0.0085    0.0155   -0.0054    0.0017   -0.0095   -0.0098   -0.0048
          18    0.0074   -0.0077    0.0016    0.0051    0.0051    0.0170    0.0144    0.0108
          19    0.0014    0.0078    0.0049    0.0124    0.0013    0.0091    0.0038    0.0158
          20   -0.0151    0.0147   -0.0130   -0.0011   -0.0006   -0.0042   -0.0025    0.0050
          21   -0.0069    0.0062   -0.0036    0.0066    0.0020    0.0108    0.0065   -0.0117
          22   -0.0273   -0.0139   -0.0325   -0.0425   -0.0390   -0.0902    0.0397    0.0344
          23    0.0321    0.0121    0.0108    0.0202    0.0856    0.1323   -0.1438   -0.0098
          24   -0.0063   -0.0050   -0.0250   -0.0255   -0.0091   -0.0247   -0.0175    0.0250
          25   -0.0898    0.0230    0.1006   -0.0386   -0.1020   -0.0387   -0.0888   -0.0308
          26    0.0475   -0.0098   -0.0430    0.0219    0.2782   -0.0400    0.0958    0.0132
          27   -0.0341    0.0091    0.0369   -0.0149   -0.0524   -0.0078   -0.0375   -0.0109
          28   -0.0239    0.2664   -0.1124   -0.0633   -0.0065   -0.0017    0.0025    0.1286
          29    0.0205   -0.0494   -0.0100    0.0126    0.0041    0.0341    0.0228   -0.0156
          30   -0.0261    0.0849    0.0031   -0.0191   -0.0038   -0.0380   -0.0256    0.0261
          31    0.1782    0.0324    0.1458   -0.1072   -0.0061   -0.0271   -0.0156    0.1302
          32   -0.0154   -0.0106   -0.0144    0.0085    0.0022    0.0067    0.0036   -0.0092
          33    0.0526    0.0443    0.0350   -0.0213   -0.0108   -0.0484   -0.0275    0.0298
          34   -0.0338   -0.0057    0.0070   -0.0141    0.0376    0.0176   -0.0538    0.0045
          35    0.0294    0.0052    0.0086    0.0190   -0.0704   -0.0778    0.1493   -0.0068
          36   -0.0236   -0.0020    0.0184   -0.0054    0.0211   -0.0185    0.0138    0.0009
          37   -0.0443   -0.0050    0.0226   -0.0128    0.0589   -0.0117   -0.0157    0.0012
          38    0.0577   -0.0028   -0.0514    0.0104   -0.2366    0.0757   -0.0450    0.0011
          39   -0.0184    0.0005    0.0154   -0.0041    0.0357   -0.0150    0.0053   -0.0005
          40    0.0025    0.0010   -0.0100    0.0007   -0.0070    0.0094   -0.0139   -0.0016
          41   -0.1507   -0.0383    0.0764   -0.0356    0.0017   -0.0133   -0.0124    0.0042
          42   -0.0180   -0.0008    0.0191   -0.0041    0.0176   -0.0193    0.0195    0.0011
          43   -0.0133   -0.0503   -0.0145    0.0316   -0.0007   -0.0023   -0.0046    0.0257
          44   -0.0688    0.1247    0.0084   -0.0492    0.0144    0.0562    0.0462   -0.0659
          45   -0.0307   -0.1471   -0.1087    0.1165   -0.0216   -0.1271   -0.1089    0.1483
          46    0.0637    0.1254    0.0279    0.2061   -0.0209   -0.1044   -0.0760   -0.1376
          47    0.0553   -0.0201    0.0339    0.0268   -0.0048   -0.0251   -0.0173   -0.0208
          48   -0.0052   -0.0659    0.0058   -0.0712    0.0109    0.0564    0.0383    0.0484
          49    0.0378   -0.0615   -0.0965   -0.1666   -0.0036   -0.0774   -0.0570   -0.1307
          50   -0.0200    0.0426    0.0027    0.0633   -0.0136    0.0213    0.0198    0.0553
          51    0.0405   -0.0364   -0.0983   -0.1251   -0.0027   -0.0362   -0.0198   -0.1254


   Root No.      25        26        27        28        29        30        31        32

                25 A      26 A      27 A      28 A      29 A      30 A      31 A      32 A   

                1246.6    1318.3    1362.9    1376.3    1404.7    1408.5    1411.8    1417.0
  
           1    0.0115   -0.0336   -0.0003   -0.0132    0.0022    0.0109    0.0043    0.0037
           2   -0.0333    0.0364    0.0033   -0.0156    0.0091    0.0146   -0.0002   -0.0370
           3    0.0077   -0.0150    0.0014   -0.0106    0.0016    0.0125    0.0037    0.0013
           4    0.0155    0.0551   -0.0251    0.0263    0.0012    0.0079    0.0006    0.0009
           5   -0.0112   -0.0018    0.0300    0.0024   -0.0007   -0.0085   -0.0022   -0.0055
           6    0.0219    0.0062   -0.0677   -0.0056    0.0019    0.0195    0.0049    0.0114
           7   -0.0064    0.0066    0.0000    0.0050    0.0225    0.0063   -0.0300   -0.0077
           8    0.0041    0.0042    0.0022   -0.0273   -0.0060   -0.0240   -0.0020    0.0490
           9   -0.0025    0.0045    0.0005   -0.0018   -0.0301    0.0060   -0.0195   -0.0023
          10    0.0385   -0.0048    0.0116   -0.0242    0.0006    0.0030    0.0031    0.0072
          11    0.0083   -0.0082    0.0026   -0.0012   -0.0001    0.0045    0.0016    0.0070
          12    0.0019    0.0056   -0.0067    0.0039   -0.0013   -0.0132   -0.0037   -0.0080
          13   -0.0325   -0.0301    0.0273   -0.0087   -0.0021   -0.0186   -0.0040   -0.0094
          14    0.0093    0.0104   -0.0064    0.0031    0.0010    0.0113    0.0025    0.0063
          15   -0.0207   -0.0240    0.0144   -0.0068   -0.0026   -0.0254   -0.0060   -0.0142
          16    0.0286    0.0157   -0.0400   -0.0072   -0.0052   -0.0542   -0.0129   -0.0332
          17   -0.0019   -0.0045   -0.0020    0.0009    0.0008    0.0052    0.0010    0.0021
          18   -0.0007    0.0132    0.0048   -0.0027   -0.0013   -0.0109   -0.0023   -0.0069
          19   -0.0194    0.0047    0.0234    0.0150    0.0060    0.0606    0.0138    0.0344
          20    0.0061    0.0004   -0.0063   -0.0021   -0.0005   -0.0049   -0.0011   -0.0030
          21   -0.0135   -0.0006    0.0142    0.0046    0.0012    0.0112    0.0026    0.0064
          22   -0.1300    0.0642   -0.0068    0.0571   -0.0033   -0.0221   -0.0174   -0.0189
          23    0.0941   -0.0919   -0.0145    0.0928   -0.0238   -0.0505   -0.0109    0.0807
          24   -0.0757    0.0064   -0.0246    0.1859   -0.0371   -0.0928   -0.0359    0.0753
          25   -0.0877    0.0335   -0.0124    0.1546   -0.0230   -0.0641   -0.0307    0.0606
          26    0.0644   -0.0867   -0.0196    0.1255   -0.0310   -0.0642   -0.0158    0.0901
          27   -0.0324    0.0299    0.0075   -0.0426    0.0119    0.0320    0.0054   -0.0355
          28   -0.0491   -0.0839   -0.0013   -0.0293   -0.0018   -0.0059   -0.0006   -0.0003
          29   -0.0819   -0.0631   -0.2697   -0.0294    0.0024    0.0337    0.0079    0.0189
          30    0.0612    0.0298    0.1323    0.0088   -0.0005   -0.0106   -0.0020   -0.0052
          31   -0.0605   -0.0800   -0.0029   -0.0265   -0.0064   -0.0025   -0.0037   -0.0057
          32    0.0100    0.0207    0.0836    0.0127   -0.0006   -0.0151   -0.0034   -0.0087
          33    0.1057    0.0645    0.2888    0.0279   -0.0028   -0.0322   -0.0074   -0.0166
          34   -0.0219    0.0267    0.0029   -0.0415    0.1392   -0.0772    0.1256    0.0759
          35    0.0341   -0.0517   -0.0083    0.0924   -0.0740    0.0615    0.0746   -0.1230
          36    0.0035   -0.0184   -0.0054    0.0445    0.1113   -0.0401    0.2802   -0.0388
          37   -0.0113    0.0078    0.0007   -0.0051   -0.2321   -0.0234    0.2702   -0.0146
          38    0.0361   -0.0574   -0.0102    0.1054    0.0889    0.0352    0.1201   -0.1231
          39   -0.0131    0.0234    0.0043   -0.0443   -0.0627   -0.0174   -0.0319    0.0532
          40   -0.0016   -0.0003    0.0005    0.0073   -0.1695    0.0396   -0.0381   -0.0354
          41    0.0670   -0.1040   -0.0087    0.0835    0.0026    0.1036   -0.1471   -0.1138
          42    0.0065   -0.0176   -0.0038    0.0262    0.3258   -0.0234   -0.0130    0.0017
          43   -0.0265   -0.0252    0.0270   -0.0062   -0.0004   -0.0016   -0.0000    0.0002
          44   -0.0157   -0.0042    0.0022   -0.0029   -0.0032   -0.0336   -0.0079   -0.0199
          45    0.0321    0.0125   -0.0054    0.0060    0.0078    0.0766    0.0181    0.0435
          46   -0.0522   -0.0659    0.0165   -0.0155   -0.0049   -0.0493   -0.0112   -0.0261
          47    0.0014   -0.0119   -0.0090   -0.0076   -0.0026   -0.0251   -0.0056   -0.0136
          48   -0.0032    0.0267    0.0204    0.0175    0.0057    0.0568    0.0130    0.0318
          49    0.0145   -0.0382    0.0121   -0.0123    0.0021    0.0161    0.0049    0.0121
          50    0.0128    0.0111   -0.0245    0.0033   -0.0031   -0.0245   -0.0061   -0.0126
          51   -0.0130   -0.0360    0.0549   -0.0055    0.0048    0.0528    0.0140    0.0361


   Root No.      33        34        35        36        37        38        39        40

                33 A      34 A      35 A      36 A      37 A      38 A      39 A      40 A   

                1462.0    1745.3    1825.7    2950.4    2981.6    3025.6    3049.1    3079.4
  
           1   -0.0863   -0.0232   -0.0406    0.0267   -0.0002   -0.0245   -0.0004   -0.0019
           2    0.0261    0.0075    0.0139    0.0047   -0.0001   -0.0279   -0.0004   -0.0011
           3   -0.0317   -0.0137   -0.0273   -0.0514    0.0004   -0.0140    0.0000    0.0017
           4   -0.0631   -0.0038   -0.0079   -0.0003   -0.0004    0.0002   -0.0071    0.0003
           5   -0.0108    0.0045    0.0012   -0.0004   -0.0556    0.0001   -0.0133    0.0010
           6    0.0257   -0.0101   -0.0021   -0.0002   -0.0222   -0.0004    0.0375   -0.0009
           7    0.0133    0.0006    0.0002   -0.0014   -0.0005    0.0037   -0.0014   -0.0371
           8   -0.0184   -0.0001    0.0005   -0.0003   -0.0002    0.0001   -0.0005   -0.0088
           9    0.0038    0.0004    0.0005    0.0026    0.0004    0.0015    0.0010    0.0314
          10    0.1243    0.0496    0.0782   -0.0001   -0.0000   -0.0001   -0.0005    0.0001
          11    0.0136   -0.0283   -0.0824    0.0001   -0.0003    0.0001   -0.0003   -0.0001
          12   -0.0385    0.0618    0.1823   -0.0004   -0.0000   -0.0001    0.0007    0.0001
          13    0.0100   -0.0869    0.0158    0.0000    0.0000   -0.0000    0.0011   -0.0000
          14    0.0061   -0.0720    0.0228   -0.0000   -0.0003    0.0000   -0.0002    0.0000
          15   -0.0138    0.1629   -0.0515    0.0000   -0.0000    0.0000    0.0005   -0.0000
          16   -0.0080   -0.0152   -0.0356    0.0005   -0.0000   -0.0001   -0.0005   -0.0001
          17   -0.0192    0.0152    0.0688   -0.0002   -0.0001   -0.0002    0.0000   -0.0000
          18    0.0447   -0.0339   -0.1544    0.0002   -0.0001    0.0002   -0.0001    0.0000
          19   -0.0076    0.1026   -0.0370   -0.0000    0.0000    0.0000    0.0004   -0.0000
          20    0.0011    0.0665   -0.0233   -0.0000   -0.0002   -0.0000   -0.0000    0.0000
          21   -0.0023   -0.1502    0.0527    0.0000   -0.0001   -0.0000    0.0001   -0.0000
          22    0.0083    0.0069    0.0201   -0.3114    0.0024    0.3232    0.0044    0.0211
          23    0.0042   -0.0078   -0.0176   -0.2177    0.0016    0.2123    0.0031    0.0186
          24    0.0742    0.0162    0.0348    0.1914   -0.0015   -0.2329   -0.0031   -0.0144
          25    0.1528   -0.0011   -0.0182   -0.0077    0.0005   -0.0319   -0.0007   -0.0009
          26   -0.0015   -0.0003    0.0008    0.1629   -0.0015    0.1302    0.0009   -0.0050
          27   -0.0076   -0.0082   -0.0168    0.4257   -0.0035    0.4015    0.0035   -0.0052
          28    0.0395   -0.0156    0.0403   -0.0008   -0.0476   -0.0008    0.0456   -0.0009
          29    0.0368    0.0113    0.0026    0.0011    0.2073    0.0027   -0.2520    0.0055
          30    0.0039   -0.0102    0.0052    0.0020    0.3782    0.0041   -0.3852    0.0079
          31    0.0443   -0.0161    0.0409    0.0003    0.0528   -0.0004    0.0408   -0.0015
          32   -0.0278   -0.0003   -0.0057    0.0039    0.4683   -0.0038    0.4102   -0.0172
          33   -0.0256   -0.0155    0.0012   -0.0009   -0.1084    0.0005   -0.0620    0.0031
          34   -0.0246   -0.0015   -0.0035    0.0185    0.0053   -0.0138    0.0132    0.3281
          35    0.0427    0.0023    0.0039    0.0087    0.0042   -0.0095    0.0097    0.2373
          36    0.0094    0.0003   -0.0002   -0.0113   -0.0039    0.0105   -0.0089   -0.2125
          37   -0.0110   -0.0004   -0.0005    0.0005   -0.0002    0.0022   -0.0003   -0.0009
          38    0.0396    0.0022    0.0031   -0.0046   -0.0007   -0.0038   -0.0027   -0.1014
          39   -0.0174   -0.0008   -0.0010   -0.0227   -0.0013   -0.0115   -0.0063   -0.2520
          40    0.0069   -0.0009   -0.0023   -0.0010    0.0009   -0.0317    0.0036    0.1168
          41   -0.0285   -0.0081   -0.0120   -0.0001   -0.0004    0.0029   -0.0012   -0.0301
          42    0.0042   -0.0016   -0.0035    0.0000    0.0008   -0.0176    0.0029    0.0889
          43    0.0175   -0.1529    0.0338   -0.0002   -0.0004    0.0005   -0.0114    0.0005
          44   -0.0158    0.0132   -0.0034   -0.0001   -0.0009   -0.0000   -0.0012    0.0001
          45    0.0369   -0.0303    0.0080    0.0000   -0.0002   -0.0001    0.0028   -0.0001
          46   -0.0309   -0.0929    0.0719    0.0000   -0.0002    0.0001   -0.0042    0.0002
          47   -0.0031    0.0480   -0.0071   -0.0000   -0.0005   -0.0001    0.0043   -0.0002
          48    0.0067   -0.1087    0.0160    0.0001   -0.0008    0.0002   -0.0095    0.0003
          49    0.0050   -0.0097    0.1362   -0.0005    0.0004    0.0013    0.0078    0.0003
          50   -0.0285    0.0199    0.0190   -0.0004   -0.0004    0.0010    0.0035    0.0002
          51    0.0595   -0.0460   -0.0453    0.0016   -0.0006   -0.0021   -0.0077   -0.0004


   Root No.      41        42        43        44        45

                41 A      42 A      43 A      44 A      45 A   

                3086.8    3133.3    3138.2    3153.7    3181.6
  
           1   -0.0011    0.0001    0.0003   -0.0002    0.0003
           2   -0.0017    0.0000    0.0000    0.0000   -0.0004
           3   -0.0018    0.0001    0.0001   -0.0001    0.0001
           4    0.0000    0.0002    0.0003   -0.0003    0.0000
           5    0.0001   -0.0000    0.0004   -0.0008    0.0002
           6   -0.0001    0.0000   -0.0009    0.0019   -0.0001
           7   -0.0322    0.0001    0.0001   -0.0000    0.0066
           8   -0.0069    0.0000    0.0000    0.0000   -0.0237
           9   -0.0401    0.0000    0.0000   -0.0000   -0.0011
          10    0.0002   -0.0003   -0.0009    0.0014   -0.0001
          11   -0.0003    0.0005    0.0015   -0.0006    0.0000
          12    0.0001   -0.0011   -0.0033    0.0014   -0.0001
          13    0.0000    0.0199   -0.0225   -0.0389   -0.0000
          14    0.0000    0.0008   -0.0015   -0.0039   -0.0000
          15   -0.0000   -0.0018    0.0035    0.0088   -0.0000
          16   -0.0001   -0.0138   -0.0299    0.0100   -0.0000
          17   -0.0000   -0.0065   -0.0139    0.0042   -0.0000
          18    0.0001    0.0146    0.0312   -0.0094    0.0000
          19   -0.0000   -0.0141    0.0054   -0.0091    0.0000
          20   -0.0000    0.0142   -0.0038    0.0120   -0.0000
          21    0.0000   -0.0321    0.0087   -0.0270    0.0000
          22    0.0129   -0.0006   -0.0016    0.0002   -0.0016
          23    0.0093   -0.0006   -0.0014    0.0003   -0.0022
          24   -0.0112    0.0008    0.0019   -0.0004    0.0013
          25   -0.0033    0.0002    0.0004   -0.0001    0.0003
          26    0.0135   -0.0001   -0.0002   -0.0000   -0.0013
          27    0.0306   -0.0004   -0.0006   -0.0000   -0.0017
          28   -0.0001    0.0005   -0.0010    0.0002   -0.0001
          29    0.0005    0.0005    0.0022   -0.0059    0.0005
          30    0.0008    0.0010    0.0031   -0.0097    0.0005
          31   -0.0000    0.0006   -0.0009    0.0002   -0.0003
          32   -0.0019   -0.0009   -0.0038    0.0108   -0.0034
          33    0.0003    0.0004    0.0004   -0.0020    0.0007
          34    0.0401   -0.0002   -0.0005    0.0001    0.2249
          35    0.0357   -0.0001   -0.0004    0.0001    0.1440
          36   -0.0578    0.0002    0.0004   -0.0001   -0.1468
          37   -0.0416    0.0001    0.0001   -0.0001   -0.0190
          38    0.1270   -0.0001   -0.0002    0.0001    0.1029
          39    0.3426   -0.0002   -0.0005    0.0004    0.3150
          40    0.3864   -0.0004   -0.0008    0.0004   -0.2860
          41   -0.0792    0.0001    0.0002   -0.0001    0.0437
          42    0.1952   -0.0002   -0.0004    0.0002   -0.1551
          43   -0.0002   -0.2393    0.2680    0.4204    0.0001
          44   -0.0000   -0.0134    0.0156    0.0250    0.0000
          45    0.0000    0.0310   -0.0358   -0.0571   -0.0000
          46   -0.0001    0.1717   -0.0521    0.1232   -0.0000
          47    0.0000   -0.1622    0.0468   -0.1168    0.0000
          48   -0.0001    0.3664   -0.1056    0.2639   -0.0000
          49    0.0011    0.1630    0.3496   -0.1027    0.0001
          50    0.0004    0.0700    0.1481   -0.0430    0.0000
          51   -0.0011   -0.1570   -0.3322    0.0964   -0.0000


           MASS-WEIGHTED COORDINATE ANALYSIS (NORMAL COORDINATES)


   Root No.       1         2         3         4         5         6         7         8

                 1 A       2 A       3 A       4 A       5 A       6 A       7 A       8 A   

                  53.9     153.0     180.2     300.1     343.9     440.5     536.8     647.7
  
           1    0.1284   -0.0706    0.0688    0.0727    0.2049    0.0123    0.0853    0.5049
           2    0.0137   -0.0397    0.0129   -0.1920    0.2109    0.1563   -0.1276    0.0966
           3   -0.2803   -0.0342   -0.0660   -0.2719   -0.2181    0.0041    0.0555    0.2611
           4    0.1167   -0.0786    0.1368   -0.2442   -0.2235   -0.0025   -0.0129   -0.0446
           5   -0.2783   -0.1477    0.0643    0.2522   -0.1949   -0.0134    0.1074    0.0380
           6   -0.1473   -0.1067    0.0525    0.1085    0.0431    0.0636   -0.0765   -0.2680
           7   -0.1751    0.3693   -0.2326    0.3362   -0.1374   -0.1483    0.1495    0.0592
           8   -0.0477    0.0620   -0.0574   -0.1400    0.1548    0.1560   -0.1787   -0.0433
           9    0.4326    0.2033   -0.0093    0.0632   -0.1430   -0.0646    0.0605    0.0286
          10    0.0581   -0.0691    0.0823   -0.1371   -0.1089   -0.0150    0.0601    0.2645
          11   -0.0116   -0.2895    0.1561   -0.0850    0.0042   -0.2037    0.5567   -0.1778
          12   -0.1521   -0.1557   -0.0246    0.1449    0.3321   -0.0319    0.2170    0.0177
          13    0.0206   -0.0739    0.0480   -0.1187   -0.0193    0.0500   -0.1055   -0.2949
          14   -0.1171    0.3256   -0.1874   -0.1295    0.1695   -0.3031   -0.1016    0.0669
          15    0.0160    0.0961    0.0347   -0.2158   -0.0314   -0.1131   -0.0987   -0.1133
          16   -0.0584   -0.0674   -0.0201   -0.0257    0.1012    0.0636   -0.1055   -0.1969
          17    0.2648   -0.1995    0.1474    0.1788   -0.2286   -0.3256   -0.1681   -0.0731
          18   -0.0100   -0.1168   -0.0086    0.2359    0.2021   -0.0862   -0.1021    0.1227
          19   -0.0803   -0.0661   -0.0463    0.0253    0.1833    0.0822   -0.1304   -0.2419
          20    0.1998    0.2295   -0.0992    0.0643   -0.0973    0.4066    0.1572    0.0027
          21    0.0946    0.0590    0.0161   -0.0387   -0.0260    0.2159    0.0144   -0.0559
          22    0.0424   -0.0414    0.0500   -0.0392   -0.0138   -0.0110    0.0499    0.1769
          23   -0.1225    0.0339   -0.0440   -0.0909   -0.0182    0.0532   -0.0808    0.0181
          24   -0.2103    0.0054   -0.0215   -0.2182   -0.2697   -0.0128    0.0074    0.1162
          25    0.1204   -0.0875    0.0354    0.1479    0.2742   -0.0024    0.0952    0.1498
          26    0.1618    0.0191    0.0149    0.0235    0.1571    0.0666   -0.0748   -0.0017
          27   -0.1376   -0.0217   -0.0227   -0.1056   -0.0972   -0.0078    0.0321    0.0860
          28    0.0359    0.0367    0.0316   -0.0935   -0.1299   -0.0221   -0.1952    0.0151
          29   -0.1477   -0.1130    0.0553    0.2581   -0.2102    0.1998   -0.1683    0.1201
          30   -0.0035    0.0167   -0.0066   -0.0760    0.0898   -0.0976    0.0636   -0.1366
          31    0.0598   -0.0846    0.0719   -0.1052   -0.0858    0.0107    0.1825   -0.1074
          32   -0.0986   -0.0545    0.0251    0.1226   -0.0952    0.0479   -0.0391    0.0455
          33   -0.1135   -0.1154    0.0619    0.2290   -0.1678    0.2467   -0.2323    0.0129
          34   -0.0415    0.0258   -0.3440    0.1114   -0.1216   -0.0756    0.0701   -0.0888
          35    0.1098   -0.0540   -0.0199   -0.0545    0.1071    0.0724   -0.0798    0.0891
          36    0.2771   -0.1446   -0.4229    0.0218   -0.0945   -0.0359    0.0244   -0.0343
          37   -0.1547    0.4064    0.3930    0.1738   -0.0101   -0.0668    0.0702   -0.0885
          38   -0.1766    0.0298    0.0691   -0.1061    0.0434    0.0708   -0.0673    0.0656
          39    0.1809    0.0768   -0.0017    0.0500   -0.0395   -0.0312    0.0264   -0.0314
          40   -0.0223   -0.0038   -0.3196    0.0894   -0.0897   -0.0554    0.0512   -0.0164
          41    0.0097    0.1013   -0.1190    0.0559   -0.0361   -0.0162   -0.0107   -0.2517
          42    0.0816    0.3023    0.4299    0.0760    0.0168   -0.0241    0.0252   -0.0326
          43    0.0099   -0.0216    0.0177   -0.0407   -0.0149    0.0124   -0.0278   -0.0805
          44   -0.0727    0.1904   -0.1138   -0.1284    0.1517   -0.1997   -0.1012    0.0620
          45    0.0168    0.0685    0.0120   -0.1477   -0.0325   -0.0976   -0.0372    0.0302
          46   -0.0477   -0.0163   -0.0382    0.0491    0.1102    0.0311   -0.0362   -0.0184
          47    0.1099    0.1363   -0.0627    0.0069   -0.0367    0.3794    0.1363    0.0476
          48    0.0619    0.0466    0.0012   -0.0360   -0.0378    0.1751    0.0431   -0.0208
          49   -0.0366   -0.0186   -0.0255    0.0230    0.0807    0.0331   -0.0546   -0.1156
          50    0.1454   -0.0847    0.0686    0.0899   -0.1271   -0.2359   -0.3606    0.1159
          51    0.0069   -0.0449   -0.0114    0.1163    0.0845   -0.0726   -0.1941    0.0349


   Root No.       9        10        11        12        13        14        15        16

                 9 A      10 A      11 A      12 A      13 A      14 A      15 A      16 A   

                 747.1     816.2     830.7     871.2     933.9     939.4     967.1    1002.5
  
           1   -0.0646    0.0980   -0.1515   -0.0004    0.0636   -0.1231   -0.0028    0.1634
           2   -0.0227    0.0187   -0.0340    0.0056    0.0001   -0.0596    0.0075    0.0083
           3    0.0009   -0.2492    0.2157   -0.0045    0.0093   -0.0618    0.0411   -0.2051
           4    0.0131   -0.2082   -0.0447   -0.0032   -0.1033    0.3212   -0.0430   -0.0211
           5   -0.1757    0.0666    0.0909    0.3338    0.2329    0.2467   -0.1912   -0.0938
           6   -0.0566   -0.1145   -0.2403    0.1511    0.2315   -0.2538   -0.0449    0.1227
           7    0.0015    0.0169   -0.0436    0.0026    0.0888   -0.1433    0.0047   -0.2220
           8   -0.0302    0.0212    0.0007   -0.0138    0.0015    0.1096   -0.0170    0.0295
           9    0.0019   -0.0624    0.0619   -0.0038    0.0956   -0.0910   -0.0225    0.0477
          10   -0.0294    0.0760    0.0587   -0.0025   -0.0191    0.0662   -0.0128    0.1439
          11    0.2112    0.0837    0.0230   -0.0498   -0.2446   -0.1979    0.1511    0.0187
          12    0.0804   -0.0977   -0.1124   -0.0239   -0.1707    0.1130    0.0363    0.0077
          13    0.0373   -0.3593   -0.2978   -0.0006    0.0520   -0.1708    0.0200   -0.0464
          14   -0.1631   -0.0714   -0.0228   -0.0372   -0.2213   -0.0623    0.2364    0.0990
          15   -0.0637    0.0875    0.1033   -0.0155   -0.0834   -0.0888    0.1146   -0.0251
          16    0.0015    0.2858    0.2494    0.0026    0.0138   -0.0717    0.0193   -0.1090
          17   -0.0028    0.0547    0.0295   -0.2604    0.3743    0.0149    0.1691   -0.0441
          18   -0.0302   -0.0616   -0.1200   -0.1193    0.0644    0.3842    0.0048    0.1192
          19    0.0042    0.1955    0.1172    0.0028    0.0176   -0.0596    0.0070    0.0015
          20   -0.1849   -0.1914   -0.1258   -0.1511   -0.1325   -0.0769   -0.3335   -0.0442
          21   -0.1003    0.3853    0.3181   -0.0642   -0.0639   -0.0351   -0.1440   -0.0375
          22   -0.0209    0.0834   -0.0620   -0.0025    0.0453   -0.1056   -0.0088    0.4078
          23   -0.0390    0.1836   -0.2653    0.0048   -0.0249    0.0529   -0.0043   -0.2455
          24   -0.0405    0.2212   -0.2637   -0.0014    0.0180   -0.0520   -0.0085    0.2353
          25    0.0435   -0.2310    0.2141    0.0000   -0.1109   -0.0315    0.0984   -0.3550
          26   -0.0039   -0.2187    0.2962   -0.0043    0.1402   -0.0511   -0.0575    0.1488
          27    0.0001    0.0122   -0.0551    0.0004   -0.0549   -0.0030    0.0377   -0.1227
          28   -0.0912   -0.0811    0.0599   -0.0287   -0.0572    0.2757    0.3498   -0.0840
          29    0.1729    0.0162    0.0488   -0.2075   -0.1809   -0.0014    0.0591   -0.0091
          30   -0.1498   -0.0364   -0.0756    0.2073    0.2009   -0.0156   -0.0293    0.0165
          31    0.1083   -0.0253    0.0307    0.0277   -0.0872    0.1756   -0.3947    0.0113
          32    0.0001    0.0137    0.0244    0.0133    0.0100    0.0330    0.0128   -0.0172
          33    0.2437   -0.0497   -0.0668   -0.2902   -0.1913   -0.2108    0.0906    0.0845
          34    0.0350   -0.0748    0.1128   -0.0008   -0.0473    0.0277    0.0076    0.1686
          35   -0.0510    0.2034   -0.2667    0.0013    0.0155    0.0024    0.0093   -0.3280
          36    0.0034    0.0929   -0.1070    0.0029   -0.0657    0.0445    0.0184   -0.0312
          37    0.0308    0.0040    0.0123    0.0020   -0.0890    0.0553    0.0237    0.0648
          38   -0.0130   -0.2378    0.2845   -0.0144    0.1894   -0.0963   -0.0605    0.1731
          39    0.0047    0.0830   -0.0986    0.0032   -0.0595    0.0342    0.0183   -0.0449
          40    0.0120   -0.0431    0.0577   -0.0009    0.0145   -0.0252    0.0021    0.0416
          41    0.0482    0.0286    0.0333   -0.0015   -0.2434    0.2677    0.0411    0.3060
          42    0.0054    0.0828   -0.1006    0.0031   -0.0623    0.0440    0.0146   -0.0535
          43    0.0120   -0.1227   -0.0923   -0.0007    0.0050   -0.0173    0.0005   -0.0303
          44    0.6323    0.0912   -0.0328   -0.1499    0.2429   -0.0047   -0.3043   -0.0087
          45    0.2857   -0.0482   -0.0156   -0.0688    0.0385    0.2084   -0.1669   -0.1498
          46   -0.0075    0.0975    0.0461    0.0021   -0.0502    0.1957   -0.0377    0.1498
          47    0.3933   -0.0174   -0.0573    0.4196    0.1691    0.1402    0.4168    0.0767
          48    0.1726    0.1116    0.0793    0.1860    0.0988   -0.0366    0.2040   -0.0424
          49    0.0037    0.0315    0.0084   -0.0028   -0.0145    0.0747   -0.0154   -0.0652
          50    0.1313   -0.0008    0.0675    0.5356   -0.3534   -0.2548   -0.1897   -0.0043
          51    0.0535   -0.0807   -0.0776    0.2341   -0.2083    0.1021   -0.1284    0.0056


   Root No.      17        18        19        20        21        22        23        24

                17 A      18 A      19 A      20 A      21 A      22 A      23 A      24 A   

                1020.8    1032.1    1047.7    1080.1    1114.8    1121.2    1122.9    1204.2
  
           1   -0.0840   -0.0208    0.0279   -0.0996   -0.0117    0.0130   -0.1790    0.0654
           2    0.0114    0.0316   -0.0171   -0.0308    0.4148    0.0331   -0.2640    0.0082
           3   -0.1306    0.0239    0.1804   -0.0357    0.1839   -0.2201    0.1080   -0.0494
           4    0.0996    0.0574   -0.0010    0.0293    0.0088    0.1181    0.0972   -0.2704
           5   -0.0983   -0.0803   -0.0254   -0.0003    0.0178    0.0648    0.0237    0.0168
           6   -0.0484    0.2320    0.1268   -0.0337   -0.0106   -0.1771   -0.1055   -0.0414
           7    0.1936    0.0499   -0.1050    0.0567    0.0161   -0.0879    0.1580   -0.0156
           8   -0.0716   -0.0464    0.0645   -0.0111   -0.4377   -0.0921    0.2249    0.0056
           9    0.1310    0.0203   -0.1109    0.0194   -0.2108    0.1885   -0.1860   -0.0036
          10   -0.1104   -0.0483    0.0766    0.0624    0.0219    0.0823    0.0873   -0.1252
          11    0.0414    0.1267   -0.2436    0.0576   -0.0266   -0.0011    0.0351   -0.0711
          12    0.0175   -0.0090   -0.1216    0.0470    0.0012    0.1568    0.1141    0.1718
          13   -0.1327   -0.2025   -0.0055    0.1148    0.0181    0.1639    0.1074   -0.0111
          14    0.2628   -0.1155    0.1792   -0.0306   -0.0068   -0.0096    0.0020    0.0774
          15    0.0818   -0.1784    0.0256    0.0292   -0.0002    0.0090    0.0009   -0.1724
          16   -0.0197   -0.1012   -0.0723   -0.1195   -0.0147   -0.1111   -0.0879    0.2050
          17    0.0091   -0.0664    0.1525   -0.0487    0.0106   -0.0931   -0.0898   -0.0410
          18    0.0713   -0.0601    0.0161    0.0456    0.0318    0.1654    0.1319    0.0921
          19    0.0133    0.0608    0.0480    0.1117    0.0083    0.0891    0.0344    0.1348
          20   -0.1447    0.1153   -0.1282   -0.0097   -0.0039   -0.0413   -0.0232    0.0428
          21   -0.0667    0.0489   -0.0352    0.0595    0.0125    0.1054    0.0596   -0.0992
          22   -0.0760   -0.0315   -0.0925   -0.1105   -0.0706   -0.2550    0.1052    0.0850
          23    0.0893    0.0273    0.0307    0.0526    0.1549    0.3739   -0.3813   -0.0241
          24   -0.0176   -0.0113   -0.0712   -0.0662   -0.0165   -0.0697   -0.0464    0.0617
          25   -0.2500    0.0522    0.2866   -0.1003   -0.1846   -0.1095   -0.2354   -0.0759
          26    0.1322   -0.0223   -0.1226    0.0569    0.5036   -0.1130    0.2540    0.0326
          27   -0.0950    0.0207    0.1051   -0.0387   -0.0949   -0.0219   -0.0995   -0.0268
          28   -0.0666    0.6033   -0.3203   -0.1645   -0.0118   -0.0048    0.0066    0.3171
          29    0.0570   -0.1118   -0.0284    0.0327    0.0074    0.0963    0.0605   -0.0384
          30   -0.0728    0.1922    0.0088   -0.0498   -0.0068   -0.1074   -0.0679    0.0645
          31    0.4961    0.0733    0.4153   -0.2789   -0.0110   -0.0766   -0.0413    0.3213
          32   -0.0428   -0.0241   -0.0411    0.0221    0.0039    0.0190    0.0095   -0.0227
          33    0.1464    0.1003    0.0997   -0.0553   -0.0196   -0.1367   -0.0729    0.0735
          34   -0.0940   -0.0128    0.0199   -0.0367    0.0681    0.0497   -0.1427    0.0110
          35    0.0818    0.0117    0.0244    0.0493   -0.1275   -0.2199    0.3957   -0.0168
          36   -0.0657   -0.0045    0.0524   -0.0141    0.0383   -0.0523    0.0367    0.0022
          37   -0.1232   -0.0113    0.0644   -0.0334    0.1067   -0.0330   -0.0415    0.0029
          38    0.1607   -0.0064   -0.1463    0.0271   -0.4283    0.2140   -0.1192    0.0028
          39   -0.0511    0.0011    0.0439   -0.0107    0.0646   -0.0425    0.0140   -0.0012
          40    0.0071    0.0023   -0.0285    0.0019   -0.0127    0.0265   -0.0369   -0.0039
          41   -0.4197   -0.0867    0.2177   -0.0925    0.0030   -0.0375   -0.0329    0.0104
          42   -0.0500   -0.0018    0.0543   -0.0106    0.0319   -0.0546    0.0518    0.0028
          43   -0.0370   -0.1138   -0.0414    0.0821   -0.0012   -0.0065   -0.0121    0.0635
          44   -0.1916    0.2824    0.0238   -0.1280    0.0261    0.1588    0.1224   -0.1625
          45   -0.0855   -0.3331   -0.3095    0.3031   -0.0392   -0.3591   -0.2888    0.3658
          46    0.1775    0.2841    0.0796    0.5361   -0.0379   -0.2951   -0.2015   -0.3395
          47    0.1540   -0.0454    0.0966    0.0698   -0.0086   -0.0708   -0.0458   -0.0512
          48   -0.0144   -0.1492    0.0165   -0.1852    0.0198    0.1594    0.1017    0.1193
          49    0.1054   -0.1392   -0.2748   -0.4332   -0.0066   -0.2187   -0.1512   -0.3225
          50   -0.0557    0.0965    0.0078    0.1646   -0.0246    0.0601    0.0526    0.1364
          51    0.1129   -0.0824   -0.2800   -0.3253   -0.0048   -0.1023   -0.0526   -0.3093


   Root No.      25        26        27        28        29        30        31        32

                25 A      26 A      27 A      28 A      29 A      30 A      31 A      32 A   

                1246.6    1318.3    1362.9    1376.3    1404.7    1408.5    1411.8    1417.0
  
           1    0.0974   -0.2827   -0.0016   -0.1130    0.0151    0.0878    0.0307    0.0313
           2   -0.2826    0.3067    0.0205   -0.1341    0.0615    0.1175   -0.0018   -0.3106
           3    0.0651   -0.1266    0.0085   -0.0906    0.0106    0.1007    0.0260    0.0111
           4    0.1318    0.4640   -0.1574    0.2257    0.0081    0.0635    0.0039    0.0076
           5   -0.0952   -0.0154    0.1882    0.0203   -0.0047   -0.0683   -0.0154   -0.0463
           6    0.1855    0.0522   -0.4243   -0.0477    0.0131    0.1566    0.0349    0.0954
           7   -0.0545    0.0553    0.0000    0.0433    0.1521    0.0505   -0.2124   -0.0645
           8    0.0351    0.0351    0.0135   -0.2344   -0.0403   -0.1925   -0.0144    0.4116
           9   -0.0212    0.0375    0.0028   -0.0152   -0.2032    0.0484   -0.1381   -0.0196
          10    0.3261   -0.0403    0.0730   -0.2076    0.0038    0.0242    0.0222    0.0603
          11    0.0704   -0.0692    0.0163   -0.0107   -0.0005    0.0363    0.0110    0.0586
          12    0.0158    0.0468   -0.0422    0.0337   -0.0089   -0.1057   -0.0259   -0.0670
          13   -0.2753   -0.2536    0.1712   -0.0749   -0.0140   -0.1491   -0.0284   -0.0791
          14    0.0790    0.0875   -0.0401    0.0267    0.0068    0.0909    0.0180    0.0530
          15   -0.1753   -0.2019    0.0901   -0.0580   -0.0178   -0.2043   -0.0423   -0.1189
          16    0.2427    0.1319   -0.2507   -0.0619   -0.0354   -0.4358   -0.0915   -0.2784
          17   -0.0164   -0.0376   -0.0126    0.0080    0.0054    0.0418    0.0071    0.0175
          18   -0.0062    0.1112    0.0299   -0.0228   -0.0087   -0.0872   -0.0161   -0.0575
          19   -0.1648    0.0394    0.1464    0.1290    0.0403    0.4873    0.0976    0.2890
          20    0.0516    0.0030   -0.0393   -0.0183   -0.0032   -0.0397   -0.0080   -0.0254
          21   -0.1146   -0.0048    0.0887    0.0392    0.0084    0.0904    0.0182    0.0539
          22   -0.3194    0.1564   -0.0123    0.1418   -0.0065   -0.0513   -0.0358   -0.0460
          23    0.2312   -0.2239   -0.0263    0.2306   -0.0465   -0.1176   -0.0224    0.1964
          24   -0.1860    0.0156   -0.0446    0.4619   -0.0727   -0.2160   -0.0737    0.1831
          25   -0.2154    0.0816   -0.0225    0.3841   -0.0450   -0.1493   -0.0631    0.1473
          26    0.1582   -0.2114   -0.0355    0.3119   -0.0606   -0.1496   -0.0324    0.2191
          27   -0.0796    0.0728    0.0136   -0.1059    0.0232    0.0745    0.0110   -0.0863
          28   -0.1208   -0.2046   -0.0023   -0.0728   -0.0035   -0.0138   -0.0011   -0.0006
          29   -0.2012   -0.1539   -0.4894   -0.0732    0.0047    0.0785    0.0162    0.0460
          30    0.1503    0.0727    0.2400    0.0218   -0.0009   -0.0247   -0.0040   -0.0127
          31   -0.1486   -0.1950   -0.0052   -0.0658   -0.0124   -0.0059   -0.0075   -0.0138
          32    0.0245    0.0505    0.1518    0.0316   -0.0011   -0.0352   -0.0069   -0.0211
          33    0.2597    0.1573    0.5239    0.0693   -0.0055   -0.0751   -0.0152   -0.0403
          34   -0.0539    0.0652    0.0052   -0.1031    0.2725   -0.1797    0.2580    0.1847
          35    0.0837   -0.1260   -0.0151    0.2296   -0.1449    0.1433    0.1532   -0.2991
          36    0.0087   -0.0448   -0.0098    0.1105    0.2179   -0.0933    0.5756   -0.0943
          37   -0.0277    0.0189    0.0012   -0.0128   -0.4542   -0.0545    0.5550   -0.0354
          38    0.0887   -0.1400   -0.0185    0.2619    0.1739    0.0820    0.2466   -0.2994
          39   -0.0322    0.0570    0.0078   -0.1102   -0.1228   -0.0404   -0.0654    0.1294
          40   -0.0039   -0.0007    0.0009    0.0181   -0.3318    0.0923   -0.0782   -0.0861
          41    0.1646   -0.2535   -0.0158    0.2074    0.0051    0.2411   -0.3022   -0.2767
          42    0.0159   -0.0429   -0.0068    0.0651    0.6378   -0.0544   -0.0266    0.0042
          43   -0.0651   -0.0615    0.0491   -0.0154   -0.0008   -0.0037   -0.0000    0.0005
          44   -0.0386   -0.0104    0.0041   -0.0071   -0.0062   -0.0783   -0.0163   -0.0484
          45    0.0790    0.0306   -0.0098    0.0150    0.0152    0.1783    0.0372    0.1059
[...]
 TRANSITION DIPOLE   0.3324         C  2 -- H 10         +23.3% ( 61.7%)      5.1%
 TRAVEL (Ang.)       0.2281         C  2 -- C  5         +15.7% ( 50.6%)     96.5%
 REDUCED MASS        0.9508         C  2 -- C  4         +10.7% ( 41.9%)      0.0%
 EFFECTIVE MASS      5.2263
 FORCE CONSTANT      1.0406

 VIBRATION         28   28A           ATOM PAIR      ENERGY CONTRIBUTION    RADIAL
 FREQUENCY          1376.31         C  1 -- H  8         +19.1% ( 47.7%)      2.5%
 TRANSITION DIPOLE   0.0986         C  1 -- H  9         +16.9% ( 44.9%)      3.8%
 TRAVEL (Ang.)       0.4148         C  3 -- H 13          +8.7% ( 32.2%)      3.5%
 REDUCED MASS        0.2847         C  3 -- H 12          +8.5% ( 31.8%)      2.5%
 EFFECTIVE MASS      3.1149
 FORCE CONSTANT      0.3178

 VIBRATION         29   29A           ATOM PAIR      ENERGY CONTRIBUTION    RADIAL
 FREQUENCY          1404.66         C  3 -- H 14         +50.3% ( 62.3%)      0.2%
 TRANSITION DIPOLE   0.0488         C  3 -- H 13         +25.0% ( 43.9%)      9.0%
 TRAVEL (Ang.)       0.3437         C  3 -- H 12         +15.2% ( 34.2%)     13.8%
 REDUCED MASS        0.4064         C  1 -- C  3          +5.6% ( 20.8%)     21.7%
 EFFECTIVE MASS      1.6616
 FORCE CONSTANT      0.4724

 VIBRATION         30   30A           ATOM PAIR      ENERGY CONTRIBUTION    RADIAL
 FREQUENCY          1408.49         C  6 -- C  7         +21.2% ( 69.0%)     99.9%
 TRANSITION DIPOLE   0.2042         C  5 -- C  7         +10.2% ( 47.9%)      0.2%
 TRAVEL (Ang.)       0.1890         C  4 -- C  7          +8.8% ( 44.6%)     88.6%
 REDUCED MASS        1.3402         C  5 -- C  6          +8.8% ( 44.4%)    100.0%
 EFFECTIVE MASS      8.0566
 FORCE CONSTANT      1.5665

 VIBRATION         31   31A           ATOM PAIR      ENERGY CONTRIBUTION    RADIAL
 FREQUENCY          1411.79         C  3 -- H 12         +39.1% ( 56.4%)      1.0%
 TRANSITION DIPOLE   0.0833         C  3 -- H 13         +34.8% ( 53.2%)      1.8%
 TRAVEL (Ang.)       0.3540         C  3 -- H 14          +9.8% ( 28.2%)     43.5%
 REDUCED MASS        0.3811         C  1 -- C  3          +5.0% ( 20.3%)      1.6%
 EFFECTIVE MASS      1.8541
 FORCE CONSTANT      0.4476

 VIBRATION         32   32A           ATOM PAIR      ENERGY CONTRIBUTION    RADIAL
 FREQUENCY          1416.96         C  1 -- C  3         +12.7% ( 48.0%)     99.3%
 TRANSITION DIPOLE   0.1124         C  3 -- H 12         +11.9% ( 46.4%)      4.5%
 TRAVEL (Ang.)       0.2596         C  3 -- H 13         +11.0% ( 44.6%)      2.7%
 REDUCED MASS        0.7059         C  3 -- H 14          +9.9% ( 42.3%)      3.1%
 EFFECTIVE MASS      6.1577
 FORCE CONSTANT      0.8351

 VIBRATION         33   33A           ATOM PAIR      ENERGY CONTRIBUTION    RADIAL
 FREQUENCY          1461.99         C  1 -- C  4         +21.4% ( 76.4%)     75.9%
 TRANSITION DIPOLE   0.3680         C  2 -- C  4         +17.6% ( 69.2%)     98.0%
 TRAVEL (Ang.)       0.1181         C  4 -- C  6         +14.4% ( 62.6%)     18.0%
 REDUCED MASS        3.3062         C  4 -- C  7         +10.8% ( 54.1%)     24.6%
 EFFECTIVE MASS     10.8457
 FORCE CONSTANT      4.1636

 VIBRATION         34   34A           ATOM PAIR      ENERGY CONTRIBUTION    RADIAL
 FREQUENCY          1745.31         C  5 -- C  7         +32.2% ( 96.0%)    100.0%
 TRANSITION DIPOLE   0.4033         C  4 -- C  7         +11.4% ( 57.0%)     26.9%
 TRAVEL (Ang.)       0.0939         C  5 -- C  6         +10.1% ( 53.8%)     44.9%
 REDUCED MASS        4.3852         C  2 -- C  5         +10.1% ( 53.6%)     18.2%
 EFFECTIVE MASS     11.9521
 FORCE CONSTANT      7.8701

 VIBRATION         35   35A           ATOM PAIR      ENERGY CONTRIBUTION    RADIAL
 FREQUENCY          1825.75         C  4 -- C  6         +30.5% ( 91.9%)     97.9%
 TRANSITION DIPOLE   0.2851         C  1 -- C  4         +13.9% ( 62.0%)     68.8%
 TRAVEL (Ang.)       0.0898         C  4 -- C  7         +13.2% ( 60.5%)     98.5%
 REDUCED MASS        4.5809         C  2 -- C  4         +12.1% ( 57.8%)      0.8%
 EFFECTIVE MASS     11.8103
 FORCE CONSTANT      8.9967

 VIBRATION         36   36A           ATOM PAIR      ENERGY CONTRIBUTION    RADIAL
 FREQUENCY          2950.38         C  1 -- H  9         +51.7% ( 74.7%)     96.8%
 TRANSITION DIPOLE   0.0201         C  1 -- H  8         +45.6% ( 70.1%)     96.1%
 TRAVEL (Ang.)       0.2099         C  1 -- C  3          +1.2% ( 11.3%)      0.0%
 REDUCED MASS        0.5186         C  1 -- C  4          +1.2% ( 11.2%)      0.0%
 EFFECTIVE MASS      1.5498
 FORCE CONSTANT      2.6600

 VIBRATION         37   37A           ATOM PAIR      ENERGY CONTRIBUTION    RADIAL
 FREQUENCY          2981.58         C  2 -- H 11         +53.8% ( 75.9%)     97.3%
 TRANSITION DIPOLE   0.1589         C  2 -- H 10         +44.1% ( 68.7%)     96.2%
 TRAVEL (Ang.)       0.2082         C  2 -- C  5          +1.1% ( 10.7%)      0.1%
 REDUCED MASS        0.5217         C  2 -- C  4          +1.1% ( 10.7%)      0.0%
 EFFECTIVE MASS      1.5313
 FORCE CONSTANT      2.7325

 VIBRATION         38   38A           ATOM PAIR      ENERGY CONTRIBUTION    RADIAL
 FREQUENCY          3025.62         C  1 -- H  8         +52.4% ( 71.4%)     98.0%
 TRANSITION DIPOLE   0.0307         C  1 -- H  9         +45.7% ( 66.7%)     97.2%
 TRAVEL (Ang.)       0.2153         C  1 -- C  3          +0.6% (  7.9%)     25.9%
 REDUCED MASS        0.4810         C  1 -- C  4          +0.6% (  7.8%)     31.0%
 EFFECTIVE MASS      1.2773
 FORCE CONSTANT      2.5944

 VIBRATION         39   39A           ATOM PAIR      ENERGY CONTRIBUTION    RADIAL
 FREQUENCY          3049.09         C  2 -- H 10         +54.5% ( 73.0%)     97.9%
 TRANSITION DIPOLE   0.2661         C  2 -- H 11         +43.8% ( 65.4%)     96.6%
 TRAVEL (Ang.)       0.2131         C  2 -- C  4          +0.7% (  8.5%)     37.6%
 REDUCED MASS        0.4870         C  2 -- C  5          +0.7% (  8.5%)     36.2%
 EFFECTIVE MASS      1.2877
 FORCE CONSTANT      2.6678

 VIBRATION         40   40A           ATOM PAIR      ENERGY CONTRIBUTION    RADIAL
 FREQUENCY          3079.44         C  3 -- H 12         +66.4% ( 84.1%)     98.9%
 TRANSITION DIPOLE   0.0115         C  3 -- H 13         +24.2% ( 50.8%)     90.4%
 TRAVEL (Ang.)       0.2026         C  3 -- H 14          +7.9% ( 29.0%)     68.5%
 REDUCED MASS        0.5335         C  1 -- C  3          +1.0% ( 10.2%)      0.0%
 EFFECTIVE MASS      1.5009
 FORCE CONSTANT      2.9806

 VIBRATION         41   41A           ATOM PAIR      ENERGY CONTRIBUTION    RADIAL
 FREQUENCY          3086.80         C  3 -- H 14         +56.5% ( 77.5%)     98.1%
 TRANSITION DIPOLE   0.0135         C  3 -- H 13         +39.6% ( 64.9%)     95.4%
 TRAVEL (Ang.)       0.2080         C  3 -- H 12          +2.5% ( 16.4%)     30.8%
 REDUCED MASS        0.5049         C  1 -- C  3          +1.0% ( 10.3%)      0.1%
 EFFECTIVE MASS      1.5049
 FORCE CONSTANT      2.8342

 VIBRATION         42   42A           ATOM PAIR      ENERGY CONTRIBUTION    RADIAL
 FREQUENCY          3133.29         C  7 -- H 16         +59.6% ( 79.2%)    100.0%
 TRANSITION DIPOLE   0.1805         C  5 -- H 15         +18.2% ( 43.8%)    100.0%
 TRAVEL (Ang.)       0.2242         C  6 -- H 17         +17.7% ( 43.1%)    100.0%
 REDUCED MASS        0.4283         C  6 -- C  7          +1.2% ( 11.4%)      3.3%
 EFFECTIVE MASS      1.4991
 FORCE CONSTANT      2.4774

 VIBRATION         43   43A           ATOM PAIR      ENERGY CONTRIBUTION    RADIAL
 FREQUENCY          3138.22         C  6 -- H 17         +70.5% ( 86.1%)    100.0%
 TRANSITION DIPOLE   0.5137         C  5 -- H 15         +20.2% ( 46.1%)    100.0%
 TRAVEL (Ang.)       0.1966         C  7 -- H 16          +4.4% ( 21.5%)     99.8%
 REDUCED MASS        0.5558         C  5 -- C  6          +1.4% ( 12.3%)     36.8%
 EFFECTIVE MASS      1.5358
 FORCE CONSTANT      3.2253

 VIBRATION         44   44A           ATOM PAIR      ENERGY CONTRIBUTION    RADIAL
 FREQUENCY          3153.72         C  5 -- H 15         +56.2% ( 77.1%)     99.9%
 TRANSITION DIPOLE   0.4051         C  7 -- H 16         +30.7% ( 57.0%)     99.9%
 TRAVEL (Ang.)       0.2203         C  6 -- H 17          +6.8% ( 26.7%)    100.0%
 REDUCED MASS        0.4404         C  5 -- C  7          +2.2% ( 15.3%)     98.1%
 EFFECTIVE MASS      1.6590
 FORCE CONSTANT      2.5808

 VIBRATION         45   45A           ATOM PAIR      ENERGY CONTRIBUTION    RADIAL
 FREQUENCY          3181.60         C  3 -- H 13         +35.5% ( 57.3%)     97.5%
 TRANSITION DIPOLE   0.0232         C  3 -- H 14         +34.7% ( 56.7%)     97.3%
 TRAVEL (Ang.)       0.2539         C  3 -- H 12         +29.5% ( 52.3%)     96.4%
 REDUCED MASS        0.3288         C  1 -- C  3          +0.3% (  5.1%)     99.4%
 EFFECTIVE MASS      1.1358
 FORCE CONSTANT      1.9607

      SYMMETRY NUMBER FOR POINT-GROUP C1  =  1


          SYSTEM IS A GROUND STATE



 InChI=1S/C7H10/c1-2-7-5-3-4-6-7/h3-5H,2,6H2,1H3


          MOLECULE IS NOT LINEAR

          THERE ARE 45 GENUINE VIBRATIONS IN THIS SYSTEM
          THIS THERMODYNAMICS CALCULATION IS LIMITED TO
          MOLECULES WHICH HAVE NO INTERNAL ROTATIONS




                    CALCULATED THERMODYNAMIC PROPERTIES
                                          *
   TEMP. (K)   PARTITION FUNCTION   H.O.F.    ENTHALPY  HEAT CAPACITY ENTROPY
                                   KCAL/MOL   CAL/MOLE    CAL/K/MOL  CAL/K/MOL


 298.00  VIB.     0.3547D+02                  2639.2564    20.0897    15.9480
         ROT.     0.2047D+06                   888.2803     2.9808    27.2831
         INT.     0.7260D+07                  3527.5367    23.0705    43.2311
         TRA.     0.8833D+27                  1480.4672     4.9680    39.5363
         TOT.                       16.880    5008.0038    28.0385    82.7674

 200.00  VIB.     0.8699D+01                  1096.3210    11.7245     9.7803
         ROT.     0.1126D+06                   596.1613     2.9808    26.0944
         INT.     0.9791D+06                  1692.4823    14.7053    35.8747
         TRA.     0.4856D+27                   993.6021     4.9680    37.5551
         TOT.                       14.558    2686.0845    19.6733    73.4299

 210.00  VIB.     0.9990D+01                  1217.2919    12.4746    10.3704
         ROT.     0.1211D+06                   625.9693     2.9808    26.2398
         INT.     0.1210D+07                  1843.2612    15.4554    36.6103
         TRA.     0.5225D+27                  1043.2822     4.9680    37.7975
         TOT.                       14.758    2886.5435    20.4234    74.4078

 220.00  VIB.     0.1148D+02                  1345.9094    13.2537    10.9686
         ROT.     0.1299D+06                   655.7774     2.9808    26.3785
         INT.     0.1491D+07                  2001.6868    16.2345    37.3471
         TRA.     0.5603D+27                  1092.9623     4.9680    38.0286
         TOT.                       14.966    3094.6491    21.2025    75.3757

 230.00  VIB.     0.1322D+02                  1482.4571    14.0603    11.5755
         ROT.     0.1388D+06                   685.5855     2.9808    26.5110
         INT.     0.1835D+07                  2168.0426    17.0412    38.0865
         TRA.     0.5989D+27                  1142.6424     4.9680    38.2495
         TOT.                       15.182    3310.6850    22.0092    76.3359

 240.00  VIB.     0.1523D+02                  1627.2019    14.8927    12.1914
         ROT.     0.1480D+06                   715.3935     2.9808    26.6379
         INT.     0.2253D+07                  2342.5954    17.8735    38.8292
         TRA.     0.6384D+27                  1192.3226     4.9680    38.4609
         TOT.                       15.407    3534.9179    22.8415    77.2901

 250.00  VIB.     0.1756D+02                  1780.3886    15.7483    12.8166
         ROT.     0.1573D+06                   745.2016     2.9808    26.7595
         INT.     0.2763D+07                  2525.5902    18.7291    39.5761
         TRA.     0.6787D+27                  1242.0027     4.9680    38.6637
         TOT.                       15.639    3767.5928    23.6971    78.2398

 260.00  VIB.     0.2028D+02                  1942.2365    16.6245    13.4512
         ROT.     0.1668D+06                   775.0097     2.9808    26.8765
         INT.     0.3384D+07                  2717.2462    19.6053    40.3277
         TRA.     0.7198D+27                  1291.6828     4.9680    38.8586
         TOT.                       15.881    4008.9289    24.5733    79.1863

 270.00  VIB.     0.2345D+02                  2112.9369    17.5183    14.0954
         ROT.     0.1766D+06                   804.8177     2.9808    26.9890
         INT.     0.4141D+07                  2917.7546    20.4991    41.0843
         TRA.     0.7618D+27                  1341.3629     4.9680    39.0461
         TOT.                       16.131    4259.1175    25.4671    80.1304

 280.00  VIB.     0.2715D+02                  2292.6516    18.4268    14.7488
         ROT.     0.1865D+06                   834.6258     2.9808    27.0974
         INT.     0.5063D+07                  3127.2774    21.4076    41.8462
         TRA.     0.8045D+27                  1391.0430     4.9680    39.2267
         TOT.                       16.390    4518.3203    26.3756    81.0729

 290.00  VIB.     0.3148D+02                  2481.5125    19.3471    15.4115
         ROT.     0.1965D+06                   864.4339     2.9808    27.2020
         INT.     0.6187D+07                  3345.9464    22.3279    42.6134
         TRA.     0.8479D+27                  1440.7231     4.9680    39.4011
         TOT.                       16.658    4786.6694    27.2959    82.0145

 300.00  VIB.     0.3654D+02                  2679.6221    20.2761    16.0830
         ROT.     0.2068D+06                   894.2419     2.9808    27.3030
         INT.     0.7556D+07                  3573.8641    23.2569    43.3860
         TRA.     0.8922D+27                  1490.4032     4.9680    39.5695
         TOT.                       16.936    5064.2673    28.2249    82.9555

 310.00  VIB.     0.4248D+02                  2887.0543    21.2111    16.7631
         ROT.     0.2172D+06                   924.0500     2.9808    27.4008
         INT.     0.9227D+07                  3811.1043    24.1919    44.1639
         TRA.     0.9372D+27                  1540.0833     4.9680    39.7324
         TOT.                       17.223    5351.1876    29.1599    83.8963

 320.00  VIB.     0.4944D+02                  3103.8556    22.1495    17.4513
         ROT.     0.2278D+06                   953.8580     2.9808    27.4954
         INT.     0.1126D+08                  4057.7137    25.1303    44.9467
         TRA.     0.9829D+27                  1589.7634     4.9680    39.8901
         TOT.                       17.519    5647.4771    30.0983    84.8369

 330.00  VIB.     0.5763D+02                  3330.0471    23.0888    18.1473
         ROT.     0.2386D+06                   983.6661     2.9808    27.5871
         INT.     0.1375D+08                  4313.7132    26.0696    45.7344
         TRA.     0.1029D+28                  1639.4435     4.9680    40.0430
         TOT.                       17.825    5953.1568    31.0376    85.7774

 340.00  VIB.     0.6726D+02                  3565.6262    24.0266    18.8505
         ROT.     0.2495D+06                  1013.4742     2.9808    27.6761
         INT.     0.1678D+08                  4579.1003    27.0074    46.5266
         TRA.     0.1076D+28                  1689.1236     4.9680    40.1913
         TOT.                       18.140    6268.2240    31.9755    86.7179

 350.00  VIB.     0.7861D+02                  3810.5685    24.9611    19.5605
         ROT.     0.2606D+06                  1043.2822     2.9808    27.7625
         INT.     0.2048D+08                  4853.8507    27.9419    47.3230
         TRA.     0.1124D+28                  1738.8037     4.9680    40.3353
         TOT.                       18.464    6592.6544    32.9099    87.6583

 360.00  VIB.     0.9199D+02                  4064.8303    25.8902    20.2767
         ROT.     0.2718D+06                  1073.0903     2.9808    27.8465
         INT.     0.2500D+08                  5137.9206    28.8711    48.1232
         TRA.     0.1173D+28                  1788.4838     4.9680    40.4753
         TOT.                       18.798    6926.4044    33.8391    88.5984

 370.00  VIB.     0.1078D+03                  4328.3503    26.8125    20.9986
         ROT.     0.2832D+06                  1102.8984     2.9808    27.9282
         INT.     0.3053D+08                  5431.2486    29.7933    48.9268
         TRA.     0.1222D+28                  1838.1639     4.9680    40.6114
         TOT.                       19.141    7269.4126    34.7613    89.5382

 380.00  VIB.     0.1265D+03                  4601.0519    27.7263    21.7258
         ROT.     0.2948D+06                  1132.7064     2.9808    28.0076
         INT.     0.3728D+08                  5733.7583    30.7071    49.7335
         TRA.     0.1272D+28                  1887.8440     4.9680    40.7439
         TOT.                       19.493    7621.6024    35.6752    90.4774

 390.00  VIB.     0.1485D+03                  4882.8450    28.6306    22.4577
         ROT.     0.3065D+06                  1162.5145     2.9808    28.0851
         INT.     0.4552D+08                  6045.3595    31.6114    50.5428
         TRA.     0.1322D+28                  1937.5242     4.9680    40.8729
         TOT.                       19.854    7982.8837    36.5794    91.4158

 400.00  VIB.     0.1747D+03                  5173.6280    29.5242    23.1939
         ROT.     0.3184D+06                  1192.3226     2.9808    28.1605
         INT.     0.5561D+08                  6365.9506    32.5050    51.3544
         TRA.     0.1374D+28                  1987.2043     4.9680    40.9987
         TOT.                       20.225    8353.1548    37.4730    92.3532

   *: NOTE: HEATS OF FORMATION ARE RELATIVE TO THE
            ELEMENTS IN THEIR STANDARD STATE AT 298K
              (=  Standard Enthalpy of Formation).

            Hvib:  Zero-point energy is not included.
                   frequencies of less than zero cm-1 are not included.
            Hrot = (3/2)RT
            Htra = (3/2)RT + pV = (5/2)RT

            Heat capacity is Cp, not Cv

          For more information, see: HTTP://OpenMOPAC.net/Manual/thermochemistry.html


           FORCE CONSTANT IN CARTESIAN COORDINATES (Millidynes/A)

    ATOM   CHEMICAL       X               Y               Z
   NUMBER   SYMBOL  FORCE CONSTANT  FORCE CONSTANT  FORCE CONSTANT

      1       C        9.038096        8.117157        8.451729
      2       C        7.689025        8.139295        9.625132
      3       C        8.369672        8.178482        8.240195
      4       C       11.136020        4.734977       11.964894
      5       C       12.757291        3.838940       10.124398
      6       C       10.569890        4.222870       12.515319
      7       C       10.094671        4.299075       12.934736
      8       H        2.936047        1.733328        1.685353
      9       H        0.678698        1.173257        4.448720
     10       H        0.659104        1.786014        3.828717
     11       H        0.666410        4.815316        0.776605
     12       H        3.120750        1.916992        1.730297
     13       H        0.688927        1.264942        4.831570
     14       H        4.243706        0.853875        1.689462
     15       H        5.331898        0.408058        0.721001
     16       H        1.432308        1.059957        3.966490
     17       H        2.954380        0.809665        2.684106

 **********************
 *                    *
 * JOB ENDED NORMALLY *
 *                    *
 **********************



 TOTAL JOB TIME:             2.03 SECONDS

 == MOPAC DONE ==
