 *******************************************************************************
 **                                                                           **
 **                              MOPAC v23.1.2                                **
 **                                                                           **
 *******************************************************************************
 **          Digital Object Identifier (DOI): 10.5281/zenodo.6511958          **
 **    Visit the DOI location for information on how to cite this program.    **
 *******************************************************************************

                              PM3 CALCULATION RESULTS

 *******************************************************************************
 *  CALCULATION DONE: (MAX THREADS = 1)              Tue Jun  3 16:32:17 2025  *
 *  PM3        - The PM3 Hamiltonian to be used
 *  PRECISE    - TIGHTER CRITERIA TO BE USED
 *  NOSYM      - POINT-GROUP SYMMETRY SET TO C1
 *  THREADS=1  - MULTI-THREADING NOT USED
 *  T=         - A TIME OF 172800.0 SECONDS REQUESTED
 *  DUMP=N     - RESTART FILE WRITTEN EVERY 7200.0 SECONDS REQUESTED
 *******************************************************************************
pm3  precise nosym THREADS=1
 InChI=1S/C10H10/c1-8-6-7-9-4-2-3-5-10(8)9/h2,4-7H,3H2,1H3

   ATOM   CHEMICAL          X               Y               Z
  NUMBER   SYMBOL      (ANGSTROMS)     (ANGSTROMS)     (ANGSTROMS)

     1       C         -2.02840000  *  -1.31330000  *  -0.03850000  *
     2       C          2.69760000  *  -0.92510000  *  -0.07700000  *
     3       C          1.59970000  *   0.08310000  *   0.04060000  *
     4       C          0.16830000  *  -0.18190000  *   0.02620000  *
     5       C         -0.48060000  *   1.09740000  *   0.07140000  *
     6       C         -0.50870000  *  -1.32720000  *  -0.03070000  *
     7       C         -2.66010000  *   0.07650000  *   0.01410000  *
     8       C          1.75800000  *   1.40760000  *   0.06780000  *
     9       C         -1.93710000  *   1.20580000  *   0.06510000  *
    10       C          0.43530000  *   2.05380000  *   0.09780000  *
    11       H         -2.38920000  *  -1.89650000  *   0.83420000  *
    12       H         -2.37910000  *  -1.82380000  *  -0.95960000  *
    13       H          3.66240000  *  -0.49230000  *   0.26280000  *
    14       H          2.46520000  *  -1.80930000  *   0.55210000  *
    15       H          2.79370000  *  -1.24450000  *  -1.13540000  *
    16       H         -3.74030000  *   0.14830000  *   0.00890000  *
    17       H          0.01750000  *  -2.27210000  *  -0.07130000  *
    18       H         -2.42230000  *   2.17310000  *   0.09920000  *
    19       H          0.23850000  *   3.11750000  *   0.12280000  *
    20       H          2.70950000  *   1.92300000  *   0.04950000  *



          CARTESIAN COORDINATES 

    NO.       ATOM           X           Y           Z

     1         C         -2.0284     -1.3133     -0.0385
     2         C          2.6976     -0.9251     -0.0770
     3         C          1.5997      0.0831      0.0406
     4         C          0.1683     -0.1819      0.0262
     5         C         -0.4806      1.0974      0.0714
     6         C         -0.5087     -1.3272     -0.0307
     7         C         -2.6601      0.0765      0.0141
     8         C          1.7580      1.4076      0.0678
     9         C         -1.9371      1.2058      0.0651
    10         C          0.4353      2.0538      0.0978
    11         H         -2.3892     -1.8965      0.8342
    12         H         -2.3791     -1.8238     -0.9596
    13         H          3.6624     -0.4923      0.2628
    14         H          2.4652     -1.8093      0.5521
    15         H          2.7937     -1.2445     -1.1354
    16         H         -3.7403      0.1483      0.0089
    17         H          0.0175     -2.2721     -0.0713
    18         H         -2.4223      2.1731      0.0992
    19         H          0.2385      3.1175      0.1228
    20         H          2.7095      1.9230      0.0495

  H: (PM3): J. J. P. STEWART, J. COMP. CHEM. 10, 209 (1989).
  C: (PM3): J. J. P. STEWART, J. COMP. CHEM. 10, 209 (1989).

           Empirical Formula: C10 H10  =    20 atoms



      MOLECULAR POINT GROUP   :   C1  


      RHF CALCULATION, NO. OF DOUBLY OCCUPIED LEVELS = 25


          Geometry optimization using EF

          DIAGONAL MATRIX USED AS START HESSIAN

 CYCLE:     1 TIME:   0.008 TIME LEFT:  2.00D  GRAD.:   155.323 HEAT:  61.29939
 CYCLE:     2 TIME:   0.012 TIME LEFT:  2.00D  GRAD.:   164.595 HEAT:  60.24774
 CYCLE:     3 TIME:   0.008 TIME LEFT:  2.00D  GRAD.:   132.007 HEAT:  59.28273
 CYCLE:     4 TIME:   0.008 TIME LEFT:  2.00D  GRAD.:   149.209 HEAT:  59.22896
 CYCLE:     5 TIME:   0.012 TIME LEFT:  2.00D  GRAD.:    61.455 HEAT:  56.12719
 CYCLE:     6 TIME:   0.008 TIME LEFT:  2.00D  GRAD.:    30.811 HEAT:  55.44614
 CYCLE:     7 TIME:   0.008 TIME LEFT:  2.00D  GRAD.:    27.659 HEAT:  55.26540
 CYCLE:     8 TIME:   0.012 TIME LEFT:  2.00D  GRAD.:    23.890 HEAT:  55.12850
 CYCLE:     9 TIME:   0.004 TIME LEFT:  2.00D  GRAD.:    15.681 HEAT:  55.00523
 CYCLE:    10 TIME:   0.008 TIME LEFT:  2.00D  GRAD.:    13.323 HEAT:  54.87024
 CYCLE:    11 TIME:   0.008 TIME LEFT:  2.00D  GRAD.:    15.601 HEAT:  54.79612
 CYCLE:    12 TIME:   0.012 TIME LEFT:  2.00D  GRAD.:    11.303 HEAT:  54.74675
 CYCLE:    13 TIME:   0.008 TIME LEFT:  2.00D  GRAD.:     5.474 HEAT:  54.71077
 CYCLE:    14 TIME:   0.008 TIME LEFT:  2.00D  GRAD.:     9.020 HEAT:  54.70629
 CYCLE:    15 TIME:   0.008 TIME LEFT:  2.00D  GRAD.:     6.964 HEAT:  54.69506
 CYCLE:    16 TIME:   0.008 TIME LEFT:  2.00D  GRAD.:     4.618 HEAT:  54.68486
 CYCLE:    17 TIME:   0.008 TIME LEFT:  2.00D  GRAD.:     3.848 HEAT:  54.67322
 CYCLE:    18 TIME:   0.012 TIME LEFT:  2.00D  GRAD.:     2.853 HEAT:  54.66894
 CYCLE:    19 TIME:   0.008 TIME LEFT:  2.00D  GRAD.:     3.842 HEAT:  54.66414
 CYCLE:    20 TIME:   0.008 TIME LEFT:  2.00D  GRAD.:     3.297 HEAT:  54.65882
 CYCLE:    21 TIME:   0.004 TIME LEFT:  2.00D  GRAD.:     2.638 HEAT:  54.65494
 CYCLE:    22 TIME:   0.008 TIME LEFT:  2.00D  GRAD.:     2.510 HEAT:  54.65096
 CYCLE:    23 TIME:   0.008 TIME LEFT:  2.00D  GRAD.:     2.827 HEAT:  54.64605
 CYCLE:    24 TIME:   0.008 TIME LEFT:  2.00D  GRAD.:     2.820 HEAT:  54.64005
 CYCLE:    25 TIME:   0.008 TIME LEFT:  2.00D  GRAD.:     2.166 HEAT:  54.63490
 CYCLE:    26 TIME:   0.004 TIME LEFT:  2.00D  GRAD.:     1.591 HEAT:  54.63227
 CYCLE:    27 TIME:   0.008 TIME LEFT:  2.00D  GRAD.:     1.430 HEAT:  54.63011
 CYCLE:    28 TIME:   0.008 TIME LEFT:  2.00D  GRAD.:     1.012 HEAT:  54.62887
 CYCLE:    29 TIME:   0.008 TIME LEFT:  2.00D  GRAD.:     1.244 HEAT:  54.62748
 CYCLE:    30 TIME:   0.008 TIME LEFT:  2.00D  GRAD.:     1.038 HEAT:  54.62597
 CYCLE:    31 TIME:   0.004 TIME LEFT:  2.00D  GRAD.:     0.899 HEAT:  54.62479
 CYCLE:    32 TIME:   0.008 TIME LEFT:  2.00D  GRAD.:     0.549 HEAT:  54.62423
 CYCLE:    33 TIME:   0.008 TIME LEFT:  2.00D  GRAD.:     0.451 HEAT:  54.62390
 CYCLE:    34 TIME:   0.004 TIME LEFT:  2.00D  GRAD.:     0.308 HEAT:  54.62367
 CYCLE:    35 TIME:   0.008 TIME LEFT:  2.00D  GRAD.:     0.260 HEAT:  54.62357
 CYCLE:    36 TIME:   0.008 TIME LEFT:  2.00D  GRAD.:     0.229 HEAT:  54.62348
 CYCLE:    37 TIME:   0.008 TIME LEFT:  2.00D  GRAD.:     0.172 HEAT:  54.62340
 CYCLE:    38 TIME:   0.004 TIME LEFT:  2.00D  GRAD.:     0.213 HEAT:  54.62333
 CYCLE:    39 TIME:   0.008 TIME LEFT:  2.00D  GRAD.:     0.270 HEAT:  54.62321
 CYCLE:    40 TIME:   0.008 TIME LEFT:  2.00D  GRAD.:     0.399 HEAT:  54.62300
 CYCLE:    41 TIME:   0.008 TIME LEFT:  2.00D  GRAD.:     0.470 HEAT:  54.62277
 CYCLE:    42 TIME:   0.008 TIME LEFT:  2.00D  GRAD.:     0.657 HEAT:  54.62208
 CYCLE:    43 TIME:   0.004 TIME LEFT:  2.00D  GRAD.:     0.736 HEAT:  54.62126
 CYCLE:    44 TIME:   0.008 TIME LEFT:  2.00D  GRAD.:     1.436 HEAT:  54.62077
 CYCLE:    45 TIME:   0.008 TIME LEFT:  2.00D  GRAD.:     0.724 HEAT:  54.61938
 CYCLE:    46 TIME:   0.008 TIME LEFT:  2.00D  GRAD.:     0.605 HEAT:  54.61864
 CYCLE:    47 TIME:   0.004 TIME LEFT:  2.00D  GRAD.:     0.715 HEAT:  54.61666
 CYCLE:    48 TIME:   0.008 TIME LEFT:  2.00D  GRAD.:     0.810 HEAT:  54.61576
 CYCLE:    49 TIME:   0.008 TIME LEFT:  2.00D  GRAD.:     0.811 HEAT:  54.61485
 CYCLE:    50 TIME:   0.008 TIME LEFT:  2.00D  GRAD.:     0.548 HEAT:  54.61397
 CYCLE:    51 TIME:   0.004 TIME LEFT:  2.00D  GRAD.:     0.518 HEAT:  54.61320
 CYCLE:    52 TIME:   0.008 TIME LEFT:  2.00D  GRAD.:     0.570 HEAT:  54.61259
 CYCLE:    53 TIME:   0.008 TIME LEFT:  2.00D  GRAD.:     0.754 HEAT:  54.61223
 CYCLE:    54 TIME:   0.008 TIME LEFT:  2.00D  GRAD.:     0.293 HEAT:  54.61188
 CYCLE:    55 TIME:   0.004 TIME LEFT:  2.00D  GRAD.:     0.322 HEAT:  54.61158
 CYCLE:    56 TIME:   0.008 TIME LEFT:  2.00D  GRAD.:     0.359 HEAT:  54.61109
 CYCLE:    57 TIME:   0.008 TIME LEFT:  2.00D  GRAD.:     0.601 HEAT:  54.61049
 CYCLE:    58 TIME:   0.004 TIME LEFT:  2.00D  GRAD.:     0.396 HEAT:  54.61009
 CYCLE:    59 TIME:   0.008 TIME LEFT:  2.00D  GRAD.:     0.487 HEAT:  54.60938
 CYCLE:    60 TIME:   0.008 TIME LEFT:  2.00D  GRAD.:     0.410 HEAT:  54.60906
 CYCLE:    61 TIME:   0.008 TIME LEFT:  2.00D  GRAD.:     0.696 HEAT:  54.60868
 CYCLE:    62 TIME:   0.004 TIME LEFT:  2.00D  GRAD.:     0.315 HEAT:  54.60817
 CYCLE:    63 TIME:   0.008 TIME LEFT:  2.00D  GRAD.:     0.220 HEAT:  54.60787
 CYCLE:    64 TIME:   0.008 TIME LEFT:  2.00D  GRAD.:     0.199 HEAT:  54.60755
 CYCLE:    65 TIME:   0.008 TIME LEFT:  2.00D  GRAD.:     0.202 HEAT:  54.60740
 CYCLE:    66 TIME:   0.004 TIME LEFT:  2.00D  GRAD.:     0.226 HEAT:  54.60731
 CYCLE:    67 TIME:   0.008 TIME LEFT:  2.00D  GRAD.:     0.106 HEAT:  54.60729
 CYCLE:    68 TIME:   0.008 TIME LEFT:  2.00D  GRAD.:     0.133 HEAT:  54.60725
 CYCLE:    69 TIME:   0.004 TIME LEFT:  2.00D  GRAD.:     0.124 HEAT:  54.60720
 CYCLE:    70 TIME:   0.008 TIME LEFT:  2.00D  GRAD.:     0.115 HEAT:  54.60716
 CYCLE:    71 TIME:   0.004 TIME LEFT:  2.00D  GRAD.:     0.098 HEAT:  54.60710
 CYCLE:    72 TIME:   0.012 TIME LEFT:  2.00D  GRAD.:     0.130 HEAT:  54.60701
 CYCLE:    73 TIME:   0.004 TIME LEFT:  2.00D  GRAD.:     0.092 HEAT:  54.60699
 CYCLE:    74 TIME:   0.008 TIME LEFT:  2.00D  GRAD.:     0.472 HEAT:  54.60723
 CYCLE:    75 TIME:   0.008 TIME LEFT:  2.00D  GRAD.:     0.117 HEAT:  54.60688
 CYCLE:    76 TIME:   0.004 TIME LEFT:  2.00D  GRAD.:     0.045 HEAT:  54.60685

     GRADIENT =  0.04483 IS LESS THAN CUTOFF =  0.05000



 -------------------------------------------------------------------------------
 pm3  precise nosym THREADS=1
 InChI=1S/C10H10/c1-8-6-7-9-4-2-3-5-10(8)9/h2,4-7H,3H2,1H3



     GEOMETRY OPTIMISED USING EIGENVECTOR FOLLOWING (EF).     
     SCF FIELD WAS ACHIEVED                                   


                              PM3 CALCULATION
                                                       MOPAC v23.1.2 MacOS
                                                       Tue Jun  3 16:32:17 2025




          FINAL HEAT OF FORMATION =         54.60685 KCAL/MOL =     228.47506 KJ/MOL


          COSMO AREA              =        173.22 SQUARE ANGSTROMS
          COSMO VOLUME            =        172.93 CUBIC ANGSTROMS

          GRADIENT NORM           =          0.04483          =       0.01002 PER ATOM
          IONIZATION POTENTIAL    =          8.331213 EV
          HOMO LUMO ENERGIES (EV) =         -8.331 -0.768
          NO. OF FILLED LEVELS    =         25
          MOLECULAR WEIGHT        =        130.1890         POINT GROUP:  C1  

          MOLECULAR DIMENSIONS (Angstroms)

            Atom       Atom       Distance
            H    16    H    13     7.41496
            H    19    H    17     5.49821
            H    11    H    15     1.87269


          SCF CALCULATIONS        =         86

          WALL-CLOCK TIME         =      0.566 SECONDS
          COMPUTATION TIME        =      0.361 SECONDS




   ATOM   CHEMICAL          X               Y               Z
  NUMBER   SYMBOL      (ANGSTROMS)     (ANGSTROMS)     (ANGSTROMS)

     1       C         -2.01482011  *  -1.30988469  *  -0.05147531  *
     2       C          2.65676845  *  -0.93872204  *  -0.05456077  *
     3       C          1.61147477  *   0.09289887  *   0.00587814  *
     4       C          0.16727963  *  -0.18891939  *  -0.00386977  *
     5       C         -0.49637914  *   1.13136746  *   0.06605246  *
     6       C         -0.52805938  *  -1.33086040  *  -0.05781940  *
     7       C         -2.63816595  *   0.03977563  *   0.01817175  *
     8       C          1.77299191  *   1.44616629  *   0.07647678  *
     9       C         -1.93414851  *   1.18179941  *   0.07328834  *
    10       C          0.46316020  *   2.09703805  *   0.11382125  *
    11       H         -2.37364925  *  -1.91565072  *   0.80691844  *
    12       H         -2.37978513  *  -1.82727186  *  -0.96342355  *
    13       H          3.65989873  *  -0.50548198  *   0.04637211  *
    14       H          2.52522538  *  -1.67831353  *   0.74691906  *
    15       H          2.61737482  *  -1.47794474  *  -1.01101680  *
    16       H         -3.73362863  *   0.05735831  *   0.02251384  *
    17       H         -0.03178573  *  -2.30660081  *  -0.10717858  *
    18       H         -2.41905244  *   2.16198467  *   0.12419386  *
    19       H          0.32029860  *   3.17366966  *   0.17044687  *
    20       H          2.71541870  *   1.98990041  *   0.10294652  *

                             CARTESIAN COORDINATES

   1    C       -2.014820107    -1.309884694    -0.051475306
   2    C        2.656768450    -0.938722038    -0.054560766
   3    C        1.611474769     0.092898870     0.005878141
   4    C        0.167279631    -0.188919395    -0.003869767
   5    C       -0.496379137     1.131367463     0.066052458
   6    C       -0.528059383    -1.330860396    -0.057819403
   7    C       -2.638165950     0.039775626     0.018171747
   8    C        1.772991906     1.446166287     0.076476778
   9    C       -1.934148507     1.181799407     0.073288337
  10    C        0.463160200     2.097038046     0.113821252
  11    H       -2.373649255    -1.915650716     0.806918438
  12    H       -2.379785126    -1.827271859    -0.963423552
  13    H        3.659898728    -0.505481978     0.046372107
  14    H        2.525225385    -1.678313533     0.746919065
  15    H        2.617374816    -1.477944739    -1.011016801
  16    H       -3.733628630     0.057358308     0.022513841
  17    H       -0.031785731    -2.306600815    -0.107178580
  18    H       -2.419052443     2.161984668     0.124193860
  19    H        0.320298604     3.173669657     0.170446872
  20    H        2.715418702     1.989900410     0.102946523


           Empirical Formula: C10 H10  =    20 atoms



      MOLECULAR POINT GROUP   :   C1  


                  EIGENVALUES  
 -41.12836 -35.69488 -31.89921 -29.02455 -26.89461 -23.77686 -21.44797 -20.06114
 -18.97798 -17.10527 -16.02550 -15.92698 -15.22525 -15.00212 -14.36013 -14.34629
 -13.82748 -13.26530 -13.03816 -12.69540 -12.50843 -11.76629 -10.76243  -9.41799
  -8.33121  -0.76786   0.81631   2.08864   2.61199   2.98291   3.22971   3.28816
   3.43985   3.55202   3.68469   4.02797   4.10541   4.15789   4.17141   4.33180
   4.46598   4.55241   4.81906   4.91173   5.21065   5.24307   5.71557   6.22929
   6.35956   6.46837


              NET ATOMIC CHARGES AND DIPOLE CONTRIBUTIONS

  ATOM NO.   TYPE          CHARGE      No. of ELECS.   s-Pop       p-Pop       
    1          C          -0.035077        4.0351     1.13440     2.90068
    2          C          -0.043783        4.0438     1.11474     2.92904
    3          C          -0.099149        4.0991     1.18786     2.91128
    4          C          -0.071083        4.0711     1.17844     2.89264
    5          C          -0.085766        4.0858     1.17541     2.91036
    6          C          -0.045369        4.0454     1.19003     2.85534
    7          C          -0.153874        4.1539     1.19587     2.95801
    8          C          -0.114816        4.1148     1.19131     2.92350
    9          C          -0.060019        4.0600     1.16727     2.89274
   10          C          -0.101806        4.1018     1.18700     2.91481
   11          H           0.072308        0.9277     0.92769
   12          H           0.072317        0.9277     0.92768
   13          H           0.043744        0.9563     0.95626
   14          H           0.043086        0.9569     0.95691
   15          H           0.043988        0.9560     0.95601
   16          H           0.099818        0.9002     0.90018
   17          H           0.101999        0.8980     0.89800
   18          H           0.103743        0.8963     0.89626
   19          H           0.115281        0.8847     0.88472
   20          H           0.114459        0.8855     0.88554
 DIPOLE           X         Y         Z       TOTAL
 POINT-CHG.    -0.568    -1.171    -0.061     1.303
 HYBRID        -0.053    -0.096    -0.007     0.110
 SUM           -0.621    -1.266    -0.067     1.412


          ATOMIC ORBITAL ELECTRON POPULATIONS

     Atom    s        px        py        pz   
    1  C   1.13440   0.93219   0.96058   1.00791
    2  C   1.11474   0.96136   0.96648   1.00120
    3  C   1.18786   0.92419   0.95597   1.03112
    4  C   1.17844   0.93473   0.94243   1.01548
    5  C   1.17541   0.93421   0.94041   1.03574
    6  C   1.19003   0.95341   0.96981   0.93212
    7  C   1.19587   0.98600   0.94789   1.02412
    8  C   1.19131   0.96486   0.93914   1.01950
    9  C   1.16727   0.92816   0.96913   0.99546
   10  C   1.18700   0.93020   0.96871   1.01590
   11  H   0.92769
   12  H   0.92768
   13  H   0.95626
   14  H   0.95691
   15  H   0.95601
   16  H   0.90018
   17  H   0.89800
   18  H   0.89626
   19  H   0.88472
   20  H   0.88554
 *******************************************************************************
 **                                                                           **
 **                              MOPAC v23.1.2                                **
 **                                                                           **
 *******************************************************************************
 **          Digital Object Identifier (DOI): 10.5281/zenodo.6511958          **
 **    Visit the DOI location for information on how to cite this program.    **
 *******************************************************************************

                              PM3 CALCULATION RESULTS

 *******************************************************************************
 *  CALCULATION DONE: (MAX THREADS = 1)              Tue Jun  3 16:32:17 2025  *
 *  PM3        - The PM3 Hamiltonian to be used
 *  OLDGEO     - PREVIOUS GEOMETRY TO BE USED
 *  PRECISE    - TIGHTER CRITERIA TO BE USED
 *  NOSYM      - POINT-GROUP SYMMETRY SET TO C1
 *  THREADS=1  - MULTI-THREADING NOT USED
 *  T=         - A TIME OF 172800.0 SECONDS REQUESTED
 *  DUMP=N     - RESTART FILE WRITTEN EVERY 7200.0 SECONDS REQUESTED
 *  THERMO     - THERMODYNAMIC QUANTITIES TO BE CALCULATED
 *******************************************************************************
oldgeo thermo nosym precise THREADS=1  pm3
 InChI=1S/C10H10/c1-8-6-7-9-4-2-3-5-10(8)9/h2,4-7H,3H2,1H3

   ATOM   CHEMICAL          X               Y               Z
  NUMBER   SYMBOL      (ANGSTROMS)     (ANGSTROMS)     (ANGSTROMS)

     1       C         -2.01482011  *  -1.30988469  *  -0.05147531  *
     2       C          2.65676845  *  -0.93872204  *  -0.05456077  *
     3       C          1.61147477  *   0.09289887  *   0.00587814  *
     4       C          0.16727963  *  -0.18891939  *  -0.00386977  *
     5       C         -0.49637914  *   1.13136746  *   0.06605246  *
     6       C         -0.52805938  *  -1.33086040  *  -0.05781940  *
     7       C         -2.63816595  *   0.03977563  *   0.01817175  *
     8       C          1.77299191  *   1.44616629  *   0.07647678  *
     9       C         -1.93414851  *   1.18179941  *   0.07328834  *
    10       C          0.46316020  *   2.09703805  *   0.11382125  *
    11       H         -2.37364925  *  -1.91565072  *   0.80691844  *
    12       H         -2.37978513  *  -1.82727186  *  -0.96342355  *
    13       H          3.65989873  *  -0.50548198  *   0.04637211  *
    14       H          2.52522538  *  -1.67831353  *   0.74691906  *
    15       H          2.61737482  *  -1.47794474  *  -1.01101680  *
    16       H         -3.73362863  *   0.05735831  *   0.02251384  *
    17       H         -0.03178573  *  -2.30660081  *  -0.10717858  *
    18       H         -2.41905244  *   2.16198467  *   0.12419386  *
    19       H          0.32029860  *   3.17366966  *   0.17044687  *
    20       H          2.71541870  *   1.98990041  *   0.10294652  *



          CARTESIAN COORDINATES 

    NO.       ATOM           X           Y           Z

     1         C         -2.0148     -1.3099     -0.0515
     2         C          2.6568     -0.9387     -0.0546
     3         C          1.6115      0.0929      0.0059
     4         C          0.1673     -0.1889     -0.0039
     5         C         -0.4964      1.1314      0.0661
     6         C         -0.5281     -1.3309     -0.0578
     7         C         -2.6382      0.0398      0.0182
     8         C          1.7730      1.4462      0.0765
     9         C         -1.9341      1.1818      0.0733
    10         C          0.4632      2.0970      0.1138
    11         H         -2.3736     -1.9157      0.8069
    12         H         -2.3798     -1.8273     -0.9634
    13         H          3.6599     -0.5055      0.0464
    14         H          2.5252     -1.6783      0.7469
    15         H          2.6174     -1.4779     -1.0110
    16         H         -3.7336      0.0574      0.0225
    17         H         -0.0318     -2.3066     -0.1072
    18         H         -2.4191      2.1620      0.1242
    19         H          0.3203      3.1737      0.1704
    20         H          2.7154      1.9899      0.1029

  H: (PM3): J. J. P. STEWART, J. COMP. CHEM. 10, 209 (1989).
  C: (PM3): J. J. P. STEWART, J. COMP. CHEM. 10, 209 (1989).

           Empirical Formula: C10 H10  =    20 atoms



      MOLECULAR POINT GROUP   :   C1  


      RHF CALCULATION, NO. OF DOUBLY OCCUPIED LEVELS = 25



          HEAT OF FORMATION =      54.606851 KCALS/MOLE


          CARTESIAN COORDINATE DERIVATIVES

   NUMBER  ATOM         X            Y            Z

     1       C     -0.002485     0.001819     0.002547
     2       C     -0.010463     0.002841     0.005317
     3       C     -0.001255    -0.003653    -0.006897
     4       C      0.010389     0.000980    -0.003423
     5       C      0.010141    -0.003689    -0.001910
     6       C     -0.008949     0.004040    -0.000729
     7       C     -0.004724     0.001515     0.003698
     8       C      0.009288    -0.004446    -0.000992
     9       C      0.008091     0.000599     0.002858
    10       C      0.010701    -0.002305    -0.001278
    11       H      0.002597    -0.005258    -0.000300
    12       H      0.011782    -0.006966     0.002605
    13       H     -0.007732     0.013318     0.009673
    14       H     -0.006485     0.004008     0.002426
    15       H      0.006524    -0.006504    -0.011914
    16       H     -0.002449     0.005128    -0.000275
    17       H     -0.011967     0.000158    -0.003490
    18       H     -0.001285    -0.003358     0.001550
    19       H     -0.014721     0.001053     0.002477
    20       H      0.002999     0.000725    -0.001942



          GRADIENT NORM =   0.04683

          MOLECULAR WEIGHT =  130.19



          ROTATIONAL CONSTANTS IN CM(-1)

          A =    0.08564765   B =    0.04108960   C =    0.02806054



           PRINCIPAL MOMENTS OF INERTIA IN UNITS OF 10**(-40)*GRAM-CM**2

          A =      326.8362   B =      681.2613   C =      997.5844


          ORIENTATION OF MOLECULE IN FORCE CALCULATION

    NO.       ATOM         X         Y         Z

     1          C      -2.0475   -1.3406    0.0025
     2          C       2.6388   -1.3406    0.0025
     3          C       1.6785   -0.2278    0.0025
     4          C       0.2165   -0.3947    0.0008
     5          C      -0.3406    0.9758   -0.0033
     6          C      -0.5671   -1.4793    0.0046
     7          C      -2.5620    0.0559   -0.0032
     8          C       1.9466    1.1103    0.0014
     9          C      -1.7698    1.1400   -0.0058
    10          C       0.6924    1.8637   -0.0026
    11          H      -2.4537   -1.8691    0.8904
    12          H      -2.4517   -1.8758   -0.8822
    13          H       3.6730   -0.9832    0.0851
    14          H       2.4486   -2.0233    0.8418
    15          H       2.5575   -1.9256   -0.9239
    16          H      -3.6527    0.1603   -0.0052
    17          H      -0.1496   -2.4925    0.0100
    18          H      -2.1756    2.1568   -0.0099
    19          H       0.6352    2.9498   -0.0044
    20          H       2.9291    1.5785    0.0034


    FIRST DERIVATIVES WILL BE USED IN THE CALCULATION OF SECOND DERIVATIVES

          ESTIMATED TIME TO COMPLETE CALCULATION =        0.94 SECONDS

    FOR POINT-GROUP C1   THERE ARE   1 UNIQUE SYMMETRY FUNCTIONS.

 STEP:   1 TIME =     0.02 SECS, INTEGRAL =      0.02 TIME LEFT: 172799.98
 STEP:   2 TIME =     0.02 SECS, INTEGRAL =      0.04 TIME LEFT: 172799.96
 STEP:   3 TIME =     0.02 SECS, INTEGRAL =      0.06 TIME LEFT: 172799.94
 STEP:   4 TIME =     0.02 SECS, INTEGRAL =      0.08 TIME LEFT: 172799.92
 STEP:   5 TIME =     0.02 SECS, INTEGRAL =      0.10 TIME LEFT: 172799.90
 STEP:   6 TIME =     0.02 SECS, INTEGRAL =      0.12 TIME LEFT: 172799.88
 STEP:   7 TIME =     0.02 SECS, INTEGRAL =      0.14 TIME LEFT: 172799.85
 STEP:   8 TIME =     0.02 SECS, INTEGRAL =      0.16 TIME LEFT: 172799.83
 STEP:   9 TIME =     0.02 SECS, INTEGRAL =      0.18 TIME LEFT: 172799.81
 STEP:  10 TIME =     0.02 SECS, INTEGRAL =      0.20 TIME LEFT: 172799.79
 STEP:  11 TIME =     0.02 SECS, INTEGRAL =      0.23 TIME LEFT: 172799.77
 STEP:  12 TIME =     0.02 SECS, INTEGRAL =      0.25 TIME LEFT: 172799.75
 STEP:  13 TIME =     0.02 SECS, INTEGRAL =      0.27 TIME LEFT: 172799.72
 STEP:  14 TIME =     0.02 SECS, INTEGRAL =      0.29 TIME LEFT: 172799.70
 STEP:  15 TIME =     0.02 SECS, INTEGRAL =      0.32 TIME LEFT: 172799.68
 STEP:  16 TIME =     0.02 SECS, INTEGRAL =      0.34 TIME LEFT: 172799.66
 STEP:  17 TIME =     0.02 SECS, INTEGRAL =      0.36 TIME LEFT: 172799.64
 STEP:  18 TIME =     0.02 SECS, INTEGRAL =      0.38 TIME LEFT: 172799.62
 STEP:  19 TIME =     0.02 SECS, INTEGRAL =      0.39 TIME LEFT: 172799.60
 STEP:  20 TIME =     0.02 SECS, INTEGRAL =      0.41 TIME LEFT: 172799.58
 STEP:  21 TIME =     0.02 SECS, INTEGRAL =      0.43 TIME LEFT: 172799.56
 STEP:  22 TIME =     0.02 SECS, INTEGRAL =      0.45 TIME LEFT: 172799.54
 STEP:  23 TIME =     0.02 SECS, INTEGRAL =      0.47 TIME LEFT: 172799.52
 STEP:  24 TIME =     0.02 SECS, INTEGRAL =      0.50 TIME LEFT: 172799.50
 STEP:  25 TIME =     0.02 SECS, INTEGRAL =      0.52 TIME LEFT: 172799.48
 STEP:  26 TIME =     0.02 SECS, INTEGRAL =      0.54 TIME LEFT: 172799.46
 STEP:  27 TIME =     0.02 SECS, INTEGRAL =      0.56 TIME LEFT: 172799.43
 STEP:  28 TIME =     0.02 SECS, INTEGRAL =      0.59 TIME LEFT: 172799.41
 STEP:  29 TIME =     0.02 SECS, INTEGRAL =      0.61 TIME LEFT: 172799.39
 STEP:  30 TIME =     0.02 SECS, INTEGRAL =      0.62 TIME LEFT: 172799.37
 STEP:  31 TIME =     0.02 SECS, INTEGRAL =      0.65 TIME LEFT: 172799.35
 STEP:  32 TIME =     0.02 SECS, INTEGRAL =      0.67 TIME LEFT: 172799.33
 STEP:  33 TIME =     0.02 SECS, INTEGRAL =      0.69 TIME LEFT: 172799.30
 STEP:  34 TIME =     0.02 SECS, INTEGRAL =      0.71 TIME LEFT: 172799.29
 STEP:  35 TIME =     0.02 SECS, INTEGRAL =      0.73 TIME LEFT: 172799.26
 STEP:  36 TIME =     0.02 SECS, INTEGRAL =      0.75 TIME LEFT: 172799.24
 STEP:  37 TIME =     0.02 SECS, INTEGRAL =      0.77 TIME LEFT: 172799.22
 STEP:  38 TIME =     0.02 SECS, INTEGRAL =      0.79 TIME LEFT: 172799.21
 STEP:  39 TIME =     0.02 SECS, INTEGRAL =      0.81 TIME LEFT: 172799.18
 STEP:  40 TIME =     0.02 SECS, INTEGRAL =      0.83 TIME LEFT: 172799.16
 STEP:  41 TIME =     0.02 SECS, INTEGRAL =      0.85 TIME LEFT: 172799.14
 STEP:  42 TIME =     0.02 SECS, INTEGRAL =      0.87 TIME LEFT: 172799.12
 STEP:  43 TIME =     0.02 SECS, INTEGRAL =      0.89 TIME LEFT: 172799.10
 STEP:  44 TIME =     0.02 SECS, INTEGRAL =      0.91 TIME LEFT: 172799.09
 STEP:  45 TIME =     0.02 SECS, INTEGRAL =      0.93 TIME LEFT: 172799.07
 STEP:  46 TIME =     0.02 SECS, INTEGRAL =      0.95 TIME LEFT: 172799.05
 STEP:  47 TIME =     0.02 SECS, INTEGRAL =      0.96 TIME LEFT: 172799.03
 STEP:  48 TIME =     0.02 SECS, INTEGRAL =      0.98 TIME LEFT: 172799.01
 STEP:  49 TIME =     0.02 SECS, INTEGRAL =      1.00 TIME LEFT: 172798.99
 STEP:  50 TIME =     0.02 SECS, INTEGRAL =      1.02 TIME LEFT: 172798.97
 STEP:  51 TIME =     0.02 SECS, INTEGRAL =      1.05 TIME LEFT: 172798.95
 STEP:  52 TIME =     0.02 SECS, INTEGRAL =      1.07 TIME LEFT: 172798.93
 STEP:  53 TIME =     0.02 SECS, INTEGRAL =      1.08 TIME LEFT: 172798.91
 STEP:  54 TIME =     0.02 SECS, INTEGRAL =      1.11 TIME LEFT: 172798.89
 STEP:  55 TIME =     0.02 SECS, INTEGRAL =      1.12 TIME LEFT: 172798.87
 STEP:  56 TIME =     0.02 SECS, INTEGRAL =      1.14 TIME LEFT: 172798.86
 STEP:  57 TIME =     0.02 SECS, INTEGRAL =      1.16 TIME LEFT: 172798.83
 STEP:  58 TIME =     0.02 SECS, INTEGRAL =      1.18 TIME LEFT: 172798.81
 STEP:  59 TIME =     0.02 SECS, INTEGRAL =      1.20 TIME LEFT: 172798.80
 STEP:  60 TIME =     0.02 SECS, INTEGRAL =      1.22 TIME LEFT: 172798.77

(To convert to Hartree/Bohr^2, multiply by (10^(-21) x N x a0^2)/(4.184 x 627.51) =  0.0642)


           FORCE MATRIX IN MILLIDYNES/ANGSTROM


                  C  1       C  2       C  3       C  4       C  5       C  6
 ------------------------------------------------------------------------------
     C    1  14.923720
     C    2   0.004772  14.871242
     C    3   0.156428   5.535760  18.522561
     C    4   0.975138   0.522284   4.706146  19.657503
     C    5   0.206340   0.045880   1.164789   4.626312  19.420250
     C    6   4.892909   0.029952   0.875821  10.051864   0.957933  17.939789
     C    7   4.879773   0.002476   0.082852   0.086217   1.310451   0.686551
     C    8   0.072164   0.683547   8.856009   1.557733   1.769125   0.234359
     C    9   0.823887   0.013932   0.151008   0.699001   5.920559   0.085916
     C   10   0.091606   0.114507   1.631686   1.449227   8.788273   0.211604
     H   11   4.360775   0.001085   0.022865   0.044829   0.018338   0.407305
     H   12   4.360881   0.001132   0.022971   0.044819   0.018372   0.407152
     H   13   0.000750   4.754329   0.467944   0.045270   0.007671   0.002513
     H   14   0.001434   4.695258   0.453436   0.016044   0.006391   0.007551
     H   15   0.001486   4.686204   0.448362   0.015110   0.006401   0.006136
     H   16   0.422739   0.000874   0.004690   0.007737   0.124475   0.048363
     H   17   0.422206   0.008615   0.076572   0.460022   0.121701   4.830711
     H   18   0.123116   0.001880   0.006911   0.040125   0.441046   0.004893
     H   19   0.003305   0.006616   0.050136   0.098809   0.453477   0.008918
     H   20   0.009241   0.046688   0.451805   0.100043   0.048505   0.008344


                  C  7       C  8       C  9       C 10       H 11       H 12
 ------------------------------------------------------------------------------
     C    7  17.834188
     C    8   0.120968  17.844507
     C    9  10.059244   0.258646  18.433868
     C   10   0.209326   5.013343   0.982166  17.850126
     H   11   0.412211   0.009322   0.037877   0.010554   4.949143
     H   12   0.412268   0.009273   0.037872   0.010512   0.563560   4.949240
     H   13   0.000472   0.025290   0.002006   0.002809   0.000127   0.000163
     H   14   0.001043   0.028239   0.001693   0.015217   0.000190   0.000177
     H   15   0.001245   0.024330   0.001918   0.016063   0.000157   0.000198
     H   16   4.830693   0.010296   0.439946   0.005539   0.029208   0.029224
     H   17   0.046045   0.019697   0.007623   0.022757   0.026136   0.026042
     H   18   0.442247   0.002742   4.856183   0.011227   0.016094   0.016085
     H   19   0.005623   0.418755   0.047671   5.084712   0.001029   0.001032
     H   20   0.002140   5.061142   0.006928   0.418462   0.001503   0.001501


                  H 13       H 14       H 15       H 16       H 17       H 18
 ------------------------------------------------------------------------------
     H   13   5.453222
     H   14   0.557200   5.406974
     H   15   0.560204   0.575423   5.400012
     H   16   0.000095   0.000270   0.000275   5.206666
     H   17   0.000872   0.006736   0.004631   0.007381   5.199937
     H   18   0.000343   0.000209   0.000233   0.066431   0.001207   5.221568
     H   19   0.000593   0.000867   0.000717   0.003097   0.007530   0.005607
     H   20   0.010905   0.005277   0.005975   0.000509   0.002837   0.000653


                  H 19       H 20
 ------------------------------
     H   19   5.481513
     H   20   0.008523   5.457560


          HEAT OF FORMATION =      54.606851 KCALS/MOLE

          ZERO POINT ENERGY     105.061 KCAL/MOL


           NORMAL COORDINATE ANALYSIS (Total motion = 1 Angstrom)


   Root No.       1         2         3         4         5         6         7         8

                 1 A       2 A       3 A       4 A       5 A       6 A       7 A       8 A   

                  50.2     109.8     177.0     237.5     241.6     317.0     416.6     468.8
  
           1   -0.0002    0.0000    0.0000   -0.0326   -0.0002   -0.0000    0.0000   -0.0093
           2    0.0002   -0.0001   -0.0002    0.0202    0.0002   -0.0000   -0.0000   -0.0340
           3    0.0131   -0.0402   -0.0369   -0.0003    0.0202    0.0061    0.0046    0.0001
           4    0.0006    0.0001   -0.0002    0.0770    0.0004   -0.0002    0.0000    0.0139
           5    0.0002    0.0000   -0.0001    0.0446    0.0001    0.0002    0.0001    0.0144
           6   -0.0113    0.0477   -0.0325   -0.0002    0.0189   -0.0205   -0.0022    0.0000
           7   -0.0001   -0.0000   -0.0000    0.0018    0.0000   -0.0001   -0.0001   -0.0323
           8   -0.0002   -0.0000    0.0001   -0.0185   -0.0001    0.0001   -0.0001   -0.0247
           9    0.0008    0.0008    0.0181    0.0001   -0.0181    0.0600   -0.0051   -0.0002
          10   -0.0001   -0.0000   -0.0001   -0.0018   -0.0000   -0.0001   -0.0000   -0.0344
          11   -0.0001    0.0000    0.0002   -0.0289   -0.0000    0.0001   -0.0000    0.0356
          12    0.0007    0.0008    0.0573    0.0001    0.0187    0.0425   -0.0363   -0.0001
          13   -0.0000   -0.0000   -0.0000   -0.0003   -0.0001    0.0001    0.0000    0.0016
          14   -0.0001    0.0000    0.0001   -0.0250    0.0001    0.0000    0.0000    0.0542
          15   -0.0055    0.0029    0.0313   -0.0001    0.0571    0.0081   -0.0185    0.0000
          16   -0.0002   -0.0000   -0.0001   -0.0312   -0.0001    0.0000    0.0000   -0.0118
          17    0.0000   -0.0001    0.0001   -0.0095   -0.0002   -0.0003    0.0001    0.0203
          18    0.0134   -0.0253    0.0536    0.0002   -0.0322   -0.0485    0.0168   -0.0000
          19   -0.0001   -0.0001    0.0001   -0.0179   -0.0001    0.0001    0.0001    0.0074
          20    0.0001    0.0001   -0.0002    0.0252   -0.0001    0.0000   -0.0002   -0.0289
          21   -0.0012    0.0327   -0.0338    0.0001   -0.0456    0.0083   -0.0468    0.0002
          22   -0.0001    0.0000    0.0001   -0.0074    0.0001    0.0000   -0.0001    0.0142
          23   -0.0002   -0.0000   -0.0000   -0.0158   -0.0001    0.0001   -0.0001   -0.0369
          24    0.0029   -0.0353   -0.0255    0.0002   -0.0457    0.0284    0.0314    0.0001
          25   -0.0000   -0.0001    0.0000    0.0043   -0.0000    0.0001   -0.0001   -0.0122
          26    0.0000    0.0002    0.0000    0.0073    0.0001   -0.0000    0.0002   -0.0083
          27   -0.0094    0.0468    0.0120   -0.0000    0.0138   -0.0034    0.0680   -0.0002
          28    0.0000    0.0000    0.0001   -0.0053   -0.0000    0.0002    0.0002    0.0433
          29   -0.0001   -0.0000    0.0000   -0.0210    0.0000   -0.0001   -0.0001    0.0146
          30   -0.0023   -0.0344   -0.0104   -0.0001    0.0166   -0.0538   -0.0367    0.0000
          31    0.0003   -0.0153   -0.0669   -0.0416    0.0488    0.0527    0.0046   -0.0021
          32    0.0097   -0.0544   -0.0285    0.0262    0.0724    0.0211    0.0700   -0.0419
          33    0.0190   -0.0798   -0.0849   -0.0008    0.0868    0.0437    0.0499   -0.0011
          34   -0.0009    0.0154    0.0670   -0.0409   -0.0494   -0.0529   -0.0046   -0.0017
          35   -0.0092    0.0538    0.0278    0.0270   -0.0715   -0.0208   -0.0698   -0.0413
          36    0.0191   -0.0802   -0.0850   -0.0007    0.0872    0.0438    0.0504    0.0008
          37   -0.0158   -0.0043    0.0024    0.0500   -0.0023    0.0039    0.0002   -0.0091
          38   -0.0140    0.0001   -0.0021    0.1270    0.0017   -0.0038    0.0005    0.0863
          39    0.2566    0.1023   -0.0561   -0.0027    0.0459   -0.0552   -0.0054   -0.0006
          40   -0.1639   -0.0438    0.0255    0.1351   -0.0250    0.0424    0.0019    0.0642
          41   -0.1585   -0.0011   -0.0216    0.0317    0.0123   -0.0452    0.0023    0.0032
          42   -0.1780    0.0369   -0.0445    0.0016    0.0232   -0.0486    0.0002    0.0013
          43    0.1843    0.0490   -0.0285    0.1245    0.0292   -0.0471   -0.0020    0.0574
          44    0.1747    0.0012    0.0237    0.0379   -0.0134    0.0502   -0.0025    0.0100
          45   -0.1380    0.0427   -0.0453    0.0004    0.0251   -0.0488   -0.0003   -0.0003
          46   -0.0001   -0.0001    0.0001   -0.0161    0.0001    0.0001    0.0002    0.0064
          47    0.0002    0.0003   -0.0003    0.0431   -0.0003    0.0001   -0.0005   -0.0326
          48   -0.0045    0.0711   -0.0700    0.0004   -0.1274    0.0180   -0.1114    0.0002
          49   -0.0005   -0.0000   -0.0001   -0.0610   -0.0002    0.0001    0.0000    0.0319
          50   -0.0001   -0.0002    0.0003   -0.0214   -0.0005   -0.0007    0.0005    0.0382
          51    0.0264   -0.0408    0.0862    0.0006   -0.1026   -0.1384    0.0765   -0.0003
          52    0.0001   -0.0002   -0.0000    0.0301    0.0001    0.0001   -0.0004   -0.0619
          53    0.0000    0.0003    0.0000    0.0177    0.0001   -0.0001    0.0006   -0.0280
          54   -0.0192    0.0956    0.0216    0.0001   -0.0031   -0.0158    0.1878   -0.0008
          55    0.0001    0.0001    0.0002   -0.0116   -0.0000    0.0004    0.0003    0.1083
          56   -0.0001   -0.0001   -0.0000   -0.0213    0.0000   -0.0002   -0.0001    0.0181
          57   -0.0032   -0.0525   -0.0401   -0.0002    0.0161   -0.1535   -0.0633   -0.0000
          58   -0.0001    0.0001    0.0003   -0.0082    0.0002    0.0000   -0.0002    0.0378
          59   -0.0002   -0.0000   -0.0001   -0.0133   -0.0002    0.0000   -0.0001   -0.0857
          60    0.0077   -0.0526   -0.0769    0.0004   -0.0948    0.0328    0.1107    0.0006


   Root No.       9        10        11        12        13        14        15        16

                 9 A      10 A      11 A      12 A      13 A      14 A      15 A      16 A   

                 536.4     537.4     545.6     696.4     718.0     764.3     804.4     830.3
  
           1    0.0005    0.0569   -0.0412   -0.0005    0.0228    0.0000   -0.0313    0.0000
           2   -0.0009    0.0093   -0.0328   -0.0006    0.0263   -0.0001   -0.0455   -0.0002
           3   -0.0051    0.0004    0.0004   -0.0192   -0.0007   -0.0339    0.0001   -0.0333
           4   -0.0020   -0.0175   -0.0392    0.0007   -0.0395    0.0001    0.0221   -0.0000
           5    0.0024    0.0203    0.0434   -0.0010    0.0529   -0.0000   -0.0038   -0.0001
           6    0.0029   -0.0001    0.0000   -0.0070    0.0001    0.0007   -0.0001    0.0003
           7   -0.0028   -0.0543   -0.0248    0.0003   -0.0160   -0.0000    0.0341    0.0001
           8    0.0003   -0.0215    0.0312   -0.0003    0.0236   -0.0001    0.0236   -0.0000
           9    0.0648   -0.0043   -0.0036   -0.0390   -0.0017    0.0044    0.0001   -0.0029
          10   -0.0017   -0.0340   -0.0164   -0.0001   -0.0030    0.0000   -0.0125    0.0000
          11   -0.0015   -0.0165   -0.0280    0.0003   -0.0066   -0.0001   -0.0057    0.0001
          12   -0.0098    0.0006    0.0002    0.0701    0.0019   -0.0286   -0.0001    0.0195
          13    0.0010   -0.0156    0.0430    0.0003   -0.0110   -0.0000   -0.0293   -0.0000
          14   -0.0003    0.0022   -0.0117    0.0003   -0.0192    0.0001    0.0094    0.0000
          15   -0.0506    0.0032    0.0027   -0.0397   -0.0007    0.0463   -0.0001    0.0018
          16    0.0001    0.0375   -0.0351   -0.0004    0.0207   -0.0000   -0.0162    0.0000
          17   -0.0030   -0.0619   -0.0285    0.0002   -0.0193    0.0001   -0.0205   -0.0001
          18   -0.0096    0.0009    0.0006    0.0065    0.0004   -0.0002   -0.0000   -0.0099
          19    0.0035    0.0676    0.0383    0.0010   -0.0488    0.0001    0.0434    0.0000
          20    0.0005    0.0234   -0.0063   -0.0002    0.0056   -0.0000   -0.0019    0.0001
          21   -0.0077    0.0005    0.0004   -0.0140   -0.0005   -0.0054    0.0002    0.0207
          22   -0.0008   -0.0417    0.0110   -0.0011    0.0650   -0.0002    0.0412    0.0000
          23   -0.0002   -0.0265    0.0262    0.0002   -0.0055   -0.0000    0.0197    0.0000
          24   -0.0316    0.0019    0.0014    0.0077    0.0001    0.0020    0.0003   -0.0167
          25    0.0021    0.0059    0.0599    0.0006   -0.0300    0.0001   -0.0419   -0.0001
          26    0.0014    0.0653   -0.0223    0.0001   -0.0052   -0.0001    0.0674    0.0001
          27    0.0100   -0.0008   -0.0003   -0.0122   -0.0005   -0.0225   -0.0002    0.0175
          28    0.0002   -0.0180    0.0198   -0.0007    0.0392   -0.0001    0.0059    0.0000
          29    0.0004   -0.0035    0.0191    0.0011   -0.0591    0.0001   -0.0331   -0.0000
          30    0.0245   -0.0015   -0.0011    0.0081    0.0004    0.0098    0.0002   -0.0214
          31    0.0350    0.0341   -0.0657    0.0329    0.0378    0.0628   -0.0671    0.0848
          32    0.0435    0.0259   -0.0223    0.0656    0.0235    0.0837   -0.0324    0.0432
          33    0.0389   -0.0008   -0.0042    0.0382    0.0038    0.0482   -0.0068    0.0340
          34   -0.0368    0.0389   -0.0618   -0.0348    0.0361   -0.0629   -0.0676   -0.0851
          35   -0.0428    0.0316   -0.0178   -0.0661    0.0194   -0.0833   -0.0322   -0.0430
          36    0.0391   -0.0045    0.0001    0.0387   -0.0017    0.0487    0.0069    0.0342
          37    0.0012   -0.0405   -0.0377   -0.0028   -0.0447    0.0004    0.0534    0.0003
          38    0.0005    0.0888    0.0367    0.0025    0.0666   -0.0004   -0.0970   -0.0001
          39   -0.0302    0.0018    0.0020    0.0243    0.0009   -0.0023    0.0002   -0.0040
          40    0.0401    0.0236   -0.0533   -0.0372   -0.0481    0.0032   -0.0355    0.0036
          41   -0.0438    0.0135    0.0505    0.0414    0.0621   -0.0030    0.0086   -0.0034
          42   -0.0261    0.0030    0.0024    0.0199    0.0042   -0.0010   -0.0020   -0.0017
          43   -0.0462    0.0228   -0.0478    0.0434   -0.0468   -0.0035   -0.0267   -0.0037
          44    0.0531    0.0145    0.0454   -0.0482    0.0622    0.0033   -0.0017    0.0035
          45   -0.0262    0.0006   -0.0002    0.0200   -0.0038   -0.0011    0.0021   -0.0018
          46    0.0035    0.0642    0.0442    0.0008   -0.0531   -0.0002    0.0398    0.0001
          47    0.0013   -0.0129    0.0541    0.0012   -0.0348    0.0008   -0.0278   -0.0002
          48    0.0261   -0.0016   -0.0017    0.1511    0.0053    0.2059   -0.0006   -0.0568
          49    0.0004    0.0524   -0.0436   -0.0002    0.0058   -0.0001   -0.0080   -0.0001
          50   -0.0025   -0.0549   -0.0324   -0.0002   -0.0254    0.0009   -0.0175    0.0006
          51    0.0469   -0.0028   -0.0019   -0.0685   -0.0020    0.1754    0.0009    0.1391
          52    0.0021    0.0025    0.0699   -0.0000   -0.0151    0.0001   -0.0992    0.0001
          53    0.0017    0.0632   -0.0182    0.0005    0.0006    0.0001    0.0455   -0.0004
          54    0.0908   -0.0060   -0.0045    0.1500    0.0043    0.0368   -0.0008   -0.1477
          55   -0.0006   -0.0105   -0.0098   -0.0010    0.0529    0.0003    0.0076   -0.0004
          56    0.0006   -0.0035    0.0175    0.0012   -0.0591   -0.0001   -0.0327    0.0002
          57    0.1469   -0.0091   -0.0070    0.0431    0.0013   -0.1429   -0.0011    0.1460
          58    0.0004   -0.0298    0.0223   -0.0015    0.0810   -0.0000    0.0181   -0.0005
          59   -0.0022   -0.0528    0.0025    0.0008   -0.0379   -0.0001    0.0713    0.0004
          60   -0.1620    0.0103    0.0084    0.0449    0.0030   -0.0429   -0.0016    0.1493


   Root No.      17        18        19        20        21        22        23        24

                17 A      18 A      19 A      20 A      21 A      22 A      23 A      24 A   

                 851.9     888.8     931.6     950.1     978.1     993.0    1000.2    1011.7
  
           1   -0.0002   -0.0005    0.0001    0.0000   -0.0092   -0.0153    0.0001    0.0003
           2   -0.0002   -0.0145   -0.0000    0.0001   -0.0129   -0.0391    0.0002    0.0001
           3    0.0136   -0.0002   -0.0023    0.0294    0.0000    0.0000    0.0226   -0.0215
           4    0.0001   -0.0220   -0.0002   -0.0002   -0.0253    0.0121    0.0002    0.0002
           5   -0.0001    0.0118    0.0000   -0.0001   -0.0406    0.0073    0.0005    0.0005
           6    0.0123    0.0001   -0.0136   -0.0132   -0.0004    0.0002   -0.0223   -0.0316
           7    0.0003   -0.0075   -0.0002   -0.0002    0.0008   -0.0017   -0.0003   -0.0005
           8   -0.0001   -0.0068    0.0002    0.0001    0.0110   -0.0024    0.0001    0.0002
           9    0.0099   -0.0005    0.0032    0.0056    0.0006   -0.0002    0.0260    0.0408
          10    0.0002    0.0096   -0.0001   -0.0001   -0.0032   -0.0106   -0.0003   -0.0005
          11    0.0001    0.0328    0.0001    0.0002    0.0025    0.0115    0.0002    0.0001
          12   -0.0144    0.0003   -0.0128    0.0143   -0.0004    0.0000    0.0051   -0.0216
          13   -0.0002   -0.0138   -0.0001   -0.0000    0.0017    0.0010    0.0000   -0.0000
          14   -0.0000   -0.0416   -0.0001   -0.0001    0.0004   -0.0024   -0.0002   -0.0002
          15    0.0262   -0.0003    0.0228    0.0164   -0.0002    0.0001   -0.0145    0.0100
          16   -0.0002   -0.0181   -0.0000    0.0001    0.0120    0.0269   -0.0001   -0.0002
          17    0.0005    0.0812    0.0002   -0.0001   -0.0178   -0.0135    0.0000    0.0002
          18    0.0091   -0.0003    0.0107   -0.0403    0.0003    0.0002   -0.0210    0.0279
          19    0.0005    0.0438    0.0001   -0.0000   -0.0139   -0.0383    0.0000    0.0000
          20   -0.0001   -0.0052   -0.0000    0.0000    0.0089    0.0303   -0.0001    0.0000
          21   -0.0191    0.0003   -0.0144   -0.0004   -0.0002   -0.0000   -0.0331    0.0276
          22   -0.0000    0.0021    0.0001    0.0002    0.0257   -0.0059   -0.0000    0.0001
          23   -0.0001   -0.0138    0.0001    0.0002    0.0261   -0.0066   -0.0002   -0.0001
          24   -0.0310    0.0002    0.0404    0.0049   -0.0005    0.0001   -0.0205   -0.0200
          25   -0.0000    0.0200    0.0001    0.0001   -0.0039    0.0076    0.0001    0.0002
          26    0.0003    0.0081    0.0000   -0.0001    0.0067    0.0115   -0.0000   -0.0003
          27   -0.0166    0.0002    0.0095   -0.0311    0.0003   -0.0002    0.0309   -0.0212
          28   -0.0002   -0.0212    0.0001    0.0001    0.0027   -0.0011    0.0000    0.0001
          29   -0.0002   -0.0629   -0.0004   -0.0002    0.0050    0.0015   -0.0002   -0.0003
          30   -0.0165    0.0005   -0.0501   -0.0175    0.0005   -0.0001    0.0160    0.0028
          31   -0.0467    0.0330   -0.0254    0.0163   -0.0205    0.0149   -0.0547    0.0186
          32   -0.0062   -0.0422    0.0262   -0.0936   -0.0119   -0.0798   -0.0182    0.0432
          33   -0.0123   -0.0007    0.0017   -0.0207   -0.0044   -0.0110   -0.0145    0.0135
          34    0.0463    0.0317    0.0257   -0.0160   -0.0193    0.0144    0.0559   -0.0174
          35    0.0054   -0.0426   -0.0263    0.0933   -0.0128   -0.0799    0.0177   -0.0429
          36   -0.0122    0.0016    0.0020   -0.0214    0.0045    0.0118   -0.0146    0.0136
          37    0.0045   -0.0474   -0.0045   -0.0043   -0.0996    0.0355   -0.0048   -0.0074
          38   -0.0046    0.0868    0.0048    0.0049    0.1894   -0.0637    0.0039    0.0065
          39   -0.0258    0.0001    0.0224    0.0185   -0.0007    0.0001    0.0292    0.0411
          40    0.0456    0.0156   -0.0418   -0.0383    0.1583   -0.0376   -0.0634   -0.0874
          41   -0.0526    0.0075    0.0491    0.0456   -0.0907    0.0185    0.0742    0.1028
          42   -0.0217    0.0035    0.0184    0.0168   -0.0006   -0.0011    0.0252    0.0346
          43   -0.0509    0.0100    0.0476    0.0443    0.1375   -0.0323    0.0681    0.0958
          44    0.0579    0.0150   -0.0546   -0.0511   -0.0679    0.0124   -0.0804   -0.1127
          45   -0.0214   -0.0035    0.0181    0.0164    0.0029    0.0004    0.0247    0.0340
          46    0.0003    0.0483   -0.0001    0.0000   -0.0126   -0.0293   -0.0002    0.0002
          47    0.0004    0.0177    0.0004   -0.0001    0.0273    0.1174    0.0006   -0.0005
          48    0.1164   -0.0014    0.1010   -0.0527    0.0008   -0.0010    0.1268   -0.0893
          49    0.0003    0.0576    0.0003    0.0002    0.0408    0.1857    0.0004    0.0001
          50    0.0002    0.1147   -0.0000    0.0011   -0.0064    0.0514    0.0006   -0.0004
          51   -0.0731   -0.0003   -0.0509    0.1842   -0.0010   -0.0003    0.0508   -0.1054
          52   -0.0003    0.0662    0.0006    0.0002    0.0203    0.1493    0.0011    0.0006
          53    0.0005    0.0258   -0.0001    0.0007    0.0172    0.0703   -0.0003    0.0002
          54    0.0733   -0.0006   -0.0722    0.1688   -0.0015    0.0005   -0.1220    0.0731
          55   -0.0007   -0.1080   -0.0011   -0.0008   -0.0569    0.0003    0.0000   -0.0005
          56   -0.0000   -0.0706   -0.0000   -0.0001    0.0026    0.0015   -0.0004   -0.0004
          57    0.1156   -0.0024    0.1970    0.0736   -0.0019    0.0004   -0.0532   -0.0055
          58   -0.0008   -0.0139    0.0007    0.0002    0.0028    0.0024    0.0000    0.0002
          59    0.0008    0.0165   -0.0002    0.0003    0.0787   -0.0255   -0.0007   -0.0006
          60    0.1767   -0.0012   -0.1605   -0.0022    0.0018   -0.0004    0.0764    0.0712


   Root No.      25        26        27        28        29        30        31        32

                25 A      26 A      27 A      28 A      29 A      30 A      31 A      32 A   

                1051.5    1062.4    1064.3    1100.9    1139.2    1179.2    1201.1    1302.7
  
           1    0.0000    0.0005   -0.0083   -0.0214   -0.0004   -0.0102   -0.0007   -0.0005
           2   -0.0001   -0.0100    0.0128   -0.0179    0.0017    0.0056    0.0148    0.0017
           3   -0.0003    0.0000   -0.0001    0.0001   -0.0000   -0.0000   -0.0001   -0.0000
           4   -0.0000   -0.0141    0.0013   -0.0248   -0.0001   -0.0033    0.0046   -0.0007
           5   -0.0000    0.0043    0.0024    0.0100    0.0017    0.0062   -0.0100    0.0048
           6    0.0023   -0.0003   -0.0000   -0.0006   -0.0000   -0.0001    0.0002    0.0004
           7    0.0000    0.0095    0.0016    0.0194   -0.0009   -0.0002   -0.0058   -0.0163
           8   -0.0000   -0.0032   -0.0013   -0.0061   -0.0027   -0.0146    0.0238    0.0090
           9   -0.0042    0.0002    0.0000    0.0004    0.0000    0.0001   -0.0001   -0.0001
          10    0.0001    0.0177   -0.0099    0.0644   -0.0001    0.0072   -0.0148   -0.0029
          11   -0.0001   -0.0131    0.0173   -0.0184   -0.0024   -0.0202   -0.0120    0.0230
          12    0.0118   -0.0000   -0.0000    0.0001   -0.0000    0.0001    0.0000   -0.0001
          13    0.0001   -0.0013   -0.0091    0.0012   -0.0031    0.0279   -0.0043    0.0034
          14   -0.0000    0.0011    0.0028   -0.0071    0.0086   -0.0048   -0.0231   -0.0092
          15    0.0015    0.0000   -0.0000    0.0000   -0.0000    0.0001    0.0000    0.0000
          16   -0.0001   -0.0076    0.0237    0.0237    0.0055   -0.0130   -0.0244    0.0283
          17   -0.0001    0.0064   -0.0075    0.0117   -0.0044   -0.0012   -0.0007    0.0040
          18   -0.0406    0.0001   -0.0001    0.0000    0.0000    0.0000   -0.0000    0.0000
          19   -0.0001   -0.0046    0.0101    0.0012    0.0012   -0.0100    0.0088   -0.0089
          20    0.0002    0.0049   -0.0077    0.0029    0.0100    0.0158    0.0027    0.0230
          21    0.0385   -0.0001    0.0002   -0.0000   -0.0000   -0.0001    0.0000   -0.0001
          22   -0.0000   -0.0275   -0.0066   -0.0173    0.0028   -0.0060   -0.0028   -0.0177
          23    0.0000   -0.0011   -0.0046   -0.0136   -0.0040   -0.0090    0.0291    0.0110
          24    0.0017   -0.0001   -0.0000   -0.0001    0.0000    0.0000   -0.0000   -0.0000
          25   -0.0000   -0.0002    0.0097   -0.0181    0.0073    0.0045    0.0065    0.0270
          26    0.0002    0.0098   -0.0254    0.0182   -0.0075    0.0137   -0.0031    0.0007
          27   -0.0127   -0.0000    0.0001   -0.0001    0.0000   -0.0000    0.0000    0.0000
          28    0.0000    0.0092   -0.0007   -0.0128   -0.0000    0.0179   -0.0124    0.0063
          29    0.0001   -0.0111   -0.0211    0.0170   -0.0081    0.0093   -0.0034   -0.0206
          30   -0.0017    0.0000    0.0000   -0.0000    0.0000    0.0000   -0.0000    0.0000
          31   -0.2659    0.0599   -0.1301   -0.0866    0.0911    0.0249    0.0590   -0.0756
          32    0.2077   -0.0625    0.1137    0.0054   -0.0608   -0.0240   -0.0007   -0.0920
          33    0.0015   -0.0030    0.0023   -0.0139    0.0026   -0.0014    0.0152   -0.0773
          34    0.2680    0.0591   -0.1283   -0.0863    0.0910    0.0249    0.0590   -0.0758
          35   -0.2095   -0.0619    0.1123    0.0053   -0.0607   -0.0240   -0.0008   -0.0914
          36    0.0037    0.0036   -0.0034    0.0137   -0.0020    0.0017   -0.0150    0.0778
          37    0.0005   -0.0320    0.0036   -0.0558    0.0004   -0.0096    0.0183    0.0286
          38   -0.0003    0.0530   -0.0054    0.0956   -0.0004    0.0184   -0.0402   -0.0685
          39   -0.0031    0.0006    0.0002    0.0019    0.0001    0.0012   -0.0015   -0.0034
          40    0.0062   -0.0016   -0.0078   -0.0128   -0.0059   -0.0259    0.0486    0.0409
          41   -0.0073    0.0075    0.0055    0.0229    0.0048    0.0199   -0.0426   -0.0403
          42   -0.0023    0.0039    0.0005    0.0097    0.0009    0.0047   -0.0125   -0.0213
          43   -0.0067   -0.0026   -0.0067   -0.0136   -0.0051   -0.0240    0.0445    0.0396
          44    0.0080    0.0097    0.0044    0.0260    0.0041    0.0187   -0.0412   -0.0425
          45   -0.0023   -0.0036   -0.0005   -0.0090   -0.0009   -0.0050    0.0130    0.0213
          46   -0.0000   -0.0041    0.0173    0.0030    0.0320   -0.0276    0.0087   -0.0210
          47   -0.0006    0.0031    0.0739    0.0352    0.3101   -0.1456   -0.0073   -0.0915
          48   -0.0640    0.0001   -0.0004   -0.0001   -0.0010    0.0005    0.0000    0.0003
          49   -0.0010   -0.0650    0.1339    0.0240   -0.0466    0.1599    0.1344   -0.0825
          50    0.0001   -0.0186    0.0401    0.0120   -0.0273    0.0703    0.0656   -0.0417
          51    0.0816   -0.0003    0.0001   -0.0003    0.0001   -0.0002   -0.0002    0.0001
          52    0.0003    0.0386   -0.0446   -0.0843   -0.2308   -0.1507   -0.0618   -0.0827
          53    0.0005    0.0260   -0.0488   -0.0068   -0.1022   -0.0481   -0.0317   -0.0444
          54    0.0239   -0.0000    0.0002   -0.0001    0.0000   -0.0000   -0.0000    0.0000
          55    0.0002    0.2831    0.0820    0.0691   -0.0595   -0.0898    0.1598    0.0158
          56    0.0001    0.0034   -0.0178    0.0218   -0.0118    0.0041    0.0055   -0.0224
          57    0.0097    0.0006    0.0003    0.0000   -0.0001   -0.0002    0.0004    0.0001
          58    0.0001   -0.1161   -0.0605    0.0601   -0.0118   -0.0582    0.0699    0.0002
          59   -0.0001    0.1834    0.1073   -0.1784    0.0264    0.0993   -0.1212   -0.0302
          60   -0.0042   -0.0004   -0.0003    0.0007   -0.0001   -0.0003    0.0004    0.0001


   Root No.      33        34        35        36        37        38        39        40

                33 A      34 A      35 A      36 A      37 A      38 A      39 A      40 A   

                1342.2    1363.1    1383.5    1388.5    1390.3    1405.1    1474.4    1523.8
  
           1    0.0095    0.0356    0.0201   -0.0009    0.0094    0.0666    0.0576    0.0206
           2   -0.0220    0.0374    0.0104   -0.0031   -0.0117   -0.0522   -0.0276   -0.0285
           3    0.0001   -0.0001   -0.0000   -0.0000    0.0001    0.0003    0.0002    0.0001
           4   -0.0126   -0.0028    0.0139    0.0008   -0.0276    0.0240   -0.0467    0.0316
           5    0.0251    0.0088   -0.0341    0.0058   -0.0175   -0.0162    0.0389   -0.0296
           6    0.0010    0.0002   -0.0047   -0.0400   -0.0018    0.0011   -0.0004    0.0002
           7   -0.0298   -0.0126    0.0144   -0.0044   -0.0131   -0.0148    0.0958   -0.0843
           8    0.0019   -0.0060    0.0103   -0.0011   -0.0003   -0.0034    0.0085    0.0060
           9   -0.0002   -0.0000    0.0000   -0.0007   -0.0001    0.0001    0.0000   -0.0000
          10    0.0256    0.0075   -0.0068    0.0013    0.0026   -0.0226   -0.0221    0.0741
          11   -0.0172   -0.0252   -0.0051    0.0004   -0.0018    0.0055   -0.0110   -0.0651
          12    0.0001    0.0001    0.0000    0.0002   -0.0000   -0.0000   -0.0000    0.0003
          13    0.0123   -0.0002    0.0016    0.0007    0.0062    0.0236   -0.0154   -0.0641
          14   -0.0039   -0.0021    0.0124   -0.0030   -0.0111   -0.0425    0.0545    0.0983
          15    0.0000   -0.0000   -0.0000   -0.0000    0.0000    0.0001   -0.0001   -0.0003
          16   -0.0029   -0.0247   -0.0170    0.0021   -0.0007   -0.0222   -0.0526   -0.0177
          17    0.0152    0.0045   -0.0031    0.0016    0.0071    0.0218   -0.0123    0.0119
          18   -0.0001   -0.0000   -0.0000   -0.0001   -0.0000   -0.0001   -0.0000   -0.0001
          19   -0.0070    0.0087   -0.0028   -0.0005   -0.0046   -0.0269   -0.0188   -0.0095
          20   -0.0118   -0.0210   -0.0151    0.0023    0.0036    0.0204    0.0274    0.0363
          21    0.0000    0.0001    0.0001   -0.0000   -0.0000   -0.0001   -0.0001   -0.0001
          22   -0.0219    0.0227   -0.0620    0.0082    0.0098    0.0132   -0.0179    0.0294
          23    0.0108   -0.0082    0.0441   -0.0051   -0.0053    0.0089   -0.0312    0.0269
          24   -0.0000    0.0001   -0.0002   -0.0002    0.0000    0.0000    0.0000    0.0000
          25   -0.0220   -0.0260   -0.0121    0.0012   -0.0016    0.0029    0.0332    0.0525
          26    0.0125   -0.0030    0.0007    0.0007    0.0047    0.0165   -0.0113   -0.0208
          27   -0.0001   -0.0000   -0.0000   -0.0000   -0.0000   -0.0000    0.0001    0.0001
          28    0.0387   -0.0061    0.0656   -0.0080   -0.0071   -0.0093   -0.0161   -0.0278
          29   -0.0054    0.0209   -0.0331    0.0046    0.0086    0.0170   -0.0197   -0.0372
          30    0.0001   -0.0001    0.0002   -0.0001   -0.0000   -0.0000    0.0000   -0.0000
          31   -0.0012   -0.0955   -0.0328    0.0018   -0.0118   -0.0739   -0.0346   -0.0206
          32    0.0711   -0.1149   -0.0222    0.0053    0.0171    0.0620    0.0198    0.0172
          33    0.0437   -0.1300   -0.0374    0.0053    0.0064    0.0031   -0.0124    0.0073
          34   -0.0011   -0.0958   -0.0329    0.0016   -0.0118   -0.0739   -0.0347   -0.0206
          35    0.0708   -0.1139   -0.0219    0.0053    0.0170    0.0620    0.0199    0.0171
          36   -0.0442    0.1306    0.0375   -0.0054   -0.0065   -0.0038    0.0121   -0.0075
          37    0.0467    0.0118   -0.0327   -0.0180    0.0487   -0.0164   -0.0094    0.0088
          38   -0.1273   -0.0304    0.0804   -0.0374   -0.1652    0.0761   -0.0417    0.0195
          39   -0.0082   -0.0010    0.0424    0.3913   -0.0147   -0.0036    0.0001   -0.0004
          40    0.0718    0.0105   -0.0159    0.2329    0.1428   -0.0780    0.0880   -0.0490
          41   -0.0918   -0.0186    0.0808    0.0258    0.1752    0.0062   -0.0419    0.0223
          42   -0.0608   -0.0157    0.0727    0.0588    0.1796   -0.0089   -0.0261    0.0182
          43    0.0694    0.0097   -0.0554   -0.2222    0.1727   -0.0692    0.0760   -0.0408
          44   -0.0981   -0.0212    0.0824   -0.0450    0.1943    0.0058   -0.0413    0.0222
          45    0.0582    0.0149   -0.0583    0.0368   -0.1419   -0.0009    0.0310   -0.0207
          46   -0.0009    0.0207    0.0034   -0.0012   -0.0047   -0.0270   -0.0233   -0.0181
          47    0.0613    0.0848    0.0489   -0.0045    0.0076    0.0387   -0.0146   -0.0580
          48   -0.0002   -0.0003   -0.0002   -0.0001   -0.0000   -0.0002    0.0000    0.0002
          49   -0.0018    0.0651    0.0256   -0.0061   -0.0117   -0.0555    0.0253    0.0368
          50    0.0161    0.0430    0.0143   -0.0016    0.0035    0.0100    0.0188    0.0335
          51   -0.0001   -0.0001    0.0000    0.0013   -0.0001   -0.0001   -0.0000   -0.0002
          52    0.0118    0.0477    0.0299   -0.0062   -0.0177   -0.0799   -0.0048    0.0195
          53    0.0285    0.0269    0.0184   -0.0023   -0.0013   -0.0150   -0.0276   -0.0362
          54   -0.0001   -0.0000   -0.0000    0.0000   -0.0000   -0.0001    0.0001    0.0002
          55   -0.0458    0.0025   -0.0638    0.0093    0.0148    0.0525   -0.0395   -0.0099
          56   -0.0101    0.0237   -0.0423    0.0058    0.0103    0.0215   -0.0235   -0.0393
          57   -0.0001   -0.0000   -0.0001    0.0002   -0.0000    0.0001   -0.0001    0.0000
          58   -0.0275   -0.0032   -0.0020   -0.0002   -0.0044    0.0105   -0.0070    0.0358
          59    0.0186    0.0499   -0.0868    0.0131    0.0245    0.0189   -0.0615    0.0230
          60   -0.0001   -0.0001    0.0003    0.0006   -0.0000   -0.0000    0.0001    0.0001


   Root No.      41        42        43        44        45        46        47        48

                41 A      42 A      43 A      44 A      45 A      46 A      47 A      48 A   

                1773.6    1809.2    1857.2    1920.2    2925.3    3003.6    3051.6    3058.0
  
           1   -0.0059    0.0046   -0.0006    0.0218    0.0001    0.0236   -0.0012   -0.0021
           2    0.0103   -0.0200    0.0177    0.0028   -0.0002    0.0309   -0.0013   -0.0029
           3   -0.0000    0.0001   -0.0001    0.0000   -0.0609   -0.0001    0.0000    0.0000
           4    0.0273    0.0138    0.0045    0.0113    0.0000   -0.0000    0.0001   -0.0008
           5   -0.0394   -0.0208   -0.0069   -0.0094    0.0000   -0.0000    0.0001   -0.0009
           6    0.0002    0.0001    0.0000    0.0001   -0.0000    0.0000   -0.0001    0.0025
           7   -0.0220   -0.0040    0.0052   -0.0476    0.0000    0.0001    0.0001   -0.0003
           8    0.1600    0.0978    0.0430    0.0328   -0.0000    0.0000    0.0001   -0.0002
           9   -0.0001   -0.0001   -0.0000   -0.0001   -0.0001    0.0000   -0.0000    0.0000
          10   -0.0181    0.0085    0.0153    0.1604   -0.0000   -0.0006   -0.0005    0.0034
          11   -0.0381   -0.0076    0.0048    0.2052   -0.0000   -0.0004   -0.0003    0.0041
          12    0.0001    0.0000   -0.0000   -0.0006   -0.0003    0.0000    0.0000   -0.0000
          13    0.1045   -0.0812   -0.1349    0.0422   -0.0000    0.0003   -0.0000    0.0002
          14    0.0442   -0.0503   -0.0545   -0.0119    0.0000    0.0002    0.0002    0.0004
          15    0.0001   -0.0001   -0.0001    0.0001    0.0001   -0.0000   -0.0000   -0.0000
          16    0.0220   -0.0043   -0.0092   -0.1459    0.0000    0.0022   -0.0017    0.0186
          17    0.0228    0.0068   -0.0064   -0.1524   -0.0000   -0.0034    0.0057   -0.0560
          18   -0.0001   -0.0000    0.0000    0.0005   -0.0001    0.0000   -0.0000    0.0003
          19   -0.0234    0.0522   -0.0624   -0.0034    0.0000   -0.0040   -0.0403   -0.0037
          20   -0.0498    0.1017   -0.1171   -0.0019    0.0000    0.0010    0.0031    0.0008
          21    0.0001   -0.0003    0.0003    0.0000   -0.0001   -0.0000   -0.0001   -0.0000
          22   -0.0186   -0.0126    0.0031   -0.0087    0.0000    0.0001    0.0000   -0.0001
          23   -0.1038   -0.0802   -0.0484   -0.0348    0.0000   -0.0001   -0.0001    0.0001
          24    0.0001    0.0001    0.0001    0.0000    0.0000    0.0000   -0.0000    0.0000
          25   -0.0035   -0.0474    0.1359   -0.0138    0.0000   -0.0003    0.0113    0.0025
          26    0.0347   -0.0760    0.0948    0.0047   -0.0000   -0.0002   -0.0250   -0.0066
          27   -0.0001    0.0002   -0.0001   -0.0000   -0.0003    0.0000    0.0001    0.0000
          28   -0.0499    0.0727    0.0591   -0.0232    0.0000   -0.0002   -0.0000    0.0000
          29   -0.0430    0.0516    0.0569   -0.0243    0.0000    0.0000   -0.0001   -0.0001
          30   -0.0000    0.0001    0.0000   -0.0000   -0.0000   -0.0000    0.0000    0.0000
          31   -0.0048    0.0035   -0.0063    0.0191   -0.1746   -0.1423    0.0050    0.0148
          32    0.0044   -0.0106    0.0150   -0.0017   -0.2267   -0.1845    0.0109    0.0146
          33   -0.0035    0.0026    0.0006    0.0034    0.3694    0.3603   -0.0174   -0.0306
          34   -0.0048    0.0035   -0.0063    0.0191    0.1737   -0.1415    0.0050    0.0147
          35    0.0044   -0.0106    0.0151   -0.0018    0.2294   -0.1873    0.0110    0.0148
          36    0.0035   -0.0025   -0.0008   -0.0034    0.3679   -0.3594    0.0173    0.0305
          37   -0.0024   -0.0021   -0.0012    0.0085    0.0000    0.0000   -0.0004    0.0053
          38    0.0411    0.0230    0.0093   -0.0038   -0.0000    0.0000   -0.0001    0.0017
          39    0.0003    0.0002    0.0001    0.0000   -0.0000    0.0000   -0.0001    0.0018
          40    0.0009    0.0026    0.0018   -0.0052    0.0000    0.0000   -0.0003    0.0047
          41   -0.0159   -0.0096   -0.0038   -0.0008   -0.0000    0.0002   -0.0010    0.0167
          42    0.0067    0.0030    0.0006    0.0010    0.0000   -0.0003    0.0013   -0.0211
          43    0.0007    0.0020    0.0013   -0.0045   -0.0000   -0.0000    0.0001   -0.0021
          44   -0.0113   -0.0070   -0.0027   -0.0009    0.0000    0.0000    0.0003   -0.0082
          45   -0.0090   -0.0042   -0.0011   -0.0015    0.0000    0.0001    0.0003   -0.0111
          46   -0.0251    0.0559   -0.0672   -0.0023   -0.0000    0.0445    0.4739    0.0399
          47    0.0252   -0.0418    0.0298    0.0165   -0.0000   -0.0013   -0.0500   -0.0044
          48   -0.0001    0.0002   -0.0002   -0.0001   -0.0015    0.0001    0.0009    0.0001
          49   -0.0116   -0.0059    0.0163    0.0922   -0.0000   -0.0139    0.0274   -0.2575
          50    0.0153    0.0077    0.0038   -0.1003    0.0000    0.0409   -0.0659    0.6194
          51    0.0000   -0.0000   -0.0000    0.0005   -0.0014   -0.0002    0.0003   -0.0032
          52   -0.0092    0.0349   -0.0642   -0.0112    0.0000    0.0007   -0.1250   -0.0311
          53    0.0427   -0.0625    0.0324    0.0086   -0.0000   -0.0030    0.3047    0.0770
          54   -0.0001    0.0003   -0.0003   -0.0001   -0.0008    0.0000   -0.0012   -0.0003
          55   -0.0072   -0.0500   -0.0332    0.0048    0.0000    0.0001    0.0002    0.0001
          56   -0.0580    0.0583    0.0700   -0.0375   -0.0000   -0.0010    0.0006   -0.0013
          57    0.0001   -0.0002   -0.0002    0.0000   -0.0000    0.0000   -0.0000    0.0000
          58   -0.0827   -0.0726   -0.0338   -0.0381   -0.0000   -0.0003    0.0003   -0.0010
          59   -0.0222    0.0175    0.0217   -0.0081   -0.0000   -0.0002    0.0001   -0.0005
          60    0.0000   -0.0001   -0.0001   -0.0001    0.0000   -0.0000    0.0000   -0.0000


   Root No.      49        50        51        52        53        54

                49 A      50 A      51 A      52 A      53 A      54 A   

                3064.1    3071.7    3077.7    3136.8    3147.9    3165.0
  
           1   -0.0001    0.0014    0.0000   -0.0000    0.0001    0.0000
           2   -0.0001    0.0019    0.0000   -0.0000    0.0001   -0.0000
           3    0.0000   -0.0000   -0.0000   -0.0000   -0.0000    0.0000
           4    0.0002    0.0001   -0.0379    0.0002    0.0002   -0.0179
           5    0.0002    0.0001   -0.0334    0.0004    0.0001    0.0171
           6   -0.0550    0.0001   -0.0003    0.0001    0.0000   -0.0004
           7    0.0000    0.0000    0.0000    0.0003   -0.0006   -0.0001
           8   -0.0001    0.0000   -0.0005    0.0038    0.0028    0.0002
           9   -0.0001   -0.0000    0.0000   -0.0000   -0.0000   -0.0000
          10    0.0001   -0.0006    0.0002    0.0007    0.0009    0.0002
          11    0.0002   -0.0001   -0.0003    0.0005    0.0017    0.0000
          12   -0.0000    0.0000   -0.0000    0.0000   -0.0000    0.0000
          13   -0.0000   -0.0014    0.0000   -0.0003    0.0043    0.0000
          14    0.0000   -0.0005   -0.0000   -0.0010    0.0023    0.0000
          15   -0.0000   -0.0000    0.0000    0.0000    0.0000    0.0000
          16    0.0007   -0.0012   -0.0003   -0.0001   -0.0003    0.0001
          17   -0.0021    0.0034    0.0009   -0.0002   -0.0005   -0.0003
          18    0.0000   -0.0000   -0.0000    0.0000    0.0000    0.0000
          19    0.0000    0.0317    0.0001    0.0001   -0.0001    0.0000
          20    0.0000    0.0017   -0.0000    0.0001   -0.0001    0.0000
          21   -0.0000    0.0000   -0.0000   -0.0000    0.0000   -0.0000
          22   -0.0001    0.0000   -0.0007   -0.0498   -0.0223    0.0006
          23    0.0000    0.0000    0.0003   -0.0265   -0.0110    0.0000
          24   -0.0002    0.0000    0.0000   -0.0001   -0.0000   -0.0000
          25    0.0001    0.0130    0.0000   -0.0000   -0.0003   -0.0000
          26   -0.0003   -0.0427   -0.0000   -0.0000    0.0001   -0.0000
          27   -0.0000    0.0002    0.0000   -0.0000   -0.0000   -0.0000
          28    0.0000    0.0004    0.0001    0.0003    0.0009   -0.0000
          29   -0.0000    0.0000   -0.0000    0.0232   -0.0572    0.0001
          30   -0.0000    0.0000    0.0000   -0.0000    0.0001    0.0000
          31    0.0005   -0.0064   -0.0002    0.0000   -0.0002    0.0000
          32    0.0005   -0.0104   -0.0002   -0.0000   -0.0003   -0.0000
          33   -0.0010    0.0181    0.0003   -0.0000    0.0006   -0.0000
          34    0.0005   -0.0063   -0.0002    0.0000   -0.0002    0.0000
          35    0.0004   -0.0106   -0.0002   -0.0000   -0.0003   -0.0000
          36    0.0009   -0.0181   -0.0003    0.0000   -0.0006    0.0000
          37    0.0348   -0.0012    0.4104   -0.0003    0.0007    0.3183
          38    0.0129   -0.0004    0.1442   -0.0007    0.0000    0.1294
          39   -0.0249   -0.0000    0.0349    0.0000    0.0001    0.0266
          40   -0.0832    0.0001    0.0372   -0.0011   -0.0006   -0.0680
          41   -0.2610    0.0001    0.1573   -0.0042   -0.0023   -0.1818
          42    0.3049    0.0001   -0.2236    0.0054    0.0030    0.2428
          43    0.0451   -0.0001    0.0022   -0.0005   -0.0003   -0.0365
          44    0.2464   -0.0008    0.0985   -0.0037   -0.0020   -0.1517
          45    0.3793   -0.0015    0.1922   -0.0063   -0.0033   -0.2650
          46   -0.0005   -0.3388   -0.0007   -0.0003    0.0001   -0.0001
          47    0.0000    0.0316    0.0001    0.0000    0.0000    0.0000
          48    0.0000   -0.0006   -0.0000   -0.0000    0.0000    0.0000
          49   -0.0099    0.0143    0.0044   -0.0002   -0.0005   -0.0015
          50    0.0234   -0.0345   -0.0096    0.0004    0.0012    0.0027
          51   -0.0005    0.0002    0.0001   -0.0000   -0.0000   -0.0001
          52   -0.0013   -0.1803   -0.0002   -0.0001    0.0002   -0.0000
          53    0.0031    0.4541    0.0005    0.0005   -0.0014    0.0000
          54   -0.0000   -0.0018   -0.0000   -0.0000    0.0000   -0.0000
          55    0.0000    0.0003   -0.0000    0.0122   -0.0341    0.0001
          56   -0.0001    0.0016    0.0000   -0.2673    0.6279   -0.0010
          57    0.0000   -0.0000   -0.0000    0.0004   -0.0010   -0.0000
          58    0.0007    0.0001    0.0050    0.5682    0.2403   -0.0062
          59    0.0004    0.0000    0.0031    0.2720    0.1125   -0.0024
          60    0.0004   -0.0000   -0.0000    0.0011    0.0005   -0.0000


           MASS-WEIGHTED COORDINATE ANALYSIS (NORMAL COORDINATES)


   Root No.       1         2         3         4         5         6         7         8

                 1 A       2 A       3 A       4 A       5 A       6 A       7 A       8 A   

                  50.2     109.8     177.0     237.5     241.6     317.0     416.6     468.8
  
           1   -0.0016    0.0000    0.0004   -0.2321   -0.0014   -0.0003    0.0002   -0.0690
           2    0.0011   -0.0012   -0.0014    0.1434    0.0013   -0.0003   -0.0002   -0.2535
           3    0.0920   -0.3269   -0.2866   -0.0018    0.1577    0.0452    0.0339    0.0009
           4    0.0039    0.0007   -0.0015    0.5475    0.0030   -0.0015    0.0002    0.1038
           5    0.0015    0.0003   -0.0006    0.3172    0.0009    0.0014    0.0004    0.1071
           6   -0.0791    0.3879   -0.2527   -0.0014    0.1478   -0.1528   -0.0159    0.0001
           7   -0.0005   -0.0001   -0.0002    0.0130    0.0002   -0.0011   -0.0005   -0.2405
           8   -0.0016   -0.0001    0.0004   -0.1317   -0.0008    0.0009   -0.0007   -0.1843
           9    0.0058    0.0065    0.1405    0.0008   -0.1412    0.4471   -0.0374   -0.0016
          10   -0.0006   -0.0002   -0.0005   -0.0129   -0.0004   -0.0006   -0.0002   -0.2565
          11   -0.0007    0.0001    0.0013   -0.2056   -0.0002    0.0004   -0.0003    0.2652
          12    0.0046    0.0063    0.4459    0.0008    0.1460    0.3165   -0.2689   -0.0006
          13   -0.0002   -0.0002   -0.0001   -0.0018   -0.0009    0.0006    0.0001    0.0118
          14   -0.0008    0.0001    0.0007   -0.1778    0.0006    0.0000    0.0003    0.4044
          15   -0.0386    0.0235    0.2431   -0.0010    0.4464    0.0601   -0.1371    0.0002
          16   -0.0017   -0.0001   -0.0004   -0.2222   -0.0009    0.0001    0.0000   -0.0878
          17    0.0002   -0.0007    0.0011   -0.0673   -0.0013   -0.0024    0.0010    0.1515
          18    0.0936   -0.2053    0.4168    0.0017   -0.2519   -0.3615    0.1246   -0.0003
          19   -0.0009   -0.0007    0.0006   -0.1276   -0.0004    0.0005    0.0006    0.0552
          20    0.0009    0.0010   -0.0012    0.1793   -0.0005    0.0001   -0.0017   -0.2156
          21   -0.0082    0.2653   -0.2626    0.0007   -0.3568    0.0614   -0.3463    0.0016
          22   -0.0005    0.0003    0.0010   -0.0524    0.0005    0.0002   -0.0005    0.1058
          23   -0.0012   -0.0004   -0.0000   -0.1121   -0.0010    0.0005   -0.0005   -0.2753
          24    0.0200   -0.2871   -0.1985    0.0015   -0.3570    0.2112    0.2324    0.0010
          25   -0.0000   -0.0007    0.0001    0.0308   -0.0003    0.0008   -0.0010   -0.0907
          26    0.0002    0.0013    0.0001    0.0519    0.0005   -0.0002    0.0016   -0.0622
          27   -0.0659    0.3804    0.0930   -0.0003    0.1077   -0.0253    0.5033   -0.0014
          28    0.0001    0.0004    0.0007   -0.0378   -0.0003    0.0015    0.0011    0.3229
          29   -0.0010   -0.0004    0.0002   -0.1493    0.0000   -0.0006   -0.0006    0.1087
          30   -0.0160   -0.2798   -0.0811   -0.0004    0.1298   -0.4008   -0.2718    0.0003
          31    0.0006   -0.0361   -0.1506   -0.0857    0.1104    0.1136    0.0098   -0.0045
          32    0.0196   -0.1280   -0.0641    0.0539    0.1639    0.0456    0.1502   -0.0905
          33    0.0386   -0.1878   -0.1913   -0.0016    0.1965    0.0944    0.1070   -0.0023
          34   -0.0018    0.0363    0.1510   -0.0843   -0.1118   -0.1142   -0.0098   -0.0036
          35   -0.0187    0.1266    0.0625    0.0557   -0.1619   -0.0450   -0.1496   -0.0891
          36    0.0388   -0.1887   -0.1914   -0.0014    0.1975    0.0944    0.1082    0.0017
          37   -0.0321   -0.0101    0.0053    0.1030   -0.0051    0.0084    0.0003   -0.0197
          38   -0.0284    0.0003   -0.0048    0.2616    0.0038   -0.0082    0.0010    0.1863
          39    0.5207    0.2408   -0.1264   -0.0056    0.1039   -0.1191   -0.0116   -0.0012
          40   -0.3326   -0.1030    0.0574    0.2783   -0.0565    0.0916    0.0041    0.1387
          41   -0.3216   -0.0026   -0.0486    0.0654    0.0279   -0.0974    0.0050    0.0070
          42   -0.3612    0.0868   -0.1002    0.0034    0.0526   -0.1048    0.0004    0.0029
          43    0.3739    0.1153   -0.0643    0.2565    0.0661   -0.1017   -0.0043    0.1240
          44    0.3546    0.0028    0.0533    0.0781   -0.0304    0.1082   -0.0053    0.0215
          45   -0.2800    0.1006   -0.1021    0.0008    0.0569   -0.1052   -0.0007   -0.0007
          46   -0.0002   -0.0003    0.0003   -0.0331    0.0002    0.0001    0.0004    0.0138
          47    0.0004    0.0006   -0.0006    0.0887   -0.0006    0.0002   -0.0010   -0.0705
          48   -0.0090    0.1674   -0.1577    0.0008   -0.2884    0.0387   -0.2390    0.0005
          49   -0.0011   -0.0001   -0.0002   -0.1256   -0.0004    0.0003    0.0001    0.0690
          50   -0.0002   -0.0004    0.0006   -0.0441   -0.0012   -0.0016    0.0010    0.0824
          51    0.0536   -0.0961    0.1942    0.0011   -0.2323   -0.2986    0.1640   -0.0007
          52    0.0002   -0.0004   -0.0000    0.0620    0.0002    0.0003   -0.0008   -0.1337
          53    0.0001    0.0008    0.0001    0.0364    0.0001   -0.0002    0.0013   -0.0604
          54   -0.0389    0.2250    0.0486    0.0001   -0.0071   -0.0340    0.4027   -0.0017
          55    0.0001    0.0002    0.0004   -0.0240   -0.0000    0.0009    0.0007    0.2340
          56   -0.0003   -0.0002   -0.0001   -0.0439    0.0000   -0.0005   -0.0003    0.0391
          57   -0.0066   -0.1236   -0.0903   -0.0003    0.0365   -0.3310   -0.1358   -0.0001
          58   -0.0002    0.0002    0.0006   -0.0168    0.0004    0.0001   -0.0005    0.0817
          59   -0.0003   -0.0001   -0.0002   -0.0274   -0.0004    0.0001   -0.0001   -0.1851
          60    0.0157   -0.1238   -0.1732    0.0008   -0.2148    0.0708    0.2373    0.0013


   Root No.       9        10        11        12        13        14        15        16

                 9 A      10 A      11 A      12 A      13 A      14 A      15 A      16 A   

                 536.4     537.4     545.6     696.4     718.0     764.3     804.4     830.3
  
           1    0.0042    0.3317   -0.2714   -0.0038    0.1478    0.0003   -0.2091    0.0000
           2   -0.0069    0.0544   -0.2164   -0.0051    0.1702   -0.0011   -0.3038   -0.0015
           3   -0.0414    0.0022    0.0026   -0.1550   -0.0044   -0.2757    0.0007   -0.3019
[...]
 EFFECTIVE MASS      1.6886
 FORCE CONSTANT      0.4766

 VIBRATION         37   37A           ATOM PAIR      ENERGY CONTRIBUTION    RADIAL
 FREQUENCY          1390.28         C  2 -- H 15         +33.9% ( 53.5%)      1.1%
 TRANSITION DIPOLE   0.0616         C  2 -- H 14         +32.3% ( 52.2%)      1.4%
 TRAVEL (Ang.)       0.3744         C  2 -- H 13         +11.6% ( 31.3%)     32.0%
 REDUCED MASS        0.3460         C  2 -- C  3          +4.4% ( 19.2%)      2.3%
 EFFECTIVE MASS      2.0050
 FORCE CONSTANT      0.3940

 VIBRATION         38   38A           ATOM PAIR      ENERGY CONTRIBUTION    RADIAL
 FREQUENCY          1405.11         C  1 -- C  7         +15.5% ( 61.9%)     72.0%
 TRANSITION DIPOLE   0.1455         C  1 -- C  6         +14.8% ( 60.6%)     68.0%
 TRAVEL (Ang.)       0.1500         C  1 -- H 11         +12.9% ( 56.5%)      0.0%
 REDUCED MASS        2.1334         C  1 -- H 12         +12.9% ( 56.5%)      0.0%
 EFFECTIVE MASS      9.2950
 FORCE CONSTANT      2.4817

 VIBRATION         39   39A           ATOM PAIR      ENERGY CONTRIBUTION    RADIAL
 FREQUENCY          1474.39         C  2 -- C  3         +13.9% ( 59.6%)     63.5%
 TRANSITION DIPOLE   0.4935         C  3 -- C  8         +11.0% ( 53.0%)     25.9%
 TRAVEL (Ang.)       0.1604         C  3 -- C  4         +10.3% ( 51.4%)     99.7%
 REDUCED MASS        1.7766         C  1 -- C  6          +8.4% ( 46.3%)     99.8%
 EFFECTIVE MASS     11.0659
 FORCE CONSTANT      2.2754

 VIBRATION         40   40A           ATOM PAIR      ENERGY CONTRIBUTION    RADIAL
 FREQUENCY          1523.84         C  4 -- C  5         +16.0% ( 67.4%)     90.4%
 TRANSITION DIPOLE   0.2955         C  5 -- C  9         +11.4% ( 56.9%)     60.3%
 TRAVEL (Ang.)       0.1412         C  3 -- C  4         +10.7% ( 55.1%)     74.0%
 REDUCED MASS        2.2184         C  5 -- C 10          +9.4% ( 51.6%)     18.8%
 EFFECTIVE MASS     11.7444
 FORCE CONSTANT      3.0350

 VIBRATION         41   41A           ATOM PAIR      ENERGY CONTRIBUTION    RADIAL
 FREQUENCY          1773.62         C  3 -- C  8         +20.8% ( 75.4%)     95.6%
 TRANSITION DIPOLE   1.2746         C  2 -- C  3         +12.2% ( 57.8%)     79.6%
 TRAVEL (Ang.)       0.1156         C  3 -- C  4         +10.9% ( 54.6%)      0.9%
 REDUCED MASS        2.8428         C  5 -- C 10          +9.9% ( 51.9%)     96.2%
 EFFECTIVE MASS     11.9674
 FORCE CONSTANT      5.2690

 VIBRATION         42   42A           ATOM PAIR      ENERGY CONTRIBUTION    RADIAL
 FREQUENCY          1809.24         C  7 -- C  9         +15.3% ( 61.9%)     98.6%
 TRANSITION DIPOLE   0.2238         C  5 -- C 10         +11.8% ( 54.5%)     98.4%
 TRAVEL (Ang.)       0.1407         C  3 -- C  8         +11.0% ( 52.4%)     97.8%
 REDUCED MASS        1.8823         C  5 -- C  8          +7.2% ( 42.4%)     79.6%
 EFFECTIVE MASS     11.8540
 FORCE CONSTANT      3.6301

 VIBRATION         43   43A           ATOM PAIR      ENERGY CONTRIBUTION    RADIAL
 FREQUENCY          1857.17         C  7 -- C  9         +21.8% ( 73.6%)     98.5%
 TRANSITION DIPOLE   0.5459         C  5 -- C  9         +19.1% ( 68.8%)     66.4%
 TRAVEL (Ang.)       0.1105         C  5 -- C 10         +13.1% ( 57.1%)     96.5%
 REDUCED MASS        2.9731         C  9 -- H 18          +8.3% ( 45.5%)      1.6%
 EFFECTIVE MASS     11.9004
 FORCE CONSTANT      6.0418

 VIBRATION         44   44A           ATOM PAIR      ENERGY CONTRIBUTION    RADIAL
 FREQUENCY          1920.22         C  4 -- C  6         +30.5% ( 95.1%)     99.3%
 TRANSITION DIPOLE   2.2677         C  3 -- C  4         +13.4% ( 63.1%)     70.1%
 TRAVEL (Ang.)       0.0818         C  4 -- C  5         +12.8% ( 61.6%)     40.1%
 REDUCED MASS        5.2520         C  4 -- C  8         +12.8% ( 61.6%)     94.3%
 EFFECTIVE MASS     11.9395         C  4 -- C 10         +12.7% ( 61.4%)     79.7%
 FORCE CONSTANT     11.4097

 VIBRATION         45   45A           ATOM PAIR      ENERGY CONTRIBUTION    RADIAL
 FREQUENCY          2925.32         C  1 -- H 11         +49.0% ( 72.6%)     96.6%
 TRANSITION DIPOLE   0.1197         C  1 -- H 12         +48.9% ( 72.5%)     96.6%
 TRAVEL (Ang.)       0.2111         C  1 -- C  7          +1.1% ( 10.7%)      0.0%
 REDUCED MASS        0.5172         C  1 -- C  6          +1.1% ( 10.7%)      0.0%
 EFFECTIVE MASS      1.5324
 FORCE CONSTANT      2.6074

 VIBRATION         46   46A           ATOM PAIR      ENERGY CONTRIBUTION    RADIAL
 FREQUENCY          3003.57         C  1 -- H 12         +48.8% ( 68.9%)     97.8%
 TRANSITION DIPOLE   0.2381         C  1 -- H 11         +48.7% ( 68.8%)     97.7%
 TRAVEL (Ang.)       0.2177         C  1 -- C  7          +0.7% (  8.0%)     20.6%
 REDUCED MASS        0.4737         C  1 -- C  6          +0.7% (  8.0%)     20.2%
 EFFECTIVE MASS      1.2804
 FORCE CONSTANT      2.5179

 VIBRATION         47   47A           ATOM PAIR      ENERGY CONTRIBUTION    RADIAL
 FREQUENCY          3051.65         C  7 -- H 16         +64.8% ( 81.7%)    100.0%
 TRANSITION DIPOLE   0.2991         C  9 -- H 18         +31.0% ( 56.5%)    100.0%
 TRAVEL (Ang.)       0.2091         C  6 -- H 17          +1.5% ( 12.2%)    100.0%
 REDUCED MASS        0.5056         C  7 -- C  9          +1.1% ( 10.7%)      1.7%
 EFFECTIVE MASS      1.4644
 FORCE CONSTANT      2.7740

 VIBRATION         48   48A           ATOM PAIR      ENERGY CONTRIBUTION    RADIAL
 FREQUENCY          3057.95         C  6 -- H 17         +94.4% ( 98.6%)    100.0%
 TRANSITION DIPOLE   0.3468         C  4 -- C  6          +1.6% ( 12.7%)     41.2%
 TRAVEL (Ang.)       0.1582         C  9 -- H 18          +1.4% ( 12.2%)    100.0%
 REDUCED MASS        0.8814         C  1 -- C  6          +1.4% ( 12.1%)     20.2%
 EFFECTIVE MASS      1.5273
 FORCE CONSTANT      4.8560

 VIBRATION         49   49A           ATOM PAIR      ENERGY CONTRIBUTION    RADIAL
 FREQUENCY          3064.13         C  2 -- H 15         +53.7% ( 75.6%)     97.6%
 TRANSITION DIPOLE   0.0236         C  2 -- H 14         +43.9% ( 68.4%)     96.2%
 TRAVEL (Ang.)       0.2078         C  2 -- H 13          +1.2% ( 11.5%)      8.2%
 REDUCED MASS        0.5095         C  2 -- C  3          +1.0% ( 10.2%)      0.0%
 EFFECTIVE MASS      1.5021
 FORCE CONSTANT      2.8183

 VIBRATION         50   50A           ATOM PAIR      ENERGY CONTRIBUTION    RADIAL
 FREQUENCY          3071.72         C  9 -- H 18         +64.5% ( 81.5%)    100.0%
 TRANSITION DIPOLE   0.3285         C  7 -- H 16         +31.2% ( 56.7%)     99.9%
 TRAVEL (Ang.)       0.2065         C  7 -- C  9          +2.0% ( 14.3%)     94.7%
 REDUCED MASS        0.5147         C  5 -- C  9          +1.1% ( 10.6%)     18.5%
 EFFECTIVE MASS      1.5880
 FORCE CONSTANT      2.8614

 VIBRATION         51   51A           ATOM PAIR      ENERGY CONTRIBUTION    RADIAL
 FREQUENCY          3077.72         C  2 -- H 13         +60.0% ( 79.9%)     98.7%
 TRANSITION DIPOLE   0.0365         C  2 -- H 14         +24.0% ( 50.5%)     89.3%
 TRAVEL (Ang.)       0.2156         C  2 -- H 15         +14.9% ( 39.9%)     81.6%
 REDUCED MASS        0.4713         C  2 -- C  3          +1.0% ( 10.5%)      0.0%
 EFFECTIVE MASS      1.5133
 FORCE CONSTANT      2.6302

 VIBRATION         52   52A           ATOM PAIR      ENERGY CONTRIBUTION    RADIAL
 FREQUENCY          3136.78         C  8 -- H 20         +79.4% ( 92.1%)    100.0%
 TRANSITION DIPOLE   0.2563         C 10 -- H 19         +14.3% ( 39.1%)    100.0%
 TRAVEL (Ang.)       0.1765         C  8 -- C 10          +1.6% ( 13.0%)      6.0%
 REDUCED MASS        0.6901         C  3 -- C  8          +1.5% ( 12.5%)     45.6%
 EFFECTIVE MASS      1.5443
 FORCE CONSTANT      4.0006

 VIBRATION         53   53A           ATOM PAIR      ENERGY CONTRIBUTION    RADIAL
 FREQUENCY          3147.93         C 10 -- H 19         +80.0% ( 92.0%)    100.0%
 TRANSITION DIPOLE   0.5514         C  8 -- H 20         +14.3% ( 38.8%)    100.0%
 TRAVEL (Ang.)       0.1761         C  8 -- C 10          +1.8% ( 13.7%)     71.4%
 REDUCED MASS        0.6905         C  5 -- C 10          +1.6% ( 12.8%)     48.3%
 EFFECTIVE MASS      1.5842
 FORCE CONSTANT      4.0316

 VIBRATION         54   54A           ATOM PAIR      ENERGY CONTRIBUTION    RADIAL
 FREQUENCY          3165.04         C  2 -- H 13         +38.7% ( 59.9%)     97.8%
 TRANSITION DIPOLE   0.0608         C  2 -- H 14         +30.9% ( 53.5%)     96.7%
 TRAVEL (Ang.)       0.2539         C  2 -- H 15         +30.1% ( 52.9%)     96.6%
 REDUCED MASS        0.3305         C  2 -- C  3          +0.3% (  5.5%)     99.0%
 EFFECTIVE MASS      1.1402
 FORCE CONSTANT      1.9507

      SYMMETRY NUMBER FOR POINT-GROUP C1  =  1


          SYSTEM IS A GROUND STATE



 InChI=1S/C10H10/c1-8-6-7-9-4-2-3-5-10(8)9/h2,4-7H,3H2,1H3


          MOLECULE IS NOT LINEAR

          THERE ARE 54 GENUINE VIBRATIONS IN THIS SYSTEM
          THIS THERMODYNAMICS CALCULATION IS LIMITED TO
          MOLECULES WHICH HAVE NO INTERNAL ROTATIONS




                    CALCULATED THERMODYNAMIC PROPERTIES
                                          *
   TEMP. (K)   PARTITION FUNCTION   H.O.F.    ENTHALPY  HEAT CAPACITY ENTROPY
                                   KCAL/MOL   CAL/MOLE    CAL/K/MOL  CAL/K/MOL


 298.00  VIB.     0.1125D+03                  3600.3806    27.2791    21.4669
         ROT.     0.5317D+06                   888.2803     2.9808    29.1796
         INT.     0.5980D+08                  4488.6609    30.2599    50.6465
         TRA.     0.1436D+28                  1480.4672     4.9680    40.5022
         TOT.                       54.607    5969.1280    35.2279    91.1487

 200.00  VIB.     0.1664D+02                  1477.4138    16.2700    12.9741
         ROT.     0.2923D+06                   596.1613     2.9808    27.9910
         INT.     0.4863D+07                  2073.5750    19.2509    40.9651
         TRA.     0.7896D+27                   993.6021     4.9680    38.5210
         TOT.                       51.705    3067.1772    24.2189    79.4861

 210.00  VIB.     0.2005D+02                  1645.3188    17.3153    13.7931
         ROT.     0.3145D+06                   625.9693     2.9808    28.1364
         INT.     0.6307D+07                  2271.2882    20.2961    41.9295
         TRA.     0.8496D+27                  1043.2822     4.9680    38.7634
         TOT.                       51.952    3314.5704    25.2641    80.6929

 220.00  VIB.     0.2422D+02                  1823.8031    18.3855    14.6232
         ROT.     0.3372D+06                   655.7774     2.9808    28.2751
         INT.     0.8167D+07                  2479.5805    21.3663    42.8983
         TRA.     0.9110D+27                  1092.9623     4.9680    38.9945
         TOT.                       52.210    3572.5428    26.3343    81.8928

 230.00  VIB.     0.2930D+02                  2013.1047    19.4783    15.4645
         ROT.     0.3605D+06                   685.5855     2.9808    28.4076
         INT.     0.1056D+08                  2698.6902    22.4591    43.8721
         TRA.     0.9738D+27                  1142.6424     4.9680    39.2154
         TOT.                       52.479    3841.3326    27.4272    83.0875

 240.00  VIB.     0.3552D+02                  2213.4359    20.5910    16.3170
         ROT.     0.3843D+06                   715.3935     2.9808    28.5344
         INT.     0.1365D+08                  2928.8294    23.5718    44.8514
         TRA.     0.1038D+28                  1192.3226     4.9680    39.4268
         TOT.                       52.759    4121.1520    28.5398    84.2782

 250.00  VIB.     0.4313D+02                  2424.9803    21.7205    17.1804
         ROT.     0.4085D+06                   745.2016     2.9808    28.6561
         INT.     0.1762D+08                  3170.1819    24.7013    45.8365
         TRA.     0.1103D+28                  1242.0027     4.9680    39.6296
         TOT.                       53.050    4412.1845    29.6693    85.4661

 260.00  VIB.     0.5248D+02                  2647.8909    22.8637    18.0545
         ROT.     0.4333D+06                   775.0097     2.9808    28.7730
         INT.     0.2274D+08                  3422.9005    25.8445    46.8275
         TRA.     0.1170D+28                  1291.6828     4.9680    39.8245
         TOT.                       53.352    4714.5833    30.8125    86.6520

 270.00  VIB.     0.6398D+02                  2882.2896    24.0176    18.9390
         ROT.     0.4585D+06                   804.8177     2.9808    28.8855
         INT.     0.2933D+08                  3687.1074    26.9984    47.8245
         TRA.     0.1239D+28                  1341.3629     4.9680    40.0120
         TOT.                       53.666    5028.4702    31.9664    87.8365

 280.00  VIB.     0.7813D+02                  3128.2674    25.1790    19.8334
         ROT.     0.4842D+06                   834.6258     2.9808    28.9939
         INT.     0.3783D+08                  3962.8932    28.1598    48.8274
         TRA.     0.1308D+28                  1391.0430     4.9680    40.1926
         TOT.                       53.992    5353.9362    33.1278    89.0200

 290.00  VIB.     0.9559D+02                  3385.8845    26.3450    20.7373
         ROT.     0.5104D+06                   864.4339     2.9808    29.0985
         INT.     0.4879D+08                  4250.3184    29.3258    49.8359
         TRA.     0.1379D+28                  1440.7231     4.9680    40.3670
         TOT.                       54.329    5691.0415    34.2938    90.2028

 300.00  VIB.     0.1172D+03                  3655.1723    27.5127    21.6501
         ROT.     0.5370D+06                   894.2419     2.9808    29.1996
         INT.     0.6292D+08                  4549.4143    30.4935    50.8497
         TRA.     0.1451D+28                  1490.4032     4.9680    40.5354
         TOT.                       54.678    6039.8175    35.4615    91.3851

 310.00  VIB.     0.1439D+03                  3936.1346    28.6794    22.5713
         ROT.     0.5641D+06                   924.0500     2.9808    29.2973
         INT.     0.8115D+08                  4860.1846    31.6602    51.8686
         TRA.     0.1524D+28                  1540.0833     4.9680    40.6983
         TOT.                       55.038    6400.2679    36.6282    92.5669

 320.00  VIB.     0.1769D+03                  4228.7495    29.8428    23.5002
         ROT.     0.5916D+06                   953.8580     2.9808    29.3920
         INT.     0.1047D+09                  5182.6075    32.8236    52.8922
         TRA.     0.1598D+28                  1589.7634     4.9680    40.8560
         TOT.                       55.410    6772.3709    37.7916    93.7482

 330.00  VIB.     0.2180D+03                  4532.9716    31.0005    24.4363
         ROT.     0.6196D+06                   983.6661     2.9808    29.4837
         INT.     0.1351D+09                  5516.6377    33.9813    53.9200
         TRA.     0.1674D+28                  1639.4435     4.9680    41.0089
         TOT.                       55.794    7156.0812    38.9493    94.9289

 340.00  VIB.     0.2690D+03                  4848.7341    32.1506    25.3788
         ROT.     0.6479D+06                  1013.4742     2.9808    29.5727
         INT.     0.1743D+09                  5862.2083    35.1314    54.9515
         TRA.     0.1750D+28                  1689.1236     4.9680    41.1572
         TOT.                       56.189    7551.3319    40.0994    96.1087

 350.00  VIB.     0.3325D+03                  5175.9510    33.2911    26.3273
         ROT.     0.6767D+06                  1043.2822     2.9808    29.6591
         INT.     0.2250D+09                  6219.2333    36.2719    55.9863
         TRA.     0.1828D+28                  1738.8037     4.9680    41.3012
         TOT.                       56.596    7958.0370    41.2399    97.2876

 360.00  VIB.     0.4116D+03                  5514.5193    34.4206    27.2810
         ROT.     0.7059D+06                  1073.0903     2.9808    29.7430
         INT.     0.2905D+09                  6587.6096    37.4014    57.0240
         TRA.     0.1907D+28                  1788.4838     4.9680    41.4412
         TOT.                       57.014    8376.0934    42.3694    98.4652

 370.00  VIB.     0.5102D+03                  5864.3208    35.5375    28.2393
         ROT.     0.7356D+06                  1102.8984     2.9808    29.8247
         INT.     0.3753D+09                  6967.2191    38.5184    58.0640
         TRA.     0.1987D+28                  1838.1639     4.9680    41.5773
         TOT.                       57.443    8805.3831    43.4864    99.6413

 380.00  VIB.     0.6334D+03                  6225.2245    36.6408    29.2017
         ROT.     0.7656D+06                  1132.7064     2.9808    29.9042
         INT.     0.4849D+09                  7357.9309    39.6216    59.1059
         TRA.     0.2068D+28                  1887.8440     4.9680    41.7098
         TOT.                       57.883    9245.7750    44.5897   100.8157

 390.00  VIB.     0.7873D+03                  6597.0884    37.7294    30.1676
         ROT.     0.7960D+06                  1162.5145     2.9808    29.9816
         INT.     0.6267D+09                  7759.6029    40.7102    60.1492
         TRA.     0.2150D+28                  1937.5242     4.9680    41.8388
         TOT.                       58.335    9697.1271    45.6782   101.9881

 400.00  VIB.     0.9800D+03                  6979.7611    38.8025    31.1364
         ROT.     0.8268D+06                  1192.3226     2.9808    30.0571
         INT.     0.8103D+09                  8172.0836    41.7833    61.1935
         TRA.     0.2233D+28                  1987.2043     4.9680    41.9646
         TOT.                       58.797   10159.2879    46.7513   103.1581

   *: NOTE: HEATS OF FORMATION ARE RELATIVE TO THE
            ELEMENTS IN THEIR STANDARD STATE AT 298K
              (=  Standard Enthalpy of Formation).

            Hvib:  Zero-point energy is not included.
                   frequencies of less than zero cm-1 are not included.
            Hrot = (3/2)RT
            Htra = (3/2)RT + pV = (5/2)RT

            Heat capacity is Cp, not Cv

          For more information, see: HTTP://OpenMOPAC.net/Manual/thermochemistry.html


           FORCE CONSTANT IN CARTESIAN COORDINATES (Millidynes/A)

    ATOM   CHEMICAL       X               Y               Z
   NUMBER   SYMBOL  FORCE CONSTANT  FORCE CONSTANT  FORCE CONSTANT

      1       C        9.182593        8.997518        7.572083
      2       C        8.899757        8.877052        7.919432
      3       C       10.587157       14.855148        2.520136
      4       C       12.231450       14.139243        2.305815
      5       C       15.802505       10.767468        2.301024
      6       C       11.071081       13.475747        2.418334
      7       C       11.728655       12.677175        2.348367
      8       C       11.837720       12.768379        2.147505
      9       C       12.113442       13.440676        2.212031
     10       C       10.439627       14.111852        2.116446
     11       H        1.163561        1.521568        3.436384
     12       H        1.157779        1.545777        3.417864
     13       H        4.782298        1.264027        0.679203
     14       H        0.827829        2.366303        3.435394
     15       H        0.689802        1.890376        4.035848
     16       H        5.093830        0.813786        0.339537
     17       H        1.379304        4.486452        0.352288
     18       H        1.345964        4.544112        0.349774
     19       H        0.702668        5.414374        0.333974
     20       H        4.530672        1.572991        0.339287

 **********************
 *                    *
 * JOB ENDED NORMALLY *
 *                    *
 **********************



 TOTAL JOB TIME:             2.50 SECONDS

 == MOPAC DONE ==
