 *******************************************************************************
 **                                                                           **
 **                              MOPAC v23.1.2                                **
 **                                                                           **
 *******************************************************************************
 **          Digital Object Identifier (DOI): 10.5281/zenodo.6511958          **
 **    Visit the DOI location for information on how to cite this program.    **
 *******************************************************************************

                              PM3 CALCULATION RESULTS

 *******************************************************************************
 *  CALCULATION DONE: (MAX THREADS = 1)              Tue Jun  3 16:40:40 2025  *
 *  PM3        - The PM3 Hamiltonian to be used
 *  PRECISE    - TIGHTER CRITERIA TO BE USED
 *  NOSYM      - POINT-GROUP SYMMETRY SET TO C1
 *  THREADS=1  - MULTI-THREADING NOT USED
 *  T=         - A TIME OF 172800.0 SECONDS REQUESTED
 *  DUMP=N     - RESTART FILE WRITTEN EVERY 7200.0 SECONDS REQUESTED
 *******************************************************************************
pm3  precise nosym THREADS=1
 InChI=1S/C12H20/c1-4-6-7-10(3)12-9-8-11(12)5-2/h6-12H,4-5H2,1-3H3

   ATOM   CHEMICAL          X               Y               Z
  NUMBER   SYMBOL      (ANGSTROMS)     (ANGSTROMS)     (ANGSTROMS)

     1       C          1.09580000  *  -1.12630000  *   0.30070000  *
     2       C          1.87980000  *  -0.12490000  *   0.99850000  *
     3       C         -0.37840000  *  -1.23580000  *   0.77020000  *
     4       C          2.72150000  *   0.80110000  *   0.10020000  *
     5       C         -2.13320000  *   1.65170000  *  -1.17730000  *
     6       C         -1.05850000  *  -2.48640000  *   0.19410000  *
     7       C          1.86080000  *   1.85520000  *  -0.59040000  *
     8       C         -3.61970000  *   1.50220000  *  -0.86670000  *
     9       C         -1.16190000  *   0.00880000  *   0.41430000  *
    10       C          2.71660000  *  -1.21990000  *   1.58190000  *
    11       C          1.96600000  *  -2.18520000  *   0.91160000  *
    12       C         -1.37810000  *   0.39270000  *  -0.85500000  *
    13       H         -0.39980000  *  -1.33410000  *   1.87980000  *
    14       H          1.33900000  *   0.42980000  *   1.79900000  *
    15       H          1.20240000  *  -1.11430000  *  -0.80800000  *
    16       H          3.47230000  *   1.32190000  *   0.73340000  *
    17       H          3.27380000  *   0.21700000  *  -0.66960000  *
    18       H         -2.01510000  *   1.87540000  *  -2.25920000  *
    19       H         -1.70980000  *   2.50380000  *  -0.60230000  *
    20       H         -3.77590000  *   1.32910000  *   0.21920000  *
    21       H         -4.04860000  *   0.65200000  *  -1.43910000  *
    22       H         -4.15420000  *   2.43140000  *  -1.15600000  *
    23       H         -0.99910000  *  -2.49810000  *  -0.91490000  *
    24       H         -0.56870000  *  -3.40380000  *   0.58320000  *
    25       H         -2.12710000  *  -2.51500000  *   0.49740000  *
    26       H          2.51520000  *   2.58130000  *  -1.11700000  *
    27       H          1.24530000  *   2.40500000  *   0.15320000  *
    28       H          1.19740000  *   1.37890000  *  -1.34070000  *
    29       H         -0.96790000  *  -0.18680000  *  -1.67670000  *
    30       H         -1.55740000  *   0.61120000  *   1.22780000  *
    31       H          3.56640000  *  -1.25020000  *   2.25510000  *
    32       H          2.00120000  *  -3.26770000  *   0.85380000  *



          CARTESIAN COORDINATES 

    NO.       ATOM           X           Y           Z

     1         C          1.0958     -1.1263      0.3007
     2         C          1.8798     -0.1249      0.9985
     3         C         -0.3784     -1.2358      0.7702
     4         C          2.7215      0.8011      0.1002
     5         C         -2.1332      1.6517     -1.1773
     6         C         -1.0585     -2.4864      0.1941
     7         C          1.8608      1.8552     -0.5904
     8         C         -3.6197      1.5022     -0.8667
     9         C         -1.1619      0.0088      0.4143
    10         C          2.7166     -1.2199      1.5819
    11         C          1.9660     -2.1852      0.9116
    12         C         -1.3781      0.3927     -0.8550
    13         H         -0.3998     -1.3341      1.8798
    14         H          1.3390      0.4298      1.7990
    15         H          1.2024     -1.1143     -0.8080
    16         H          3.4723      1.3219      0.7334
    17         H          3.2738      0.2170     -0.6696
    18         H         -2.0151      1.8754     -2.2592
    19         H         -1.7098      2.5038     -0.6023
    20         H         -3.7759      1.3291      0.2192
    21         H         -4.0486      0.6520     -1.4391
    22         H         -4.1542      2.4314     -1.1560
    23         H         -0.9991     -2.4981     -0.9149
    24         H         -0.5687     -3.4038      0.5832
    25         H         -2.1271     -2.5150      0.4974
    26         H          2.5152      2.5813     -1.1170
    27         H          1.2453      2.4050      0.1532
    28         H          1.1974      1.3789     -1.3407
    29         H         -0.9679     -0.1868     -1.6767
    30         H         -1.5574      0.6112      1.2278
    31         H          3.5664     -1.2502      2.2551
    32         H          2.0012     -3.2677      0.8538

  H: (PM3): J. J. P. STEWART, J. COMP. CHEM. 10, 209 (1989).
  C: (PM3): J. J. P. STEWART, J. COMP. CHEM. 10, 209 (1989).

           Empirical Formula: C12 H20  =    32 atoms



      MOLECULAR POINT GROUP   :   C1  


      RHF CALCULATION, NO. OF DOUBLY OCCUPIED LEVELS = 34


          Geometry optimization using EF

          DIAGONAL MATRIX USED AS START HESSIAN

 CYCLE:     1 TIME:   0.012 TIME LEFT:  2.00D  GRAD.:   212.372 HEAT:  33.94748
 CYCLE:     2 TIME:   0.020 TIME LEFT:  2.00D  GRAD.:    73.944 HEAT:  24.52867
 CYCLE:     3 TIME:   0.020 TIME LEFT:  2.00D  GRAD.:   107.397 HEAT:  24.52241
 CYCLE:     4 TIME:   0.020 TIME LEFT:  2.00D  GRAD.:    37.360 HEAT:  22.85569
 CYCLE:     5 TIME:   0.016 TIME LEFT:  2.00D  GRAD.:    37.767 HEAT:  22.60720
 CYCLE:     6 TIME:   0.012 TIME LEFT:  2.00D  GRAD.:    32.989 HEAT:  22.41512
 CYCLE:     7 TIME:   0.012 TIME LEFT:  2.00D  GRAD.:    20.751 HEAT:  22.12538
 CYCLE:     8 TIME:   0.012 TIME LEFT:  2.00D  GRAD.:    30.901 HEAT:  22.08881
 CYCLE:     9 TIME:   0.012 TIME LEFT:  2.00D  GRAD.:    27.646 HEAT:  21.87110
 CYCLE:    10 TIME:   0.020 TIME LEFT:  2.00D  GRAD.:    21.885 HEAT:  21.77176
 CYCLE:    11 TIME:   0.008 TIME LEFT:  2.00D  GRAD.:    15.492 HEAT:  21.65301
 CYCLE:    12 TIME:   0.020 TIME LEFT:  2.00D  GRAD.:     8.949 HEAT:  21.59262
 CYCLE:    13 TIME:   0.012 TIME LEFT:  2.00D  GRAD.:    13.811 HEAT:  21.59155
 CYCLE:    14 TIME:   0.008 TIME LEFT:  2.00D  GRAD.:    12.285 HEAT:  21.55457
 CYCLE:    15 TIME:   0.020 TIME LEFT:  2.00D  GRAD.:     7.567 HEAT:  21.51899
 CYCLE:    16 TIME:   0.016 TIME LEFT:  2.00D  GRAD.:     5.766 HEAT:  21.50620
 CYCLE:    17 TIME:   0.012 TIME LEFT:  2.00D  GRAD.:     5.082 HEAT:  21.49204
 CYCLE:    18 TIME:   0.008 TIME LEFT:  2.00D  GRAD.:     4.511 HEAT:  21.47629
 CYCLE:    19 TIME:   0.012 TIME LEFT:  2.00D  GRAD.:     7.740 HEAT:  21.45733
 CYCLE:    20 TIME:   0.012 TIME LEFT:  2.00D  GRAD.:     8.439 HEAT:  21.43421
 CYCLE:    21 TIME:   0.016 TIME LEFT:  2.00D  GRAD.:    10.505 HEAT:  21.43178
 CYCLE:    22 TIME:   0.020 TIME LEFT:  2.00D  GRAD.:     8.888 HEAT:  21.41660
 CYCLE:    23 TIME:   0.008 TIME LEFT:  2.00D  GRAD.:     8.035 HEAT:  21.41031
 CYCLE:    24 TIME:   0.012 TIME LEFT:  2.00D  GRAD.:     6.732 HEAT:  21.39748
 CYCLE:    25 TIME:   0.008 TIME LEFT:  2.00D  GRAD.:     7.276 HEAT:  21.39494
 CYCLE:    26 TIME:   0.012 TIME LEFT:  2.00D  GRAD.:     6.669 HEAT:  21.38526
 CYCLE:    27 TIME:   0.012 TIME LEFT:  2.00D  GRAD.:     6.120 HEAT:  21.37854
 CYCLE:    28 TIME:   0.008 TIME LEFT:  2.00D  GRAD.:     4.785 HEAT:  21.36729
 CYCLE:    29 TIME:   0.012 TIME LEFT:  2.00D  GRAD.:     4.771 HEAT:  21.35901
 CYCLE:    30 TIME:   0.012 TIME LEFT:  2.00D  GRAD.:     5.351 HEAT:  21.34951
 CYCLE:    31 TIME:   0.008 TIME LEFT:  2.00D  GRAD.:     3.602 HEAT:  21.33462
 CYCLE:    32 TIME:   0.012 TIME LEFT:  2.00D  GRAD.:     5.857 HEAT:  21.32828
 CYCLE:    33 TIME:   0.012 TIME LEFT:  2.00D  GRAD.:     4.455 HEAT:  21.31601
 CYCLE:    34 TIME:   0.008 TIME LEFT:  2.00D  GRAD.:     5.234 HEAT:  21.31052
 CYCLE:    35 TIME:   0.012 TIME LEFT:  2.00D  GRAD.:     3.713 HEAT:  21.29966
 CYCLE:    36 TIME:   0.012 TIME LEFT:  2.00D  GRAD.:     4.772 HEAT:  21.29066
 CYCLE:    37 TIME:   0.012 TIME LEFT:  2.00D  GRAD.:     3.108 HEAT:  21.27571
 CYCLE:    38 TIME:   0.008 TIME LEFT:  2.00D  GRAD.:     5.067 HEAT:  21.26331
 CYCLE:    39 TIME:   0.012 TIME LEFT:  2.00D  GRAD.:     5.223 HEAT:  21.25494
 CYCLE:    40 TIME:   0.012 TIME LEFT:  2.00D  GRAD.:     3.212 HEAT:  21.24312
 CYCLE:    41 TIME:   0.012 TIME LEFT:  2.00D  GRAD.:     3.205 HEAT:  21.23267
 CYCLE:    42 TIME:   0.008 TIME LEFT:  2.00D  GRAD.:     3.931 HEAT:  21.21732
 CYCLE:    43 TIME:   0.012 TIME LEFT:  2.00D  GRAD.:     3.353 HEAT:  21.20196
 CYCLE:    44 TIME:   0.012 TIME LEFT:  2.00D  GRAD.:     3.080 HEAT:  21.18851
 CYCLE:    45 TIME:   0.012 TIME LEFT:  2.00D  GRAD.:     3.730 HEAT:  21.17089
 CYCLE:    46 TIME:   0.012 TIME LEFT:  2.00D  GRAD.:     3.847 HEAT:  21.15119
 CYCLE:    47 TIME:   0.012 TIME LEFT:  2.00D  GRAD.:     2.961 HEAT:  21.13956
 CYCLE:    48 TIME:   0.012 TIME LEFT:  2.00D  GRAD.:     3.542 HEAT:  21.13361
 CYCLE:    49 TIME:   0.008 TIME LEFT:  2.00D  GRAD.:     2.349 HEAT:  21.12521
 CYCLE:    50 TIME:   0.012 TIME LEFT:  2.00D  GRAD.:     2.055 HEAT:  21.12059
 CYCLE:    51 TIME:   0.012 TIME LEFT:  2.00D  GRAD.:     1.918 HEAT:  21.11615
 CYCLE:    52 TIME:   0.012 TIME LEFT:  2.00D  GRAD.:     2.075 HEAT:  21.11044
 CYCLE:    53 TIME:   0.008 TIME LEFT:  2.00D  GRAD.:     1.890 HEAT:  21.10529
 CYCLE:    54 TIME:   0.012 TIME LEFT:  2.00D  GRAD.:     1.852 HEAT:  21.09804
 CYCLE:    55 TIME:   0.012 TIME LEFT:  2.00D  GRAD.:     2.113 HEAT:  21.08713
 CYCLE:    56 TIME:   0.012 TIME LEFT:  2.00D  GRAD.:     2.643 HEAT:  21.07841
 CYCLE:    57 TIME:   0.008 TIME LEFT:  2.00D  GRAD.:     2.393 HEAT:  21.07177
 CYCLE:    58 TIME:   0.012 TIME LEFT:  2.00D  GRAD.:     1.929 HEAT:  21.06519
 CYCLE:    59 TIME:   0.012 TIME LEFT:  2.00D  GRAD.:     2.396 HEAT:  21.05773
 CYCLE:    60 TIME:   0.012 TIME LEFT:  2.00D  GRAD.:     2.439 HEAT:  21.04836
 CYCLE:    61 TIME:   0.012 TIME LEFT:  2.00D  GRAD.:     2.678 HEAT:  21.03433
 CYCLE:    62 TIME:   0.012 TIME LEFT:  2.00D  GRAD.:     2.362 HEAT:  21.02166
 CYCLE:    63 TIME:   0.012 TIME LEFT:  2.00D  GRAD.:     2.534 HEAT:  21.00995
 CYCLE:    64 TIME:   0.008 TIME LEFT:  2.00D  GRAD.:     2.728 HEAT:  20.99688
 CYCLE:    65 TIME:   0.012 TIME LEFT:  2.00D  GRAD.:     3.018 HEAT:  20.98074
 CYCLE:    66 TIME:   0.012 TIME LEFT:  2.00D  GRAD.:     3.333 HEAT:  20.96276
 CYCLE:    67 TIME:   0.012 TIME LEFT:  2.00D  GRAD.:     3.285 HEAT:  20.94563
 CYCLE:    68 TIME:   0.008 TIME LEFT:  2.00D  GRAD.:     2.596 HEAT:  20.93379
 CYCLE:    69 TIME:   0.012 TIME LEFT:  2.00D  GRAD.:     2.102 HEAT:  20.92399
 CYCLE:    70 TIME:   0.012 TIME LEFT:  2.00D  GRAD.:     1.958 HEAT:  20.91644
 CYCLE:    71 TIME:   0.012 TIME LEFT:  2.00D  GRAD.:     1.888 HEAT:  20.90895
 CYCLE:    72 TIME:   0.012 TIME LEFT:  2.00D  GRAD.:     1.785 HEAT:  20.90174
 CYCLE:    73 TIME:   0.012 TIME LEFT:  2.00D  GRAD.:     1.758 HEAT:  20.89457
 CYCLE:    74 TIME:   0.012 TIME LEFT:  2.00D  GRAD.:     2.310 HEAT:  20.88731
 CYCLE:    75 TIME:   0.008 TIME LEFT:  2.00D  GRAD.:     2.505 HEAT:  20.87949
 CYCLE:    76 TIME:   0.012 TIME LEFT:  2.00D  GRAD.:     1.768 HEAT:  20.87307
 CYCLE:    77 TIME:   0.012 TIME LEFT:  2.00D  GRAD.:     1.600 HEAT:  20.86561
 CYCLE:    78 TIME:   0.012 TIME LEFT:  2.00D  GRAD.:     1.874 HEAT:  20.86003
 CYCLE:    79 TIME:   0.012 TIME LEFT:  2.00D  GRAD.:     2.258 HEAT:  20.85008
 CYCLE:    80 TIME:   0.012 TIME LEFT:  2.00D  GRAD.:     2.022 HEAT:  20.84158
 CYCLE:    81 TIME:   0.008 TIME LEFT:  2.00D  GRAD.:     1.411 HEAT:  20.83507
 CYCLE:    82 TIME:   0.016 TIME LEFT:  2.00D  GRAD.:     1.706 HEAT:  20.83077
 CYCLE:    83 TIME:   0.008 TIME LEFT:  2.00D  GRAD.:     2.878 HEAT:  20.82840
 CYCLE:    84 TIME:   0.012 TIME LEFT:  2.00D  GRAD.:     1.808 HEAT:  20.82223
 CYCLE:    85 TIME:   0.012 TIME LEFT:  2.00D  GRAD.:     1.335 HEAT:  20.81599
 CYCLE:    86 TIME:   0.012 TIME LEFT:  2.00D  GRAD.:     1.683 HEAT:  20.80716
 CYCLE:    87 TIME:   0.012 TIME LEFT:  2.00D  GRAD.:     2.019 HEAT:  20.80023
 CYCLE:    88 TIME:   0.012 TIME LEFT:  2.00D  GRAD.:     2.846 HEAT:  20.78586
 CYCLE:    89 TIME:   0.012 TIME LEFT:  2.00D  GRAD.:     2.739 HEAT:  20.77426
 CYCLE:    90 TIME:   0.008 TIME LEFT:  2.00D  GRAD.:     3.659 HEAT:  20.74797
 CYCLE:    91 TIME:   0.012 TIME LEFT:  2.00D  GRAD.:     3.935 HEAT:  20.73169
 CYCLE:    92 TIME:   0.012 TIME LEFT:  2.00D  GRAD.:     2.683 HEAT:  20.71638
 CYCLE:    93 TIME:   0.012 TIME LEFT:  2.00D  GRAD.:     2.505 HEAT:  20.69900
 CYCLE:    94 TIME:   0.012 TIME LEFT:  2.00D  GRAD.:     2.246 HEAT:  20.69054
 CYCLE:    95 TIME:   0.012 TIME LEFT:  2.00D  GRAD.:     2.524 HEAT:  20.67628
 CYCLE:    96 TIME:   0.012 TIME LEFT:  2.00D  GRAD.:     2.518 HEAT:  20.66054
 CYCLE:    97 TIME:   0.012 TIME LEFT:  2.00D  GRAD.:     2.952 HEAT:  20.64188
 CYCLE:    98 TIME:   0.012 TIME LEFT:  2.00D  GRAD.:     4.202 HEAT:  20.62003
 CYCLE:    99 TIME:   0.012 TIME LEFT:  2.00D  GRAD.:     5.124 HEAT:  20.60599
 CYCLE:   100 TIME:   0.008 TIME LEFT:  2.00D  GRAD.:     3.512 HEAT:  20.56930
 CYCLE:   101 TIME:   0.012 TIME LEFT:  2.00D  GRAD.:     3.552 HEAT:  20.53657
 CYCLE:   102 TIME:   0.016 TIME LEFT:  2.00D  GRAD.:     3.454 HEAT:  20.51070
 CYCLE:   103 TIME:   0.012 TIME LEFT:  2.00D  GRAD.:     3.295 HEAT:  20.49037
 CYCLE:   104 TIME:   0.008 TIME LEFT:  2.00D  GRAD.:     2.955 HEAT:  20.47181
 CYCLE:   105 TIME:   0.012 TIME LEFT:  2.00D  GRAD.:     2.903 HEAT:  20.45525
 CYCLE:   106 TIME:   0.012 TIME LEFT:  2.00D  GRAD.:     2.652 HEAT:  20.44172
 CYCLE:   107 TIME:   0.012 TIME LEFT:  2.00D  GRAD.:     2.322 HEAT:  20.42983
 CYCLE:   108 TIME:   0.012 TIME LEFT:  2.00D  GRAD.:     2.416 HEAT:  20.42069
 CYCLE:   109 TIME:   0.012 TIME LEFT:  2.00D  GRAD.:     2.330 HEAT:  20.41372
 CYCLE:   110 TIME:   0.012 TIME LEFT:  2.00D  GRAD.:     2.064 HEAT:  20.40620
 CYCLE:   111 TIME:   0.012 TIME LEFT:  2.00D  GRAD.:     2.206 HEAT:  20.39611
 CYCLE:   112 TIME:   0.008 TIME LEFT:  2.00D  GRAD.:     2.210 HEAT:  20.38916
 CYCLE:   113 TIME:   0.012 TIME LEFT:  2.00D  GRAD.:     2.062 HEAT:  20.38218
 CYCLE:   114 TIME:   0.012 TIME LEFT:  2.00D  GRAD.:     1.941 HEAT:  20.37482
 CYCLE:   115 TIME:   0.012 TIME LEFT:  2.00D  GRAD.:     2.288 HEAT:  20.36460
 CYCLE:   116 TIME:   0.012 TIME LEFT:  2.00D  GRAD.:     2.305 HEAT:  20.35370
 CYCLE:   117 TIME:   0.012 TIME LEFT:  2.00D  GRAD.:     2.511 HEAT:  20.34304
 CYCLE:   118 TIME:   0.012 TIME LEFT:  2.00D  GRAD.:     2.060 HEAT:  20.33486
 CYCLE:   119 TIME:   0.008 TIME LEFT:  2.00D  GRAD.:     1.959 HEAT:  20.32746
 CYCLE:   120 TIME:   0.012 TIME LEFT:  2.00D  GRAD.:     2.015 HEAT:  20.31873
 CYCLE:   121 TIME:   0.012 TIME LEFT:  2.00D  GRAD.:     1.915 HEAT:  20.31257
 CYCLE:   122 TIME:   0.012 TIME LEFT:  2.00D  GRAD.:     1.669 HEAT:  20.30637
 CYCLE:   123 TIME:   0.012 TIME LEFT:  2.00D  GRAD.:     1.549 HEAT:  20.30161
 CYCLE:   124 TIME:   0.008 TIME LEFT:  2.00D  GRAD.:     1.388 HEAT:  20.29704
 CYCLE:   125 TIME:   0.012 TIME LEFT:  2.00D  GRAD.:     1.482 HEAT:  20.29302
 CYCLE:   126 TIME:   0.012 TIME LEFT:  2.00D  GRAD.:     1.238 HEAT:  20.28945
 CYCLE:   127 TIME:   0.012 TIME LEFT:  2.00D  GRAD.:     1.437 HEAT:  20.28687
 CYCLE:   128 TIME:   0.012 TIME LEFT:  2.00D  GRAD.:     1.169 HEAT:  20.28468
 CYCLE:   129 TIME:   0.012 TIME LEFT:  2.00D  GRAD.:     1.081 HEAT:  20.28237
 CYCLE:   130 TIME:   0.012 TIME LEFT:  2.00D  GRAD.:     1.076 HEAT:  20.28018
 CYCLE:   131 TIME:   0.012 TIME LEFT:  2.00D  GRAD.:     1.169 HEAT:  20.27720
 CYCLE:   132 TIME:   0.012 TIME LEFT:  2.00D  GRAD.:     1.066 HEAT:  20.27481
 CYCLE:   133 TIME:   0.012 TIME LEFT:  2.00D  GRAD.:     1.048 HEAT:  20.27218
 CYCLE:   134 TIME:   0.012 TIME LEFT:  2.00D  GRAD.:     1.120 HEAT:  20.26967
 CYCLE:   135 TIME:   0.016 TIME LEFT:  2.00D  GRAD.:     1.402 HEAT:  20.26632
 CYCLE:   136 TIME:   0.008 TIME LEFT:  2.00D  GRAD.:     1.913 HEAT:  20.26280
 CYCLE:   137 TIME:   0.012 TIME LEFT:  2.00D  GRAD.:     1.595 HEAT:  20.25809
 CYCLE:   138 TIME:   0.012 TIME LEFT:  2.00D  GRAD.:     1.300 HEAT:  20.25267
 CYCLE:   139 TIME:   0.012 TIME LEFT:  2.00D  GRAD.:     1.321 HEAT:  20.24975
 CYCLE:   140 TIME:   0.008 TIME LEFT:  2.00D  GRAD.:     1.110 HEAT:  20.24648
 CYCLE:   141 TIME:   0.012 TIME LEFT:  2.00D  GRAD.:     0.909 HEAT:  20.24431
 CYCLE:   142 TIME:   0.012 TIME LEFT:  2.00D  GRAD.:     0.877 HEAT:  20.24268
 CYCLE:   143 TIME:   0.016 TIME LEFT:  2.00D  GRAD.:     0.898 HEAT:  20.24122
 CYCLE:   144 TIME:   0.008 TIME LEFT:  2.00D  GRAD.:     0.857 HEAT:  20.23950
 CYCLE:   145 TIME:   0.012 TIME LEFT:  2.00D  GRAD.:     0.851 HEAT:  20.23809
 CYCLE:   146 TIME:   0.012 TIME LEFT:  2.00D  GRAD.:     0.885 HEAT:  20.23668
 CYCLE:   147 TIME:   0.012 TIME LEFT:  2.00D  GRAD.:     1.034 HEAT:  20.23473
 CYCLE:   148 TIME:   0.012 TIME LEFT:  2.00D  GRAD.:     1.077 HEAT:  20.23273
 CYCLE:   149 TIME:   0.008 TIME LEFT:  2.00D  GRAD.:     0.799 HEAT:  20.23077
 CYCLE:   150 TIME:   0.012 TIME LEFT:  2.00D  GRAD.:     0.638 HEAT:  20.22984
 CYCLE:   151 TIME:   0.012 TIME LEFT:  2.00D  GRAD.:     0.657 HEAT:  20.22915
 CYCLE:   152 TIME:   0.012 TIME LEFT:  2.00D  GRAD.:     0.804 HEAT:  20.22850
 CYCLE:   153 TIME:   0.012 TIME LEFT:  2.00D  GRAD.:     0.714 HEAT:  20.22772
 CYCLE:   154 TIME:   0.012 TIME LEFT:  2.00D  GRAD.:     0.610 HEAT:  20.22701
 CYCLE:   155 TIME:   0.012 TIME LEFT:  2.00D  GRAD.:     0.589 HEAT:  20.22631
 CYCLE:   156 TIME:   0.012 TIME LEFT:  2.00D  GRAD.:     0.697 HEAT:  20.22557
 CYCLE:   157 TIME:   0.008 TIME LEFT:  2.00D  GRAD.:     0.868 HEAT:  20.22415
 CYCLE:   158 TIME:   0.012 TIME LEFT:  2.00D  GRAD.:     1.123 HEAT:  20.22211
 CYCLE:   159 TIME:   0.012 TIME LEFT:  2.00D  GRAD.:     1.599 HEAT:  20.21870
 CYCLE:   160 TIME:   0.012 TIME LEFT:  2.00D  GRAD.:     1.446 HEAT:  20.21586
 CYCLE:   161 TIME:   0.012 TIME LEFT:  2.00D  GRAD.:     2.567 HEAT:  20.21473
 CYCLE:   162 TIME:   0.012 TIME LEFT:  2.00D  GRAD.:     1.509 HEAT:  20.20806
 CYCLE:   163 TIME:   0.012 TIME LEFT:  2.00D  GRAD.:     1.110 HEAT:  20.20570
 CYCLE:   164 TIME:   0.012 TIME LEFT:  2.00D  GRAD.:     1.663 HEAT:  20.19773
 CYCLE:   165 TIME:   0.012 TIME LEFT:  2.00D  GRAD.:     1.994 HEAT:  20.19127
 CYCLE:   166 TIME:   0.012 TIME LEFT:  2.00D  GRAD.:     3.217 HEAT:  20.18502
 CYCLE:   167 TIME:   0.012 TIME LEFT:  2.00D  GRAD.:     1.502 HEAT:  20.18220
 CYCLE:   168 TIME:   0.012 TIME LEFT:  2.00D  GRAD.:     0.952 HEAT:  20.17907
 CYCLE:   169 TIME:   0.012 TIME LEFT:  2.00D  GRAD.:     1.073 HEAT:  20.17764
 CYCLE:   170 TIME:   0.012 TIME LEFT:  2.00D  GRAD.:     2.689 HEAT:  20.17784
 CYCLE:   171 TIME:   0.012 TIME LEFT:  2.00D  GRAD.:     0.940 HEAT:  20.17325
 CYCLE:   172 TIME:   0.012 TIME LEFT:  2.00D  GRAD.:     0.871 HEAT:  20.17111
 CYCLE:   173 TIME:   0.012 TIME LEFT:  2.00D  GRAD.:     1.368 HEAT:  20.16400
 CYCLE:   174 TIME:   0.012 TIME LEFT:  2.00D  GRAD.:     1.560 HEAT:  20.16167
 CYCLE:   175 TIME:   0.012 TIME LEFT:  2.00D  GRAD.:     1.148 HEAT:  20.15956
 CYCLE:   176 TIME:   0.012 TIME LEFT:  2.00D  GRAD.:     0.873 HEAT:  20.15773
 CYCLE:   177 TIME:   0.012 TIME LEFT:  2.00D  GRAD.:     1.161 HEAT:  20.15532
 CYCLE:   178 TIME:   0.012 TIME LEFT:  2.00D  GRAD.:     1.002 HEAT:  20.15354
 CYCLE:   179 TIME:   0.012 TIME LEFT:  2.00D  GRAD.:     1.204 HEAT:  20.14994
 CYCLE:   180 TIME:   0.012 TIME LEFT:  2.00D  GRAD.:     1.733 HEAT:  20.14479
 CYCLE:   181 TIME:   0.012 TIME LEFT:  2.00D  GRAD.:     2.487 HEAT:  20.13600
 CYCLE:   182 TIME:   0.012 TIME LEFT:  2.00D  GRAD.:     3.485 HEAT:  20.12023
 CYCLE:   183 TIME:   0.012 TIME LEFT:  2.00D  GRAD.:     3.522 HEAT:  20.11247
 CYCLE:   184 TIME:   0.012 TIME LEFT:  2.00D  GRAD.:     1.747 HEAT:  20.09763
 CYCLE:   185 TIME:   0.012 TIME LEFT:  2.00D  GRAD.:     1.776 HEAT:  20.09396
 CYCLE:   186 TIME:   0.012 TIME LEFT:  2.00D  GRAD.:     0.868 HEAT:  20.09161
 CYCLE:   187 TIME:   0.012 TIME LEFT:  2.00D  GRAD.:     0.985 HEAT:  20.08981
 CYCLE:   188 TIME:   0.008 TIME LEFT:  2.00D  GRAD.:     0.756 HEAT:  20.08894
 CYCLE:   189 TIME:   0.012 TIME LEFT:  2.00D  GRAD.:     0.785 HEAT:  20.08797
 CYCLE:   190 TIME:   0.012 TIME LEFT:  2.00D  GRAD.:     1.012 HEAT:  20.08683
 CYCLE:   191 TIME:   0.012 TIME LEFT:  2.00D  GRAD.:     1.134 HEAT:  20.08530
 CYCLE:   192 TIME:   0.012 TIME LEFT:  2.00D  GRAD.:     1.297 HEAT:  20.08221
 CYCLE:   193 TIME:   0.008 TIME LEFT:  2.00D  GRAD.:     1.299 HEAT:  20.07949
 CYCLE:   194 TIME:   0.016 TIME LEFT:  2.00D  GRAD.:     1.267 HEAT:  20.07683
 CYCLE:   195 TIME:   0.012 TIME LEFT:  2.00D  GRAD.:     1.617 HEAT:  20.07376
 CYCLE:   196 TIME:   0.008 TIME LEFT:  2.00D  GRAD.:     1.438 HEAT:  20.07032
 CYCLE:   197 TIME:   0.012 TIME LEFT:  2.00D  GRAD.:     1.493 HEAT:  20.06720
 CYCLE:   198 TIME:   0.012 TIME LEFT:  2.00D  GRAD.:     1.232 HEAT:  20.06426
 CYCLE:   199 TIME:   0.012 TIME LEFT:  2.00D  GRAD.:     1.091 HEAT:  20.06184
 CYCLE:   200 TIME:   0.012 TIME LEFT:  2.00D  GRAD.:     1.187 HEAT:  20.05966
 CYCLE:   201 TIME:   0.012 TIME LEFT:  2.00D  GRAD.:     0.932 HEAT:  20.05808
 CYCLE:   202 TIME:   0.012 TIME LEFT:  2.00D  GRAD.:     0.751 HEAT:  20.05640
 CYCLE:   203 TIME:   0.008 TIME LEFT:  2.00D  GRAD.:     0.815 HEAT:  20.05546
 CYCLE:   204 TIME:   0.012 TIME LEFT:  2.00D  GRAD.:     0.928 HEAT:  20.05426
 CYCLE:   205 TIME:   0.012 TIME LEFT:  2.00D  GRAD.:     0.927 HEAT:  20.05300
 CYCLE:   206 TIME:   0.012 TIME LEFT:  2.00D  GRAD.:     1.021 HEAT:  20.05143
 CYCLE:   207 TIME:   0.012 TIME LEFT:  2.00D  GRAD.:     0.874 HEAT:  20.05043
 CYCLE:   208 TIME:   0.012 TIME LEFT:  2.00D  GRAD.:     0.832 HEAT:  20.04889
 CYCLE:   209 TIME:   0.012 TIME LEFT:  2.00D  GRAD.:     0.717 HEAT:  20.04810
 CYCLE:   210 TIME:   0.008 TIME LEFT:  2.00D  GRAD.:     0.664 HEAT:  20.04710
 CYCLE:   211 TIME:   0.012 TIME LEFT:  2.00D  GRAD.:     0.503 HEAT:  20.04657
 CYCLE:   212 TIME:   0.012 TIME LEFT:  2.00D  GRAD.:     0.489 HEAT:  20.04616
 CYCLE:   213 TIME:   0.012 TIME LEFT:  2.00D  GRAD.:     0.454 HEAT:  20.04579
 CYCLE:   214 TIME:   0.012 TIME LEFT:  2.00D  GRAD.:     0.517 HEAT:  20.04508
 CYCLE:   215 TIME:   0.012 TIME LEFT:  2.00D  GRAD.:     0.532 HEAT:  20.04431
 CYCLE:   216 TIME:   0.012 TIME LEFT:  2.00D  GRAD.:     0.399 HEAT:  20.04344
 CYCLE:   217 TIME:   0.012 TIME LEFT:  2.00D  GRAD.:     0.307 HEAT:  20.04327
 CYCLE:   218 TIME:   0.012 TIME LEFT:  2.00D  GRAD.:     0.191 HEAT:  20.04311
 CYCLE:   219 TIME:   0.008 TIME LEFT:  2.00D  GRAD.:     0.199 HEAT:  20.04304
 CYCLE:   220 TIME:   0.016 TIME LEFT:  2.00D  GRAD.:     0.218 HEAT:  20.04294
 CYCLE:   221 TIME:   0.008 TIME LEFT:  2.00D  GRAD.:     0.240 HEAT:  20.04286
 CYCLE:   222 TIME:   0.012 TIME LEFT:  2.00D  GRAD.:     0.483 HEAT:  20.04269
 CYCLE:   223 TIME:   0.012 TIME LEFT:  2.00D  GRAD.:     0.442 HEAT:  20.04243
 CYCLE:   224 TIME:   0.012 TIME LEFT:  2.00D  GRAD.:     0.789 HEAT:  20.04131
 CYCLE:   225 TIME:   0.012 TIME LEFT:  2.00D  GRAD.:     0.499 HEAT:  20.04064
 CYCLE:   226 TIME:   0.012 TIME LEFT:  2.00D  GRAD.:     0.271 HEAT:  20.04013
 CYCLE:   227 TIME:   0.012 TIME LEFT:  2.00D  GRAD.:     0.180 HEAT:  20.03972
 CYCLE:   228 TIME:   0.008 TIME LEFT:  2.00D  GRAD.:     0.144 HEAT:  20.03959
 CYCLE:   229 TIME:   0.012 TIME LEFT:  2.00D  GRAD.:     0.099 HEAT:  20.03955
 CYCLE:   230 TIME:   0.012 TIME LEFT:  2.00D  GRAD.:     0.044 HEAT:  20.03954

     GRADIENT =  0.04419 IS LESS THAN CUTOFF =  0.05000



 -------------------------------------------------------------------------------
 pm3  precise nosym THREADS=1
 InChI=1S/C12H20/c1-4-6-7-10(3)12-9-8-11(12)5-2/h6-12H,4-5H2,1-3H3



     GEOMETRY OPTIMISED USING EIGENVECTOR FOLLOWING (EF).     
     SCF FIELD WAS ACHIEVED                                   


                              PM3 CALCULATION
                                                       MOPAC v23.1.2 MacOS
                                                       Tue Jun  3 16:40:43 2025




          FINAL HEAT OF FORMATION =         20.03954 KCAL/MOL =      83.84544 KJ/MOL


          COSMO AREA              =        230.95 SQUARE ANGSTROMS
          COSMO VOLUME            =        252.70 CUBIC ANGSTROMS

          GRADIENT NORM           =          0.04419          =       0.00781 PER ATOM
          IONIZATION POTENTIAL    =          9.711891 EV
          HOMO LUMO ENERGIES (EV) =         -9.712  0.981
          NO. OF FILLED LEVELS    =         34
          MOLECULAR WEIGHT        =        164.2900         POINT GROUP:  C1  

          MOLECULAR DIMENSIONS (Angstroms)

            Atom       Atom       Distance
            H    31    H    22     9.40022
            H    26    H    25     7.05643
            H    23    H    30     3.35470


          SCF CALCULATIONS        =        241

          WALL-CLOCK TIME         =      2.660 SECONDS
          COMPUTATION TIME        =      2.020 SECONDS




   ATOM   CHEMICAL          X               Y               Z
  NUMBER   SYMBOL      (ANGSTROMS)     (ANGSTROMS)     (ANGSTROMS)

     1       C          1.00135746  *  -1.18268125  *   0.30355380  *
     2       C          2.03847080  *  -0.13505891  *   0.88923580  *
     3       C         -0.35886585  *  -1.22946744  *   0.98507031  *
     4       C          2.66424034  *   0.81387178  *  -0.10740281  *
     5       C         -2.26063159  *   1.67429740  *  -0.75786868  *
     6       C         -1.13495850  *  -2.46221709  *   0.54334067  *
     7       C          1.76188944  *   1.98980063  *  -0.40628165  *
     8       C         -3.38881039  *   1.45151550  *  -1.74165082  *
     9       C         -1.14650962  *   0.01655550  *   0.71207892  *
    10       C          2.88802366  *  -1.35133308  *   1.23828212  *
    11       C          1.99761289  *  -2.24232826  *   0.76301399  *
    12       C         -1.49933580  *   0.41995485  *  -0.50953471  *
    13       H         -0.19320072  *  -1.29807693  *   2.08862546  *
    14       H          1.65627255  *   0.41111892  *   1.77696696  *
    15       H          0.89166251  *  -1.12332890  *  -0.80036541  *
    16       H          3.63320439  *   1.16924939  *   0.29564681  *
    17       H          2.91009212  *   0.27611263  *  -1.04475587  *
    18       H         -1.55231769  *   2.43327598  *  -1.14987043  *
    19       H         -2.65869700  *   2.09557600  *   0.18700499  *
    20       H         -4.11747127  *   0.72389723  *  -1.36157295  *
    21       H         -3.02045088  *   1.07161239  *  -2.70390266  *
    22       H         -3.92996846  *   2.38494545  *  -1.94224159  *
    23       H         -1.33566616  *  -2.45157412  *  -0.53678199  *
    24       H         -0.57622807  *  -3.38105144  *   0.76573857  *
    25       H         -2.10217618  *  -2.52642867  *   1.05729354  *
    26       H          2.19750248  *   2.64200764  *  -1.17341990  *
    27       H          1.58693449  *   2.60391186  *   0.48717485  *
    28       H          0.77655090  *   1.65825315  *  -0.76948629  *
    29       H         -1.22827312  *  -0.16225676  *  -1.40069717  *
    30       H         -1.42827592  *   0.60488934  *   1.59425737  *
    31       H          3.86464291  *  -1.40195074  *   1.70022847  *
    32       H          1.93650464  *  -3.32073439  *   0.70069491  *

                             CARTESIAN COORDINATES

   1    C        1.001357464    -1.182681251     0.303553797
   2    C        2.038470799    -0.135058913     0.889235802
   3    C       -0.358865852    -1.229467445     0.985070305
   4    C        2.664240338     0.813871782    -0.107402805
   5    C       -2.260631588     1.674297397    -0.757868680
   6    C       -1.134958505    -2.462217094     0.543340673
   7    C        1.761889437     1.989800626    -0.406281649
   8    C       -3.388810392     1.451515499    -1.741650819
   9    C       -1.146509617     0.016555501     0.712078924
  10    C        2.888023661    -1.351333082     1.238282117
  11    C        1.997612889    -2.242328258     0.763013987
  12    C       -1.499335802     0.419954853    -0.509534705
  13    H       -0.193200722    -1.298076926     2.088625462
  14    H        1.656272545     0.411118922     1.776966959
  15    H        0.891662511    -1.123328896    -0.800365415
  16    H        3.633204392     1.169249385     0.295646810
  17    H        2.910092116     0.276112628    -1.044755868
  18    H       -1.552317686     2.433275982    -1.149870428
  19    H       -2.658696996     2.095575999     0.187004987
  20    H       -4.117471275     0.723897228    -1.361572951
  21    H       -3.020450879     1.071612394    -2.703902664
  22    H       -3.929968455     2.384945447    -1.942241592
  23    H       -1.335666160    -2.451574125    -0.536781988
  24    H       -0.576228069    -3.381051437     0.765738574
  25    H       -2.102176181    -2.526428672     1.057293542
  26    H        2.197502477     2.642007644    -1.173419902
  27    H        1.586934486     2.603911864     0.487174850
  28    H        0.776550901     1.658253154    -0.769486289
  29    H       -1.228273115    -0.162256759    -1.400697168
  30    H       -1.428275922     0.604889341     1.594257371
  31    H        3.864642911    -1.401950736     1.700228467
  32    H        1.936504644    -3.320734395     0.700694910


           Empirical Formula: C12 H20  =    32 atoms



      MOLECULAR POINT GROUP   :   C1  


                  EIGENVALUES  
 -41.81643 -37.22503 -34.61906 -32.34646 -28.28277 -24.98435 -24.53377 -22.93031
 -21.35896 -20.66558 -18.95107 -17.86662 -17.24304 -16.51436 -15.83750 -15.29792
 -15.17963 -15.04392 -14.52125 -14.03543 -13.78972 -13.72669 -13.39011 -13.06980
 -12.73989 -12.56228 -12.15960 -12.08582 -11.92278 -11.61706 -11.38750 -11.19251
  -9.99568  -9.71189   0.98120   1.13853   3.14223   3.19168   3.29019   3.41727
   3.65552   3.74936   3.84305   3.88127   3.92714   3.95803   4.06693   4.10326
   4.11957   4.19494   4.22942   4.33375   4.40731   4.47102   4.57306   4.60283
   4.66788   4.78965   4.82400   4.88755   4.93825   4.99518   5.07608   5.22209
   5.31788   5.73167   5.95891   6.20134


              NET ATOMIC CHARGES AND DIPOLE CONTRIBUTIONS

  ATOM NO.   TYPE          CHARGE      No. of ELECS.   s-Pop       p-Pop       
    1          C          -0.068042        4.0680     1.19533     2.87271
    2          C          -0.066940        4.0669     1.19197     2.87498
    3          C          -0.027302        4.0273     1.16075     2.86655
    4          C          -0.083649        4.0836     1.15383     2.92982
    5          C          -0.062699        4.0627     1.14627     2.91643
    6          C          -0.109608        4.1096     1.14133     2.96828
    7          C          -0.122524        4.1225     1.14084     2.98168
    8          C          -0.106045        4.1060     1.13765     2.96839
    9          C          -0.145059        4.1451     1.19843     2.94663
   10          C          -0.159120        4.1591     1.22055     2.93857
   11          C          -0.159266        4.1593     1.22005     2.93922
   12          C          -0.149369        4.1494     1.19669     2.95268
   13          H           0.065678        0.9343     0.93432
   14          H           0.082223        0.9178     0.91778
   15          H           0.084060        0.9159     0.91594
   16          H           0.049863        0.9501     0.95014
   17          H           0.052388        0.9476     0.94761
   18          H           0.053915        0.9461     0.94609
   19          H           0.052003        0.9480     0.94800
   20          H           0.040300        0.9597     0.95970
   21          H           0.037854        0.9621     0.96215
   22          H           0.036986        0.9630     0.96301
   23          H           0.041211        0.9588     0.95879
   24          H           0.041125        0.9589     0.95888
   25          H           0.041809        0.9582     0.95819
   26          H           0.037163        0.9628     0.96284
   27          H           0.037872        0.9621     0.96213
   28          H           0.050468        0.9495     0.94953
   29          H           0.104873        0.8951     0.89513
   30          H           0.098904        0.9011     0.90110
   31          H           0.125025        0.8750     0.87498
   32          H           0.125902        0.8741     0.87410
 DIPOLE           X         Y         Z       TOTAL
 POINT-CHG.    -0.191     0.185    -0.123     0.292
 HYBRID         0.045    -0.055    -0.011     0.072
 SUM           -0.146     0.130    -0.134     0.236


          ATOMIC ORBITAL ELECTRON POPULATIONS

     Atom    s        px        py        pz   
    1  C   1.19533   0.92752   0.94854   0.99665
    2  C   1.19197   0.95312   0.93892   0.98294
    3  C   1.16075   0.93351   0.93471   0.99833
    4  C   1.15383   0.97965   0.96262   0.98755
    5  C   1.14627   0.96687   0.95474   0.99483
    6  C   1.14133   0.99422   0.96657   1.00749
    7  C   1.14084   1.00059   0.97354   1.00755
    8  C   1.13765   0.97684   1.00783   0.98372
    9  C   1.19843   0.99775   0.97776   0.97112
   10  C   1.22055   0.98027   0.96150   0.99679
   11  C   1.22005   0.96934   0.97271   0.99717
   12  C   1.19669   0.99411   0.98067   0.97790
   13  H   0.93432
   14  H   0.91778
   15  H   0.91594
   16  H   0.95014
   17  H   0.94761
   18  H   0.94609
   19  H   0.94800
   20  H   0.95970
   21  H   0.96215
   22  H   0.96301
   23  H   0.95879
   24  H   0.95888
   25  H   0.95819
   26  H   0.96284
   27  H   0.96213
   28  H   0.94953
   29  H   0.89513
   30  H   0.90110
   31  H   0.87498
   32  H   0.87410
 *******************************************************************************
 **                                                                           **
 **                              MOPAC v23.1.2                                **
 **                                                                           **
 *******************************************************************************
 **          Digital Object Identifier (DOI): 10.5281/zenodo.6511958          **
 **    Visit the DOI location for information on how to cite this program.    **
 *******************************************************************************

                              PM3 CALCULATION RESULTS

 *******************************************************************************
 *  CALCULATION DONE: (MAX THREADS = 1)              Tue Jun  3 16:40:43 2025  *
 *  PM3        - The PM3 Hamiltonian to be used
 *  OLDGEO     - PREVIOUS GEOMETRY TO BE USED
 *  PRECISE    - TIGHTER CRITERIA TO BE USED
 *  NOSYM      - POINT-GROUP SYMMETRY SET TO C1
 *  THREADS=1  - MULTI-THREADING NOT USED
 *  T=         - A TIME OF 172800.0 SECONDS REQUESTED
 *  DUMP=N     - RESTART FILE WRITTEN EVERY 7200.0 SECONDS REQUESTED
 *  THERMO     - THERMODYNAMIC QUANTITIES TO BE CALCULATED
 *******************************************************************************
oldgeo thermo nosym precise THREADS=1  pm3
 InChI=1S/C12H20/c1-4-6-7-10(3)12-9-8-11(12)5-2/h6-12H,4-5H2,1-3H3

   ATOM   CHEMICAL          X               Y               Z
  NUMBER   SYMBOL      (ANGSTROMS)     (ANGSTROMS)     (ANGSTROMS)

     1       C          1.00135746  *  -1.18268125  *   0.30355380  *
     2       C          2.03847080  *  -0.13505891  *   0.88923580  *
     3       C         -0.35886585  *  -1.22946744  *   0.98507031  *
     4       C          2.66424034  *   0.81387178  *  -0.10740281  *
     5       C         -2.26063159  *   1.67429740  *  -0.75786868  *
     6       C         -1.13495850  *  -2.46221709  *   0.54334067  *
     7       C          1.76188944  *   1.98980063  *  -0.40628165  *
     8       C         -3.38881039  *   1.45151550  *  -1.74165082  *
     9       C         -1.14650962  *   0.01655550  *   0.71207892  *
    10       C          2.88802366  *  -1.35133308  *   1.23828212  *
    11       C          1.99761289  *  -2.24232826  *   0.76301399  *
    12       C         -1.49933580  *   0.41995485  *  -0.50953471  *
    13       H         -0.19320072  *  -1.29807693  *   2.08862546  *
    14       H          1.65627255  *   0.41111892  *   1.77696696  *
    15       H          0.89166251  *  -1.12332890  *  -0.80036541  *
    16       H          3.63320439  *   1.16924939  *   0.29564681  *
    17       H          2.91009212  *   0.27611263  *  -1.04475587  *
    18       H         -1.55231769  *   2.43327598  *  -1.14987043  *
    19       H         -2.65869700  *   2.09557600  *   0.18700499  *
    20       H         -4.11747127  *   0.72389723  *  -1.36157295  *
    21       H         -3.02045088  *   1.07161239  *  -2.70390266  *
    22       H         -3.92996846  *   2.38494545  *  -1.94224159  *
    23       H         -1.33566616  *  -2.45157412  *  -0.53678199  *
    24       H         -0.57622807  *  -3.38105144  *   0.76573857  *
    25       H         -2.10217618  *  -2.52642867  *   1.05729354  *
    26       H          2.19750248  *   2.64200764  *  -1.17341990  *
    27       H          1.58693449  *   2.60391186  *   0.48717485  *
    28       H          0.77655090  *   1.65825315  *  -0.76948629  *
    29       H         -1.22827312  *  -0.16225676  *  -1.40069717  *
    30       H         -1.42827592  *   0.60488934  *   1.59425737  *
    31       H          3.86464291  *  -1.40195074  *   1.70022847  *
    32       H          1.93650464  *  -3.32073439  *   0.70069491  *



          CARTESIAN COORDINATES 

    NO.       ATOM           X           Y           Z

     1         C          1.0014     -1.1827      0.3036
     2         C          2.0385     -0.1351      0.8892
     3         C         -0.3589     -1.2295      0.9851
     4         C          2.6642      0.8139     -0.1074
     5         C         -2.2606      1.6743     -0.7579
     6         C         -1.1350     -2.4622      0.5433
     7         C          1.7619      1.9898     -0.4063
     8         C         -3.3888      1.4515     -1.7417
     9         C         -1.1465      0.0166      0.7121
    10         C          2.8880     -1.3513      1.2383
    11         C          1.9976     -2.2423      0.7630
    12         C         -1.4993      0.4200     -0.5095
    13         H         -0.1932     -1.2981      2.0886
    14         H          1.6563      0.4111      1.7770
    15         H          0.8917     -1.1233     -0.8004
    16         H          3.6332      1.1692      0.2956
    17         H          2.9101      0.2761     -1.0448
    18         H         -1.5523      2.4333     -1.1499
    19         H         -2.6587      2.0956      0.1870
    20         H         -4.1175      0.7239     -1.3616
    21         H         -3.0205      1.0716     -2.7039
    22         H         -3.9300      2.3849     -1.9422
    23         H         -1.3357     -2.4516     -0.5368
    24         H         -0.5762     -3.3811      0.7657
    25         H         -2.1022     -2.5264      1.0573
    26         H          2.1975      2.6420     -1.1734
    27         H          1.5869      2.6039      0.4872
    28         H          0.7766      1.6583     -0.7695
    29         H         -1.2283     -0.1623     -1.4007
    30         H         -1.4283      0.6049      1.5943
    31         H          3.8646     -1.4020      1.7002
    32         H          1.9365     -3.3207      0.7007

  H: (PM3): J. J. P. STEWART, J. COMP. CHEM. 10, 209 (1989).
  C: (PM3): J. J. P. STEWART, J. COMP. CHEM. 10, 209 (1989).

           Empirical Formula: C12 H20  =    32 atoms



      MOLECULAR POINT GROUP   :   C1  


      RHF CALCULATION, NO. OF DOUBLY OCCUPIED LEVELS = 34



          HEAT OF FORMATION =      20.039540 KCALS/MOLE


          CARTESIAN COORDINATE DERIVATIVES

   NUMBER  ATOM         X            Y            Z

     1       C      0.001599     0.002127     0.003337
     2       C     -0.001844    -0.000131    -0.000303
     3       C     -0.001595     0.000771     0.001102
     4       C     -0.003623    -0.001453    -0.005258
     5       C      0.003335    -0.002121    -0.000487
     6       C      0.003433     0.002879     0.003260
     7       C      0.003279    -0.000030     0.007065
     8       C     -0.006174    -0.004407     0.002295
     9       C      0.005045    -0.007893    -0.005955
    10       C     -0.001184     0.002445     0.000806
    11       C      0.005323    -0.001402    -0.001413
    12       C      0.003442    -0.007892     0.008313
    13       H     -0.003852    -0.000994     0.002972
    14       H      0.004033    -0.001614    -0.005340
    15       H     -0.003626     0.001181     0.004280
    16       H     -0.006713     0.004174    -0.004808
    17       H      0.006395     0.008059    -0.001376
    18       H     -0.007518     0.007101     0.001086
    19       H     -0.006449    -0.009539    -0.000480
    20       H      0.001968     0.006535     0.001125
    21       H      0.010928    -0.003183     0.000180
    22       H      0.001982     0.003582    -0.004768
    23       H      0.001174    -0.004482    -0.000144
    24       H     -0.001273    -0.000382    -0.002096
    25       H      0.006698    -0.001691     0.000374
    26       H     -0.006366     0.003932     0.005442
    27       H     -0.004423    -0.004463    -0.001676
    28       H      0.007257    -0.003574     0.004008
    29       H      0.002256     0.012291     0.002174
    30       H     -0.002121    -0.000978    -0.005058
    31       H     -0.008040     0.001393    -0.005436
    32       H     -0.003349    -0.000240    -0.003220



          GRADIENT NORM =   0.04355

          MOLECULAR WEIGHT =  164.29



          ROTATIONAL CONSTANTS IN CM(-1)

          A =    0.04199692   B =    0.01952225   C =    0.01434836



           PRINCIPAL MOMENTS OF INERTIA IN UNITS OF 10**(-40)*GRAM-CM**2

          A =      666.5430   B =     1433.8894   C =     1950.9377


          ORIENTATION OF MOLECULE IN FORCE CALCULATION

    NO.       ATOM         X         Y         Z

     1          C      -0.0743   -0.7387    1.1131
     2          C       1.5119   -0.7387    1.1131
     3          C      -0.7429    0.6288    1.1131
     4          C       2.1798   -1.5638    0.0368
     5          C      -0.7121    1.5676   -2.6557
     6          C      -2.2276    0.4968    1.4220
     7          C       2.2561   -0.8180   -1.2764
     8          C      -1.9601    1.5969   -3.5112
     9          C      -0.5358    1.3349   -0.1930
    10          C       1.3930   -1.4263    2.4681
    11          C       0.0469   -1.4052    2.4797
    12          C      -0.9511    0.8601   -1.3684
    13          H      -0.2725    1.2464    1.9176
    14          H       1.9505    0.2797    1.1673
    15          H      -0.5144   -1.3970    0.3340
    16          H       3.1968   -1.8416    0.3774
    17          H       1.6393   -2.5214   -0.1013
    18          H       0.1075    1.0424   -3.1884
    19          H      -0.3453    2.5994   -2.4841
    20          H      -2.7767    2.1367   -3.0147
    21          H      -2.3255    0.5852   -3.7326
    22          H      -1.7715    2.0955   -4.4705
    23          H      -2.7506   -0.0979    0.6606
    24          H      -2.3870    0.0054    2.3910
    25          H      -2.7126    1.4802    1.4621
    26          H       2.6884   -1.4446   -2.0664
    27          H       2.8772    0.0840   -1.1949
    28          H       1.2588   -0.4952   -1.6138
    29          H      -1.4874   -0.0960   -1.4378
    30          H      -0.0057    2.2939   -0.1373
    31          H       2.1686   -1.7866    3.1301
    32          H      -0.7283   -1.7176    3.1668


    FIRST DERIVATIVES WILL BE USED IN THE CALCULATION OF SECOND DERIVATIVES

          ESTIMATED TIME TO COMPLETE CALCULATION =        4.50 SECONDS

    FOR POINT-GROUP C1   THERE ARE   1 UNIQUE SYMMETRY FUNCTIONS.

 STEP:   1 TIME =     0.04 SECS, INTEGRAL =      0.04 TIME LEFT: 172799.95
 STEP:   2 TIME =     0.04 SECS, INTEGRAL =      0.07 TIME LEFT: 172799.91
 STEP:   3 TIME =     0.04 SECS, INTEGRAL =      0.11 TIME LEFT: 172799.88
 STEP:   4 TIME =     0.04 SECS, INTEGRAL =      0.15 TIME LEFT: 172799.84
 STEP:   5 TIME =     0.04 SECS, INTEGRAL =      0.19 TIME LEFT: 172799.80
 STEP:   6 TIME =     0.04 SECS, INTEGRAL =      0.23 TIME LEFT: 172799.76
 STEP:   7 TIME =     0.04 SECS, INTEGRAL =      0.27 TIME LEFT: 172799.72
 STEP:   8 TIME =     0.04 SECS, INTEGRAL =      0.30 TIME LEFT: 172799.68
 STEP:   9 TIME =     0.04 SECS, INTEGRAL =      0.34 TIME LEFT: 172799.65
 STEP:  10 TIME =     0.04 SECS, INTEGRAL =      0.38 TIME LEFT: 172799.61
 STEP:  11 TIME =     0.04 SECS, INTEGRAL =      0.41 TIME LEFT: 172799.57
 STEP:  12 TIME =     0.04 SECS, INTEGRAL =      0.45 TIME LEFT: 172799.54
 STEP:  13 TIME =     0.04 SECS, INTEGRAL =      0.48 TIME LEFT: 172799.50
 STEP:  14 TIME =     0.04 SECS, INTEGRAL =      0.52 TIME LEFT: 172799.47
 STEP:  15 TIME =     0.04 SECS, INTEGRAL =      0.56 TIME LEFT: 172799.43
 STEP:  16 TIME =     0.04 SECS, INTEGRAL =      0.59 TIME LEFT: 172799.39
 STEP:  17 TIME =     0.04 SECS, INTEGRAL =      0.63 TIME LEFT: 172799.36
 STEP:  18 TIME =     0.04 SECS, INTEGRAL =      0.67 TIME LEFT: 172799.32
 STEP:  19 TIME =     0.04 SECS, INTEGRAL =      0.71 TIME LEFT: 172799.28
 STEP:  20 TIME =     0.04 SECS, INTEGRAL =      0.74 TIME LEFT: 172799.25
 STEP:  21 TIME =     0.04 SECS, INTEGRAL =      0.78 TIME LEFT: 172799.21
 STEP:  22 TIME =     0.04 SECS, INTEGRAL =      0.81 TIME LEFT: 172799.18
 STEP:  23 TIME =     0.04 SECS, INTEGRAL =      0.85 TIME LEFT: 172799.14
 STEP:  24 TIME =     0.04 SECS, INTEGRAL =      0.89 TIME LEFT: 172799.10
 STEP:  25 TIME =     0.04 SECS, INTEGRAL =      0.93 TIME LEFT: 172799.06
 STEP:  26 TIME =     0.04 SECS, INTEGRAL =      0.97 TIME LEFT: 172799.02
 STEP:  27 TIME =     0.04 SECS, INTEGRAL =      1.00 TIME LEFT: 172798.98
 STEP:  28 TIME =     0.04 SECS, INTEGRAL =      1.04 TIME LEFT: 172798.95
 STEP:  29 TIME =     0.04 SECS, INTEGRAL =      1.08 TIME LEFT: 172798.91
 STEP:  30 TIME =     0.04 SECS, INTEGRAL =      1.12 TIME LEFT: 172798.87
 STEP:  31 TIME =     0.04 SECS, INTEGRAL =      1.16 TIME LEFT: 172798.83
 STEP:  32 TIME =     0.04 SECS, INTEGRAL =      1.20 TIME LEFT: 172798.79
 STEP:  33 TIME =     0.04 SECS, INTEGRAL =      1.23 TIME LEFT: 172798.75
 STEP:  34 TIME =     0.04 SECS, INTEGRAL =      1.27 TIME LEFT: 172798.72
 STEP:  35 TIME =     0.04 SECS, INTEGRAL =      1.30 TIME LEFT: 172798.68
 STEP:  36 TIME =     0.04 SECS, INTEGRAL =      1.34 TIME LEFT: 172798.65
 STEP:  37 TIME =     0.04 SECS, INTEGRAL =      1.38 TIME LEFT: 172798.61
 STEP:  38 TIME =     0.04 SECS, INTEGRAL =      1.41 TIME LEFT: 172798.58
 STEP:  39 TIME =     0.04 SECS, INTEGRAL =      1.45 TIME LEFT: 172798.54
 STEP:  40 TIME =     0.04 SECS, INTEGRAL =      1.48 TIME LEFT: 172798.50
 STEP:  41 TIME =     0.04 SECS, INTEGRAL =      1.52 TIME LEFT: 172798.47
 STEP:  42 TIME =     0.04 SECS, INTEGRAL =      1.56 TIME LEFT: 172798.43
 STEP:  43 TIME =     0.04 SECS, INTEGRAL =      1.60 TIME LEFT: 172798.39
 STEP:  44 TIME =     0.04 SECS, INTEGRAL =      1.64 TIME LEFT: 172798.35
 STEP:  45 TIME =     0.04 SECS, INTEGRAL =      1.68 TIME LEFT: 172798.31
 STEP:  46 TIME =     0.04 SECS, INTEGRAL =      1.71 TIME LEFT: 172798.27
 STEP:  47 TIME =     0.04 SECS, INTEGRAL =      1.75 TIME LEFT: 172798.23
 STEP:  48 TIME =     0.04 SECS, INTEGRAL =      1.79 TIME LEFT: 172798.20
 STEP:  49 TIME =     0.04 SECS, INTEGRAL =      1.83 TIME LEFT: 172798.16
 STEP:  50 TIME =     0.04 SECS, INTEGRAL =      1.87 TIME LEFT: 172798.12
 STEP:  51 TIME =     0.04 SECS, INTEGRAL =      1.91 TIME LEFT: 172798.08
 STEP:  52 TIME =     0.04 SECS, INTEGRAL =      1.94 TIME LEFT: 172798.05
 STEP:  53 TIME =     0.04 SECS, INTEGRAL =      1.98 TIME LEFT: 172798.01
 STEP:  54 TIME =     0.04 SECS, INTEGRAL =      2.02 TIME LEFT: 172797.97
 STEP:  55 TIME =     0.04 SECS, INTEGRAL =      2.05 TIME LEFT: 172797.93
 STEP:  56 TIME =     0.04 SECS, INTEGRAL =      2.09 TIME LEFT: 172797.90
 STEP:  57 TIME =     0.04 SECS, INTEGRAL =      2.13 TIME LEFT: 172797.86
 STEP:  58 TIME =     0.04 SECS, INTEGRAL =      2.16 TIME LEFT: 172797.82
 STEP:  59 TIME =     0.04 SECS, INTEGRAL =      2.20 TIME LEFT: 172797.79
 STEP:  60 TIME =     0.04 SECS, INTEGRAL =      2.23 TIME LEFT: 172797.75
 STEP:  61 TIME =     0.04 SECS, INTEGRAL =      2.27 TIME LEFT: 172797.72
 STEP:  62 TIME =     0.04 SECS, INTEGRAL =      2.30 TIME LEFT: 172797.68
 STEP:  63 TIME =     0.04 SECS, INTEGRAL =      2.34 TIME LEFT: 172797.64
 STEP:  64 TIME =     0.04 SECS, INTEGRAL =      2.38 TIME LEFT: 172797.61
 STEP:  65 TIME =     0.04 SECS, INTEGRAL =      2.42 TIME LEFT: 172797.57
 STEP:  66 TIME =     0.04 SECS, INTEGRAL =      2.45 TIME LEFT: 172797.54
 STEP:  67 TIME =     0.04 SECS, INTEGRAL =      2.49 TIME LEFT: 172797.50
 STEP:  68 TIME =     0.04 SECS, INTEGRAL =      2.53 TIME LEFT: 172797.46
 STEP:  69 TIME =     0.04 SECS, INTEGRAL =      2.56 TIME LEFT: 172797.43
 STEP:  70 TIME =     0.04 SECS, INTEGRAL =      2.60 TIME LEFT: 172797.39
 STEP:  71 TIME =     0.04 SECS, INTEGRAL =      2.64 TIME LEFT: 172797.35
 STEP:  72 TIME =     0.04 SECS, INTEGRAL =      2.68 TIME LEFT: 172797.31
 STEP:  73 TIME =     0.04 SECS, INTEGRAL =      2.71 TIME LEFT: 172797.28
 STEP:  74 TIME =     0.04 SECS, INTEGRAL =      2.75 TIME LEFT: 172797.24
 STEP:  75 TIME =     0.04 SECS, INTEGRAL =      2.79 TIME LEFT: 172797.20
 STEP:  76 TIME =     0.04 SECS, INTEGRAL =      2.82 TIME LEFT: 172797.16
 STEP:  77 TIME =     0.04 SECS, INTEGRAL =      2.86 TIME LEFT: 172797.13
 STEP:  78 TIME =     0.04 SECS, INTEGRAL =      2.89 TIME LEFT: 172797.09
 STEP:  79 TIME =     0.04 SECS, INTEGRAL =      2.93 TIME LEFT: 172797.06
 STEP:  80 TIME =     0.04 SECS, INTEGRAL =      2.96 TIME LEFT: 172797.02
 STEP:  81 TIME =     0.04 SECS, INTEGRAL =      3.00 TIME LEFT: 172796.98
 STEP:  82 TIME =     0.04 SECS, INTEGRAL =      3.04 TIME LEFT: 172796.95
 STEP:  83 TIME =     0.04 SECS, INTEGRAL =      3.08 TIME LEFT: 172796.91
 STEP:  84 TIME =     0.04 SECS, INTEGRAL =      3.12 TIME LEFT: 172796.87
 STEP:  85 TIME =     0.04 SECS, INTEGRAL =      3.16 TIME LEFT: 172796.83
 STEP:  86 TIME =     0.04 SECS, INTEGRAL =      3.19 TIME LEFT: 172796.80
 STEP:  87 TIME =     0.04 SECS, INTEGRAL =      3.23 TIME LEFT: 172796.76
 STEP:  88 TIME =     0.04 SECS, INTEGRAL =      3.27 TIME LEFT: 172796.72
 STEP:  89 TIME =     0.04 SECS, INTEGRAL =      3.30 TIME LEFT: 172796.68
 STEP:  90 TIME =     0.04 SECS, INTEGRAL =      3.34 TIME LEFT: 172796.64
 STEP:  91 TIME =     0.04 SECS, INTEGRAL =      3.38 TIME LEFT: 172796.61
 STEP:  92 TIME =     0.04 SECS, INTEGRAL =      3.42 TIME LEFT: 172796.57
 STEP:  93 TIME =     0.04 SECS, INTEGRAL =      3.46 TIME LEFT: 172796.53
 STEP:  94 TIME =     0.04 SECS, INTEGRAL =      3.49 TIME LEFT: 172796.50
 STEP:  95 TIME =     0.04 SECS, INTEGRAL =      3.53 TIME LEFT: 172796.46
 STEP:  96 TIME =     0.04 SECS, INTEGRAL =      3.57 TIME LEFT: 172796.42

(To convert to Hartree/Bohr^2, multiply by (10^(-21) x N x a0^2)/(4.184 x 627.51) =  0.0642)


           FORCE MATRIX IN MILLIDYNES/ANGSTROM


                  C  1       C  2       C  3       C  4       C  5       C  6
 ------------------------------------------------------------------------------
     C    1  14.189763
     C    2   2.586893  14.323904
     C    3   4.006531   0.461305  14.660694
     C    4   0.481887   4.370474   0.028044  14.502513
     C    5   0.014861   0.000876   0.139756   0.000537  14.677136
     C    6   0.658927   0.046167   4.103401   0.006437   0.014423  14.314415
     C    7   0.021827   0.666249   0.001892   4.471887   0.005342   0.000307
     C    8   0.002113   0.000586   0.018101   0.000379   4.424134   0.002588
     C    9   0.655649   0.030979   4.573179   0.002538   0.822649   0.679456
     C   10   2.228154   3.928501   0.048628   0.553907   0.000684   0.006784
     C   11   3.884272   2.231083   0.536425   0.048443   0.003469   0.044378
     C   12   0.053837   0.004940   0.759539   0.004242   4.950935   0.055459
     H   13   0.432817   0.022124   4.209694   0.000943   0.006906   0.419449
     H   14   0.422598   4.413738   0.026537   0.436556   0.000487   0.002420
     H   15   4.385284   0.421070   0.440894   0.026043   0.001710   0.021172
     H   16   0.043288   0.432990   0.005583   4.457009   0.000160   0.001636
     H   17   0.025280   0.450205   0.001405   4.450341   0.000200   0.000575
     H   18   0.002278   0.000427   0.018606   0.000596   4.391201   0.001491
     H   19   0.000551   0.000185   0.003524   0.000181   4.442219   0.000305
     H   20   0.000165   0.000122   0.000838   0.000148   0.461569   0.000359
     H   21   0.000118   0.000120   0.000833   0.000110   0.464923   0.000274
     H   22   0.000326   0.000177   0.003070   0.000109   0.449565   0.000635
     H   23   0.021036   0.001448   0.468599   0.000511   0.000983   4.704570
     H   24   0.026529   0.002176   0.458174   0.000461   0.002584   4.723945
     H   25   0.051229   0.007933   0.455374   0.001316   0.000594   4.762269
     H   26   0.001552   0.052385   0.000501   0.450597   0.000327   0.000326
     H   27   0.001757   0.022327   0.000666   0.463839   0.000456   0.000174
     H   28   0.004775   0.022717   0.003523   0.462092   0.010727   0.000876
     H   29   0.020622   0.001407   0.084619   0.001132   0.431492   0.018475
     H   30   0.026271   0.003289   0.432718   0.000785   0.087514   0.025832
     H   31   0.117672   0.340648   0.016339   0.011341   0.000386   0.001293
     H   32   0.339518   0.117839   0.010097   0.016972   0.000526   0.009305


                  C  7       C  8       C  9       C 10       C 11       C 12
 ------------------------------------------------------------------------------
     C    7  14.351404
     C    8   0.000620  14.360262
     C    9   0.015787   0.043233  17.975767
     C   10   0.049410   0.000456   0.007552  18.387961
     C   11   0.008310   0.000474   0.046057  10.405751  18.364697
     C   12   0.025640   0.713147  10.665826   0.001169   0.003121  18.125099
     H   13   0.000341   0.001086   0.417052   0.003592   0.019638   0.048664
     H   14   0.032256   0.000222   0.005203   0.414255   0.043288   0.001617
     H   15   0.004996   0.000353   0.020210   0.042710   0.414101   0.013308
     H   16   0.441323   0.000178   0.000545   0.019867   0.003479   0.001121
     H   17   0.437107   0.000109   0.000378   0.012869   0.003033   0.000610
     H   18   0.006033   0.446138   0.031081   0.000401   0.001167   0.409370
     H   19   0.000291   0.434459   0.049862   0.000127   0.000461   0.459845
     H   20   0.000164   4.746077   0.002306   0.000139   0.000209   0.015798
     H   21   0.000091   4.726222   0.002099   0.000129   0.000136   0.027384
     H   22   0.000153   4.750436   0.007389   0.000152   0.000201   0.052641
     H   23   0.000096   0.000296   0.020994   0.000786   0.002745   0.011941
     H   24   0.000169   0.000652   0.049489   0.000601   0.009352   0.002914
     H   25   0.000101   0.000293   0.020018   0.000872   0.002951   0.003833
     H   26   4.758493   0.000197   0.001245   0.008944   0.001394   0.002079
     H   27   4.723404   0.000195   0.001355   0.001387   0.000794   0.001978
     H   28   4.631567   0.000711   0.011081   0.002004   0.001116   0.009831
     H   29   0.003368   0.028510   0.471695   0.000659   0.004126   4.735245
     H   30   0.000501   0.008316   4.783168   0.001298   0.004439   0.470434
     H   31   0.002391   0.000208   0.002344   5.276367   0.422907   0.000700
     H   32   0.002745   0.000268   0.003144   0.422614   5.262439   0.000829


                  H 13       H 14       H 15       H 16       H 17       H 18
 ------------------------------------------------------------------------------
     H   13   4.650118
     H   14   0.020661   4.931632
     H   15   0.041675   0.022220   4.907453
     H   16   0.000345   0.020234   0.002480   5.063788
     H   17   0.000520   0.042714   0.026548   0.571671   5.062188
     H   18   0.000541   0.000160   0.000378   0.000314   0.000132   4.988532
     H   19   0.000493   0.000170   0.000411   0.000050   0.000094   0.564953
     H   20   0.000089   0.000059   0.000067   0.000078   0.000027   0.049077
     H   21   0.000058   0.000062   0.000110   0.000038   0.000041   0.023626
     H   22   0.000262   0.000090   0.000132   0.000035   0.000034   0.028149
     H   23   0.046415   0.000537   0.014553   0.000115   0.000162   0.000213
     H   24   0.030114   0.000434   0.001853   0.000143   0.000096   0.000189
     H   25   0.030320   0.000551   0.001791   0.000365   0.000124   0.000299
     H   26   0.000120   0.002210   0.000495   0.026602   0.032220   0.000331
     H   27   0.000182   0.020149   0.000584   0.026626   0.048214   0.000696
     H   28   0.000265   0.002638   0.004418   0.048561   0.022056   0.012778
     H   29   0.002287   0.000680   0.023485   0.000444   0.000449   0.015952
     H   30   0.032236   0.001949   0.001565   0.000176   0.000234   0.010662
     H   31   0.001336   0.005899   0.014491   0.004979   0.001985   0.000227
     H   32   0.002384   0.014677   0.005940   0.001140   0.001280   0.000226


                  H 19       H 20       H 21       H 22       H 23       H 24
 ------------------------------------------------------------------------------
     H   19   5.051541
     H   20   0.024507   5.484156
     H   21   0.047889   0.578047   5.470194
     H   22   0.030345   0.574137   0.573215   5.487564
     H   23   0.000247   0.000151   0.000135   0.000109   5.447830
     H   24   0.000111   0.000102   0.000075   0.000187   0.569148   5.459375
     H   25   0.000170   0.000131   0.000082   0.000090   0.572580   0.563837
     H   26   0.000091   0.000048   0.000039   0.000080   0.000066   0.000124
     H   27   0.000135   0.000047   0.000066   0.000064   0.000066   0.000058
     H   28   0.000340   0.000215   0.000173   0.000257   0.000201   0.000293
     H   29   0.038618   0.002731   0.021352   0.002139   0.022056   0.002837
     H   30   0.030216   0.000498   0.000570   0.001623   0.001698   0.004254
     H   31   0.000084   0.000065   0.000053   0.000073   0.000249   0.000586
     H   32   0.000089   0.000065   0.000046   0.000101   0.000674   0.017417


                  H 25       H 26       H 27       H 28       H 29       H 30
 ------------------------------------------------------------------------------
     H   25   5.492795
     H   26   0.000077   5.488499
     H   27   0.000066   0.574195   5.465346
     H   28   0.000226   0.557275   0.574761   5.362304
     H   29   0.000908   0.000528   0.000490   0.004902   5.121225
     H   30   0.002471   0.000373   0.000549   0.001297   0.108883   5.144835
     H   31   0.000296   0.000584   0.000631   0.000733   0.000604   0.000492
     H   32   0.000861   0.000647   0.000190   0.000497   0.000744   0.000714


                  H 31       H 32
 ------------------------------
     H   31   5.662233
     H   32   0.031272   5.650859


          HEAT OF FORMATION =      20.039540 KCALS/MOLE

          ZERO POINT ENERGY     179.744 KCAL/MOL


           NORMAL COORDINATE ANALYSIS (Total motion = 1 Angstrom)


   Root No.       1         2         3         4         5         6         7         8

                 1 A       2 A       3 A       4 A       5 A       6 A       7 A       8 A   

                  38.2      40.2      76.2      90.5      98.0     134.3     161.2     178.0
  
           1    0.0032    0.0025   -0.0129    0.0003   -0.0023   -0.0021   -0.0006   -0.0093
           2    0.0016   -0.0041    0.0001    0.0020    0.0052    0.0024   -0.0060   -0.0063
           3   -0.0064    0.0033    0.0089   -0.0086   -0.0051   -0.0168    0.0056   -0.0021
           4    0.0033    0.0025   -0.0129    0.0003   -0.0023   -0.0012   -0.0006   -0.0090
           5   -0.0077    0.0074   -0.0022   -0.0009    0.0057    0.0116   -0.0044    0.0033
           6    0.0116    0.0014   -0.0169   -0.0026    0.0020   -0.0090    0.0035   -0.0083
           7    0.0126   -0.0076   -0.0113    0.0002    0.0001   -0.0059    0.0028   -0.0024
           8    0.0061   -0.0091    0.0008    0.0018    0.0064    0.0017   -0.0050   -0.0026
           9   -0.0078   -0.0077    0.0065   -0.0062    0.0030    0.0048   -0.0053    0.0029
          10    0.0109    0.0064   -0.0282    0.0025    0.0046    0.0130   -0.0011    0.0030
          11    0.0030   -0.0011   -0.0065   -0.0148    0.0190   -0.0011    0.0003    0.0038
          12    0.0084    0.0104   -0.0233    0.0090   -0.0038    0.0088    0.0002   -0.0011
          13   -0.0139    0.0070    0.0150   -0.0083    0.0225    0.0014    0.0008    0.0009
          14   -0.0188   -0.0133   -0.0195    0.0254   -0.0225   -0.0077    0.0019   -0.0069
          15   -0.0144   -0.0087    0.0016   -0.0005   -0.0041    0.0033   -0.0064    0.0052
          16    0.0137   -0.0092   -0.0118   -0.0010    0.0011    0.0021    0.0090   -0.0058
          17    0.0195   -0.0197    0.0030   -0.0025    0.0102    0.0006    0.0088    0.0136
          18    0.0032   -0.0198    0.0049   -0.0109    0.0092    0.0406    0.0270   -0.0081
          19    0.0300   -0.0066    0.0314    0.0242   -0.0338    0.0253   -0.0064    0.0117
          20    0.0219   -0.0195    0.0210   -0.0255    0.0129   -0.0264    0.0084   -0.0049
          21    0.0201   -0.0008   -0.0043    0.0043   -0.0094   -0.0043    0.0043   -0.0054
          22   -0.0299   -0.0107    0.0086   -0.0263    0.0048    0.0127    0.0073   -0.0018
          23    0.0102    0.0499    0.0004   -0.0079   -0.0080    0.0101    0.0210   -0.0051
          24    0.0098    0.0192    0.0117    0.0239    0.0222   -0.0118   -0.0145    0.0091
          25    0.0090    0.0003   -0.0094   -0.0101   -0.0098   -0.0310   -0.0171    0.0173
          26   -0.0042   -0.0124   -0.0020    0.0155    0.0095    0.0080   -0.0178   -0.0054
          27   -0.0142   -0.0081    0.0053   -0.0001    0.0029    0.0048   -0.0149    0.0048
          28   -0.0162    0.0091    0.0079   -0.0059   -0.0086   -0.0046    0.0027   -0.0005
          29   -0.0212    0.0219    0.0066    0.0081   -0.0103    0.0143    0.0003    0.0092
          30    0.0030    0.0094   -0.0107    0.0016   -0.0066   -0.0079    0.0060   -0.0046
          31   -0.0162    0.0090    0.0082   -0.0059   -0.0087   -0.0049    0.0027   -0.0007
          32   -0.0104    0.0108    0.0119    0.0056   -0.0096   -0.0077    0.0033   -0.0034
          33   -0.0106    0.0100    0.0127   -0.0059   -0.0121   -0.0216    0.0103   -0.0018
          34   -0.0084    0.0009    0.0119    0.0340    0.0352   -0.0162   -0.0031   -0.0055
          35   -0.0070   -0.0113   -0.0155   -0.0025   -0.0204   -0.0016   -0.0220    0.0040
          36   -0.0070   -0.0087    0.0033   -0.0082   -0.0008    0.0034   -0.0185    0.0092
          37    0.0225   -0.0195   -0.0109   -0.0011    0.0066    0.0122    0.0207   -0.0028
          38    0.0074   -0.0027    0.0014   -0.0023    0.0030   -0.0024    0.0042   -0.0102
          39   -0.0147   -0.0056    0.0058   -0.0023    0.0017   -0.0023   -0.0223    0.0091
          40    0.0085   -0.0048   -0.0116    0.0030   -0.0032   -0.0057   -0.0023   -0.0179
          41   -0.0108    0.0112   -0.0020   -0.0019    0.0054    0.0136   -0.0033    0.0078
          42    0.0289   -0.0115   -0.0273   -0.0099    0.0157   -0.0160    0.0029   -0.0139
          43    0.0082    0.0063   -0.0268    0.0019    0.0020    0.0028   -0.0023   -0.0124
          44    0.0091   -0.0140   -0.0070    0.0014    0.0111    0.0112   -0.0119   -0.0053
          45   -0.0156    0.0096    0.0228   -0.0088   -0.0127   -0.0264    0.0116   -0.0006
          46    0.0053    0.0106   -0.0468   -0.0038    0.0169    0.0107    0.0003    0.0024
          47   -0.0079    0.0140   -0.0582   -0.0230    0.0488    0.0095    0.0010    0.0144
          48    0.0161    0.0101   -0.0096    0.0214   -0.0163    0.0249   -0.0035    0.0100
          49    0.0068    0.0154   -0.0664   -0.0059    0.0286    0.0189    0.0007    0.0120
          50    0.0082   -0.0086    0.0199   -0.0103    0.0037   -0.0061   -0.0001   -0.0012
          51   -0.0115    0.0265   -0.0566    0.0104    0.0090    0.0200   -0.0032   -0.0009
          52   -0.0379   -0.0286    0.0024    0.0017    0.0056   -0.0010    0.0058   -0.0034
          53   -0.0426   -0.0473   -0.0324    0.0636   -0.0322   -0.0228    0.0170   -0.0155
          54   -0.0277   -0.0297   -0.0050   -0.0222   -0.0204    0.0140   -0.0134    0.0073
          55    0.0165    0.0581    0.0330   -0.0437    0.0385    0.0162   -0.0033    0.0077
          56   -0.0276   -0.0313   -0.0254    0.0363   -0.0270   -0.0128   -0.0002   -0.0084
          57   -0.0260   -0.0098   -0.0014    0.0093   -0.0111    0.0029    0.0179   -0.0009
          58   -0.0059    0.0257    0.0225   -0.0399    0.0236    0.0244   -0.0350   -0.0151
          59    0.0343    0.0856    0.0166   -0.0551    0.0065    0.0499   -0.0972   -0.0477
          60    0.0232    0.0402    0.0168    0.0529    0.0373   -0.0360    0.0443    0.0336
          61   -0.0611   -0.0629   -0.0113    0.0130   -0.0149   -0.0176    0.0806    0.0251
          62    0.0187    0.0680    0.0063   -0.0184   -0.0037    0.0163    0.0228   -0.0060
          63    0.0221    0.0224    0.0179    0.0071    0.0351    0.0103   -0.1424   -0.0314
          64   -0.0356   -0.0087    0.0098   -0.0668   -0.0085    0.0408   -0.0177   -0.0178
          65    0.0004    0.0459   -0.0059    0.0231   -0.0154   -0.0211    0.1527    0.0393
          66    0.0037    0.0175    0.0086    0.0321    0.0158   -0.0226    0.0489    0.0291
          67    0.0043    0.0015   -0.0123    0.0029   -0.0042   -0.0176   -0.0086   -0.0195
          68    0.0165   -0.0267    0.0078    0.0050    0.0204    0.0118   -0.0009    0.0702
          69    0.0120   -0.0217    0.0016   -0.0195    0.0049    0.0456    0.0468   -0.0428
          70    0.0165   -0.0132   -0.0134   -0.0040    0.0031    0.0254    0.0258   -0.0192
          71    0.0292   -0.0175   -0.0012   -0.0124    0.0013   -0.0116    0.0263   -0.0383
          72    0.0086   -0.0193    0.0025   -0.0165    0.0050    0.0383    0.0387   -0.0366
          73    0.0212   -0.0173   -0.0096   -0.0021    0.0058    0.0053    0.0155    0.0177
          74    0.0234   -0.0234    0.0039   -0.0034    0.0120    0.0011    0.0123    0.0230
          75   -0.0023   -0.0273    0.0091   -0.0026    0.0212    0.0660    0.0203    0.0478
          76    0.0332   -0.0051    0.0234    0.0231   -0.0079    0.0412   -0.0033    0.0994
          77    0.0304   -0.0271    0.0217   -0.0373    0.0267   -0.0392    0.0159    0.0188
          78    0.0151    0.0062   -0.0093    0.0130   -0.0061    0.0143    0.0002    0.0236
          79    0.0361   -0.0141    0.0667    0.0357   -0.0750    0.0175   -0.0117   -0.0610
          80    0.0159   -0.0129   -0.0064   -0.0334    0.0420   -0.0202    0.0117    0.0435
          81    0.0399   -0.0168    0.0301    0.0032   -0.0182   -0.0138    0.0092    0.0152
          82    0.0358   -0.0110    0.0519    0.0317   -0.0496    0.0277   -0.0086    0.0046
          83    0.0346   -0.0328    0.0688   -0.0145   -0.0354   -0.0407    0.0046   -0.0839
          84    0.0149   -0.0006   -0.0188   -0.0076   -0.0087   -0.0246    0.0069   -0.0589
          85   -0.0213   -0.0048    0.0270    0.0947    0.0803   -0.0047    0.0126   -0.0345
          86   -0.0006   -0.0080   -0.0239   -0.0357   -0.0458   -0.0077   -0.0290    0.0197
          87    0.0047   -0.0094    0.0026   -0.0205   -0.0023    0.0012   -0.0318    0.0161
          88    0.0218    0.0068   -0.0265   -0.0702   -0.0596   -0.0508   -0.0366    0.0509
          89   -0.0106   -0.0159    0.0074    0.0479    0.0367    0.0191   -0.0061   -0.0240
          90   -0.0255   -0.0079    0.0063    0.0135    0.0066    0.0043   -0.0190    0.0018
          91   -0.0260    0.0126    0.0183   -0.0089   -0.0118   -0.0056    0.0041    0.0044
          92   -0.0340    0.0358    0.0083    0.0131   -0.0187    0.0260    0.0022    0.0198
          93    0.0074    0.0129   -0.0219    0.0078   -0.0074   -0.0003    0.0053   -0.0046
          94   -0.0256    0.0119    0.0188   -0.0091   -0.0118   -0.0064    0.0047    0.0037
          95   -0.0108    0.0120    0.0210    0.0069   -0.0175   -0.0248    0.0092   -0.0085
          96   -0.0214    0.0139    0.0288   -0.0089   -0.0192   -0.0310    0.0152    0.0008


   Root No.       9        10        11        12        13        14        15        16

                 9 A      10 A      11 A      12 A      13 A      14 A      15 A      16 A   

                 183.6     189.3     217.4     267.9     305.6     338.1     353.4     402.5
  
           1    0.0025    0.0014    0.0151    0.0051   -0.0122   -0.0096   -0.0091   -0.0067
           2   -0.0020   -0.0045    0.0275   -0.0068   -0.0143    0.0087   -0.0205   -0.0121
           3   -0.0005    0.0090    0.0045   -0.0191   -0.0121    0.0173    0.0097    0.0099
           4    0.0029    0.0010    0.0149   -0.0001   -0.0113   -0.0138   -0.0070   -0.0150
           5    0.0029   -0.0119   -0.0034    0.0037   -0.0306    0.0173   -0.0073   -0.0006
           6    0.0050    0.0034    0.0072   -0.0003   -0.0159    0.0070   -0.0020    0.0059
           7    0.0017    0.0035   -0.0017    0.0134    0.0004   -0.0081   -0.0073    0.0245
           8   -0.0024   -0.0039    0.0198   -0.0044   -0.0077    0.0068   -0.0124    0.0012
           9   -0.0025   -0.0051    0.0033   -0.0060   -0.0074   -0.0004   -0.0016    0.0080
          10    0.0007   -0.0035   -0.0053   -0.0279    0.0339   -0.0125    0.0055   -0.0088
          11    0.0024   -0.0073   -0.0092   -0.0155   -0.0015    0.0241   -0.0086    0.0214
          12    0.0042   -0.0024   -0.0019   -0.0024   -0.0101    0.0040    0.0085   -0.0072
          13   -0.0004   -0.0075    0.0012    0.0069    0.0084    0.0104    0.0058   -0.0225
          14   -0.0019    0.0167   -0.0152   -0.0014   -0.0011    0.0118   -0.0051   -0.0134
          15   -0.0043   -0.0047   -0.0051   -0.0076   -0.0031   -0.0203   -0.0347    0.0029
          16    0.0023    0.0053   -0.0012    0.0214    0.0058    0.0003   -0.0085    0.0240
          17    0.0002   -0.0009   -0.0256   -0.0285   -0.0175   -0.0202    0.0098   -0.0091
          18    0.0011    0.0053   -0.0061    0.0156    0.0156    0.0259    0.0033   -0.0127
          19   -0.0096   -0.0018    0.0015   -0.0152    0.0047    0.0083   -0.0034    0.0079
          20    0.0043    0.0066   -0.0054    0.0134    0.0079   -0.0104    0.0017   -0.0026
          21    0.0046    0.0054    0.0012    0.0141   -0.0087   -0.0137    0.0154   -0.0227
          22   -0.0007   -0.0025    0.0013   -0.0017    0.0004   -0.0070   -0.0109   -0.0048
          23    0.0010    0.0066    0.0011   -0.0050   -0.0062   -0.0043   -0.0026    0.0105
          24   -0.0038   -0.0125   -0.0044    0.0042    0.0083    0.0012   -0.0158   -0.0242
          25    0.0002   -0.0094   -0.0135    0.0141    0.0042    0.0205   -0.0121    0.0080
          26   -0.0033   -0.0046    0.0224    0.0052    0.0084   -0.0119    0.0292    0.0153
          27   -0.0038   -0.0079    0.0024   -0.0010    0.0041   -0.0102    0.0103    0.0105
          28    0.0011    0.0044   -0.0003   -0.0088   -0.0208   -0.0026    0.0205   -0.0108
          29    0.0039   -0.0068   -0.0238    0.0362    0.0012   -0.0148   -0.0027    0.0033
          30    0.0051    0.0061   -0.0040    0.0151   -0.0001   -0.0061   -0.0008    0.0136
          31    0.0009    0.0048    0.0005   -0.0098   -0.0197   -0.0023    0.0202   -0.0112
          32   -0.0033    0.0091    0.0150   -0.0040    0.0443   -0.0070   -0.0246   -0.0097
          33   -0.0006    0.0166   -0.0003   -0.0165    0.0166    0.0102    0.0114    0.0138
          34    0.0002    0.0047   -0.0110    0.0060    0.0001    0.0150    0.0083    0.0109
          35   -0.0028   -0.0046    0.0101    0.0122    0.0158    0.0103    0.0453   -0.0031
          36   -0.0043   -0.0130    0.0062   -0.0007    0.0035   -0.0173   -0.0041    0.0148
          37    0.0042    0.0089   -0.0186    0.0185    0.0087   -0.0128   -0.0006    0.0265
          38   -0.0041    0.0013    0.0282   -0.0100   -0.0178    0.0223   -0.0251   -0.0083
          39   -0.0026   -0.0120    0.0058   -0.0045   -0.0039   -0.0093    0.0048    0.0138
          40    0.0017    0.0034    0.0371    0.0042   -0.0221   -0.0174   -0.0211   -0.0247
          41    0.0033   -0.0126   -0.0144    0.0031   -0.0243    0.0178   -0.0002    0.0039
          42    0.0034    0.0047    0.0228   -0.0219   -0.0125    0.0200   -0.0138    0.0094
          43    0.0052   -0.0034    0.0160    0.0093   -0.0245   -0.0105   -0.0140   -0.0152
          44   -0.0017   -0.0130    0.0304    0.0018   -0.0293    0.0069   -0.0270   -0.0105
          45   -0.0021    0.0190    0.0002   -0.0286    0.0092    0.0184    0.0189    0.0137
          46    0.0025   -0.0041   -0.0086   -0.0366    0.0467   -0.0151    0.0076   -0.0085
          47    0.0019   -0.0125   -0.0291   -0.0571    0.0532    0.0266    0.0045    0.0291
          48   -0.0022   -0.0049   -0.0082   -0.0124   -0.0032    0.0151    0.0130   -0.0013
          49   -0.0004   -0.0057   -0.0226   -0.0620    0.0847   -0.0129    0.0176   -0.0017
          50    0.0025   -0.0046    0.0007    0.0056   -0.0286    0.0226   -0.0150    0.0174
          51    0.0078   -0.0115   -0.0042   -0.0164   -0.0141    0.0127    0.0075   -0.0084
          52   -0.0016    0.0042   -0.0120   -0.0011    0.0004    0.0069   -0.0253   -0.0274
          53   -0.0021    0.0372   -0.0432   -0.0131   -0.0168    0.0176   -0.0596   -0.0238
          54   -0.0060   -0.0071    0.0019   -0.0084    0.0001   -0.0307   -0.0297    0.0043
          55    0.0011   -0.0265    0.0263    0.0156    0.0194    0.0041    0.0477   -0.0125
          56   -0.0025    0.0214   -0.0215   -0.0026   -0.0029    0.0146   -0.0128   -0.0158
          57   -0.0036    0.0081   -0.0214   -0.0206   -0.0180   -0.0259   -0.0846   -0.0029
          58    0.0001    0.0118   -0.0067    0.0007    0.0027   -0.0007   -0.0063   -0.0131
          59    0.0013    0.0612   -0.0307   -0.0111   -0.0120   -0.0061   -0.0158    0.0140
          60   -0.0028   -0.0486    0.0171    0.0148    0.0185    0.0137    0.0060   -0.0424
          61   -0.0021   -0.0337    0.0162    0.0013    0.0040   -0.0042   -0.0072   -0.0108
          62    0.0018    0.0055    0.0048   -0.0064   -0.0082   -0.0094   -0.0024    0.0196
          63   -0.0053    0.0433   -0.0451    0.0053    0.0111    0.0193   -0.0230   -0.0534
          64   -0.0003    0.0187   -0.0053   -0.0150   -0.0133   -0.0324   -0.0323    0.0326
          65    0.0022   -0.0546    0.0426   -0.0014   -0.0039   -0.0128    0.0116    0.0249
          66   -0.0031   -0.0403    0.0158    0.0036    0.0069   -0.0080   -0.0127   -0.0103
          67   -0.0341   -0.0076    0.0161    0.0200   -0.0030   -0.0035   -0.0192    0.0442
          68    0.1501    0.0337   -0.0128   -0.0378   -0.0205   -0.0300    0.0094   -0.0126
          69   -0.0910   -0.0128   -0.0283    0.0238    0.0242    0.0364    0.0113   -0.0246
          70    0.0001    0.0098    0.0065    0.0474    0.0261    0.0354   -0.0133    0.0122
          71   -0.1584   -0.0362   -0.0632   -0.0339   -0.0204   -0.0289    0.0236   -0.0153
          72   -0.0795   -0.0118   -0.0238    0.0176    0.0179    0.0281    0.0094   -0.0179
          73    0.0403    0.0155   -0.0263    0.0029   -0.0013   -0.0224    0.0064    0.0127
          74    0.0117    0.0024   -0.0396   -0.0385   -0.0217   -0.0327    0.0179   -0.0148
          75    0.1779    0.0481    0.0261    0.0267    0.0273    0.0432   -0.0069   -0.0183
          76   -0.1069    0.0727    0.0337    0.0147   -0.0216    0.0112   -0.0073    0.0086
          77   -0.0268    0.0418    0.0070    0.0414    0.0118   -0.0413    0.0121   -0.0298
          78   -0.0240    0.0184    0.0089    0.0086   -0.0261    0.0117    0.0054   -0.0016
          79    0.0709   -0.0666   -0.0236   -0.0360    0.0126    0.0187   -0.0054    0.0190
          80   -0.0488    0.0487    0.0106    0.0249    0.0035   -0.0161    0.0027   -0.0090
          81   -0.0242    0.0366    0.0152    0.0484   -0.0195   -0.0341    0.0214   -0.0409
          82   -0.0018   -0.0100   -0.0000   -0.0149   -0.0027    0.0170   -0.0068    0.0162
          83    0.0896   -0.0581   -0.0307    0.0009    0.0171   -0.0092    0.0031    0.0002
          84    0.0624   -0.0322   -0.0181    0.0008    0.0217   -0.0373    0.0264   -0.0430
          85    0.0011    0.0297   -0.0116   -0.0080   -0.0139   -0.0139    0.0198    0.0523
          86   -0.0032   -0.0177    0.0096    0.0193    0.0228    0.0264    0.0370   -0.0271
          87   -0.0062   -0.0238    0.0156    0.0056    0.0098   -0.0192    0.0048    0.0265
          88   -0.0004   -0.0338   -0.0182    0.0281    0.0165    0.0624   -0.0356   -0.0372
          89   -0.0029    0.0090    0.0251   -0.0028    0.0009   -0.0348    0.0399    0.0397
          90   -0.0043   -0.0042   -0.0032    0.0020    0.0118   -0.0094    0.0403    0.0130
          91    0.0001    0.0056   -0.0092   -0.0135   -0.0259    0.0037    0.0357   -0.0081
          92    0.0083   -0.0118   -0.0597    0.0795    0.0022   -0.0409    0.0110    0.0203
          93    0.0086    0.0020   -0.0132    0.0441    0.0063   -0.0278   -0.0108    0.0196
          94    0.0008    0.0072   -0.0061   -0.0171   -0.0210    0.0040    0.0347   -0.0106
          95   -0.0105    0.0246    0.0288   -0.0228    0.1112   -0.0194   -0.0434   -0.0141
          96   -0.0038    0.0264   -0.0014   -0.0332    0.0457    0.0118    0.0189    0.0125


   Root No.      17        18        19        20        21        22        23        24

                17 A      18 A      19 A      20 A      21 A      22 A      23 A      24 A   

                 447.8     479.6     541.6     644.0     760.4     802.6     808.2     855.5
  
           1    0.0168    0.0117   -0.0081    0.0053   -0.0015    0.0196   -0.0028    0.0163
           2   -0.0094    0.0086    0.0190    0.0031   -0.0036    0.0110    0.0047    0.0140
           3    0.0009   -0.0056    0.0254   -0.0009   -0.0195   -0.0054    0.0041    0.0245
           4    0.0208    0.0237   -0.0023   -0.0010   -0.0119   -0.0156    0.0016    0.0081
           5   -0.0061   -0.0055   -0.0287    0.0106   -0.0168   -0.0090    0.0011    0.0236
           6    0.0235    0.0057   -0.0065   -0.0091    0.0064   -0.0022   -0.0004   -0.0081
           7   -0.0031   -0.0245   -0.0016    0.0230   -0.0008   -0.0006   -0.0017   -0.0009
           8   -0.0185   -0.0087    0.0360   -0.0055    0.0139   -0.0061    0.0031   -0.0142
           9   -0.0076    0.0161    0.0194    0.0598    0.0089   -0.0028   -0.0070   -0.0094
          10   -0.0073    0.0080    0.0210   -0.0010   -0.0161   -0.0310    0.0033   -0.0016
[...]
 TRANSITION DIPOLE   0.0819         C  4 -- H 16         +31.0% ( 57.5%)     96.3%
 TRAVEL (Ang.)       0.2890         C  1 -- H 15         +18.5% ( 44.4%)    100.0%
 REDUCED MASS        0.2736         C  2 -- H 14         +14.6% ( 39.4%)     99.9%
 EFFECTIVE MASS      1.5051
 FORCE CONSTANT      1.4037

 VIBRATION         75   75A           ATOM PAIR      ENERGY CONTRIBUTION    RADIAL
 FREQUENCY          2958.94         C  2 -- H 14         +64.0% ( 81.9%)    100.0%
 TRANSITION DIPOLE   0.1169         C  4 -- H 16         +14.1% ( 38.4%)     96.6%
 TRAVEL (Ang.)       0.2220         C  4 -- H 17         +13.6% ( 37.7%)     96.6%
 REDUCED MASS        0.4623         C  1 -- H 15          +4.8% ( 22.4%)     99.9%
 EFFECTIVE MASS      1.4611
 FORCE CONSTANT      2.3847

 VIBRATION         76   76A           ATOM PAIR      ENERGY CONTRIBUTION    RADIAL
 FREQUENCY          3019.82         C  5 -- H 19         +55.5% ( 73.6%)     98.6%
 TRANSITION DIPOLE   0.0456         C  5 -- H 18         +38.1% ( 61.0%)     96.4%
 TRAVEL (Ang.)       0.2220         C 12 -- H 29          +4.2% ( 20.3%)     99.9%
 REDUCED MASS        0.4531         C  5 -- C 12          +0.7% (  8.4%)     27.6%
 EFFECTIVE MASS      1.2944
 FORCE CONSTANT      2.4344

 VIBRATION         77   77A           ATOM PAIR      ENERGY CONTRIBUTION    RADIAL
 FREQUENCY          3029.77         C 12 -- H 29         +92.7% ( 97.4%)    100.0%
 TRANSITION DIPOLE   0.2567         C  5 -- H 19          +3.0% ( 17.4%)     99.4%
 TRAVEL (Ang.)       0.1628         C  9 -- C 12          +1.3% ( 11.7%)     39.8%
 REDUCED MASS        0.8402         C  5 -- C 12          +1.2% ( 11.3%)     12.4%
 EFFECTIVE MASS      1.4875
 FORCE CONSTANT      4.5439

 VIBRATION         78   78A           ATOM PAIR      ENERGY CONTRIBUTION    RADIAL
 FREQUENCY          3032.77         C  4 -- H 16         +49.8% ( 69.5%)     97.8%
 TRANSITION DIPOLE   0.0228         C  4 -- H 17         +47.8% ( 68.1%)     97.6%
 TRAVEL (Ang.)       0.2165         C  4 -- C  7          +0.6% (  7.9%)     25.5%
 REDUCED MASS        0.4743         C  2 -- C  4          +0.6% (  7.6%)     29.3%
 EFFECTIVE MASS      1.2762
 FORCE CONSTANT      2.5702

 VIBRATION         79   79A           ATOM PAIR      ENERGY CONTRIBUTION    RADIAL
 FREQUENCY          3038.47         C  9 -- H 30         +96.0% ( 99.4%)    100.0%
 TRANSITION DIPOLE   0.2297         C  9 -- C 12          +1.6% ( 12.8%)     38.4%
 TRAVEL (Ang.)       0.1562         C  3 -- C  9          +1.4% ( 11.8%)     14.7%
 REDUCED MASS        0.9096         C 12 -- H 29          +0.5% (  7.0%)     96.5%
 EFFECTIVE MASS      1.5244
 FORCE CONSTANT      4.9480

 VIBRATION         80   80A           ATOM PAIR      ENERGY CONTRIBUTION    RADIAL
 FREQUENCY          3058.05         C  7 -- H 28         +74.2% ( 88.7%)     99.2%
 TRANSITION DIPOLE   0.1289         C  7 -- H 27         +19.0% ( 44.9%)     88.0%
 TRAVEL (Ang.)       0.1896         C  7 -- H 26          +5.0% ( 23.1%)     57.9%
 REDUCED MASS        0.6133         C  4 -- C  7          +1.0% ( 10.2%)      0.2%
 EFFECTIVE MASS      1.4936
 FORCE CONSTANT      3.3794

 VIBRATION         81   81A           ATOM PAIR      ENERGY CONTRIBUTION    RADIAL
 FREQUENCY          3075.53         C  6 -- H 23         +61.3% ( 80.8%)     98.5%
 TRANSITION DIPOLE   0.0137         C  6 -- H 24         +33.7% ( 59.9%)     94.0%
 TRAVEL (Ang.)       0.2054         C  6 -- H 25          +3.8% ( 20.0%)     44.7%
 REDUCED MASS        0.5199         C  3 -- C  6          +1.0% ( 10.3%)      0.0%
 EFFECTIVE MASS      1.5042
 FORCE CONSTANT      2.8974

 VIBRATION         82   82A           ATOM PAIR      ENERGY CONTRIBUTION    RADIAL
 FREQUENCY          3081.23         C  8 -- H 21         +64.1% ( 82.6%)     98.7%
 TRANSITION DIPOLE   0.0082         C  8 -- H 20         +28.1% ( 54.7%)     92.1%
 TRAVEL (Ang.)       0.2047         C  8 -- H 22          +6.5% ( 26.3%)     62.6%
 REDUCED MASS        0.5223         C  5 -- C  8          +1.0% ( 10.2%)      0.0%
 EFFECTIVE MASS      1.5014
 FORCE CONSTANT      2.9215

 VIBRATION         83   83A           ATOM PAIR      ENERGY CONTRIBUTION    RADIAL
 FREQUENCY          3083.74         C  7 -- H 26         +52.2% ( 74.5%)     97.8%
 TRANSITION DIPOLE   0.0135         C  7 -- H 27         +43.2% ( 67.8%)     95.9%
 TRAVEL (Ang.)       0.2116         C  7 -- H 28          +3.1% ( 18.2%)     37.3%
 REDUCED MASS        0.4883         C  4 -- C  7          +1.0% ( 10.3%)      0.0%
 EFFECTIVE MASS      1.5036
 FORCE CONSTANT      2.7358

 VIBRATION         84   84A           ATOM PAIR      ENERGY CONTRIBUTION    RADIAL
 FREQUENCY          3085.29         C  6 -- H 25         +56.8% ( 77.7%)     98.4%
 TRANSITION DIPOLE   0.0182         C  6 -- H 24         +34.2% ( 60.4%)     93.7%
 TRAVEL (Ang.)       0.2143         C  6 -- H 23          +7.9% ( 29.0%)     66.5%
 REDUCED MASS        0.4761         C  3 -- C  6          +1.0% ( 10.5%)      0.1%
 EFFECTIVE MASS      1.5074
 FORCE CONSTANT      2.6701

 VIBRATION         85   85A           ATOM PAIR      ENERGY CONTRIBUTION    RADIAL
 FREQUENCY          3085.94         C  8 -- H 22         +58.1% ( 78.6%)     98.3%
 TRANSITION DIPOLE   0.0122         C  8 -- H 20         +36.8% ( 62.5%)     94.6%
 TRAVEL (Ang.)       0.2085         C  8 -- H 21          +3.7% ( 20.0%)     44.4%
 REDUCED MASS        0.5028         C  5 -- C  8          +1.0% ( 10.3%)      0.0%
 EFFECTIVE MASS      1.5044
 FORCE CONSTANT      2.8214

 VIBRATION         86   86A           ATOM PAIR      ENERGY CONTRIBUTION    RADIAL
 FREQUENCY          3171.79         C  7 -- H 26         +42.7% ( 63.0%)     98.1%
 TRANSITION DIPOLE   0.0619         C  7 -- H 27         +37.4% ( 58.9%)     97.5%
 TRAVEL (Ang.)       0.2461         C  7 -- H 28         +19.7% ( 42.8%)     93.2%
 REDUCED MASS        0.3509         C  4 -- C  7          +0.3% (  5.3%)     92.4%
 EFFECTIVE MASS      1.1447
 FORCE CONSTANT      2.0798

 VIBRATION         87   87A           ATOM PAIR      ENERGY CONTRIBUTION    RADIAL
 FREQUENCY          3176.67         C  6 -- H 25         +39.4% ( 60.4%)     97.9%
 TRANSITION DIPOLE   0.0460         C  6 -- H 24         +30.8% ( 53.4%)     96.6%
 TRAVEL (Ang.)       0.2534         C  6 -- H 23         +29.3% ( 52.1%)     96.4%
 REDUCED MASS        0.3305         C  3 -- C  6          +0.3% (  5.0%)     98.3%
 EFFECTIVE MASS      1.1361
 FORCE CONSTANT      1.9647

 VIBRATION         88   88A           ATOM PAIR      ENERGY CONTRIBUTION    RADIAL
 FREQUENCY          3182.96         C  8 -- H 22         +34.5% ( 56.5%)     97.3%
 TRANSITION DIPOLE   0.0216         C  8 -- H 20         +34.4% ( 56.4%)     97.3%
 TRAVEL (Ang.)       0.2543         C  8 -- H 21         +30.9% ( 53.5%)     96.7%
 REDUCED MASS        0.3277         C  5 -- C  8          +0.3% (  5.1%)     99.8%
 EFFECTIVE MASS      1.1361
 FORCE CONSTANT      1.9561

 VIBRATION         89   89A           ATOM PAIR      ENERGY CONTRIBUTION    RADIAL
 FREQUENCY          3191.31         C 11 -- H 32         +56.0% ( 76.6%)    100.0%
 TRANSITION DIPOLE   0.4656         C 10 -- H 31         +39.6% ( 64.5%)    100.0%
 TRAVEL (Ang.)       0.2105         C 10 -- C 11          +1.1% ( 10.6%)      1.3%
 REDUCED MASS        0.4768         C  2 -- C 11          +1.0% ( 10.0%)     99.8%
 EFFECTIVE MASS      1.4637
 FORCE CONSTANT      2.8608

 VIBRATION         90   90A           ATOM PAIR      ENERGY CONTRIBUTION    RADIAL
 FREQUENCY          3212.13         C 10 -- H 31         +54.4% ( 76.3%)     99.9%
 TRANSITION DIPOLE   0.3935         C 11 -- H 32         +38.2% ( 64.0%)     99.9%
 TRAVEL (Ang.)       0.2082         C 10 -- C 11          +3.0% ( 17.9%)     99.5%
 REDUCED MASS        0.4842         C  1 -- C 10          +1.3% ( 11.6%)     98.4%
 EFFECTIVE MASS      1.7356
 FORCE CONSTANT      2.9432

      SYMMETRY NUMBER FOR POINT-GROUP C1  =  1


          SYSTEM IS A GROUND STATE



 InChI=1S/C12H20/c1-4-6-7-10(3)12-9-8-11(12)5-2/h6-12H,4-5H2,1-3H3


          MOLECULE IS NOT LINEAR

          THERE ARE 90 GENUINE VIBRATIONS IN THIS SYSTEM
          THIS THERMODYNAMICS CALCULATION IS LIMITED TO
          MOLECULES WHICH HAVE NO INTERNAL ROTATIONS




                    CALCULATED THERMODYNAMIC PROPERTIES
                                          *
   TEMP. (K)   PARTITION FUNCTION   H.O.F.    ENTHALPY  HEAT CAPACITY ENTROPY
                                   KCAL/MOL   CAL/MOLE    CAL/K/MOL  CAL/K/MOL


 298.00  VIB.     0.1421D+06                  7263.8429    46.8943    47.9527
         ROT.     0.1540D+07                   888.2803     2.9808    31.2936
         INT.     0.2190D+12                  8152.1232    49.8751    79.2463
         TRA.     0.2036D+28                  1480.4672     4.9680    41.1956
         TOT.                       20.040    9632.5904    54.8431   120.4420

 200.00  VIB.     0.2315D+04                  3437.6428    31.7810    32.5831
         ROT.     0.8469D+06                   596.1613     2.9808    30.1049
         INT.     0.1960D+10                  4033.8040    34.7618    62.6880
         TRA.     0.1119D+28                   993.6021     4.9680    39.2145
         TOT.                       15.434    5027.4062    39.7298   101.9025

 210.00  VIB.     0.3561D+04                  3762.2544    33.1482    34.1666
         ROT.     0.9113D+06                   625.9693     2.9808    30.2504
         INT.     0.3245D+10                  4388.2238    36.1290    64.4170
         TRA.     0.1204D+28                  1043.2822     4.9680    39.4569
         TOT.                       15.838    5431.5060    41.0970   103.8739

 220.00  VIB.     0.5463D+04                  4100.7487    34.5579    35.7410
         ROT.     0.9771D+06                   655.7774     2.9808    30.3890
         INT.     0.5338D+10                  4756.5261    37.5387    66.1301
         TRA.     0.1291D+28                  1092.9623     4.9680    39.6880
         TOT.                       16.256    5849.4884    42.5067   105.8181

 230.00  VIB.     0.8355D+04                  4453.5590    36.0115    37.3091
         ROT.     0.1044D+07                   685.5855     2.9808    30.5215
         INT.     0.8727D+10                  5139.1444    38.9923    67.8306
         TRA.     0.1380D+28                  1142.6424     4.9680    39.9088
         TOT.                       16.689    6281.7869    43.9603   107.7395

 240.00  VIB.     0.1275D+05                  4821.1227    37.5084    38.8732
         ROT.     0.1113D+07                   715.3935     2.9808    30.6484
         INT.     0.1419D+11                  5536.5163    40.4892    69.5216
         TRA.     0.1471D+28                  1192.3226     4.9680    40.1203
         TOT.                       17.136    6728.8388    45.4572   109.6419

 250.00  VIB.     0.1940D+05                  5203.8655    39.0469    40.4354
         ROT.     0.1184D+07                   745.2016     2.9808    30.7701
         INT.     0.2297D+11                  5949.0671    42.0277    71.2055
         TRA.     0.1564D+28                  1242.0027     4.9680    40.3231
         TOT.                       17.598    7191.0697    46.9957   111.5286

 260.00  VIB.     0.2947D+05                  5602.1882    40.6238    41.9975
         ROT.     0.1255D+07                   775.0097     2.9808    30.8870
         INT.     0.3700D+11                  6377.1979    43.6046    72.8845
         TRA.     0.1659D+28                  1291.6828     4.9680    40.5179
         TOT.                       18.076    7668.8807    48.5726   113.4024

 270.00  VIB.     0.4468D+05                  6016.4578    42.2355    43.5607
         ROT.     0.1328D+07                   804.8177     2.9808    30.9995
         INT.     0.5936D+11                  6821.2755    45.2163    74.5602
         TRA.     0.1756D+28                  1341.3629     4.9680    40.7054
         TOT.                       18.570    8162.6384    50.1843   115.2657

 280.00  VIB.     0.6763D+05                  6446.9996    43.8775    45.1263
         ROT.     0.1403D+07                   834.6258     2.9808    31.1079
         INT.     0.9488D+11                  7281.6254    46.8583    76.2342
         TRA.     0.1854D+28                  1391.0430     4.9680    40.8861
         TOT.                       19.080    8672.6684    51.8263   117.1203

 290.00  VIB.     0.1022D+06                  6894.0934    45.5451    46.6951
         ROT.     0.1479D+07                   864.4339     2.9808    31.2125
         INT.     0.1512D+12                  7758.5272    48.5259    77.9076
         TRA.     0.1954D+28                  1440.7231     4.9680    41.0604
         TOT.                       19.606    9199.2503    53.4939   118.9680

 300.00  VIB.     0.1543D+06                  7357.9705    47.2334    48.2675
         ROT.     0.1556D+07                   894.2419     2.9808    31.3135
         INT.     0.2401D+12                  8252.2124    50.2142    79.5811
         TRA.     0.2056D+28                  1490.4032     4.9680    41.2289
         TOT.                       20.150    9742.6156    55.1822   120.8099

 310.00  VIB.     0.2328D+06                  7838.8130    48.9374    49.8441
         ROT.     0.1634D+07                   924.0500     2.9808    31.4113
         INT.     0.3804D+12                  8762.8630    51.9182    81.2553
         TRA.     0.2160D+28                  1540.0833     4.9680    41.3918
         TOT.                       20.710   10302.9463    56.8862   122.6471

 320.00  VIB.     0.3508D+06                  8336.7543    50.6523    51.4248
         ROT.     0.1714D+07                   953.8580     2.9808    31.5059
         INT.     0.6013D+12                  9290.6124    53.6331    82.9307
         TRA.     0.2265D+28                  1589.7634     4.9680    41.5495
         TOT.                       21.287   10880.3758    58.6011   124.4802

 330.00  VIB.     0.5282D+06                  8851.8807    52.3736    53.0098
         ROT.     0.1795D+07                   983.6661     2.9808    31.5976
         INT.     0.9482D+12                  9835.5468    55.3544    84.6074
         TRA.     0.2372D+28                  1639.4435     4.9680    41.7024
         TOT.                       21.882   11474.9903    60.3224   126.3098

 340.00  VIB.     0.7949D+06                  9384.2334    54.0969    54.5989
         ROT.     0.1877D+07                  1013.4742     2.9808    31.6866
         INT.     0.1492D+13                 10397.7076    57.0777    86.2855
         TRA.     0.2481D+28                  1689.1236     4.9680    41.8507
         TOT.                       22.494   12086.8312    62.0457   128.1362

 350.00  VIB.     0.1196D+07                  9933.8120    55.8182    56.1919
         ROT.     0.1961D+07                  1043.2822     2.9808    31.7730
         INT.     0.2345D+13                 10977.0943    58.7990    87.9649
         TRA.     0.2591D+28                  1738.8037     4.9680    41.9947
         TOT.                       23.123   12715.8980    63.7670   129.9596

 360.00  VIB.     0.1798D+07                 10500.5774    57.5337    57.7884
         ROT.     0.2045D+07                  1073.0903     2.9808    31.8570
         INT.     0.3678D+13                 11573.6677    60.5145    89.6454
         TRA.     0.2703D+28                  1788.4838     4.9680    42.1347
         TOT.                       23.769   13362.1515    65.4825   131.7801

 370.00  VIB.     0.2703D+07                 11084.4552    59.2401    59.3880
         ROT.     0.2131D+07                  1102.8984     2.9808    31.9387
         INT.     0.5760D+13                 12187.3536    62.2209    91.3267
         TRA.     0.2817D+28                  1838.1639     4.9680    42.2708
         TOT.                       24.432   14025.5175    67.1889   133.5975

 380.00  VIB.     0.4062D+07                 11685.3398    60.9346    60.9904
         ROT.     0.2218D+07                  1132.7064     2.9808    32.0182
         INT.     0.9009D+13                 12818.0462    63.9154    93.0086
         TRA.     0.2932D+28                  1887.8440     4.9680    42.4033
         TOT.                       25.113   14705.8903    68.8834   135.4118

 390.00  VIB.     0.6103D+07                 12303.0974    62.6143    62.5950
         ROT.     0.2306D+07                  1162.5145     2.9808    32.0956
         INT.     0.1407D+14                 13465.6119    65.5951    94.6906
         TRA.     0.3048D+28                  1937.5242     4.9680    42.5323
         TOT.                       25.810   15403.1360    70.5631   137.2229

 400.00  VIB.     0.9168D+07                 12937.5698    64.2772    64.2012
         ROT.     0.2396D+07                  1192.3226     2.9808    32.1711
         INT.     0.2196D+14                 14129.8924    67.2580    96.3723
         TRA.     0.3166D+28                  1987.2043     4.9680    42.6581
         TOT.                       26.524   16117.0966    72.2260   139.0304

   *: NOTE: HEATS OF FORMATION ARE RELATIVE TO THE
            ELEMENTS IN THEIR STANDARD STATE AT 298K
              (=  Standard Enthalpy of Formation).

            Hvib:  Zero-point energy is not included.
                   frequencies of less than zero cm-1 are not included.
            Hrot = (3/2)RT
            Htra = (3/2)RT + pV = (5/2)RT

            Heat capacity is Cp, not Cv

          For more information, see: HTTP://OpenMOPAC.net/Manual/thermochemistry.html


           FORCE CONSTANT IN CARTESIAN COORDINATES (Millidynes/A)

    ATOM   CHEMICAL       X               Y               Z
   NUMBER   SYMBOL  FORCE CONSTANT  FORCE CONSTANT  FORCE CONSTANT

      1       C        7.336963        8.247786        8.418029
      2       C        7.193829        8.508286        8.469256
      3       C        8.137362        8.348279        8.881199
      4       C        8.284957        8.390675        8.441828
      5       C        8.186361        8.441356        8.763632
      6       C        8.062263        8.374642        8.350350
      7       C        8.198027        8.264049        8.391091
      8       C        8.217994        8.251854        8.400481
      9       C        4.725618        8.448693       13.869606
     10       C       15.267761        3.650358        7.656354
     11       C       15.265578        3.542710        7.717216
     12       C        4.698529        8.280473       14.123368
     13       H        1.398700        1.899798        2.670528
     14       H        1.376650        4.148341        0.692013
     15       H        1.383696        2.138760        2.678325
     16       H        4.339953        0.908811        1.113667
     17       H        1.802141        3.795031        0.795750
     18       H        2.907448        1.698206        1.644529
     19       H        1.097899        4.427329        0.867276
     20       H        3.213109        1.832086        1.735565
     21       H        1.174387        4.743752        0.865946
     22       H        0.893604        1.657613        4.238858
     23       H        1.709518        2.054666        2.997378
     24       H        0.802625        1.611782        4.351121
     25       H        1.562470        4.556031        0.669426
     26       H        1.399345        2.330100        3.054843
     27       H        2.199861        3.806593        0.766373
     28       H        4.517392        1.049225        1.095340
     29       H        1.478506        3.921472        0.798501
     30       H        1.440567        3.961506        0.793006
     31       H        3.191941        0.949485        2.438403
     32       H        3.179983        0.815469        2.584035

 **********************
 *                    *
 * JOB ENDED NORMALLY *
 *                    *
 **********************



 TOTAL JOB TIME:             9.12 SECONDS

 == MOPAC DONE ==
