 *******************************************************************************
 **                                                                           **
 **                              MOPAC v23.1.2                                **
 **                                                                           **
 *******************************************************************************
 **          Digital Object Identifier (DOI): 10.5281/zenodo.6511958          **
 **    Visit the DOI location for information on how to cite this program.    **
 *******************************************************************************

                              PM3 CALCULATION RESULTS

 *******************************************************************************
 *  CALCULATION DONE: (MAX THREADS = 1)              Tue Jun  3 16:28:45 2025  *
 *  PM3        - The PM3 Hamiltonian to be used
 *  PRECISE    - TIGHTER CRITERIA TO BE USED
 *  NOSYM      - POINT-GROUP SYMMETRY SET TO C1
 *  THREADS=1  - MULTI-THREADING NOT USED
 *  T=         - A TIME OF 172800.0 SECONDS REQUESTED
 *  DUMP=N     - RESTART FILE WRITTEN EVERY 7200.0 SECONDS REQUESTED
 *******************************************************************************
pm3  precise nosym THREADS=1
 InChI=1S/C7H6/c1-2-7-5-3-4-6-7/h3-6H,1H2

   ATOM   CHEMICAL          X               Y               Z
  NUMBER   SYMBOL      (ANGSTROMS)     (ANGSTROMS)     (ANGSTROMS)

     1       C          1.28030000  *  -1.15690000  *  -1.03170000  *
     2       C          1.13130000  *  -1.91230000  *   0.20100000  *
     3       C          0.24540000  *  -0.13640000  *  -1.03380000  *
     4       C          0.09430000  *  -1.40340000  *   0.85210000  *
     5       C         -0.46130000  *  -0.28960000  *   0.07770000  *
     6       C          3.24650000  *  -1.35800000  *  -2.73150000  *
     7       C          2.26410000  *  -1.25760000  *  -1.88230000  *
     8       H          1.74940000  *  -2.73280000  *   0.54190000  *
     9       H         -0.26760000  *  -1.75110000  *   1.81040000  *
    10       H         -1.30330000  *   0.32500000  *   0.36690000  *
    11       H          0.07690000  *   0.62000000  *  -1.78940000  *
    12       H          3.29660000  *  -0.69110000  *  -3.58130000  *
    13       H          4.01200000  *  -2.10780000  *  -2.58620000  *



          CARTESIAN COORDINATES 

    NO.       ATOM           X           Y           Z

     1         C          1.2803     -1.1569     -1.0317
     2         C          1.1313     -1.9123      0.2010
     3         C          0.2454     -0.1364     -1.0338
     4         C          0.0943     -1.4034      0.8521
     5         C         -0.4613     -0.2896      0.0777
     6         C          3.2465     -1.3580     -2.7315
     7         C          2.2641     -1.2576     -1.8823
     8         H          1.7494     -2.7328      0.5419
     9         H         -0.2676     -1.7511      1.8104
    10         H         -1.3033      0.3250      0.3669
    11         H          0.0769      0.6200     -1.7894
    12         H          3.2966     -0.6911     -3.5813
    13         H          4.0120     -2.1078     -2.5862

  H: (PM3): J. J. P. STEWART, J. COMP. CHEM. 10, 209 (1989).
  C: (PM3): J. J. P. STEWART, J. COMP. CHEM. 10, 209 (1989).

           Empirical Formula: C7 H6  =    13 atoms



      MOLECULAR POINT GROUP   :   C1  


      RHF CALCULATION, NO. OF DOUBLY OCCUPIED LEVELS = 17


          Geometry optimization using EF

          DIAGONAL MATRIX USED AS START HESSIAN

 CYCLE:     1 TIME:   0.012 TIME LEFT:  2.00D  GRAD.:   137.629 HEAT:  137.0813
 CYCLE:     2 TIME:   0.008 TIME LEFT:  2.00D  GRAD.:   180.699 HEAT:  137.0740
 CYCLE:     3 TIME:   0.004 TIME LEFT:  2.00D  GRAD.:   124.836 HEAT:  131.8348
 CYCLE:     4 TIME:   0.008 TIME LEFT:  2.00D  GRAD.:   104.424 HEAT:  128.9712
 CYCLE:     5 TIME:   0.004 TIME LEFT:  2.00D  GRAD.:   107.069 HEAT:  127.0923
 CYCLE:     6 TIME:   0.004 TIME LEFT:  2.00D  GRAD.:   106.628 HEAT:  124.1036
 CYCLE:     7 TIME:   0.004 TIME LEFT:  2.00D  GRAD.:   149.693 HEAT:  122.5610
 CYCLE:     8 TIME:   0.004 TIME LEFT:  2.00D  GRAD.:   115.852 HEAT:  117.5059
 CYCLE:     9 TIME:   0.008 TIME LEFT:  2.00D  GRAD.:   163.803 HEAT:  116.5700
 CYCLE:    10 TIME:   0.004 TIME LEFT:  2.00D  GRAD.:    85.250 HEAT:  108.1924
 CYCLE:    11 TIME:   0.004 TIME LEFT:  2.00D  GRAD.:   117.949 HEAT:  106.8244
 CYCLE:    12 TIME:   0.008 TIME LEFT:  2.00D  GRAD.:   100.138 HEAT:  102.9147
 CYCLE:    13 TIME:   0.004 TIME LEFT:  2.00D  GRAD.:   108.709 HEAT:  101.9503
 CYCLE:    14 TIME:   0.004 TIME LEFT:  2.00D  GRAD.:    44.631 HEAT:  98.41084
 CYCLE:    15 TIME:   0.008 TIME LEFT:  2.00D  GRAD.:    93.046 HEAT:  96.30058
 CYCLE:    16 TIME:   0.004 TIME LEFT:  2.00D  GRAD.:    66.285 HEAT:  92.68186
 CYCLE:    17 TIME:   0.004 TIME LEFT:  2.00D  GRAD.:    81.219 HEAT:  92.49562
 CYCLE:    18 TIME:   0.008 TIME LEFT:  2.00D  GRAD.:    44.729 HEAT:  90.29493
 CYCLE:    19 TIME:   0.004 TIME LEFT:  2.00D  GRAD.:    34.865 HEAT:  89.73426
 CYCLE:    20 TIME:   0.004 TIME LEFT:  2.00D  GRAD.:    26.018 HEAT:  89.30207
 CYCLE:    21 TIME:   0.004 TIME LEFT:  2.00D  GRAD.:    24.052 HEAT:  88.87895
 CYCLE:    22 TIME:   0.008 TIME LEFT:  2.00D  GRAD.:    13.707 HEAT:  88.68208
 CYCLE:    23 TIME:   0.004 TIME LEFT:  2.00D  GRAD.:    15.083 HEAT:  88.57492
 CYCLE:    24 TIME:   0.004 TIME LEFT:  2.00D  GRAD.:     8.850 HEAT:  88.50868
 CYCLE:    25 TIME:   0.004 TIME LEFT:  2.00D  GRAD.:     9.413 HEAT:  88.46106
 CYCLE:    26 TIME:   0.004 TIME LEFT:  2.00D  GRAD.:     6.606 HEAT:  88.40829
 CYCLE:    27 TIME:   0.004 TIME LEFT:  2.00D  GRAD.:     5.199 HEAT:  88.32398
 CYCLE:    28 TIME:   0.004 TIME LEFT:  2.00D  GRAD.:     4.919 HEAT:  88.29815
 CYCLE:    29 TIME:   0.008 TIME LEFT:  2.00D  GRAD.:     2.792 HEAT:  88.27937
 CYCLE:    30 TIME:   0.004 TIME LEFT:  2.00D  GRAD.:     1.752 HEAT:  88.27179
 CYCLE:    31 TIME:   0.008 TIME LEFT:  2.00D  GRAD.:     1.435 HEAT:  88.26845
 CYCLE:    32 TIME:   0.004 TIME LEFT:  2.00D  GRAD.:     1.030 HEAT:  88.26623
 CYCLE:    33 TIME:   0.004 TIME LEFT:  2.00D  GRAD.:     0.999 HEAT:  88.26434
 CYCLE:    34 TIME:   0.004 TIME LEFT:  2.00D  GRAD.:     1.103 HEAT:  88.26236
 CYCLE:    35 TIME:   0.008 TIME LEFT:  2.00D  GRAD.:     0.988 HEAT:  88.26068
 CYCLE:    36 TIME:   0.004 TIME LEFT:  2.00D  GRAD.:     0.864 HEAT:  88.25937
 CYCLE:    37 TIME:   0.004 TIME LEFT:  2.00D  GRAD.:     0.868 HEAT:  88.25804
 CYCLE:    38 TIME:   0.008 TIME LEFT:  2.00D  GRAD.:     0.984 HEAT:  88.25640
 CYCLE:    39 TIME:   0.008 TIME LEFT:  2.00D  GRAD.:     0.953 HEAT:  88.25472
 CYCLE:    40 TIME:   0.004 TIME LEFT:  2.00D  GRAD.:     0.770 HEAT:  88.25343
 CYCLE:    41 TIME:   0.004 TIME LEFT:  2.00D  GRAD.:     0.750 HEAT:  88.25240
 CYCLE:    42 TIME:   0.004 TIME LEFT:  2.00D  GRAD.:     0.877 HEAT:  88.25137
 CYCLE:    43 TIME:   0.004 TIME LEFT:  2.00D  GRAD.:     0.895 HEAT:  88.25020
 CYCLE:    44 TIME:   0.008 TIME LEFT:  2.00D  GRAD.:     0.535 HEAT:  88.24916
 CYCLE:    45 TIME:   0.004 TIME LEFT:  2.00D  GRAD.:     0.334 HEAT:  88.24884
 CYCLE:    46 TIME:   0.004 TIME LEFT:  2.00D  GRAD.:     0.306 HEAT:  88.24853
 CYCLE:    47 TIME:   0.008 TIME LEFT:  2.00D  GRAD.:     0.320 HEAT:  88.24837
 CYCLE:    48 TIME:   0.004 TIME LEFT:  2.00D  GRAD.:     0.274 HEAT:  88.24811
 CYCLE:    49 TIME:   0.004 TIME LEFT:  2.00D  GRAD.:     0.213 HEAT:  88.24802
 CYCLE:    50 TIME:   0.004 TIME LEFT:  2.00D  GRAD.:     0.213 HEAT:  88.24786
 CYCLE:    51 TIME:   0.004 TIME LEFT:  2.00D  GRAD.:     0.150 HEAT:  88.24779
 CYCLE:    52 TIME:   0.004 TIME LEFT:  2.00D  GRAD.:     0.124 HEAT:  88.24774
 CYCLE:    53 TIME:   0.004 TIME LEFT:  2.00D  GRAD.:     0.084 HEAT:  88.24771
 CYCLE:    54 TIME:   0.008 TIME LEFT:  2.00D  GRAD.:     0.071 HEAT:  88.24771
 CYCLE:    55 TIME:   0.004 TIME LEFT:  2.00D  GRAD.:     0.067 HEAT:  88.24769
 CYCLE:    56 TIME:   0.004 TIME LEFT:  2.00D  GRAD.:     0.694 HEAT:  88.25223
 CYCLE:    57 TIME:   0.004 TIME LEFT:  2.00D  GRAD.:     0.070 HEAT:  88.24765
 CYCLE:    58 TIME:   0.004 TIME LEFT:  2.00D  GRAD.:     0.067 HEAT:  88.24764
 CYCLE:    59 TIME:   0.004 TIME LEFT:  2.00D  GRAD.:     0.137 HEAT:  88.24757
 CYCLE:    60 TIME:   0.008 TIME LEFT:  2.00D  GRAD.:     0.099 HEAT:  88.24756
 CYCLE:    61 TIME:   0.004 TIME LEFT:  2.00D  GRAD.:     0.065 HEAT:  88.24754
 CYCLE:    62 TIME:   0.004 TIME LEFT:  2.00D  GRAD.:     0.025 HEAT:  88.24753

     GRADIENT =  0.02547 IS LESS THAN CUTOFF =  0.05000



 -------------------------------------------------------------------------------
 pm3  precise nosym THREADS=1
 InChI=1S/C7H6/c1-2-7-5-3-4-6-7/h3-6H,1H2



     GEOMETRY OPTIMISED USING EIGENVECTOR FOLLOWING (EF).     
     SCF FIELD WAS ACHIEVED                                   


                              PM3 CALCULATION
                                                       MOPAC v23.1.2 MacOS
                                                       Tue Jun  3 16:28:46 2025




          FINAL HEAT OF FORMATION =         88.24753 KCAL/MOL =     369.22765 KJ/MOL


          COSMO AREA              =        139.84 SQUARE ANGSTROMS
          COSMO VOLUME            =        127.15 CUBIC ANGSTROMS

          GRADIENT NORM           =          0.02547          =       0.00707 PER ATOM
          IONIZATION POTENTIAL    =          9.150805 EV
          HOMO LUMO ENERGIES (EV) =         -9.151 -0.637
          NO. OF FILLED LEVELS    =         17
          MOLECULAR WEIGHT        =         90.1244         POINT GROUP:  C1  

          MOLECULAR DIMENSIONS (Angstroms)

            Atom       Atom       Distance
            H    13    H     9     6.46965
            H    11    H     8     4.31432
            H    12    H    10     1.81762


          SCF CALCULATIONS        =         68

          WALL-CLOCK TIME         =      0.328 SECONDS
          COMPUTATION TIME        =      0.159 SECONDS




   ATOM   CHEMICAL          X               Y               Z
  NUMBER   SYMBOL      (ANGSTROMS)     (ANGSTROMS)     (ANGSTROMS)

     1       C          1.34833572  *  -1.10081368  *  -1.00030845  *
     2       C          1.08204406  *  -1.96709777  *   0.16589707  *
     3       C          0.32066291  *  -0.04091914  *  -0.95677482  *
     4       C          0.00807217  *  -1.46496545  *   0.82460801  *
     5       C         -0.46648803  *  -0.26436685  *   0.12484545  *
     6       C          3.23777139  *  -1.38321953  *  -2.76635205  *
     7       C          2.29855676  *  -1.24279404  *  -1.88838512  *
     8       H          1.67377955  *  -2.84531475  *   0.41199225  *
     9       H         -0.45750945  *  -1.85609063  *   1.72648683  *
    10       H         -1.31927409  *   0.32421006  *   0.45570191  *
    11       H          0.24885536  *   0.75945830  *  -1.68903270  *
    12       H          3.10279502  *  -1.96580075  *  -3.67428875  *
    13       H          4.21746997  *  -0.92694751  *  -2.64817158  *

                             CARTESIAN COORDINATES

   1    C        1.348335725    -1.100813679    -1.000308446
   2    C        1.082044058    -1.967097771     0.165897066
   3    C        0.320662910    -0.040919137    -0.956774824
   4    C        0.008072168    -1.464965448     0.824608014
   5    C       -0.466488033    -0.264366848     0.124845450
   6    C        3.237771388    -1.383219526    -2.766352046
   7    C        2.298556760    -1.242794043    -1.888385122
   8    H        1.673779555    -2.845314752     0.411992251
   9    H       -0.457509454    -1.856090629     1.726486834
  10    H       -1.319274091     0.324210055     0.455701906
  11    H        0.248855356     0.759458296    -1.689032704
  12    H        3.102795019    -1.965800749    -3.674288754
  13    H        4.217469967    -0.926947514    -2.648171581


           Empirical Formula: C7 H6  =    13 atoms



      MOLECULAR POINT GROUP   :   C1  


                  EIGENVALUES  
 -39.28982 -32.63088 -27.28517 -26.63131 -20.88218 -18.80461 -18.39665 -17.24585
 -15.52281 -14.69257 -13.91382 -13.69518 -13.01283 -12.83058 -10.67931  -9.56964
  -9.15080  -0.63747   0.75945   2.01995   2.13578   2.66066   3.43804   3.44175
   3.85970   4.19885   4.36296   4.38430   4.61100   4.69178   5.52451   5.93097
   6.18195   6.46719


              NET ATOMIC CHARGES AND DIPOLE CONTRIBUTIONS

  ATOM NO.   TYPE          CHARGE      No. of ELECS.   s-Pop       p-Pop       
    1          C          -0.027403        4.0274     1.15034     2.87706
    2          C          -0.114916        4.1149     1.18993     2.92498
    3          C          -0.114925        4.1149     1.18993     2.92499
    4          C          -0.118438        4.1184     1.19377     2.92467
    5          C          -0.118447        4.1184     1.19377     2.92468
    6          C          -0.102344        4.1023     1.14899     2.95335
    7          C          -0.078260        4.0783     1.20667     2.87159
    8          H           0.117936        0.8821     0.88206
    9          H           0.114124        0.8859     0.88588
   10          H           0.114123        0.8859     0.88588
   11          H           0.117936        0.8821     0.88206
   12          H           0.105303        0.8947     0.89470
   13          H           0.105311        0.8947     0.89469
 DIPOLE           X         Y         Z       TOTAL
 POINT-CHG.     0.671    -0.100    -0.627     0.924
 HYBRID         0.097    -0.014    -0.090     0.133
 SUM            0.768    -0.115    -0.718     1.057


          ATOMIC ORBITAL ELECTRON POPULATIONS

     Atom    s        px        py        pz   
    1  C   1.15034   0.95065   0.97665   0.94976
    2  C   1.18993   0.98718   0.98428   0.95352
    3  C   1.18993   0.96142   0.97454   0.98904
    4  C   1.19377   0.97270   0.96537   0.98660
    5  C   1.19377   0.98831   0.97130   0.96506
    6  C   1.14899   0.96296   1.01953   0.97087
    7  C   1.20667   0.94843   0.96898   0.95418
    8  H   0.88206
    9  H   0.88588
   10  H   0.88588
   11  H   0.88206
   12  H   0.89470
   13  H   0.89469
 *******************************************************************************
 **                                                                           **
 **                              MOPAC v23.1.2                                **
 **                                                                           **
 *******************************************************************************
 **          Digital Object Identifier (DOI): 10.5281/zenodo.6511958          **
 **    Visit the DOI location for information on how to cite this program.    **
 *******************************************************************************

                              PM3 CALCULATION RESULTS

 *******************************************************************************
 *  CALCULATION DONE: (MAX THREADS = 1)              Tue Jun  3 16:28:46 2025  *
 *  PM3        - The PM3 Hamiltonian to be used
 *  OLDGEO     - PREVIOUS GEOMETRY TO BE USED
 *  PRECISE    - TIGHTER CRITERIA TO BE USED
 *  NOSYM      - POINT-GROUP SYMMETRY SET TO C1
 *  THREADS=1  - MULTI-THREADING NOT USED
 *  T=         - A TIME OF 172800.0 SECONDS REQUESTED
 *  DUMP=N     - RESTART FILE WRITTEN EVERY 7200.0 SECONDS REQUESTED
 *  THERMO     - THERMODYNAMIC QUANTITIES TO BE CALCULATED
 *******************************************************************************
oldgeo thermo nosym precise THREADS=1  pm3
 InChI=1S/C7H6/c1-2-7-5-3-4-6-7/h3-6H,1H2

   ATOM   CHEMICAL          X               Y               Z
  NUMBER   SYMBOL      (ANGSTROMS)     (ANGSTROMS)     (ANGSTROMS)

     1       C          1.34833572  *  -1.10081368  *  -1.00030845  *
     2       C          1.08204406  *  -1.96709777  *   0.16589707  *
     3       C          0.32066291  *  -0.04091914  *  -0.95677482  *
     4       C          0.00807217  *  -1.46496545  *   0.82460801  *
     5       C         -0.46648803  *  -0.26436685  *   0.12484545  *
     6       C          3.23777139  *  -1.38321953  *  -2.76635205  *
     7       C          2.29855676  *  -1.24279404  *  -1.88838512  *
     8       H          1.67377955  *  -2.84531475  *   0.41199225  *
     9       H         -0.45750945  *  -1.85609063  *   1.72648683  *
    10       H         -1.31927409  *   0.32421006  *   0.45570191  *
    11       H          0.24885536  *   0.75945830  *  -1.68903270  *
    12       H          3.10279502  *  -1.96580075  *  -3.67428875  *
    13       H          4.21746997  *  -0.92694751  *  -2.64817158  *



          CARTESIAN COORDINATES 

    NO.       ATOM           X           Y           Z

     1         C          1.3483     -1.1008     -1.0003
     2         C          1.0820     -1.9671      0.1659
     3         C          0.3207     -0.0409     -0.9568
     4         C          0.0081     -1.4650      0.8246
     5         C         -0.4665     -0.2644      0.1248
     6         C          3.2378     -1.3832     -2.7664
     7         C          2.2986     -1.2428     -1.8884
     8         H          1.6738     -2.8453      0.4120
     9         H         -0.4575     -1.8561      1.7265
    10         H         -1.3193      0.3242      0.4557
    11         H          0.2489      0.7595     -1.6890
    12         H          3.1028     -1.9658     -3.6743
    13         H          4.2175     -0.9269     -2.6482

  H: (PM3): J. J. P. STEWART, J. COMP. CHEM. 10, 209 (1989).
  C: (PM3): J. J. P. STEWART, J. COMP. CHEM. 10, 209 (1989).

           Empirical Formula: C7 H6  =    13 atoms



      MOLECULAR POINT GROUP   :   C1  


      RHF CALCULATION, NO. OF DOUBLY OCCUPIED LEVELS = 17



          HEAT OF FORMATION =      88.247526 KCALS/MOLE


          CARTESIAN COORDINATE DERIVATIVES

   NUMBER  ATOM         X            Y            Z

     1       C      0.000387     0.001325     0.010587
     2       C      0.000499     0.004714     0.007555
     3       C      0.004105     0.004529     0.004844
     4       C      0.002875    -0.002156    -0.003166
     5       C     -0.001516    -0.005216    -0.003523
     6       C      0.000474    -0.005738    -0.002576
     7       C     -0.008538    -0.006819    -0.012325
     8       H     -0.000663    -0.005330    -0.001885
     9       H     -0.003379     0.008568    -0.000330
    10       H      0.001817     0.000030    -0.001060
    11       H      0.001887    -0.001486    -0.001184
    12       H      0.003486     0.004439    -0.004563
    13       H     -0.001434     0.003139     0.007625



          GRADIENT NORM =   0.02970

          MOLECULAR WEIGHT =   90.12



          ROTATIONAL CONSTANTS IN CM(-1)

          A =    0.27472201   B =    0.06295955   C =    0.05175584



           PRINCIPAL MOMENTS OF INERTIA IN UNITS OF 10**(-40)*GRAM-CM**2

          A =      101.8948   B =      444.6149   C =      540.8617


          ORIENTATION OF MOLECULE IN FORCE CALCULATION

    NO.       ATOM         X         Y         Z

     1          C      -0.1840   -0.2433    0.0001
     2          C       1.2929   -0.2433    0.0001
     3          C      -0.5860    1.1778    0.0001
     4          C       1.7122    1.0465   -0.0000
     5          C       0.5410    1.9323   -0.0000
     6          C      -1.7535   -2.3183   -0.0003
     7          C      -0.9733   -1.2868   -0.0001
     8          H       1.8956   -1.1482    0.0002
     9          H       2.7376    1.4092   -0.0001
    10          H       0.6108    3.0178   -0.0001
    11          H      -1.6207    1.5116    0.0002
    12          H      -2.1044   -2.7822    0.9182
    13          H      -2.1045   -2.7821   -0.9188


    FIRST DERIVATIVES WILL BE USED IN THE CALCULATION OF SECOND DERIVATIVES

          ESTIMATED TIME TO COMPLETE CALCULATION =        0.61 SECONDS

    FOR POINT-GROUP C1   THERE ARE   1 UNIQUE SYMMETRY FUNCTIONS.

 STEP:   1 TIME =     0.01 SECS, INTEGRAL =      0.01 TIME LEFT: 172799.98
 STEP:   2 TIME =     0.01 SECS, INTEGRAL =      0.02 TIME LEFT: 172799.97
 STEP:   3 TIME =     0.01 SECS, INTEGRAL =      0.04 TIME LEFT: 172799.96
 STEP:   4 TIME =     0.01 SECS, INTEGRAL =      0.05 TIME LEFT: 172799.95
 STEP:   5 TIME =     0.01 SECS, INTEGRAL =      0.06 TIME LEFT: 172799.94
 STEP:   6 TIME =     0.01 SECS, INTEGRAL =      0.07 TIME LEFT: 172799.93
 STEP:   7 TIME =     0.01 SECS, INTEGRAL =      0.08 TIME LEFT: 172799.91
 STEP:   8 TIME =     0.01 SECS, INTEGRAL =      0.09 TIME LEFT: 172799.90
 STEP:   9 TIME =     0.01 SECS, INTEGRAL =      0.11 TIME LEFT: 172799.89
 STEP:  10 TIME =     0.01 SECS, INTEGRAL =      0.12 TIME LEFT: 172799.88
 STEP:  11 TIME =     0.01 SECS, INTEGRAL =      0.13 TIME LEFT: 172799.87
 STEP:  12 TIME =     0.01 SECS, INTEGRAL =      0.14 TIME LEFT: 172799.86
 STEP:  13 TIME =     0.01 SECS, INTEGRAL =      0.15 TIME LEFT: 172799.84
 STEP:  14 TIME =     0.01 SECS, INTEGRAL =      0.16 TIME LEFT: 172799.83
 STEP:  15 TIME =     0.01 SECS, INTEGRAL =      0.18 TIME LEFT: 172799.82
 STEP:  16 TIME =     0.01 SECS, INTEGRAL =      0.19 TIME LEFT: 172799.81
 STEP:  17 TIME =     0.01 SECS, INTEGRAL =      0.20 TIME LEFT: 172799.80
 STEP:  18 TIME =     0.01 SECS, INTEGRAL =      0.21 TIME LEFT: 172799.79
 STEP:  19 TIME =     0.01 SECS, INTEGRAL =      0.22 TIME LEFT: 172799.77
 STEP:  20 TIME =     0.01 SECS, INTEGRAL =      0.23 TIME LEFT: 172799.77
 STEP:  21 TIME =     0.01 SECS, INTEGRAL =      0.24 TIME LEFT: 172799.75
 STEP:  22 TIME =     0.01 SECS, INTEGRAL =      0.25 TIME LEFT: 172799.75
 STEP:  23 TIME =     0.01 SECS, INTEGRAL =      0.26 TIME LEFT: 172799.74
 STEP:  24 TIME =     0.01 SECS, INTEGRAL =      0.27 TIME LEFT: 172799.73
 STEP:  25 TIME =     0.01 SECS, INTEGRAL =      0.28 TIME LEFT: 172799.72
 STEP:  26 TIME =     0.01 SECS, INTEGRAL =      0.29 TIME LEFT: 172799.71
 STEP:  27 TIME =     0.01 SECS, INTEGRAL =      0.30 TIME LEFT: 172799.70
 STEP:  28 TIME =     0.01 SECS, INTEGRAL =      0.31 TIME LEFT: 172799.69
 STEP:  29 TIME =     0.01 SECS, INTEGRAL =      0.32 TIME LEFT: 172799.68
 STEP:  30 TIME =     0.01 SECS, INTEGRAL =      0.33 TIME LEFT: 172799.67
 STEP:  31 TIME =     0.01 SECS, INTEGRAL =      0.34 TIME LEFT: 172799.66
 STEP:  32 TIME =     0.01 SECS, INTEGRAL =      0.35 TIME LEFT: 172799.64
 STEP:  33 TIME =     0.01 SECS, INTEGRAL =      0.36 TIME LEFT: 172799.64
 STEP:  34 TIME =     0.01 SECS, INTEGRAL =      0.37 TIME LEFT: 172799.62
 STEP:  35 TIME =     0.01 SECS, INTEGRAL =      0.38 TIME LEFT: 172799.61
 STEP:  36 TIME =     0.01 SECS, INTEGRAL =      0.39 TIME LEFT: 172799.61
 STEP:  37 TIME =     0.01 SECS, INTEGRAL =      0.40 TIME LEFT: 172799.59
 STEP:  38 TIME =     0.01 SECS, INTEGRAL =      0.41 TIME LEFT: 172799.58
 STEP:  39 TIME =     0.01 SECS, INTEGRAL =      0.42 TIME LEFT: 172799.57

(To convert to Hartree/Bohr^2, multiply by (10^(-21) x N x a0^2)/(4.184 x 627.51) =  0.0642)


           FORCE MATRIX IN MILLIDYNES/ANGSTROM


                  C  1       C  2       C  3       C  4       C  5       C  6
 ------------------------------------------------------------------------------
     C    1  19.630030
     C    2   4.634743  18.016238
     C    3   4.634973   1.137115  18.019110
     C    4   1.530636   9.430054   1.576818  18.079534
     C    5   1.530934   1.577273   9.431986   4.979795  18.081759
     C    6   0.854772   0.111437   0.111370   0.044300   0.044368  18.094503
     C    7  10.735232   1.007616   1.006885   0.193015   0.192997  11.859380
     H    8   0.419129   5.096609   0.038542   0.442934   0.099336   0.004391
     H    9   0.106930   0.444758   0.049681   5.082938   0.419988   0.006494
     H   10   0.106897   0.049774   0.445054   0.420480   5.082831   0.006470
     H   11   0.419380   0.038426   5.096644   0.099143   0.442705   0.004353
     H   12   0.046415   0.082242   0.082489   0.014718   0.014728   5.008288
     H   13   0.046460   0.082235   0.082485   0.014718   0.014728   5.008416


                  C  7       H  8       H  9       H 10       H 11       H 12
 ------------------------------------------------------------------------------
     C    7  24.627966
     H    8   0.017514   5.493851
     H    9   0.010708   0.040821   5.473891
     H   10   0.010563   0.005442   0.008973   5.473646
     H   11   0.017288   0.009625   0.005338   0.040827   5.493744
     H   12   0.476161   0.002992   0.004880   0.004891   0.002995   5.386214
     H   13   0.476172   0.002991   0.004879   0.004891   0.002989   0.406177


                  H 13
 ------------------
     H   13   5.386349


          HEAT OF FORMATION =      88.247526 KCALS/MOLE

          ZERO POINT ENERGY      64.711 KCAL/MOL


           NORMAL COORDINATE ANALYSIS (Total motion = 1 Angstrom)


   Root No.       1         2         3         4         5         6         7         8

                 1 A       2 A       3 A       4 A       5 A       6 A       7 A       8 A   

                 127.8     163.8     354.8     453.5     560.3     563.2     596.1     601.2
  
           1    0.0000   -0.0499    0.0000    0.0000    0.0000   -0.0393    0.0002    0.0284
           2   -0.0000    0.0378    0.0000   -0.0000   -0.0000    0.0297    0.0003    0.0375
           3    0.0730    0.0000    0.0012    0.0001    0.0001   -0.0000    0.1060   -0.0012
           4    0.0000   -0.0484    0.0000    0.0000    0.0000   -0.0546    0.0000    0.0064
           5   -0.0000   -0.0176    0.0000   -0.0000    0.0000    0.0001   -0.0005   -0.0613
           6    0.0447   -0.0000   -0.0494   -0.0304    0.0248    0.0000   -0.0245    0.0003
           7   -0.0000    0.0037    0.0000    0.0000   -0.0000   -0.0149   -0.0005   -0.0608
           8   -0.0000    0.0514    0.0000   -0.0000   -0.0000    0.0525   -0.0001   -0.0105
           9    0.0447    0.0000   -0.0495    0.0302   -0.0250    0.0000   -0.0245    0.0003
          10   -0.0000    0.0012    0.0000    0.0000    0.0000   -0.0113   -0.0002   -0.0326
          11   -0.0000   -0.0349    0.0000    0.0000    0.0000   -0.0202   -0.0004   -0.0561
          12   -0.0515   -0.0000    0.0180    0.0537   -0.0242   -0.0000    0.0152   -0.0002
          13   -0.0000    0.0339    0.0000   -0.0000   -0.0000    0.0165   -0.0003   -0.0451
          14   -0.0000    0.0083    0.0000   -0.0000   -0.0000    0.0164   -0.0004   -0.0466
          15   -0.0514    0.0000    0.0182   -0.0536    0.0242    0.0000    0.0152   -0.0002
          16    0.0000    0.0711   -0.0000    0.0000    0.0000   -0.0157    0.0005    0.0592
          17    0.0000   -0.0537   -0.0000   -0.0000   -0.0000    0.0117    0.0006    0.0783
          18   -0.0625   -0.0000   -0.0240   -0.0001   -0.0001    0.0000   -0.0075    0.0001
          19    0.0000   -0.0331   -0.0000   -0.0000   -0.0000    0.1390    0.0004    0.0469
          20    0.0000    0.0251   -0.0000    0.0000    0.0000   -0.1052    0.0005    0.0618
          21    0.0261    0.0000    0.1190    0.0003    0.0001   -0.0000   -0.0370    0.0004
          22    0.0000   -0.0848    0.0000    0.0000    0.0000   -0.0980   -0.0003   -0.0327
          23    0.0000   -0.0419    0.0000   -0.0000    0.0000   -0.0292   -0.0007   -0.0875
          24    0.0823   -0.0000   -0.1169   -0.0587    0.0994    0.0000   -0.2299    0.0026
          25   -0.0000    0.0151    0.0000    0.0000   -0.0000    0.0047   -0.0003   -0.0429
          26   -0.0000   -0.0745    0.0000    0.0000    0.0000   -0.0671   -0.0002   -0.0304
          27   -0.1146   -0.0000    0.0425    0.1832   -0.0863   -0.0000   -0.0680    0.0008
          28   -0.0000    0.0759    0.0000   -0.0000   -0.0000    0.0660   -0.0001   -0.0175
          29   -0.0000    0.0057    0.0000   -0.0000    0.0000    0.0138   -0.0004   -0.0496
          30   -0.1144    0.0000    0.0433   -0.1832    0.0862    0.0000   -0.0680    0.0008
          31    0.0000    0.0172   -0.0000   -0.0000   -0.0000    0.0015   -0.0006   -0.0753
          32    0.0000    0.0930   -0.0000   -0.0000   -0.0000    0.1024   -0.0004   -0.0551
          33    0.0823    0.0000   -0.1169    0.0581   -0.1003    0.0000   -0.2297    0.0026
          34   -0.0414    0.1167   -0.0953    0.1389    0.2111   -0.1043    0.0459    0.0690
          35   -0.0545   -0.0882   -0.1242   -0.1053   -0.1595    0.0788    0.0619    0.0918
          36   -0.1061   -0.0000   -0.1254   -0.0002   -0.0000    0.0000    0.0426    0.0081
          37    0.0414    0.1167    0.0953   -0.1389   -0.2110   -0.1047   -0.0448    0.0701
          38    0.0545   -0.0882    0.1242    0.1052    0.1595    0.0791   -0.0604    0.0933
          39   -0.1061    0.0000   -0.1254   -0.0002    0.0000   -0.0000    0.0425   -0.0090


   Root No.       9        10        11        12        13        14        15        16

                 9 A      10 A      11 A      12 A      13 A      14 A      15 A      16 A   

                 801.4     804.7     831.0     913.7     958.4     961.7     979.3     985.2
  
           1   -0.0000    0.0000    0.0484   -0.0000   -0.0000    0.0052    0.0000    0.0011
           2   -0.0000   -0.0000   -0.0366   -0.0000   -0.0000    0.0069    0.0000   -0.0008
           3    0.0529    0.0001   -0.0000    0.0172    0.0307    0.0001   -0.0001    0.0000
           4   -0.0000    0.0000    0.0036   -0.0000   -0.0001    0.0677    0.0000   -0.0034
           5    0.0000   -0.0000   -0.0820    0.0000    0.0000   -0.0274   -0.0000    0.0012
           6   -0.0281    0.0383   -0.0000    0.0076   -0.0482   -0.0001   -0.0399   -0.0000
           7    0.0000    0.0000    0.0799    0.0000    0.0001   -0.0448    0.0000   -0.0017
           8   -0.0000    0.0000    0.0188   -0.0000   -0.0001    0.0577    0.0000    0.0024
           9   -0.0279   -0.0384    0.0000    0.0076   -0.0482   -0.0001    0.0401    0.0000
          10   -0.0000   -0.0000   -0.1330    0.0000    0.0000   -0.0131    0.0000   -0.0011
          11    0.0000   -0.0000   -0.0291    0.0000    0.0000   -0.0092    0.0000   -0.0009
          12   -0.0246    0.0281   -0.0000   -0.0098    0.0309    0.0000    0.0633    0.0000
          13    0.0000   -0.0000   -0.0082    0.0000    0.0000   -0.0053   -0.0000    0.0006
          14    0.0000    0.0000    0.1358    0.0000    0.0000   -0.0151   -0.0000    0.0015
          15   -0.0245   -0.0282    0.0000   -0.0098    0.0308    0.0001   -0.0634   -0.0000
          16    0.0000    0.0000    0.0021   -0.0000    0.0000   -0.0180    0.0000   -0.0802
          17    0.0000   -0.0000   -0.0015   -0.0000    0.0000   -0.0233   -0.0000    0.0608
          18   -0.0091   -0.0000    0.0000    0.0720    0.0107    0.0000   -0.0000    0.0000
          19    0.0000   -0.0000    0.0004    0.0000    0.0000   -0.0069   -0.0000    0.0295
          20    0.0000    0.0000   -0.0003    0.0000    0.0000   -0.0093    0.0000   -0.0222
          21   -0.0037   -0.0000    0.0000   -0.0681   -0.0156   -0.0000    0.0000   -0.0000
          22    0.0000    0.0000    0.1059   -0.0000   -0.0002    0.1619    0.0000   -0.0069
          23    0.0000   -0.0000   -0.0157    0.0000   -0.0000    0.0336    0.0000   -0.0010
          24    0.1079   -0.2548    0.0001   -0.0478    0.2094    0.0003    0.1404    0.0000
          25    0.0000   -0.0000   -0.1166    0.0000    0.0001   -0.0675   -0.0000    0.0027
          26    0.0000   -0.0000   -0.0823    0.0000   -0.0002    0.1491   -0.0000   -0.0120
          27    0.2616   -0.1397    0.0001    0.0591   -0.1421   -0.0002   -0.2388   -0.0000
          28    0.0000    0.0000    0.0474   -0.0000   -0.0002    0.1627    0.0000    0.0105
          29    0.0000    0.0000    0.1346    0.0000    0.0000   -0.0245    0.0000    0.0009
          30    0.2610    0.1410   -0.0001    0.0588   -0.1415   -0.0002    0.2390    0.0000
          31    0.0000    0.0000    0.0440    0.0000    0.0000   -0.0118   -0.0000   -0.0010
          32    0.0000   -0.0000   -0.0975   -0.0000   -0.0002    0.1649    0.0000    0.0049
          33    0.1066    0.2551   -0.0002   -0.0481    0.2091    0.0003   -0.1410   -0.0000
          34    0.0253    0.0305   -0.0001   -0.1662   -0.0232   -0.0323   -0.0136    0.3259
          35    0.0336   -0.0230    0.0001   -0.2203   -0.0308   -0.0446    0.0103   -0.2460
          36    0.0187    0.0000    0.0000   -0.1097   -0.0147   -0.0139   -0.0000    0.0001
          37   -0.0253   -0.0305   -0.0001    0.1662    0.0233   -0.0322    0.0136    0.3259
          38   -0.0336    0.0230    0.0001    0.2203    0.0309   -0.0445   -0.0103   -0.2460
          39    0.0187    0.0000   -0.0000   -0.1097   -0.0147    0.0138   -0.0000   -0.0002


   Root No.      17        18        19        20        21        22        23        24

                17 A      18 A      19 A      20 A      21 A      22 A      23 A      24 A   

                1080.1    1086.8    1101.4    1195.7    1250.9    1372.1    1390.3    1584.1
  
           1    0.0052   -0.0056   -0.0131    0.0385   -0.0179    0.1487   -0.0117    0.1110
           2   -0.0039   -0.0076   -0.0173   -0.0291   -0.0236   -0.1125   -0.0155    0.1468
           3   -0.0000   -0.0000   -0.0000   -0.0000    0.0000   -0.0000   -0.0000    0.0000
           4   -0.0138   -0.0061   -0.0414    0.0124    0.0230   -0.1188   -0.0384   -0.0501
           5    0.0237    0.0005    0.0158    0.0192   -0.0066    0.0189   -0.0128    0.0068
           6   -0.0000    0.0000   -0.0000   -0.0000    0.0000   -0.0000    0.0000   -0.0000
           7   -0.0261    0.0010    0.0268   -0.0151   -0.0126   -0.0506   -0.0018    0.0202
           8    0.0064   -0.0054   -0.0357   -0.0172    0.0203    0.1092   -0.0404   -0.0464
           9    0.0000   -0.0000    0.0000    0.0000    0.0000   -0.0000    0.0000   -0.0000
          10    0.0020   -0.0133   -0.0388   -0.0129    0.0244    0.0246    0.0936   -0.0041
          11    0.0000   -0.0032    0.0137    0.0239   -0.0045   -0.0240   -0.0584   -0.0297
          12   -0.0000    0.0000    0.0000   -0.0000   -0.0000    0.0000   -0.0000    0.0000
          13    0.0008    0.0006    0.0237   -0.0266   -0.0109    0.0299   -0.0816   -0.0274
          14   -0.0018   -0.0138   -0.0336    0.0060    0.0222   -0.0172    0.0741   -0.0121
          15   -0.0000    0.0000    0.0000    0.0000   -0.0000   -0.0000   -0.0000    0.0000
          16    0.0009    0.0065    0.0147    0.0018   -0.0157    0.0035    0.0156   -0.0841
          17   -0.0007    0.0086    0.0195   -0.0014   -0.0208   -0.0027    0.0206   -0.1113
          18   -0.0000    0.0000    0.0000   -0.0000   -0.0000   -0.0000    0.0000   -0.0000
          19   -0.0021    0.0011    0.0017   -0.0068   -0.0186   -0.0117    0.0020    0.0237
          20    0.0015    0.0015    0.0022    0.0051   -0.0246    0.0088    0.0026    0.0314
          21    0.0000    0.0000    0.0000    0.0000   -0.0000    0.0000    0.0000   -0.0000
          22    0.1586    0.2054    0.0529   -0.2003   -0.0108   -0.0368    0.1057    0.0288
          23    0.1403    0.1423    0.0830   -0.1232   -0.0322    0.0769    0.0807    0.0683
          24   -0.0000   -0.0000   -0.0000    0.0000    0.0000   -0.0000   -0.0000    0.0000
          25    0.0817    0.0504   -0.0987    0.0569    0.0238   -0.0370    0.0306   -0.0279
          26   -0.2254   -0.1874    0.1783   -0.1760    0.0046    0.1493    0.1380    0.0174
          27    0.0000    0.0000   -0.0000    0.0000   -0.0000   -0.0000   -0.0000    0.0000
          28    0.2511   -0.1843    0.1952    0.1837   -0.0022   -0.1535    0.1239    0.0243
          29   -0.0178   -0.0032   -0.0462   -0.0066    0.0242   -0.0051    0.0670   -0.0221
          30   -0.0000    0.0000   -0.0000   -0.0000   -0.0000    0.0000   -0.0000    0.0000
          31   -0.0945    0.0769    0.0670    0.0641   -0.0281   -0.0842    0.0489    0.0579
          32   -0.2010    0.2277    0.0769    0.2267   -0.0193    0.0141    0.1236    0.0464
          33    0.0000   -0.0000   -0.0000   -0.0000   -0.0000    0.0000   -0.0000   -0.0000
          34   -0.0026    0.0199    0.0492   -0.0004    0.1774    0.0027   -0.0206    0.0232
          35    0.0018    0.0262    0.0648    0.0004    0.2347   -0.0020   -0.0272    0.0308
          36   -0.0000    0.0123    0.0319    0.0000    0.1892    0.0000   -0.0378    0.1252
          37   -0.0025    0.0199    0.0492   -0.0004    0.1774    0.0028   -0.0206    0.0231
          38    0.0018    0.0262    0.0648    0.0004    0.2347   -0.0020   -0.0272    0.0308
          39    0.0000   -0.0123   -0.0319   -0.0000   -0.1891   -0.0000    0.0378   -0.1252


   Root No.      25        26        27        28        29        30        31        32

                25 A      26 A      27 A      28 A      29 A      30 A      31 A      32 A   

                1700.8    1765.8    2259.4    3115.0    3120.1    3136.7    3139.1    3150.9
  
           1   -0.0151   -0.0027   -0.1087    0.0003   -0.0000   -0.0001    0.0002    0.0004
           2   -0.0200    0.0020   -0.1437    0.0004   -0.0000    0.0001    0.0003   -0.0003
           3   -0.0000    0.0000   -0.0000   -0.0000   -0.0002   -0.0000    0.0000    0.0000
           4    0.0497   -0.0527    0.0045    0.0003   -0.0000   -0.0080    0.0101   -0.0130
           5    0.1334   -0.1183   -0.0056   -0.0000   -0.0000    0.0110   -0.0142    0.0234
           6   -0.0000    0.0000    0.0000   -0.0000   -0.0000   -0.0000    0.0000   -0.0000
           7    0.1147    0.0997   -0.0066   -0.0001    0.0000   -0.0128   -0.0164   -0.0261
           8    0.0840    0.0831    0.0028    0.0003   -0.0000    0.0047    0.0059    0.0062
           9   -0.0000   -0.0000    0.0000    0.0000   -0.0000    0.0000    0.0000    0.0000
          10   -0.0310    0.0404    0.0047    0.0005   -0.0000    0.0242   -0.0204   -0.0137
          11   -0.1251    0.1338    0.0107    0.0001   -0.0000    0.0091   -0.0072   -0.0074
          12    0.0000   -0.0000   -0.0000    0.0000    0.0000   -0.0000    0.0000    0.0000
          13   -0.1118   -0.1178    0.0090   -0.0001    0.0000   -0.0021   -0.0014    0.0034
          14   -0.0638   -0.0754    0.0074    0.0005   -0.0000   -0.0258   -0.0215    0.0153
          15    0.0000    0.0000   -0.0000   -0.0000   -0.0000    0.0000    0.0000   -0.0000
          16    0.0019   -0.0003   -0.0879    0.0285   -0.0001   -0.0000    0.0002   -0.0000
          17    0.0025    0.0003   -0.1163    0.0377   -0.0002    0.0000    0.0003    0.0000
          18   -0.0000   -0.0000   -0.0000   -0.0003   -0.0649    0.0000    0.0000   -0.0000
          19    0.0010    0.0043    0.1912   -0.0050    0.0000   -0.0001   -0.0001   -0.0001
          20    0.0014   -0.0033    0.2530   -0.0067    0.0000    0.0001   -0.0001    0.0001
          21    0.0000   -0.0000    0.0000   -0.0000   -0.0004    0.0000   -0.0000    0.0000
          22   -0.0959    0.0805    0.0035   -0.0007    0.0000    0.0917   -0.1161    0.1637
          23    0.0629   -0.0552   -0.0167    0.0009   -0.0000   -0.1356    0.1728   -0.2455
          24   -0.0000    0.0000   -0.0000    0.0000    0.0000    0.0000   -0.0000    0.0000
          25   -0.0872    0.1225    0.0171   -0.0059    0.0000   -0.2792    0.2363    0.1518
          26   -0.0383   -0.0376    0.0067   -0.0021    0.0000   -0.0988    0.0817    0.0547
          27    0.0000   -0.0000   -0.0000    0.0000    0.0000    0.0000   -0.0000   -0.0000
          28   -0.0135    0.0693    0.0018   -0.0004    0.0000    0.0191    0.0143   -0.0114
          29   -0.0942   -0.1078    0.0182   -0.0062    0.0000    0.2963    0.2489   -0.1617
          30    0.0000    0.0000   -0.0000    0.0000    0.0000   -0.0000   -0.0000    0.0000
          31    0.0865    0.0752   -0.0171    0.0010   -0.0000    0.1558    0.1977    0.2815
          32   -0.0751   -0.0625   -0.0012   -0.0004    0.0000   -0.0515   -0.0646   -0.0909
          33   -0.0000   -0.0000   -0.0000   -0.0000    0.0000   -0.0000   -0.0000   -0.0000
          34   -0.0007   -0.0001   -0.0399   -0.1434   -0.1536    0.0000   -0.0009    0.0001
          35   -0.0010    0.0001   -0.0527   -0.1896   -0.2032   -0.0000   -0.0011   -0.0000
          36   -0.0040   -0.0000    0.1051    0.4004    0.3891    0.0000    0.0024    0.0000
          37   -0.0007   -0.0001   -0.0399   -0.1421    0.1549    0.0000   -0.0009    0.0001
          38   -0.0010    0.0001   -0.0527   -0.1878    0.2048   -0.0000   -0.0012   -0.0000
          39    0.0040    0.0000   -0.1051   -0.3972    0.3927   -0.0000   -0.0024   -0.0000


   Root No.      33

                33 A   

                3160.5
  
           1   -0.0011
           2   -0.0015
           3   -0.0000
           4    0.0116
           5   -0.0210
           6    0.0000
           7   -0.0233
           8    0.0055
           9    0.0000
          10    0.0187
          11    0.0083
          12   -0.0000
          13    0.0029
          14    0.0202
          15   -0.0000
          16   -0.0003
          17   -0.0004
          18   -0.0000
          19    0.0005
          20    0.0006
          21    0.0000
          22   -0.1368
          23    0.2055
          24   -0.0000
          25   -0.1930
          26   -0.0678
          27    0.0000
          28   -0.0127
          29   -0.2035
          30    0.0000
          31    0.2342
          32   -0.0754
          33   -0.0000
          34    0.0010
          35    0.0013
          36   -0.0029
          37    0.0010
          38    0.0013
          39    0.0029


           MASS-WEIGHTED COORDINATE ANALYSIS (NORMAL COORDINATES)


   Root No.       1         2         3         4         5         6         7         8

                 1 A       2 A       3 A       4 A       5 A       6 A       7 A       8 A   

                 127.8     163.8     354.8     453.5     560.3     563.2     596.1     601.2
  
           1    0.0000   -0.3017    0.0000    0.0000    0.0001   -0.1840    0.0013    0.1453
           2   -0.0000    0.2283    0.0000   -0.0000   -0.0000    0.1389    0.0017    0.1922
           3    0.4599    0.0000    0.0069    0.0007    0.0011   -0.0000    0.6673   -0.0063
           4    0.0000   -0.2924    0.0000    0.0000    0.0001   -0.2555    0.0003    0.0330
           5   -0.0000   -0.1065    0.0000   -0.0000    0.0000    0.0005   -0.0030   -0.3141
           6    0.2817   -0.0001   -0.2870   -0.2210    0.1900    0.0000   -0.1544    0.0014
           7   -0.0000    0.0226    0.0000    0.0000   -0.0000   -0.0696   -0.0029   -0.3114
           8   -0.0000    0.3103    0.0000   -0.0000   -0.0001    0.2460   -0.0005   -0.0537
           9    0.2815    0.0001   -0.2875    0.2196   -0.1912    0.0000   -0.1540    0.0013
          10   -0.0000    0.0071    0.0000    0.0000    0.0000   -0.0527   -0.0016   -0.1670
          11   -0.0001   -0.2108    0.0001    0.0000    0.0000   -0.0947   -0.0027   -0.2874
          12   -0.3241   -0.0000    0.1043    0.3906   -0.1850   -0.0000    0.0954   -0.0009
          13   -0.0000    0.2047    0.0000   -0.0000   -0.0000    0.0770   -0.0021   -0.2312
          14   -0.0001    0.0503    0.0001   -0.0001   -0.0000    0.0769   -0.0022   -0.2389
          15   -0.3237    0.0000    0.1057   -0.3903    0.1855    0.0000    0.0954   -0.0009
          16    0.0001    0.4297   -0.0000    0.0000    0.0000   -0.0737    0.0029    0.3034
          17    0.0001   -0.3245   -0.0000   -0.0000   -0.0000    0.0549    0.0038    0.4013
          18   -0.3934   -0.0000   -0.1394   -0.0008   -0.0007    0.0000   -0.0474    0.0005
          19    0.0000   -0.2002   -0.0001   -0.0001   -0.0003    0.6507    0.0023    0.2405
          20    0.0000    0.1515   -0.0001    0.0001    0.0002   -0.4924    0.0030    0.3167
          21    0.1642    0.0000    0.6913    0.0018    0.0010   -0.0000   -0.2327    0.0023
          22    0.0000   -0.1484    0.0000    0.0000    0.0000   -0.1329   -0.0005   -0.0485
          23    0.0000   -0.0734    0.0000   -0.0000    0.0000   -0.0396   -0.0012   -0.1299
          24    0.1501   -0.0000   -0.1966   -0.1237    0.2203    0.0000   -0.4192    0.0039
          25   -0.0000    0.0265    0.0000    0.0000   -0.0000    0.0064   -0.0006   -0.0637
          26   -0.0000   -0.1304    0.0000    0.0000    0.0000   -0.0910   -0.0004   -0.0451
          27   -0.2090   -0.0000    0.0715    0.3860   -0.1913   -0.0000   -0.1239    0.0012
          28   -0.0000    0.1329    0.0000   -0.0000   -0.0000    0.0896   -0.0002   -0.0259
          29   -0.0000    0.0099    0.0000   -0.0000    0.0000    0.0187   -0.0007   -0.0736
          30   -0.2087    0.0000    0.0728   -0.3860    0.1911    0.0000   -0.1240    0.0012
          31    0.0000    0.0302   -0.0000   -0.0000   -0.0000    0.0021   -0.0011   -0.1117
          32    0.0000    0.1627   -0.0000   -0.0000   -0.0001    0.1389   -0.0008   -0.0819
          33    0.1501    0.0000   -0.1966    0.1224   -0.2223    0.0000   -0.4188    0.0039
          34   -0.0755    0.2042   -0.1603    0.2928    0.4679   -0.1415    0.0837    0.1025
          35   -0.0993   -0.1544   -0.2090   -0.2218   -0.3536    0.1069    0.1128    0.1363
          36   -0.1935   -0.0001   -0.2110   -0.0005   -0.0001    0.0000    0.0777    0.0120
          37    0.0755    0.2042    0.1603   -0.2927   -0.4677   -0.1420   -0.0817    0.1041
          38    0.0994   -0.1544    0.2090    0.2217    0.3535    0.1073   -0.1102    0.1384
          39   -0.1935    0.0000   -0.2110   -0.0004    0.0000   -0.0000    0.0774   -0.0134


   Root No.       9        10        11        12        13        14        15        16

                 9 A      10 A      11 A      12 A      13 A      14 A      15 A      16 A   

                 801.4     804.7     831.0     913.7     958.4     961.7     979.3     985.2
  
           1   -0.0000    0.0001    0.1982   -0.0000   -0.0001    0.0354    0.0000    0.0055
           2   -0.0001   -0.0001   -0.1499   -0.0000   -0.0001    0.0463    0.0000   -0.0041
           3    0.3799    0.0010   -0.0000    0.1063    0.2236    0.0004   -0.0003    0.0000
           4   -0.0000    0.0000    0.0148   -0.0000   -0.0007    0.4576    0.0000   -0.0171
           5    0.0000   -0.0001   -0.3362    0.0000    0.0003   -0.1849   -0.0000    0.0059
           6   -0.2018    0.2777   -0.0001    0.0469   -0.3511   -0.0005   -0.2567   -0.0000
           7    0.0000    0.0001    0.3276    0.0000    0.0004   -0.3029    0.0000   -0.0085
           8   -0.0000    0.0000    0.0772   -0.0000   -0.0006    0.3897    0.0000    0.0122
           9   -0.2003   -0.2786    0.0001    0.0469   -0.3506   -0.0006    0.2578    0.0000
          10   -0.0000   -0.0002   -0.5448    0.0000    0.0001   -0.0885    0.0000   -0.0054
          11    0.0000   -0.0000   -0.1193    0.0000    0.0001   -0.0621    0.0000   -0.0047
          12   -0.1766    0.2038   -0.0000   -0.0608    0.2252    0.0003    0.4072    0.0000
          13    0.0000   -0.0000   -0.0335    0.0000    0.0001   -0.0360   -0.0000    0.0029
          14    0.0000    0.0002    0.5566    0.0000    0.0002   -0.1019   -0.0000    0.0074
          15   -0.1758   -0.2048    0.0000   -0.0607    0.2242    0.0004   -0.4077   -0.0000
          16    0.0000    0.0000    0.0085   -0.0000    0.0002   -0.1213    0.0000   -0.4033
          17    0.0000   -0.0000   -0.0063   -0.0000    0.0002   -0.1573   -0.0000    0.3057
          18   -0.0650   -0.0000    0.0000    0.4447    0.0781    0.0001   -0.0000    0.0000
          19    0.0000   -0.0000    0.0016    0.0000    0.0001   -0.0468   -0.0000    0.1485
          20    0.0000    0.0000   -0.0012    0.0001    0.0001   -0.0625    0.0000   -0.1116
          21   -0.0266   -0.0002    0.0000   -0.4210   -0.1139   -0.0002    0.0001   -0.0000
          22    0.0000    0.0000    0.1257   -0.0000   -0.0005    0.3170    0.0000   -0.0101
          23    0.0000   -0.0000   -0.0187    0.0000   -0.0001    0.0658    0.0000   -0.0015
          24    0.2243   -0.5357    0.0002   -0.0856    0.4416    0.0007    0.2615    0.0000
          25    0.0000   -0.0001   -0.1384    0.0000    0.0002   -0.1322   -0.0000    0.0040
          26    0.0000   -0.0001   -0.0977    0.0000   -0.0005    0.2918   -0.0000   -0.0175
          27    0.5437   -0.2937    0.0001    0.1058   -0.2998   -0.0004   -0.4449   -0.0000
          28    0.0000    0.0000    0.0562   -0.0000   -0.0005    0.3185    0.0000    0.0154
          29    0.0001    0.0001    0.1598    0.0000    0.0000   -0.0479    0.0000    0.0014
          30    0.5426    0.2965   -0.0001    0.1053   -0.2985   -0.0005    0.4453    0.0000
          31    0.0000    0.0001    0.0523    0.0000    0.0001   -0.0231   -0.0000   -0.0015
          32    0.0000   -0.0000   -0.1158   -0.0000   -0.0005    0.3227    0.0000    0.0071
          33    0.2216    0.5364   -0.0002   -0.0860    0.4411    0.0007   -0.2627   -0.0000
          34    0.0525    0.0640   -0.0001   -0.2974   -0.0490   -0.0632   -0.0254    0.4749
          35    0.0699   -0.0483    0.0001   -0.3942   -0.0650   -0.0874    0.0192   -0.3585
          36    0.0389    0.0001    0.0000   -0.1963   -0.0309   -0.0271   -0.0000    0.0002
          37   -0.0525   -0.0640   -0.0002    0.2974    0.0492   -0.0631    0.0253    0.4749
          38   -0.0699    0.0483    0.0001    0.3943    0.0652   -0.0872   -0.0191   -0.3585
          39    0.0389    0.0001   -0.0000   -0.1963   -0.0310    0.0270   -0.0000   -0.0003


   Root No.      17        18        19        20        21        22        23        24

                17 A      18 A      19 A      20 A      21 A      22 A      23 A      24 A   

                1080.1    1086.8    1101.4    1195.7    1250.9    1372.1    1390.3    1584.1
  
           1    0.0373   -0.0431   -0.0969    0.2724   -0.1116    0.5561   -0.0622    0.4329
           2   -0.0279   -0.0583   -0.1283   -0.2062   -0.1471   -0.4206   -0.0824    0.5722
           3   -0.0000   -0.0000   -0.0001   -0.0000    0.0000   -0.0000   -0.0000    0.0001
           4   -0.0984   -0.0470   -0.3066    0.0881    0.1435   -0.4440   -0.2043   -0.1955
           5    0.1691    0.0037    0.1170    0.1359   -0.0414    0.0707   -0.0682    0.0266
           6   -0.0000    0.0000   -0.0000   -0.0000    0.0000   -0.0000    0.0000   -0.0000
           7   -0.1863    0.0079    0.1986   -0.1067   -0.0787   -0.1892   -0.0098    0.0788
           8    0.0457   -0.0415   -0.2643   -0.1218    0.1269    0.4085   -0.2147   -0.1808
           9    0.0000   -0.0000    0.0000    0.0000    0.0000   -0.0000    0.0000   -0.0000
          10    0.0145   -0.1023   -0.2874   -0.0912    0.1521    0.0920    0.4974   -0.0161
          11    0.0003   -0.0248    0.1015    0.1693   -0.0278   -0.0898   -0.3104   -0.1156
          12   -0.0000    0.0000    0.0000   -0.0000   -0.0000    0.0000   -0.0000    0.0000
          13    0.0059    0.0049    0.1754   -0.1886   -0.0680    0.1117   -0.4339   -0.1068
          14   -0.0127   -0.1060   -0.2488    0.0426    0.1388   -0.0644    0.3940   -0.0470
          15   -0.0000    0.0000    0.0000    0.0000   -0.0000   -0.0000   -0.0000    0.0000
          16    0.0066    0.0498    0.1088    0.0127   -0.0979    0.0132    0.0827   -0.3279
          17   -0.0053    0.0658    0.1444   -0.0096   -0.1299   -0.0100    0.1094   -0.4340
          18   -0.0000    0.0000    0.0000   -0.0000   -0.0000   -0.0000    0.0000   -0.0000
          19   -0.0147    0.0086    0.0128   -0.0483   -0.1161   -0.0438    0.0106    0.0923
          20    0.0110    0.0117    0.0165    0.0364   -0.1533    0.0331    0.0139    0.1224
          21    0.0000    0.0000    0.0000    0.0000   -0.0000    0.0000    0.0000   -0.0000
          22    0.3283    0.4569    0.1134   -0.4110   -0.0194   -0.0398    0.1628    0.0325
          23    0.2905    0.3166    0.1779   -0.2528   -0.0582    0.0833    0.1243    0.0772
          24   -0.0000   -0.0000   -0.0000    0.0000    0.0000   -0.0000   -0.0000    0.0000
          25    0.1691    0.1121   -0.2115    0.1167    0.0431   -0.0401    0.0471   -0.0315
          26   -0.4668   -0.4168    0.3823   -0.3611    0.0082    0.1617    0.2125    0.0197
          27    0.0000    0.0000   -0.0000    0.0000   -0.0000   -0.0000   -0.0000    0.0000
          28    0.5200   -0.4099    0.4185    0.3769   -0.0040   -0.1663    0.1908    0.0275
          29   -0.0368   -0.0072   -0.0990   -0.0136    0.0437   -0.0055    0.1032   -0.0250
          30   -0.0000    0.0000   -0.0000   -0.0000   -0.0000    0.0000   -0.0000    0.0000
          31   -0.1956    0.1711    0.1436    0.1316   -0.0507   -0.0912    0.0752    0.0654
          32   -0.4162    0.5066    0.1649    0.4650   -0.0349    0.0152    0.1902    0.0524
          33    0.0000   -0.0000   -0.0000   -0.0000   -0.0000    0.0000   -0.0000   -0.0000
          34   -0.0053    0.0442    0.1055   -0.0009    0.3206    0.0030   -0.0317    0.0262
          35    0.0037    0.0583    0.1390    0.0008    0.4240   -0.0022   -0.0419    0.0348
          36   -0.0001    0.0273    0.0685    0.0001    0.3418    0.0000   -0.0581    0.1414
          37   -0.0053    0.0442    0.1055   -0.0009    0.3205    0.0030   -0.0316    0.0261
          38    0.0037    0.0583    0.1390    0.0008    0.4240   -0.0022   -0.0419    0.0348
          39    0.0001   -0.0273   -0.0684   -0.0001   -0.3417   -0.0000    0.0581   -0.1414


   Root No.      25        26        27        28        29        30        31        32

                25 A      26 A      27 A      28 A      29 A      30 A      31 A      32 A   

                1700.8    1765.8    2259.4    3115.0    3120.1    3136.7    3139.1    3150.9
  
           1   -0.0541   -0.0096   -0.2740    0.0015   -0.0000   -0.0006    0.0016    0.0025
           2   -0.0715    0.0072   -0.3622    0.0020   -0.0000    0.0004    0.0022   -0.0019
           3   -0.0000    0.0000   -0.0001   -0.0000   -0.0012   -0.0000    0.0000    0.0000
           4    0.1779   -0.1898    0.0112    0.0016   -0.0000   -0.0553    0.0729   -0.0899
           5    0.4774   -0.4261   -0.0142   -0.0001   -0.0000    0.0759   -0.1021    0.1616
           6   -0.0000    0.0000    0.0000   -0.0000   -0.0001   -0.0000    0.0000   -0.0000
           7    0.4105    0.3589   -0.0167   -0.0005    0.0000   -0.0883   -0.1179   -0.1804
           8    0.3007    0.2991    0.0070    0.0016   -0.0000    0.0327    0.0422    0.0426
           9   -0.0001   -0.0001    0.0000    0.0000   -0.0001    0.0000    0.0000    0.0000
          10   -0.1110    0.1455    0.0118    0.0027   -0.0000    0.1668   -0.1467   -0.0946
          11   -0.4481    0.4817    0.0270    0.0003   -0.0000    0.0625   -0.0522   -0.0513
          12    0.0001   -0.0001   -0.0000    0.0000    0.0000   -0.0000    0.0000    0.0000
          13   -0.4003   -0.4244    0.0228   -0.0004    0.0000   -0.0148   -0.0102    0.0238
          14   -0.2284   -0.2716    0.0187    0.0027   -0.0000   -0.1780   -0.1549    0.1055
          15    0.0001    0.0001   -0.0000   -0.0000   -0.0000    0.0000    0.0000   -0.0000
          16    0.0067   -0.0012   -0.2216    0.1456   -0.0006   -0.0000    0.0015   -0.0000
          17    0.0088    0.0009   -0.2932    0.1925   -0.0008    0.0000    0.0019    0.0000
          18   -0.0000   -0.0000   -0.0000   -0.0014   -0.3212    0.0000    0.0000   -0.0000
          19    0.0037    0.0157    0.4821   -0.0258    0.0001   -0.0005   -0.0008   -0.0008
          20    0.0050   -0.0118    0.6378   -0.0341    0.0002    0.0004   -0.0011    0.0006
          21    0.0000   -0.0000    0.0001   -0.0000   -0.0021    0.0000   -0.0000    0.0000
          22   -0.0995    0.0840    0.0026   -0.0010    0.0000    0.1835   -0.2424    0.3275
          23    0.0652   -0.0576   -0.0122    0.0014   -0.0000   -0.2712    0.3607   -0.4911
          24   -0.0000    0.0000   -0.0000    0.0000    0.0000    0.0000   -0.0000    0.0000
          25   -0.0904    0.1277    0.0125   -0.0087    0.0000   -0.5585    0.4931    0.3038
          26   -0.0397   -0.0392    0.0049   -0.0031    0.0000   -0.1976    0.1705    0.1095
          27    0.0000   -0.0000   -0.0000    0.0000    0.0001    0.0001   -0.0000   -0.0000
          28   -0.0140    0.0723    0.0013   -0.0006    0.0000    0.0382    0.0298   -0.0228
          29   -0.0977   -0.1124    0.0133   -0.0091    0.0000    0.5927    0.5194   -0.3236
          30    0.0000    0.0000   -0.0000    0.0000    0.0000   -0.0001   -0.0001    0.0000
          31    0.0898    0.0785   -0.0125    0.0015   -0.0000    0.3116    0.4125    0.5631
          32   -0.0779   -0.0652   -0.0009   -0.0006    0.0000   -0.1030   -0.1348   -0.1818
          33   -0.0000   -0.0000   -0.0000   -0.0000    0.0000   -0.0000   -0.0000   -0.0000
          34   -0.0008   -0.0001   -0.0291   -0.2119   -0.2202    0.0001   -0.0018    0.0001
          35   -0.0010    0.0001   -0.0385   -0.2802   -0.2913   -0.0001   -0.0024   -0.0001
          36   -0.0042   -0.0000    0.0767    0.5919    0.5578    0.0000    0.0050    0.0000
          37   -0.0008   -0.0001   -0.0292   -0.2101    0.2221    0.0001   -0.0018    0.0001
          38   -0.0010    0.0001   -0.0385   -0.2776    0.2935   -0.0001   -0.0024   -0.0001
          39    0.0042    0.0000   -0.0767   -0.5871    0.5629   -0.0000   -0.0050   -0.0000


   Root No.      33

                33 A   

                3160.5
  
           1   -0.0083
           2   -0.0109
           3   -0.0000
           4    0.0841
           5   -0.1517
           6    0.0000
           7   -0.1684
           8    0.0395
           9    0.0000
          10    0.1348
          11    0.0599
          12   -0.0000
          13    0.0209
          14    0.1455
          15   -0.0000
          16   -0.0021
          17   -0.0028
          18   -0.0000
          19    0.0034
          20    0.0045
          21    0.0000
          22   -0.2861
          23    0.4298
          24   -0.0000
          25   -0.4036
          26   -0.1418
          27    0.0000
          28   -0.0266
          29   -0.4257
          30    0.0000
          31    0.4899
          32   -0.1577
          33   -0.0000
          34    0.0021
          35    0.0028
          36   -0.0060
          37    0.0021
          38    0.0028
          39    0.0060


          DESCRIPTION OF VIBRATIONS


 VIBRATION          1    1A           ATOM PAIR      ENERGY CONTRIBUTION    RADIAL
 FREQUENCY           127.85         C  6 -- C  7         +18.2% (359.4%)      0.0%
 TRANSITION DIPOLE   0.2199         C  6 -- H 13         +11.1% (280.9%)    100.0%
 TRAVEL (Ang.)       0.6471         C  6 -- H 12         +11.1% (280.8%)    100.0%
 REDUCED MASS        1.2597         C  1 -- C  4          +7.9% (237.3%)      0.0%
 EFFECTIVE MASS    110.7150
 FORCE CONSTANT      0.0121

 VIBRATION          2    2A           ATOM PAIR      ENERGY CONTRIBUTION    RADIAL
 FREQUENCY           163.79         C  1 -- C  4          +9.5% (293.9%)      0.0%
 TRANSITION DIPOLE   0.1395         C  1 -- C  5          +9.5% (293.8%)      0.0%
 TRAVEL (Ang.)       0.5093         C  3 -- C  4          +8.4% (276.0%)      0.1%
 REDUCED MASS        1.5868         C  2 -- C  5          +8.4% (276.0%)      0.1%
 EFFECTIVE MASS     55.6547
 FORCE CONSTANT      0.0251

 VIBRATION          3    3A           ATOM PAIR      ENERGY CONTRIBUTION    RADIAL
 FREQUENCY           354.76         C  6 -- C  7         +23.4% (116.2%)      0.0%
 TRANSITION DIPOLE   0.1530         C  1 -- C  7         +15.7% ( 95.0%)      0.0%
 TRAVEL (Ang.)       0.2541         C  6 -- H 12         +15.5% ( 94.5%)      8.7%
 REDUCED MASS        2.9434         C  6 -- H 13         +15.5% ( 94.5%)      8.7%
 EFFECTIVE MASS     15.6220
 FORCE CONSTANT      0.2183

 VIBRATION          4    4A           ATOM PAIR      ENERGY CONTRIBUTION    RADIAL
 FREQUENCY           453.50         C  4 -- C  5         +17.4% ( 82.3%)      0.0%
 TRANSITION DIPOLE   0.0006         C  2 -- C  4         +11.0% ( 65.3%)      0.0%
 TRAVEL (Ang.)       0.4620         C  3 -- C  5         +10.9% ( 65.1%)      0.0%
 REDUCED MASS        0.6966         C  6 -- H 12          +8.4% ( 57.1%)      0.0%
 EFFECTIVE MASS      9.7434
 FORCE CONSTANT      0.0844

 VIBRATION          5    5A           ATOM PAIR      ENERGY CONTRIBUTION    RADIAL
 FREQUENCY           560.32         C  6 -- H 12         +29.8% ( 73.8%)      0.0%
 TRANSITION DIPOLE   0.0008         C  6 -- H 13         +29.7% ( 73.7%)      0.0%
 TRAVEL (Ang.)       0.6273         C  3 -- C  5          +5.6% ( 32.1%)      0.0%
 REDUCED MASS        0.3058         C  2 -- C  4          +5.6% ( 31.9%)      0.0%
 EFFECTIVE MASS      3.1915
 FORCE CONSTANT      0.0566

 VIBRATION          6    6A           ATOM PAIR      ENERGY CONTRIBUTION    RADIAL
 FREQUENCY           563.19         C  1 -- C  7         +19.3% ( 96.2%)      0.0%
 TRANSITION DIPOLE   0.3574         C  6 -- C  7         +12.7% ( 78.0%)      0.0%
 TRAVEL (Ang.)       0.1480         C  2 -- C  5          +7.3% ( 58.9%)      1.1%
 REDUCED MASS        5.4682         C  3 -- C  4          +7.2% ( 58.9%)      1.1%
 EFFECTIVE MASS     12.7575
 FORCE CONSTANT      1.0219

 VIBRATION          7    7A           ATOM PAIR      ENERGY CONTRIBUTION    RADIAL
 FREQUENCY           596.09         C  1 -- C  7         +16.8% ( 72.8%)      0.0%
 TRANSITION DIPOLE   0.4825         C  1 -- C  2         +15.7% ( 70.4%)      0.0%
 TRAVEL (Ang.)       0.2128         C  1 -- C  3         +15.7% ( 70.4%)      0.0%
 REDUCED MASS        2.4970         C  1 -- C  4         +12.8% ( 63.4%)      0.0%
 EFFECTIVE MASS      8.5865         C  1 -- C  5         +12.8% ( 63.4%)      0.0%
 FORCE CONSTANT      0.5227

 VIBRATION          8    8A           ATOM PAIR      ENERGY CONTRIBUTION    RADIAL
 FREQUENCY           601.20         C  6 -- H 13          +8.9% (119.8%)     32.5%
 TRANSITION DIPOLE   0.1180         C  6 -- H 12          +8.9% (119.7%)     31.8%
 TRAVEL (Ang.)       0.2611         C  6 -- C  7          +7.8% (111.8%)    100.0%
 REDUCED MASS        1.6456         C  3 -- C  4          +7.4% (109.3%)     32.9%
 EFFECTIVE MASS     17.3258
 FORCE CONSTANT      0.3504

 VIBRATION          9    9A           ATOM PAIR      ENERGY CONTRIBUTION    RADIAL
 FREQUENCY           801.36         C  4 -- H  9         +23.2% ( 60.9%)      0.0%
 TRANSITION DIPOLE   0.7391         C  5 -- H 10         +23.1% ( 60.7%)      0.0%
 TRAVEL (Ang.)       0.4130         C  1 -- C  2          +7.8% ( 35.3%)      0.0%
 REDUCED MASS        0.4934         C  1 -- C  3          +7.8% ( 35.2%)      0.0%
 EFFECTIVE MASS      3.4912
 FORCE CONSTANT      0.1867

 VIBRATION         10   10A           ATOM PAIR      ENERGY CONTRIBUTION    RADIAL
 FREQUENCY           804.71         C  3 -- H 11         +28.2% ( 64.4%)      0.0%
 TRANSITION DIPOLE   0.0017         C  2 -- H  8         +28.1% ( 64.2%)      0.0%
 TRAVEL (Ang.)       0.4775         C  5 -- H 10         +10.5% ( 39.3%)      0.0%
 REDUCED MASS        0.3675         C  4 -- H  9         +10.4% ( 39.0%)      0.0%
 EFFECTIVE MASS      2.5364
 FORCE CONSTANT      0.1402

 VIBRATION         11   11A           ATOM PAIR      ENERGY CONTRIBUTION    RADIAL
 FREQUENCY           831.05         C  4 -- C  5         +14.3% (122.4%)      0.0%
 TRANSITION DIPOLE   0.2036         C  3 -- C  4         +12.4% (114.0%)     92.4%
 TRAVEL (Ang.)       0.1740         C  2 -- C  5         +12.4% (114.0%)     92.4%
 REDUCED MASS        2.6792         C  1 -- C  4          +9.3% ( 98.5%)     64.5%
 EFFECTIVE MASS     16.1241
 FORCE CONSTANT      1.0902

 VIBRATION         12   12A           ATOM PAIR      ENERGY CONTRIBUTION    RADIAL
 FREQUENCY           913.68         C  6 -- H 13         +34.1% ( 76.5%)     11.7%
 TRANSITION DIPOLE   0.0216         C  6 -- H 12         +34.1% ( 76.5%)     11.8%
 TRAVEL (Ang.)       0.2703         C  6 -- C  7         +23.6% ( 63.7%)      0.0%
 REDUCED MASS        1.0104         C  1 -- C  7          +4.0% ( 26.1%)      0.0%
 EFFECTIVE MASS      5.5614
 FORCE CONSTANT      0.4970

 VIBRATION         13   13A           ATOM PAIR      ENERGY CONTRIBUTION    RADIAL
 FREQUENCY           958.36         C  2 -- H  8         +19.0% ( 50.4%)      0.0%
 TRANSITION DIPOLE   0.2074         C  3 -- H 11         +19.0% ( 50.4%)      0.0%
 TRAVEL (Ang.)       0.3575         C  4 -- H  9          +8.8% ( 34.3%)      0.0%
 REDUCED MASS        0.5505         C  5 -- H 10          +8.7% ( 34.1%)      0.0%
 EFFECTIVE MASS      4.5316
 FORCE CONSTANT      0.2979

 VIBRATION         14   14A           ATOM PAIR      ENERGY CONTRIBUTION    RADIAL
 FREQUENCY           961.68         C  3 -- C  5         +11.0% ( 65.6%)      0.9%
 TRANSITION DIPOLE   0.3987         C  2 -- C  4         +11.0% ( 65.6%)      0.9%
 TRAVEL (Ang.)       0.2168         C  3 -- C  4         +10.7% ( 64.5%)     23.0%
 REDUCED MASS        1.4919         C  2 -- C  5         +10.7% ( 64.5%)     22.9%
 EFFECTIVE MASS      9.6837         C  1 -- C  3         +10.1% ( 62.8%)     76.8%
 FORCE CONSTANT      0.8129         C  1 -- C  2         +10.1% ( 62.8%)     76.9%

 VIBRATION         15   15A           ATOM PAIR      ENERGY CONTRIBUTION    RADIAL
 FREQUENCY           979.30         C  5 -- H 10         +19.7% ( 53.5%)      0.0%
 TRANSITION DIPOLE   0.0004         C  4 -- H  9         +19.7% ( 53.4%)      0.0%
 TRAVEL (Ang.)       0.2837         C  4 -- C  5         +10.9% ( 39.8%)      0.0%
 REDUCED MASS        0.8557         C  3 -- C  5          +7.4% ( 32.7%)      0.0%
 EFFECTIVE MASS      4.9770
 FORCE CONSTANT      0.4835

 VIBRATION         16   16A           ATOM PAIR      ENERGY CONTRIBUTION    RADIAL
 FREQUENCY           985.21         C  6 -- H 13         +44.0% ( 65.2%)      0.0%
 TRANSITION DIPOLE   0.6008         C  6 -- H 12         +44.0% ( 65.2%)      0.0%
 TRAVEL (Ang.)       0.2548         C  6 -- C  7         +10.5% ( 31.8%)      0.0%
 REDUCED MASS        1.0544         C  1 -- C  7          +0.9% (  9.4%)      0.0%
 EFFECTIVE MASS      3.0668
 FORCE CONSTANT      0.6030

 VIBRATION         17   17A           ATOM PAIR      ENERGY CONTRIBUTION    RADIAL
 FREQUENCY          1080.08         C  5 -- H 10         +19.3% ( 52.1%)      0.0%
 TRANSITION DIPOLE   0.0819         C  3 -- H 11         +17.6% ( 49.9%)      8.3%
 TRAVEL (Ang.)       0.4979         C  4 -- H  9         +17.5% ( 49.7%)      0.0%
 REDUCED MASS        0.2519         C  2 -- H  8         +16.4% ( 48.1%)      9.3%
 EFFECTIVE MASS      2.2136
 FORCE CONSTANT      0.1731

 VIBRATION         18   18A           ATOM PAIR      ENERGY CONTRIBUTION    RADIAL
 FREQUENCY          1086.78         C  2 -- H  8         +25.7% ( 56.5%)      0.1%
 TRANSITION DIPOLE   0.0340         C  3 -- H 11         +23.8% ( 54.4%)      0.1%
 TRAVEL (Ang.)       0.5021         C  4 -- H  9         +16.0% ( 44.6%)      2.6%
 REDUCED MASS        0.2461         C  5 -- H 10         +14.6% ( 42.5%)      2.9%
 EFFECTIVE MASS      1.5462
 FORCE CONSTANT      0.1712

 VIBRATION         19   19A           ATOM PAIR      ENERGY CONTRIBUTION    RADIAL
 FREQUENCY          1101.36         C  4 -- C  5         +11.0% ( 57.0%)    100.0%
 TRANSITION DIPOLE   0.2995         C  3 -- C  4          +9.1% ( 52.0%)     69.2%
 TRAVEL (Ang.)       0.3226         C  2 -- C  5          +9.0% ( 51.7%)     69.1%
 REDUCED MASS        0.5884         C  4 -- H  9          +7.5% ( 47.3%)     32.2%
 EFFECTIVE MASS      7.1769
 FORCE CONSTANT      0.4205

 VIBRATION         20   20A           ATOM PAIR      ENERGY CONTRIBUTION    RADIAL
 FREQUENCY          1195.71         C  3 -- H 11         +14.7% ( 50.4%)      0.5%
 TRANSITION DIPOLE   0.0275         C  2 -- H  8         +14.7% ( 50.3%)      0.5%
 TRAVEL (Ang.)       0.3934         C  4 -- H  9         +10.9% ( 43.3%)      0.1%
 REDUCED MASS        0.3643         C  5 -- H 10         +10.8% ( 43.1%)      0.1%
 EFFECTIVE MASS      2.8670
 FORCE CONSTANT      0.3069

 VIBRATION         21   21A           ATOM PAIR      ENERGY CONTRIBUTION    RADIAL
 FREQUENCY          1250.95         C  6 -- H 12         +22.5% ( 56.4%)      1.1%
 TRANSITION DIPOLE   0.3682         C  6 -- H 13         +22.5% ( 56.4%)      1.1%
 TRAVEL (Ang.)       0.3737         C  1 -- C  2          +6.1% ( 29.4%)     85.3%
 REDUCED MASS        0.3860         C  1 -- C  3          +6.1% ( 29.4%)     85.2%
 EFFECTIVE MASS      3.0240
 FORCE CONSTANT      0.3558

 VIBRATION         22   22A           ATOM PAIR      ENERGY CONTRIBUTION    RADIAL
 FREQUENCY          1372.14         C  1 -- C  3         +19.7% ( 79.1%)     80.6%
 TRANSITION DIPOLE   0.1907         C  1 -- C  2         +19.7% ( 79.1%)     80.6%
 TRAVEL (Ang.)       0.1132         C  1 -- C  5          +9.8% ( 55.8%)     12.0%
 REDUCED MASS        3.8319         C  1 -- C  4          +9.8% ( 55.8%)     12.0%
 EFFECTIVE MASS     11.4867
 FORCE CONSTANT      4.2507

 VIBRATION         23   23A           ATOM PAIR      ENERGY CONTRIBUTION    RADIAL
 FREQUENCY          1390.34         C  4 -- C  5         +22.7% ( 85.9%)    100.0%
 TRANSITION DIPOLE   0.8249         C  3 -- C  4          +9.0% ( 54.0%)     98.3%
 TRAVEL (Ang.)       0.1293         C  2 -- C  5          +9.0% ( 54.0%)     98.4%
 REDUCED MASS        2.9011         C  2 -- C  4          +8.8% ( 53.6%)      0.0%
 EFFECTIVE MASS     10.1697
 FORCE CONSTANT      3.3041

 VIBRATION         24   24A           ATOM PAIR      ENERGY CONTRIBUTION    RADIAL
 FREQUENCY          1584.07         C  1 -- C  2         +15.2% ( 75.7%)     57.0%
 TRANSITION DIPOLE   0.7797         C  1 -- C  3         +15.2% ( 75.7%)     57.0%
 TRAVEL (Ang.)       0.0997         C  1 -- C  5         +14.2% ( 73.1%)     85.2%
 REDUCED MASS        4.2846         C  1 -- C  4         +14.2% ( 73.1%)     85.2%
 EFFECTIVE MASS     11.6627         C  1 -- C  7         +11.0% ( 64.4%)    100.0%
 FORCE CONSTANT      6.3345         C  6 -- C  7         +10.8% ( 63.9%)    100.0%

 VIBRATION         25   25A           ATOM PAIR      ENERGY CONTRIBUTION    RADIAL
 FREQUENCY          1700.78         C  2 -- C  4         +16.5% ( 72.9%)    100.0%
 TRANSITION DIPOLE   1.6068         C  3 -- C  5         +16.4% ( 72.8%)    100.0%
 TRAVEL (Ang.)       0.1211         C  3 -- C  4          +9.7% ( 56.1%)     27.4%
 REDUCED MASS        2.7033         C  2 -- C  5          +9.7% ( 56.1%)     27.5%
 EFFECTIVE MASS     12.0386
 FORCE CONSTANT      4.6072

 VIBRATION         26   26A           ATOM PAIR      ENERGY CONTRIBUTION    RADIAL
 FREQUENCY          1765.80         C  3 -- C  5         +16.0% ( 70.1%)     99.8%
 TRANSITION DIPOLE   0.1191         C  2 -- C  4         +15.9% ( 70.0%)     99.8%
 TRAVEL (Ang.)       0.1192         C  4 -- C  5         +11.1% ( 58.5%)      0.0%
 REDUCED MASS        2.6860         C  3 -- C  4          +9.8% ( 54.9%)     63.3%
 EFFECTIVE MASS     11.8115
 FORCE CONSTANT      4.9345

 VIBRATION         27   27A           ATOM PAIR      ENERGY CONTRIBUTION    RADIAL
 FREQUENCY          2259.40         C  1 -- C  7         +38.2% ( 86.5%)    100.0%
 TRANSITION DIPOLE   2.5746         C  6 -- C  7         +34.9% ( 82.7%)    100.0%
 TRAVEL (Ang.)       0.0728         C  1 -- C  5          +5.2% ( 32.0%)     88.9%
 REDUCED MASS        5.6372         C  1 -- C  4          +5.2% ( 32.0%)     88.9%
 EFFECTIVE MASS     11.9066
 FORCE CONSTANT     16.9550

 VIBRATION         28   28A           ATOM PAIR      ENERGY CONTRIBUTION    RADIAL
 FREQUENCY          3115.05         C  6 -- H 12         +49.5% ( 70.4%)     95.2%
 TRANSITION DIPOLE   0.5409         C  6 -- H 13         +48.7% ( 69.9%)     95.1%
 TRAVEL (Ang.)       0.2111         C  6 -- C  7          +1.8% ( 13.3%)    100.0%
 REDUCED MASS        0.4859
 EFFECTIVE MASS      1.4126
 FORCE CONSTANT      2.7777

 VIBRATION         29   29A           ATOM PAIR      ENERGY CONTRIBUTION    RADIAL
 FREQUENCY          3120.11         C  6 -- H 13         +49.8% ( 72.2%)     97.2%
 TRANSITION DIPOLE   0.3239         C  6 -- H 12         +49.0% ( 71.7%)     97.1%
 TRAVEL (Ang.)       0.2013         C  6 -- C  7          +1.2% ( 11.2%)      0.0%
 REDUCED MASS        0.5332
 EFFECTIVE MASS      1.5938
 FORCE CONSTANT      3.0583

 VIBRATION         30   30A           ATOM PAIR      ENERGY CONTRIBUTION    RADIAL
 FREQUENCY          3136.67         C  5 -- H 10         +36.3% ( 62.1%)    100.0%
 TRANSITION DIPOLE   0.0664         C  4 -- H  9         +36.1% ( 62.0%)    100.0%
 TRAVEL (Ang.)       0.2681         C  3 -- H 11         +11.0% ( 34.3%)    100.0%
 REDUCED MASS        0.2991         C  2 -- H  8         +11.0% ( 34.2%)    100.0%
 EFFECTIVE MASS      1.4932
 FORCE CONSTANT      1.7336

 VIBRATION         31   31A           ATOM PAIR      ENERGY CONTRIBUTION    RADIAL
 FREQUENCY          3139.05         C  4 -- H  9         +28.1% ( 54.5%)    100.0%
 TRANSITION DIPOLE   0.5281         C  5 -- H 10         +28.0% ( 54.4%)    100.0%
 TRAVEL (Ang.)       0.2990         C  2 -- H  8         +19.5% ( 45.4%)    100.0%
 REDUCED MASS        0.2402         C  3 -- H 11         +19.4% ( 45.3%)    100.0%
 EFFECTIVE MASS      1.4777
 FORCE CONSTANT      1.3947

 VIBRATION         32   32A           ATOM PAIR      ENERGY CONTRIBUTION    RADIAL
 FREQUENCY          3150.94         C  3 -- H 11         +36.2% ( 62.0%)    100.0%
 TRANSITION DIPOLE   0.5923         C  2 -- H  8         +36.0% ( 61.8%)    100.0%
 TRAVEL (Ang.)       0.2673         C  5 -- H 10         +10.9% ( 34.1%)     99.8%
 REDUCED MASS        0.2996         C  4 -- H  9         +10.8% ( 33.9%)     99.8%
 EFFECTIVE MASS      1.5914
 FORCE CONSTANT      1.7525

 VIBRATION         33   33A           ATOM PAIR      ENERGY CONTRIBUTION    RADIAL
 FREQUENCY          3160.51         C  2 -- H  8         +27.5% ( 54.2%)    100.0%
 TRANSITION DIPOLE   0.2433         C  3 -- H 11         +27.3% ( 54.1%)    100.0%
 TRAVEL (Ang.)       0.2967         C  4 -- H  9         +18.9% ( 45.0%)    100.0%
 REDUCED MASS        0.2423         C  5 -- H 10         +18.8% ( 44.8%)    100.0%
 EFFECTIVE MASS      1.6989
 FORCE CONSTANT      1.4262

      SYMMETRY NUMBER FOR POINT-GROUP C1  =  1


          SYSTEM IS A GROUND STATE



 InChI=1S/C7H6/c1-2-7-5-3-4-6-7/h3-6H,1H2


          MOLECULE IS NOT LINEAR

          THERE ARE 33 GENUINE VIBRATIONS IN THIS SYSTEM
          THIS THERMODYNAMICS CALCULATION IS LIMITED TO
          MOLECULES WHICH HAVE NO INTERNAL ROTATIONS




                    CALCULATED THERMODYNAMIC PROPERTIES
                                          *
   TEMP. (K)   PARTITION FUNCTION   H.O.F.    ENTHALPY  HEAT CAPACITY ENTROPY
                                   KCAL/MOL   CAL/MOLE    CAL/K/MOL  CAL/K/MOL


 298.00  VIB.     0.8027D+01                  1992.0694    16.6321    10.8237
         ROT.     0.1766D+06                   888.2803     2.9808    26.9893
         INT.     0.1417D+07                  2880.3497    19.6130    37.8131
         TRA.     0.8272D+27                  1480.4672     4.9680    39.4058
         TOT.                       88.248    4360.8169    24.5810    77.2189

 200.00  VIB.     0.2929D+01                   731.6388     9.1809     5.7938
         ROT.     0.9709D+05                   596.1613     2.9808    25.8006
         INT.     0.2844D+06                  1327.8001    12.1617    31.5944
         TRA.     0.4548D+27                   993.6021     4.9680    37.4247
         TOT.                       86.208    2321.4022    17.1297    69.0191

 210.00  VIB.     0.3215D+01                   827.0368     9.9016     6.2591
         ROT.     0.1045D+06                   625.9693     2.9808    25.9461
         INT.     0.3359D+06                  1453.0061    12.8825    32.2052
         TRA.     0.4893D+27                  1043.2822     4.9680    37.6671
         TOT.                       86.383    2496.2884    17.8505    69.8722

 220.00  VIB.     0.3537D+01                   929.7253    10.6385     6.7367
         ROT.     0.1120D+06                   655.7774     2.9808    26.0847
         INT.     0.3962D+06                  1585.5027    13.6193    32.8214
         TRA.     0.5247D+27                  1092.9623     4.9680    37.8982
         TOT.                       86.565    2678.4651    18.5873    70.7196

 230.00  VIB.     0.3901D+01                  1039.8506    11.3885     7.2261
         ROT.     0.1197D+06                   685.5855     2.9808    26.2172
         INT.     0.4671D+06                  1725.4361    14.3693    33.4433
         TRA.     0.5609D+27                  1142.6424     4.9680    38.1190
         TOT.                       86.755    2868.0785    19.3373    71.5623

 240.00  VIB.     0.4311D+01                  1157.5302    12.1489     7.7268
         ROT.     0.1276D+06                   715.3935     2.9808    26.3441
         INT.     0.5502D+06                  1872.9237    15.1297    34.0709
         TRA.     0.5978D+27                  1192.3226     4.9680    38.3305
         TOT.                       86.952    3065.2462    20.0977    72.4014

 250.00  VIB.     0.4775D+01                  1282.8536    12.9169     8.2383
         ROT.     0.1357D+06                   745.2016     2.9808    26.4658
         INT.     0.6479D+06                  2028.0552    15.8977    34.7041
         TRA.     0.6356D+27                  1242.0027     4.9680    38.5333
         TOT.                       87.157    3270.0579    20.8657    73.2373

 260.00  VIB.     0.5300D+01                  1415.8839    13.6898     8.7599
         ROT.     0.1439D+06                   775.0097     2.9808    26.5827
         INT.     0.7628D+06                  2190.8936    16.6706    35.3426
         TRA.     0.6741D+27                  1291.6828     4.9680    38.7281
         TOT.                       87.369    3482.5763    21.6386    74.0708

 270.00  VIB.     0.5896D+01                  1556.6587    14.4654     9.2911
         ROT.     0.1523D+06                   804.8177     2.9808    26.6952
         INT.     0.8979D+06                  2361.4765    17.4462    35.9863
         TRA.     0.7134D+27                  1341.3629     4.9680    38.9156
         TOT.                       87.590    3702.8393    22.4142    74.9019

 280.00  VIB.     0.6571D+01                  1705.1924    15.2412     9.8312
         ROT.     0.1608D+06                   834.6258     2.9808    26.8036
         INT.     0.1057D+07                  2539.8182    18.2220    36.6348
         TRA.     0.7534D+27                  1391.0430     4.9680    39.0963
         TOT.                       87.818    3930.8612    23.1901    75.7311

 290.00  VIB.     0.7338D+01                  1861.4776    16.0154    10.3796
         ROT.     0.1695D+06                   864.4339     2.9808    26.9082
         INT.     0.1244D+07                  2725.9114    18.9962    37.2878
         TRA.     0.7941D+27                  1440.7231     4.9680    39.2706
         TOT.                       88.053    4166.6345    23.9642    76.5584

 300.00  VIB.     0.8211D+01                  2025.4875    16.7859    10.9355
         ROT.     0.1784D+06                   894.2419     2.9808    27.0093
         INT.     0.1464D+07                  2919.7294    19.7667    37.9448
         TRA.     0.8355D+27                  1490.4032     4.9680    39.4391
         TOT.                       88.297    4410.1326    24.7347    77.3838

 310.00  VIB.     0.9203D+01                  2197.1777    17.5512    11.4984
         ROT.     0.1874D+06                   924.0500     2.9808    27.1070
         INT.     0.1724D+07                  3121.2277    20.5320    38.6054
         TRA.     0.8776D+27                  1540.0833     4.9680    39.6020
         TOT.                       88.548    4661.3110    25.5000    78.2074

 320.00  VIB.     0.1033D+02                  2376.4882    18.3097    12.0676
         ROT.     0.1965D+06                   953.8580     2.9808    27.2016
         INT.     0.2031D+07                  3330.3462    21.2905    39.2693
         TRA.     0.9204D+27                  1589.7634     4.9680    39.7597
         TOT.                       88.807    4920.1096    26.2585    79.0290

 330.00  VIB.     0.1162D+02                  2563.3453    19.0603    12.6426
         ROT.     0.2058D+06                   983.6661     2.9808    27.2934
         INT.     0.2392D+07                  3547.0114    22.0411    39.9359
         TRA.     0.9639D+27                  1639.4435     4.9680    39.9126
         TOT.                       89.073    5186.4550    27.0091    79.8485

 340.00  VIB.     0.1310D+02                  2757.6636    19.8018    13.2226
         ROT.     0.2152D+06                  1013.4742     2.9808    27.3823
         INT.     0.2818D+07                  3771.1378    22.7826    40.6050
         TRA.     0.1008D+28                  1689.1236     4.9680    40.0609
         TOT.                       89.347    5460.2614    27.7506    80.6658

 350.00  VIB.     0.1478D+02                  2959.3474    20.5333    13.8072
         ROT.     0.2248D+06                  1043.2822     2.9808    27.4688
         INT.     0.3322D+07                  4002.6297    23.5141    41.2759
         TRA.     0.1053D+28                  1738.8037     4.9680    40.2049
         TOT.                       89.628    5741.4334    28.4821    81.4808

 360.00  VIB.     0.1670D+02                  3168.2927    21.2539    14.3958
         ROT.     0.2345D+06                  1073.0903     2.9808    27.5527
         INT.     0.3916D+07                  4241.3830    24.2347    41.9485
         TRA.     0.1098D+28                  1788.4838     4.9680    40.3448
         TOT.                       89.917    6029.8668    29.2028    82.2933

 370.00  VIB.     0.1890D+02                  3384.3882    21.9632    14.9878
         ROT.     0.2443D+06                  1102.8984     2.9808    27.6344
         INT.     0.4618D+07                  4487.2866    24.9440    42.6222
         TRA.     0.1144D+28                  1838.1639     4.9680    40.4810
         TOT.                       90.212    6325.4505    29.9120    83.1032

 380.00  VIB.     0.2142D+02                  3607.5173    22.6606    15.5828
         ROT.     0.2543D+06                  1132.7064     2.9808    27.7139
         INT.     0.5446D+07                  4740.2237    25.6414    43.2967
         TRA.     0.1191D+28                  1887.8440     4.9680    40.6134
         TOT.                       90.515    6628.0677    30.6094    83.9101

 390.00  VIB.     0.2430D+02                  3837.5585    23.3456    16.1803
         ROT.     0.2644D+06                  1162.5145     2.9808    27.7913
         INT.     0.6425D+07                  5000.0730    26.3264    43.9716
         TRA.     0.1238D+28                  1937.5242     4.9680    40.7425
         TOT.                       90.824    6937.5971    31.2944    84.7141

 400.00  VIB.     0.2761D+02                  4074.3873    24.0180    16.7799
         ROT.     0.2746D+06                  1192.3226     2.9808    27.8668
         INT.     0.7582D+07                  5266.7099    26.9989    44.6467
         TRA.     0.1286D+28                  1987.2043     4.9680    40.8683
         TOT.                       91.141    7253.9141    31.9669    85.5149

   *: NOTE: HEATS OF FORMATION ARE RELATIVE TO THE
            ELEMENTS IN THEIR STANDARD STATE AT 298K
              (=  Standard Enthalpy of Formation).

            Hvib:  Zero-point energy is not included.
                   frequencies of less than zero cm-1 are not included.
            Hrot = (3/2)RT
            Htra = (3/2)RT + pV = (5/2)RT

            Heat capacity is Cp, not Cv

          For more information, see: HTTP://OpenMOPAC.net/Manual/thermochemistry.html


           FORCE CONSTANT IN CARTESIAN COORDINATES (Millidynes/A)

    ATOM   CHEMICAL       X               Y               Z
   NUMBER   SYMBOL  FORCE CONSTANT  FORCE CONSTANT  FORCE CONSTANT

      1       C       11.624744       14.237440        2.190478
      2       C        9.726594       15.001669        2.091279
      3       C       14.889369        9.842222        2.093856
      4       C       12.297630       12.543983        2.151419
      5       C       11.155791       13.687817        2.150878
      6       C        6.960244       10.810628        8.377561
      7       C       10.077246       16.257154        1.700344
      8       H        2.162296        3.972711        0.329712
      9       H        4.899216        1.217680        0.342297
     10       H        0.715859        5.399867        0.342233
     11       H        4.987418        1.147476        0.329732
     12       H        0.890770        1.337201        4.007597
     13       H        0.890981        1.336721        4.007992

 **********************
 *                    *
 * JOB ENDED NORMALLY *
 *                    *
 **********************



 TOTAL JOB TIME:             1.14 SECONDS

 == MOPAC DONE ==
