 *******************************************************************************
 **                                                                           **
 **                              MOPAC v23.1.2                                **
 **                                                                           **
 *******************************************************************************
 **          Digital Object Identifier (DOI): 10.5281/zenodo.6511958          **
 **    Visit the DOI location for information on how to cite this program.    **
 *******************************************************************************

                              PM3 CALCULATION RESULTS

 *******************************************************************************
 *  CALCULATION DONE: (MAX THREADS = 1)              Tue Jun  3 16:34:17 2025  *
 *  PM3        - The PM3 Hamiltonian to be used
 *  PRECISE    - TIGHTER CRITERIA TO BE USED
 *  NOSYM      - POINT-GROUP SYMMETRY SET TO C1
 *  THREADS=1  - MULTI-THREADING NOT USED
 *  T=         - A TIME OF 172800.0 SECONDS REQUESTED
 *  DUMP=N     - RESTART FILE WRITTEN EVERY 7200.0 SECONDS REQUESTED
 *******************************************************************************
pm3  precise nosym THREADS=1
 InChI=1S/C9H10/c1-2-5-9-7-3-6-8(9)4-1/h1-4,6,9H,5,7H2

   ATOM   CHEMICAL          X               Y               Z
  NUMBER   SYMBOL      (ANGSTROMS)     (ANGSTROMS)     (ANGSTROMS)

     1       C         -0.24510000  *  -0.67640000  *   0.32680000  *
     2       C         -1.69240000  *  -0.89920000  *  -0.14690000  *
     3       C          0.85460000  *  -1.18640000  *  -0.62510000  *
     4       C         -0.16670000  *   0.80680000  *   0.45230000  *
     5       C         -2.35080000  *   0.43630000  *   0.05460000  *
     6       C          2.18250000  *  -0.55040000  *  -0.26930000  *
     7       C         -1.48840000  *   1.38560000  *   0.37790000  *
     8       C          0.99290000  *   1.46910000  *   0.44450000  *
     9       C          2.23750000  *   0.71080000  *   0.19290000  *
    10       H         -0.10390000  *  -1.12640000  *   1.33520000  *
    11       H         -1.74190000  *  -1.17630000  *  -1.22190000  *
    12       H         -2.19720000  *  -1.67540000  *   0.46690000  *
    13       H          0.93410000  *  -2.29190000  *  -0.55430000  *
    14       H          0.60910000  *  -0.91500000  *  -1.67490000  *
    15       H         -3.40410000  *   0.62200000  *  -0.10920000  *
    16       H          3.09970000  *  -1.09600000  *  -0.45070000  *
    17       H          1.02020000  *   2.54740000  *   0.53600000  *
    18       H         -1.73610000  *   2.43190000  *   0.50150000  *
    19       H          3.19600000  *   1.18340000  *   0.36370000  *



          CARTESIAN COORDINATES 

    NO.       ATOM           X           Y           Z

     1         C         -0.2451     -0.6764      0.3268
     2         C         -1.6924     -0.8992     -0.1469
     3         C          0.8546     -1.1864     -0.6251
     4         C         -0.1667      0.8068      0.4523
     5         C         -2.3508      0.4363      0.0546
     6         C          2.1825     -0.5504     -0.2693
     7         C         -1.4884      1.3856      0.3779
     8         C          0.9929      1.4691      0.4445
     9         C          2.2375      0.7108      0.1929
    10         H         -0.1039     -1.1264      1.3352
    11         H         -1.7419     -1.1763     -1.2219
    12         H         -2.1972     -1.6754      0.4669
    13         H          0.9341     -2.2919     -0.5543
    14         H          0.6091     -0.9150     -1.6749
    15         H         -3.4041      0.6220     -0.1092
    16         H          3.0997     -1.0960     -0.4507
    17         H          1.0202      2.5474      0.5360
    18         H         -1.7361      2.4319      0.5015
    19         H          3.1960      1.1834      0.3637

  H: (PM3): J. J. P. STEWART, J. COMP. CHEM. 10, 209 (1989).
  C: (PM3): J. J. P. STEWART, J. COMP. CHEM. 10, 209 (1989).

           Empirical Formula: C9 H10  =    19 atoms



      MOLECULAR POINT GROUP   :   C1  


      RHF CALCULATION, NO. OF DOUBLY OCCUPIED LEVELS = 23


          Geometry optimization using EF

          DIAGONAL MATRIX USED AS START HESSIAN

 CYCLE:     1 TIME:   0.008 TIME LEFT:  2.00D  GRAD.:    82.079 HEAT:  42.84140
 CYCLE:     2 TIME:   0.012 TIME LEFT:  2.00D  GRAD.:    58.631 HEAT:  41.45102
 CYCLE:     3 TIME:   0.008 TIME LEFT:  2.00D  GRAD.:    59.929 HEAT:  41.08588
 CYCLE:     4 TIME:   0.008 TIME LEFT:  2.00D  GRAD.:    46.657 HEAT:  40.61972
 CYCLE:     5 TIME:   0.008 TIME LEFT:  2.00D  GRAD.:    28.613 HEAT:  40.14111
 CYCLE:     6 TIME:   0.008 TIME LEFT:  2.00D  GRAD.:    19.470 HEAT:  39.96814
 CYCLE:     7 TIME:   0.008 TIME LEFT:  2.00D  GRAD.:    24.572 HEAT:  39.83985
 CYCLE:     8 TIME:   0.004 TIME LEFT:  2.00D  GRAD.:    22.308 HEAT:  39.64788
 CYCLE:     9 TIME:   0.008 TIME LEFT:  2.00D  GRAD.:    20.769 HEAT:  39.52628
 CYCLE:    10 TIME:   0.008 TIME LEFT:  2.00D  GRAD.:    11.349 HEAT:  39.41064
 CYCLE:    11 TIME:   0.008 TIME LEFT:  2.00D  GRAD.:    14.220 HEAT:  39.38817
 CYCLE:    12 TIME:   0.004 TIME LEFT:  2.00D  GRAD.:    10.545 HEAT:  39.32849
 CYCLE:    13 TIME:   0.012 TIME LEFT:  2.00D  GRAD.:    12.784 HEAT:  39.32536
 CYCLE:    14 TIME:   0.004 TIME LEFT:  2.00D  GRAD.:    10.982 HEAT:  39.30010
 CYCLE:    15 TIME:   0.008 TIME LEFT:  2.00D  GRAD.:    11.473 HEAT:  39.29005
 CYCLE:    16 TIME:   0.004 TIME LEFT:  2.00D  GRAD.:    10.322 HEAT:  39.27367
 CYCLE:    17 TIME:   0.008 TIME LEFT:  2.00D  GRAD.:     8.733 HEAT:  39.24991
 CYCLE:    18 TIME:   0.004 TIME LEFT:  2.00D  GRAD.:     7.163 HEAT:  39.23537
 CYCLE:    19 TIME:   0.008 TIME LEFT:  2.00D  GRAD.:     4.964 HEAT:  39.21573
 CYCLE:    20 TIME:   0.008 TIME LEFT:  2.00D  GRAD.:     4.872 HEAT:  39.20381
 CYCLE:    21 TIME:   0.008 TIME LEFT:  2.00D  GRAD.:     5.150 HEAT:  39.18656
 CYCLE:    22 TIME:   0.004 TIME LEFT:  2.00D  GRAD.:     3.664 HEAT:  39.17459
 CYCLE:    23 TIME:   0.008 TIME LEFT:  2.00D  GRAD.:     3.137 HEAT:  39.16982
 CYCLE:    24 TIME:   0.004 TIME LEFT:  2.00D  GRAD.:     2.032 HEAT:  39.16507
 CYCLE:    25 TIME:   0.008 TIME LEFT:  2.00D  GRAD.:     1.613 HEAT:  39.16188
 CYCLE:    26 TIME:   0.008 TIME LEFT:  2.00D  GRAD.:     1.631 HEAT:  39.15781
 CYCLE:    27 TIME:   0.008 TIME LEFT:  2.00D  GRAD.:     1.213 HEAT:  39.15327
 CYCLE:    28 TIME:   0.004 TIME LEFT:  2.00D  GRAD.:     1.323 HEAT:  39.15114
 CYCLE:    29 TIME:   0.008 TIME LEFT:  2.00D  GRAD.:     1.348 HEAT:  39.14634
 CYCLE:    30 TIME:   0.004 TIME LEFT:  2.00D  GRAD.:     1.699 HEAT:  39.14070
 CYCLE:    31 TIME:   0.008 TIME LEFT:  2.00D  GRAD.:     1.592 HEAT:  39.13708
 CYCLE:    32 TIME:   0.008 TIME LEFT:  2.00D  GRAD.:     1.192 HEAT:  39.13316
 CYCLE:    33 TIME:   0.008 TIME LEFT:  2.00D  GRAD.:     0.998 HEAT:  39.12919
 CYCLE:    34 TIME:   0.004 TIME LEFT:  2.00D  GRAD.:     1.368 HEAT:  39.12739
 CYCLE:    35 TIME:   0.008 TIME LEFT:  2.00D  GRAD.:     0.651 HEAT:  39.12581
 CYCLE:    36 TIME:   0.004 TIME LEFT:  2.00D  GRAD.:     0.476 HEAT:  39.12480
 CYCLE:    37 TIME:   0.008 TIME LEFT:  2.00D  GRAD.:     0.386 HEAT:  39.12436
 CYCLE:    38 TIME:   0.008 TIME LEFT:  2.00D  GRAD.:     0.322 HEAT:  39.12407
 CYCLE:    39 TIME:   0.008 TIME LEFT:  2.00D  GRAD.:     0.308 HEAT:  39.12387
 CYCLE:    40 TIME:   0.004 TIME LEFT:  2.00D  GRAD.:     0.313 HEAT:  39.12366
 CYCLE:    41 TIME:   0.008 TIME LEFT:  2.00D  GRAD.:     0.263 HEAT:  39.12347
 CYCLE:    42 TIME:   0.004 TIME LEFT:  2.00D  GRAD.:     0.198 HEAT:  39.12328
 CYCLE:    43 TIME:   0.008 TIME LEFT:  2.00D  GRAD.:     0.188 HEAT:  39.12317
 CYCLE:    44 TIME:   0.004 TIME LEFT:  2.00D  GRAD.:     0.162 HEAT:  39.12309
 CYCLE:    45 TIME:   0.008 TIME LEFT:  2.00D  GRAD.:     0.164 HEAT:  39.12299
 CYCLE:    46 TIME:   0.008 TIME LEFT:  2.00D  GRAD.:     0.148 HEAT:  39.12292
 CYCLE:    47 TIME:   0.004 TIME LEFT:  2.00D  GRAD.:     0.099 HEAT:  39.12286
 CYCLE:    48 TIME:   0.004 TIME LEFT:  2.00D  GRAD.:     0.082 HEAT:  39.12283
 CYCLE:    49 TIME:   0.008 TIME LEFT:  2.00D  GRAD.:     0.078 HEAT:  39.12282
 CYCLE:    50 TIME:   0.004 TIME LEFT:  2.00D  GRAD.:     0.051 HEAT:  39.12280
 CYCLE:    51 TIME:   0.008 TIME LEFT:  2.00D  GRAD.:     0.045 HEAT:  39.12280

     GRADIENT =  0.04531 IS LESS THAN CUTOFF =  0.05000



 -------------------------------------------------------------------------------
 pm3  precise nosym THREADS=1
 InChI=1S/C9H10/c1-2-5-9-7-3-6-8(9)4-1/h1-4,6,9H,5,7H2



     GEOMETRY OPTIMISED USING EIGENVECTOR FOLLOWING (EF).     
     SCF FIELD WAS ACHIEVED                                   


                              PM3 CALCULATION
                                                       MOPAC v23.1.2 MacOS
                                                       Tue Jun  3 16:34:18 2025




          FINAL HEAT OF FORMATION =         39.12280 KCAL/MOL =     163.68978 KJ/MOL


          COSMO AREA              =        159.62 SQUARE ANGSTROMS
          COSMO VOLUME            =        158.70 CUBIC ANGSTROMS

          GRADIENT NORM           =          0.04531          =       0.01040 PER ATOM
          IONIZATION POTENTIAL    =          8.517860 EV
          HOMO LUMO ENERGIES (EV) =         -8.518 -0.129
          NO. OF FILLED LEVELS    =         23
          MOLECULAR WEIGHT        =        118.1780         POINT GROUP:  C1  

          MOLECULAR DIMENSIONS (Angstroms)

            Atom       Atom       Distance
            H    16    H    15     6.74003
            H    17    H    12     4.97332
            H    14    H    10     2.93728


          SCF CALCULATIONS        =         59

          WALL-CLOCK TIME         =      0.355 SECONDS
          COMPUTATION TIME        =      0.221 SECONDS




   ATOM   CHEMICAL          X               Y               Z
  NUMBER   SYMBOL      (ANGSTROMS)     (ANGSTROMS)     (ANGSTROMS)

     1       C         -0.24765798  *  -0.65575643  *   0.30573856  *
     2       C         -1.69048524  *  -0.88952357  *  -0.18819431  *
     3       C          0.85954044  *  -1.20881888  *  -0.57857924  *
     4       C         -0.15044342  *   0.84702778  *   0.42848446  *
     5       C         -2.37565255  *   0.42357955  *   0.05399188  *
     6       C          2.16226536  *  -0.54125850  *  -0.28607685  *
     7       C         -1.50710042  *   1.38672391  *   0.41393871  *
     8       C          1.02819200  *   1.48704875  *   0.42329627  *
     9       C          2.23456759  *   0.70964838  *   0.19491919  *
    10       H         -0.13445297  *  -1.08578062  *   1.33062971  *
    11       H         -1.72585213  *  -1.15282466  *  -1.26257589  *
    12       H         -2.18931608  *  -1.71415248  *   0.35119688  *
    13       H          0.94742812  *  -2.30253194  *  -0.43213709  *
    14       H          0.62530828  *  -1.06593808  *  -1.65400632  *
    15       H         -3.45279902  *   0.53152524  *  -0.06668516  *
    16       H          3.06830581  *  -1.11385994  *  -0.50928768  *
    17       H          1.10988886  *   2.57146055  *   0.53785071  *
    18       H         -1.73141393  *   2.42848651  *   0.63994896  *
    19       H          3.19634169  *   1.19166054  *   0.39607507  *

                             CARTESIAN COORDINATES

   1    C       -0.247657976    -0.655756430     0.305738562
   2    C       -1.690485239    -0.889523569    -0.188194312
   3    C        0.859540444    -1.208818880    -0.578579244
   4    C       -0.150443419     0.847027783     0.428484464
   5    C       -2.375652552     0.423579552     0.053991875
   6    C        2.162265363    -0.541258499    -0.286076854
   7    C       -1.507100416     1.386723908     0.413938709
   8    C        1.028191996     1.487048751     0.423296270
   9    C        2.234567594     0.709648381     0.194919193
  10    H       -0.134452968    -1.085780620     1.330629713
  11    H       -1.725852134    -1.152824661    -1.262575886
  12    H       -2.189316083    -1.714152482     0.351196876
  13    H        0.947428118    -2.302531938    -0.432137094
  14    H        0.625308279    -1.065938083    -1.654006316
  15    H       -3.452799019     0.531525239    -0.066685164
  16    H        3.068305808    -1.113859935    -0.509287676
  17    H        1.109888857     2.571460546     0.537850713
  18    H       -1.731413930     2.428486514     0.639948958
  19    H        3.196341693     1.191660538     0.396075065


           Empirical Formula: C9 H10  =    19 atoms



      MOLECULAR POINT GROUP   :   C1  


                  EIGENVALUES  
 -41.58820 -34.93528 -31.00972 -27.22766 -25.79284 -21.95982 -20.14832 -19.25745
 -17.68454 -17.18230 -15.85783 -15.23788 -14.60584 -14.45617 -14.17973 -13.30013
 -12.86617 -12.56132 -12.13847 -11.89925 -11.57271 -10.28155  -8.51786  -0.12920
   1.23832   2.32277   3.17073   3.27487   3.43706   3.59260   3.67595   3.75275
   3.88293   3.96032   3.97916   4.20283   4.39558   4.47730   4.69302   4.90114
   4.92795   5.32698   5.57367   5.83966   6.07483   6.33205


              NET ATOMIC CHARGES AND DIPOLE CONTRIBUTIONS

  ATOM NO.   TYPE          CHARGE      No. of ELECS.   s-Pop       p-Pop       
    1          C          -0.049230        4.0492     1.17102     2.87821
    2          C          -0.063819        4.0638     1.15667     2.90715
    3          C          -0.050946        4.0509     1.14635     2.90460
    4          C          -0.087927        4.0879     1.19458     2.89335
    5          C          -0.138469        4.1385     1.20606     2.93241
    6          C          -0.140429        4.1404     1.19805     2.94237
    7          C          -0.103765        4.1038     1.18431     2.91945
    8          C          -0.101866        4.1019     1.17353     2.92833
    9          C          -0.108183        4.1082     1.17921     2.92897
   10          H           0.075054        0.9249     0.92495
   11          H           0.062616        0.9374     0.93738
   12          H           0.057531        0.9425     0.94247
   13          H           0.054460        0.9455     0.94554
   14          H           0.060238        0.9398     0.93976
   15          H           0.111111        0.8889     0.88889
   16          H           0.098598        0.9014     0.90140
   17          H           0.108170        0.8918     0.89183
   18          H           0.115659        0.8843     0.88434
   19          H           0.101197        0.8988     0.89880
 DIPOLE           X         Y         Z       TOTAL
 POINT-CHG.    -0.326    -0.440    -0.256     0.605
 HYBRID         0.008     0.017    -0.030     0.035
 SUM           -0.319    -0.424    -0.285     0.602


          ATOMIC ORBITAL ELECTRON POPULATIONS

     Atom    s        px        py        pz   
    1  C   1.17102   0.94048   0.94226   0.99548
    2  C   1.15667   0.94298   0.95836   1.00580
    3  C   1.14635   0.93206   0.98271   0.98983
    4  C   1.19458   0.94238   0.95419   0.99678
    5  C   1.20606   0.98116   0.95803   0.99322
    6  C   1.19805   0.97554   0.96573   1.00110
    7  C   1.18431   0.93064   0.97827   1.01054
    8  C   1.17353   0.92890   0.97867   1.02076
    9  C   1.17921   0.96871   0.95218   1.00809
   10  H   0.92495
   11  H   0.93738
   12  H   0.94247
   13  H   0.94554
   14  H   0.93976
   15  H   0.88889
   16  H   0.90140
   17  H   0.89183
   18  H   0.88434
   19  H   0.89880
 *******************************************************************************
 **                                                                           **
 **                              MOPAC v23.1.2                                **
 **                                                                           **
 *******************************************************************************
 **          Digital Object Identifier (DOI): 10.5281/zenodo.6511958          **
 **    Visit the DOI location for information on how to cite this program.    **
 *******************************************************************************

                              PM3 CALCULATION RESULTS

 *******************************************************************************
 *  CALCULATION DONE: (MAX THREADS = 1)              Tue Jun  3 16:34:18 2025  *
 *  PM3        - The PM3 Hamiltonian to be used
 *  OLDGEO     - PREVIOUS GEOMETRY TO BE USED
 *  PRECISE    - TIGHTER CRITERIA TO BE USED
 *  NOSYM      - POINT-GROUP SYMMETRY SET TO C1
 *  THREADS=1  - MULTI-THREADING NOT USED
 *  T=         - A TIME OF 172800.0 SECONDS REQUESTED
 *  DUMP=N     - RESTART FILE WRITTEN EVERY 7200.0 SECONDS REQUESTED
 *  THERMO     - THERMODYNAMIC QUANTITIES TO BE CALCULATED
 *******************************************************************************
oldgeo thermo nosym precise THREADS=1  pm3
 InChI=1S/C9H10/c1-2-5-9-7-3-6-8(9)4-1/h1-4,6,9H,5,7H2

   ATOM   CHEMICAL          X               Y               Z
  NUMBER   SYMBOL      (ANGSTROMS)     (ANGSTROMS)     (ANGSTROMS)

     1       C         -0.24765798  *  -0.65575643  *   0.30573856  *
     2       C         -1.69048524  *  -0.88952357  *  -0.18819431  *
     3       C          0.85954044  *  -1.20881888  *  -0.57857924  *
     4       C         -0.15044342  *   0.84702778  *   0.42848446  *
     5       C         -2.37565255  *   0.42357955  *   0.05399188  *
     6       C          2.16226536  *  -0.54125850  *  -0.28607685  *
     7       C         -1.50710042  *   1.38672391  *   0.41393871  *
     8       C          1.02819200  *   1.48704875  *   0.42329627  *
     9       C          2.23456759  *   0.70964838  *   0.19491919  *
    10       H         -0.13445297  *  -1.08578062  *   1.33062971  *
    11       H         -1.72585213  *  -1.15282466  *  -1.26257589  *
    12       H         -2.18931608  *  -1.71415248  *   0.35119688  *
    13       H          0.94742812  *  -2.30253194  *  -0.43213709  *
    14       H          0.62530828  *  -1.06593808  *  -1.65400632  *
    15       H         -3.45279902  *   0.53152524  *  -0.06668516  *
    16       H          3.06830581  *  -1.11385994  *  -0.50928768  *
    17       H          1.10988886  *   2.57146055  *   0.53785071  *
    18       H         -1.73141393  *   2.42848651  *   0.63994896  *
    19       H          3.19634169  *   1.19166054  *   0.39607507  *



          CARTESIAN COORDINATES 

    NO.       ATOM           X           Y           Z

     1         C         -0.2477     -0.6558      0.3057
     2         C         -1.6905     -0.8895     -0.1882
     3         C          0.8595     -1.2088     -0.5786
     4         C         -0.1504      0.8470      0.4285
     5         C         -2.3757      0.4236      0.0540
     6         C          2.1623     -0.5413     -0.2861
     7         C         -1.5071      1.3867      0.4139
     8         C          1.0282      1.4870      0.4233
     9         C          2.2346      0.7096      0.1949
    10         H         -0.1345     -1.0858      1.3306
    11         H         -1.7259     -1.1528     -1.2626
    12         H         -2.1893     -1.7142      0.3512
    13         H          0.9474     -2.3025     -0.4321
    14         H          0.6253     -1.0659     -1.6540
    15         H         -3.4528      0.5315     -0.0667
    16         H          3.0683     -1.1139     -0.5093
    17         H          1.1099      2.5715      0.5379
    18         H         -1.7314      2.4285      0.6399
    19         H          3.1963      1.1917      0.3961

  H: (PM3): J. J. P. STEWART, J. COMP. CHEM. 10, 209 (1989).
  C: (PM3): J. J. P. STEWART, J. COMP. CHEM. 10, 209 (1989).

           Empirical Formula: C9 H10  =    19 atoms



      MOLECULAR POINT GROUP   :   C1  


      RHF CALCULATION, NO. OF DOUBLY OCCUPIED LEVELS = 23



          HEAT OF FORMATION =      39.122796 KCALS/MOLE


          CARTESIAN COORDINATE DERIVATIVES

   NUMBER  ATOM         X            Y            Z

     1       C      0.015560    -0.010657    -0.002454
     2       C     -0.005201    -0.001804    -0.002057
     3       C      0.009022     0.003282    -0.002662
     4       C      0.015530    -0.007118     0.002181
     5       C     -0.007032     0.001378     0.006059
     6       C     -0.004972     0.004119     0.010214
     7       C     -0.004440    -0.006456    -0.005754
     8       C      0.003736     0.004167     0.002703
     9       C      0.003492     0.010749    -0.008181
    10       H     -0.000119     0.001933    -0.001189
    11       H      0.003020    -0.000372    -0.002352
    12       H     -0.003887    -0.003939    -0.002154
    13       H     -0.003510    -0.009180    -0.011000
    14       H     -0.004551     0.006607    -0.000699
    15       H      0.003206     0.009560     0.007530
    16       H     -0.011032    -0.003583     0.001623
    17       H     -0.005803     0.003106     0.010411
    18       H     -0.003528    -0.000936    -0.000693
    19       H      0.000509    -0.000854    -0.001526



          GRADIENT NORM =   0.04643

          MOLECULAR WEIGHT =  118.18



          ROTATIONAL CONSTANTS IN CM(-1)

          A =    0.11478077   B =    0.05209708   C =    0.03733729



           PRINCIPAL MOMENTS OF INERTIA IN UNITS OF 10**(-40)*GRAM-CM**2

          A =      243.8802   B =      537.3190   C =      749.7264


          ORIENTATION OF MOLECULE IN FORCE CALCULATION

    NO.       ATOM         X         Y         Z

     1          C       0.3055    0.0975    0.8171
     2          C       1.8483    0.0975    0.8171
     3          C      -0.3630    1.4639    0.8171
     4          C      -0.0524   -0.6865   -0.4238
     5          C       2.2126   -0.9677   -0.1753
     6          C      -1.7761    1.3686    0.3455
     7          C       1.1392   -1.4119   -0.8550
     8          C      -1.2499   -0.5731   -1.0170
     9          C      -2.1872    0.4084   -0.4973
    10          H      -0.0633   -0.4805    1.6992
    11          H       2.2653    1.0748    0.5073
    12          H       2.2671   -0.1171    1.8163
    13          H      -0.3264    1.9009    1.8335
    14          H       0.1787    2.1773    0.1618
    15          H       3.2422   -1.3024   -0.2952
    16          H      -2.4652    2.1419    0.7001
    17          H      -1.5273   -1.1557   -1.8998
    18          H       1.1188   -2.1716   -1.6355
    19          H      -3.2241    0.3552   -0.8436


    FIRST DERIVATIVES WILL BE USED IN THE CALCULATION OF SECOND DERIVATIVES

          ESTIMATED TIME TO COMPLETE CALCULATION =        1.78 SECONDS

    FOR POINT-GROUP C1   THERE ARE   1 UNIQUE SYMMETRY FUNCTIONS.

 STEP:   1 TIME =     0.02 SECS, INTEGRAL =      0.02 TIME LEFT: 172799.98
 STEP:   2 TIME =     0.02 SECS, INTEGRAL =      0.03 TIME LEFT: 172799.96
 STEP:   3 TIME =     0.02 SECS, INTEGRAL =      0.05 TIME LEFT: 172799.95
 STEP:   4 TIME =     0.02 SECS, INTEGRAL =      0.06 TIME LEFT: 172799.93
 STEP:   5 TIME =     0.02 SECS, INTEGRAL =      0.08 TIME LEFT: 172799.91
 STEP:   6 TIME =     0.02 SECS, INTEGRAL =      0.09 TIME LEFT: 172799.90
 STEP:   7 TIME =     0.02 SECS, INTEGRAL =      0.11 TIME LEFT: 172799.88
 STEP:   8 TIME =     0.02 SECS, INTEGRAL =      0.13 TIME LEFT: 172799.86
 STEP:   9 TIME =     0.02 SECS, INTEGRAL =      0.15 TIME LEFT: 172799.84
 STEP:  10 TIME =     0.02 SECS, INTEGRAL =      0.16 TIME LEFT: 172799.83
 STEP:  11 TIME =     0.02 SECS, INTEGRAL =      0.18 TIME LEFT: 172799.81
 STEP:  12 TIME =     0.02 SECS, INTEGRAL =      0.20 TIME LEFT: 172799.79
 STEP:  13 TIME =     0.02 SECS, INTEGRAL =      0.22 TIME LEFT: 172799.77
 STEP:  14 TIME =     0.02 SECS, INTEGRAL =      0.24 TIME LEFT: 172799.75
 STEP:  15 TIME =     0.02 SECS, INTEGRAL =      0.25 TIME LEFT: 172799.74
 STEP:  16 TIME =     0.02 SECS, INTEGRAL =      0.27 TIME LEFT: 172799.72
 STEP:  17 TIME =     0.02 SECS, INTEGRAL =      0.29 TIME LEFT: 172799.70
 STEP:  18 TIME =     0.02 SECS, INTEGRAL =      0.30 TIME LEFT: 172799.69
 STEP:  19 TIME =     0.02 SECS, INTEGRAL =      0.32 TIME LEFT: 172799.67
 STEP:  20 TIME =     0.02 SECS, INTEGRAL =      0.34 TIME LEFT: 172799.65
 STEP:  21 TIME =     0.02 SECS, INTEGRAL =      0.36 TIME LEFT: 172799.63
 STEP:  22 TIME =     0.02 SECS, INTEGRAL =      0.38 TIME LEFT: 172799.62
 STEP:  23 TIME =     0.02 SECS, INTEGRAL =      0.39 TIME LEFT: 172799.60
 STEP:  24 TIME =     0.02 SECS, INTEGRAL =      0.41 TIME LEFT: 172799.58
 STEP:  25 TIME =     0.02 SECS, INTEGRAL =      0.43 TIME LEFT: 172799.56
 STEP:  26 TIME =     0.02 SECS, INTEGRAL =      0.45 TIME LEFT: 172799.55
 STEP:  27 TIME =     0.02 SECS, INTEGRAL =      0.46 TIME LEFT: 172799.53
 STEP:  28 TIME =     0.02 SECS, INTEGRAL =      0.48 TIME LEFT: 172799.52
 STEP:  29 TIME =     0.02 SECS, INTEGRAL =      0.50 TIME LEFT: 172799.50
 STEP:  30 TIME =     0.02 SECS, INTEGRAL =      0.51 TIME LEFT: 172799.48
 STEP:  31 TIME =     0.02 SECS, INTEGRAL =      0.53 TIME LEFT: 172799.46
 STEP:  32 TIME =     0.02 SECS, INTEGRAL =      0.55 TIME LEFT: 172799.45
 STEP:  33 TIME =     0.02 SECS, INTEGRAL =      0.56 TIME LEFT: 172799.43
 STEP:  34 TIME =     0.02 SECS, INTEGRAL =      0.58 TIME LEFT: 172799.41
 STEP:  35 TIME =     0.02 SECS, INTEGRAL =      0.59 TIME LEFT: 172799.40
 STEP:  36 TIME =     0.02 SECS, INTEGRAL =      0.61 TIME LEFT: 172799.38
 STEP:  37 TIME =     0.02 SECS, INTEGRAL =      0.62 TIME LEFT: 172799.37
 STEP:  38 TIME =     0.02 SECS, INTEGRAL =      0.64 TIME LEFT: 172799.35
 STEP:  39 TIME =     0.02 SECS, INTEGRAL =      0.66 TIME LEFT: 172799.34
 STEP:  40 TIME =     0.02 SECS, INTEGRAL =      0.68 TIME LEFT: 172799.32
 STEP:  41 TIME =     0.02 SECS, INTEGRAL =      0.70 TIME LEFT: 172799.30
 STEP:  42 TIME =     0.02 SECS, INTEGRAL =      0.71 TIME LEFT: 172799.28
 STEP:  43 TIME =     0.02 SECS, INTEGRAL =      0.73 TIME LEFT: 172799.26
 STEP:  44 TIME =     0.02 SECS, INTEGRAL =      0.75 TIME LEFT: 172799.24
 STEP:  45 TIME =     0.02 SECS, INTEGRAL =      0.77 TIME LEFT: 172799.22
 STEP:  46 TIME =     0.02 SECS, INTEGRAL =      0.79 TIME LEFT: 172799.20
 STEP:  47 TIME =     0.02 SECS, INTEGRAL =      0.81 TIME LEFT: 172799.18
 STEP:  48 TIME =     0.02 SECS, INTEGRAL =      0.83 TIME LEFT: 172799.16
 STEP:  49 TIME =     0.02 SECS, INTEGRAL =      0.85 TIME LEFT: 172799.14
 STEP:  50 TIME =     0.02 SECS, INTEGRAL =      0.87 TIME LEFT: 172799.12
 STEP:  51 TIME =     0.02 SECS, INTEGRAL =      0.89 TIME LEFT: 172799.11
 STEP:  52 TIME =     0.02 SECS, INTEGRAL =      0.91 TIME LEFT: 172799.09
 STEP:  53 TIME =     0.02 SECS, INTEGRAL =      0.93 TIME LEFT: 172799.07
 STEP:  54 TIME =     0.02 SECS, INTEGRAL =      0.95 TIME LEFT: 172799.05
 STEP:  55 TIME =     0.02 SECS, INTEGRAL =      0.96 TIME LEFT: 172799.03
 STEP:  56 TIME =     0.02 SECS, INTEGRAL =      0.98 TIME LEFT: 172799.01
 STEP:  57 TIME =     0.02 SECS, INTEGRAL =      1.00 TIME LEFT: 172798.99

(To convert to Hartree/Bohr^2, multiply by (10^(-21) x N x a0^2)/(4.184 x 627.51) =  0.0642)


           FORCE MATRIX IN MILLIDYNES/ANGSTROM


                  C  1       C  2       C  3       C  4       C  5       C  6
 ------------------------------------------------------------------------------
     C    1  14.702880
     C    2   3.521033  14.531557
     C    3   4.135561   0.511238  14.645827
     C    4   4.157551   0.864421   0.653962  19.378625
     C    5   0.911089   4.524233   0.040557   1.542134  18.040283
     C    6   0.694855   0.049201   4.778025   0.185542   0.020600  17.781530
     C    7   0.890205   1.146776   0.046080   5.317011  10.079477   0.049893
     C    8   0.752843   0.052151   0.115686   9.919990   0.136563   1.141507
     C    9   0.116971   0.014390   0.832999   1.245529   0.051283  10.105925
     H   10   4.222801   0.425446   0.427155   0.400072   0.018053   0.014590
     H   11   0.450763   4.472783   0.036855   0.018493   0.425923   0.005528
     H   12   0.431546   4.557324   0.018600   0.046536   0.435990   0.003550
     H   13   0.439111   0.008933   4.485783   0.047369   0.001705   0.440624
     H   14   0.453685   0.031041   4.377124   0.016237   0.004042   0.410745
     H   15   0.042094   0.410801   0.005663   0.115406   5.033029   0.002494
     H   16   0.043690   0.007726   0.426615   0.015139   0.002239   4.855084
     H   17   0.110049   0.010444   0.009373   0.460136   0.008459   0.046835
     H   18   0.040443   0.113938   0.005701   0.431825   0.446261   0.001706
     H   19   0.005338   0.001185   0.121256   0.047659   0.002643   0.444724


                  C  7       C  8       C  9       H 10       H 11       H 12
 ------------------------------------------------------------------------------
     C    7  18.479147
     C    8   0.896188  18.247583
     C    9   0.174008   5.502060  18.167759
     H   10   0.020020   0.027634   0.017749   4.674759
     H   11   0.036719   0.007608   0.006439   0.033651   5.088201
     H   12   0.042856   0.007486   0.002522   0.032215   0.564098   5.164093
     H   13   0.007770   0.009750   0.048088   0.035426   0.001329   0.001132
     H   14   0.005524   0.020446   0.034722   0.045342   0.029251   0.001427
     H   15   0.444700   0.009787   0.009403   0.001803   0.011113   0.016099
     H   16   0.009133   0.121931   0.443564   0.004171   0.000753   0.000755
     H   17   0.069354   4.893466   0.434845   0.014417   0.001672   0.001217
     H   18   5.030338   0.011891   0.004504   0.001257   0.015910   0.014605
     H   19   0.010461   0.431937   4.865418   0.000784   0.000191   0.000124


                  H 13       H 14       H 15       H 16       H 17       H 18
 ------------------------------------------------------------------------------
     H   13   5.078638
     H   14   0.568861   4.983975
     H   15   0.000404   0.000686   5.425325
     H   16   0.034898   0.014843   0.000695   5.228123
     H   17   0.001292   0.000859   0.003488   0.008117   5.267033
     H   18   0.001204   0.000498   0.045982   0.000549   0.006596   5.422894
     H   19   0.012614   0.016838   0.000810   0.066164   0.027523   0.000648


                  H 19
 ------------------
     H   19   5.233344


          HEAT OF FORMATION =      39.122796 KCALS/MOLE

          ZERO POINT ENERGY     101.715 KCAL/MOL


           NORMAL COORDINATE ANALYSIS (Total motion = 1 Angstrom)


   Root No.       1         2         3         4         5         6         7         8

                 1 A       2 A       3 A       4 A       5 A       6 A       7 A       8 A   

                 130.6     173.3     282.8     373.1     417.7     441.5     503.4     547.1
  
           1    0.0075    0.0058   -0.0072    0.0268    0.0036   -0.0070   -0.0138   -0.0316
           2   -0.0031    0.0174   -0.0154    0.0369   -0.0207   -0.0041    0.0240    0.0159
           3    0.0046   -0.0206    0.0256    0.0144    0.0413    0.0131    0.0091   -0.0002
           4    0.0089    0.0049   -0.0057    0.0359    0.0077   -0.0040   -0.0269   -0.0388
           5    0.0341    0.0107    0.0028   -0.0306    0.0092   -0.0054    0.0133   -0.0184
           6   -0.0445   -0.0145    0.0013    0.0069   -0.0109   -0.0055    0.0015   -0.0203
           7   -0.0210   -0.0038    0.0110   -0.0238    0.0037   -0.0059    0.0399   -0.0255
           8   -0.0173    0.0117   -0.0060    0.0187   -0.0199    0.0052    0.0391    0.0425
           9    0.0518   -0.0144   -0.0263    0.0047   -0.0120    0.0051    0.0271    0.0064
          10   -0.0025    0.0109   -0.0127    0.0058   -0.0062    0.0038   -0.0198    0.0216
          11   -0.0081    0.0232   -0.0259    0.0287    0.0027    0.0004    0.0121   -0.0452
          12    0.0114   -0.0267    0.0325    0.0288    0.0286    0.0085    0.0065    0.0250
          13   -0.0013   -0.0031   -0.0019   -0.0011   -0.0082   -0.0018   -0.0451    0.0039
          14   -0.0055   -0.0399    0.0322   -0.0203   -0.0232   -0.0001    0.0079   -0.0237
          15   -0.0064    0.0358   -0.0278   -0.0243    0.0180   -0.0129    0.0025   -0.0091
          16   -0.0028   -0.0213   -0.0043   -0.0252    0.0020    0.0074    0.0579   -0.0260
          17    0.0010   -0.0264   -0.0159   -0.0192   -0.0042    0.0252   -0.0420    0.0285
          18   -0.0024    0.0425    0.0217   -0.0084   -0.0148   -0.0410    0.0028    0.0208
          19   -0.0104    0.0018   -0.0123   -0.0238   -0.0058   -0.0065   -0.0395    0.0234
          20   -0.0310   -0.0154   -0.0195    0.0058    0.0411   -0.0142    0.0165   -0.0155
          21    0.0247    0.0114    0.0235   -0.0010   -0.0265    0.0066   -0.0076   -0.0394
          22    0.0086    0.0143    0.0191    0.0158    0.0049    0.0270    0.0045    0.0358
          23    0.0061    0.0333    0.0271    0.0019    0.0067    0.0345   -0.0396   -0.0084
          24   -0.0075   -0.0312   -0.0219    0.0064    0.0071   -0.0250   -0.0416    0.0196
          25    0.0122   -0.0059    0.0072   -0.0079   -0.0107   -0.0121    0.0465    0.0454
          26    0.0206   -0.0086    0.0134   -0.0109   -0.0039   -0.0420   -0.0324    0.0081
          27   -0.0313    0.0145   -0.0168   -0.0263   -0.0084    0.0467   -0.0079    0.0102
          28    0.0516    0.0039   -0.0017    0.0322    0.0311   -0.0030   -0.0325   -0.0503
          29   -0.0257    0.0117    0.0137    0.0502   -0.0080    0.0039    0.0326    0.0563
          30    0.0084   -0.0246    0.0452    0.0264    0.0586    0.0190    0.0073    0.0186
          31   -0.0255    0.0087   -0.0237    0.0830   -0.0349   -0.0106   -0.0232   -0.0427
          32    0.0284   -0.0076    0.0185   -0.0382   -0.0026   -0.0017    0.0072   -0.0277
          33   -0.1099   -0.0673    0.0271    0.0530   -0.1124   -0.0020   -0.0166   -0.0566
          34    0.0479    0.0020    0.0128    0.0228    0.0623    0.0077   -0.0175   -0.0361
          35    0.0965    0.0631   -0.0238   -0.1001    0.1041   -0.0135    0.0254    0.0120
          36   -0.0478   -0.0024   -0.0119   -0.0017   -0.0154   -0.0122   -0.0002   -0.0162
          37   -0.0648    0.0346    0.0626   -0.0556    0.0118   -0.0692    0.0123   -0.0055
          38   -0.0729    0.0316    0.0616    0.0208    0.0330   -0.0317    0.0246    0.0411
          39    0.0778   -0.0247   -0.0582    0.0050   -0.0359    0.0244    0.0355    0.0062
          40   -0.0090   -0.0400   -0.0056   -0.0415    0.0128    0.0401    0.0475   -0.0396
          41    0.0295    0.0043   -0.0592    0.0381   -0.0626    0.0254    0.0586    0.0457
          42    0.1123   -0.0521   -0.0992    0.0129   -0.0528    0.0671    0.0552   -0.0007
          43   -0.0027   -0.0128    0.0083   -0.0100   -0.0192    0.0004   -0.0487    0.0177
          44   -0.0100   -0.0864    0.0809   -0.0357   -0.0653    0.0114   -0.0009    0.0148
          45   -0.0059    0.0829   -0.0768   -0.0571    0.0432   -0.0249    0.0021    0.0039
          46   -0.0056   -0.0423   -0.0132   -0.0444    0.0157    0.0155    0.0158   -0.0625
          47    0.0059   -0.0731   -0.0480   -0.0373    0.0128    0.0554   -0.0919    0.0000
          48   -0.0176    0.1026    0.0730   -0.0056   -0.0258   -0.0907    0.0306    0.0113
          49    0.0155    0.0188    0.0502    0.0498    0.0425    0.0691    0.0200    0.0341
          50    0.0018    0.0537    0.0674   -0.0234    0.0315    0.1227   -0.0553    0.0137
          51   -0.0070   -0.0459   -0.0582    0.0123   -0.0212   -0.0962   -0.0350    0.0056
          52   -0.0229   -0.0019   -0.0178   -0.0661   -0.0091   -0.0219   -0.0499    0.0315
          53   -0.0615   -0.0331   -0.0362    0.0154    0.1022   -0.0306    0.0346    0.0510
          54    0.0549    0.0288    0.0400   -0.0095   -0.0859    0.0231   -0.0249   -0.1045
          55    0.0239   -0.0130    0.0097    0.0010   -0.0069   -0.0393    0.0312    0.0568
          56    0.0463   -0.0376    0.0112   -0.0200   -0.0018   -0.1363   -0.0215   -0.0131
          57   -0.0709    0.0405   -0.0232   -0.0512   -0.0188    0.1439    0.0366   -0.0219


   Root No.       9        10        11        12        13        14        15        16

                 9 A      10 A      11 A      12 A      13 A      14 A      15 A      16 A   

                 650.7     741.4     761.8     779.3     797.7     871.2     888.7     921.0
  
           1   -0.0194   -0.0140   -0.0196   -0.0117   -0.0019    0.0107    0.0023   -0.0017
           2   -0.0156   -0.0068    0.0051   -0.0053   -0.0113    0.0039   -0.0076    0.0021
           3    0.0347    0.0116    0.0033    0.0103    0.0058    0.0361   -0.0019   -0.0035
           4   -0.0247   -0.0077   -0.0039   -0.0083    0.0350    0.0203    0.0142   -0.0041
           5   -0.0050   -0.0245   -0.0262    0.0012    0.0002   -0.0025   -0.0149    0.0136
           6   -0.0056   -0.0054   -0.0198   -0.0208    0.0017    0.0232    0.0291   -0.0151
           7   -0.0059    0.0073    0.0018    0.0042   -0.0272   -0.0029    0.0000   -0.0035
           8   -0.0081    0.0115    0.0224    0.0064   -0.0065    0.0350    0.0040   -0.0039
           9    0.0084   -0.0030    0.0199   -0.0017    0.0123    0.0325   -0.0243    0.0215
          10    0.0389   -0.0016   -0.0190   -0.0061   -0.0237    0.0015    0.0018    0.0080
          11    0.0646    0.0153    0.0067   -0.0094   -0.0074   -0.0199    0.0038    0.0184
          12   -0.0262   -0.0008   -0.0016    0.0125   -0.0080   -0.0279   -0.0071   -0.0104
          13   -0.0074    0.0312    0.0484    0.0202    0.0092   -0.0174   -0.0062   -0.0017
          14    0.0027   -0.0118   -0.0117    0.0093    0.0001    0.0082    0.0058   -0.0121
          15   -0.0211   -0.0020   -0.0063   -0.0173    0.0011    0.0011   -0.0028    0.0094
          16   -0.0034    0.0051    0.0058    0.0051   -0.0240    0.0043   -0.0110    0.0056
          17    0.0051    0.0026   -0.0177    0.0026    0.0441   -0.0061    0.0131    0.0141
          18    0.0005   -0.0148    0.0126   -0.0087    0.0047   -0.0108    0.0025   -0.0190
          19   -0.0074    0.0104    0.0149    0.0138   -0.0101    0.0213   -0.0058   -0.0007
          20   -0.0138    0.0041    0.0228    0.0230    0.0226   -0.0325    0.0148   -0.0085
          21   -0.0050    0.0214    0.0275   -0.0130    0.0179   -0.0355   -0.0105    0.0061
          22    0.0208   -0.0075   -0.0213   -0.0053   -0.0094   -0.0203   -0.0062   -0.0140
          23   -0.0030    0.0050   -0.0133   -0.0050   -0.0296   -0.0012   -0.0221   -0.0324
          24    0.0154   -0.0015   -0.0176    0.0086   -0.0469   -0.0098    0.0100    0.0305
          25    0.0169   -0.0135   -0.0117   -0.0046    0.0520   -0.0248    0.0147    0.0006
          26   -0.0086    0.0121   -0.0139    0.0088    0.0064    0.0042   -0.0027    0.0045
          27    0.0050   -0.0173    0.0111   -0.0109    0.0085   -0.0102    0.0099   -0.0081
          28   -0.0446   -0.0374   -0.0307   -0.0012    0.0450    0.0276   -0.0424    0.0314
          29   -0.0554   -0.0039    0.0256    0.0171   -0.0369    0.0275    0.0005   -0.0563
          30   -0.0035    0.0031    0.0113    0.0292    0.0067    0.0550   -0.0162   -0.0278
          31   -0.0678   -0.0490   -0.0222   -0.0105    0.0408   -0.0016   -0.0417    0.0470
          32    0.0102   -0.0286   -0.0259    0.0265    0.0003   -0.0067   -0.0208    0.0080
          33   -0.0169   -0.0798   -0.0427    0.0636    0.0131   -0.0262   -0.0749    0.0421
          34    0.0184    0.0218   -0.0043   -0.0194    0.0446    0.1091    0.0744   -0.0564
          35   -0.0019    0.0479   -0.0055   -0.0816   -0.0161    0.0224    0.0906   -0.0415
          36   -0.0243   -0.0049   -0.0168   -0.0325   -0.0054   -0.0083    0.0238   -0.0034
          37    0.0364   -0.0374    0.0379   -0.0237    0.0267   -0.0218   -0.0367    0.0335
          38    0.0751   -0.0093    0.0707   -0.0055    0.0558    0.1408   -0.0629    0.0591
          39   -0.0315    0.0085   -0.0028    0.0052   -0.0192   -0.0126    0.0068   -0.0088
          40   -0.0032    0.0456   -0.0296    0.0321   -0.0263   -0.0047    0.0120    0.0184
          41   -0.0821    0.0209    0.0009    0.0105   -0.0726   -0.0144    0.0521   -0.0716
          42   -0.0735    0.0408   -0.0315    0.0269   -0.0607   -0.0250    0.0411   -0.0368
          43   -0.0085    0.0485    0.0494   -0.0154   -0.0106   -0.0069   -0.0124    0.0140
          44   -0.0091    0.0677   -0.0058   -0.1709   -0.0544    0.0292    0.0036    0.0545
          45    0.0078   -0.0775   -0.0206    0.1758   -0.0199    0.0213   -0.0473   -0.0410
          46    0.0025   -0.0319    0.0357   -0.0216   -0.0640   -0.0212   -0.0336   -0.0361
          47    0.0346   -0.0916    0.0730   -0.0639    0.0099   -0.0279   -0.0284   -0.0721
          48   -0.0541    0.1192   -0.1255    0.0845    0.0024   -0.0102    0.0497    0.0871
          49    0.0015   -0.0348    0.0070    0.0130   -0.0741   -0.0658    0.0352    0.0948
          50   -0.0884   -0.0703    0.0683    0.0173   -0.0632    0.0269    0.0831    0.1505
          51    0.0785    0.0569   -0.0807   -0.0119   -0.0053   -0.0157   -0.0727   -0.1246
          52   -0.0642    0.0045   -0.0021   -0.0207   -0.0047    0.1120   -0.0350   -0.0049
          53   -0.0941    0.0404    0.0019   -0.1038    0.0258   -0.0822   -0.0885    0.0323
          54    0.0751   -0.0136    0.0484    0.1116    0.0145    0.0090    0.0908   -0.0336
          55    0.0289   -0.0453    0.0143   -0.0192    0.0227   -0.0395    0.0355   -0.0053
          56   -0.0071   -0.0618    0.1052   -0.0227   -0.0728    0.0136    0.0385   -0.0109
          57   -0.0301    0.0892   -0.0873    0.0377    0.1086    0.0285   -0.0584    0.0115


   Root No.      17        18        19        20        21        22        23        24

                17 A      18 A      19 A      20 A      21 A      22 A      23 A      24 A   

                 950.0     979.3     997.1    1036.7    1043.2    1049.4    1073.2    1079.9
  
           1    0.0069    0.0030    0.0048   -0.0129    0.0076   -0.0103   -0.0072    0.0256
           2    0.0095    0.0071    0.0031   -0.0152    0.0093    0.0003    0.0018   -0.0083
           3   -0.0207    0.0119    0.0174    0.0055   -0.0012    0.0045   -0.0110   -0.0068
           4   -0.0066   -0.0138   -0.0089    0.0130   -0.0114    0.0062    0.0034   -0.0155
           5   -0.0091    0.0031   -0.0026    0.0144   -0.0300    0.0065   -0.0165   -0.0118
           6    0.0109   -0.0184   -0.0070   -0.0166   -0.0074    0.0036   -0.0189    0.0022
           7   -0.0006   -0.0061   -0.0072    0.0258    0.0134    0.0005   -0.0141    0.0103
           8   -0.0063   -0.0143   -0.0121    0.0221   -0.0073    0.0049   -0.0047    0.0142
           9    0.0207   -0.0087   -0.0253   -0.0037    0.0035   -0.0116   -0.0034   -0.0030
          10   -0.0026   -0.0039    0.0054   -0.0020   -0.0038    0.0025   -0.0020   -0.0061
          11   -0.0096    0.0003    0.0186   -0.0028    0.0127   -0.0015   -0.0035   -0.0014
          12    0.0140    0.0012   -0.0121   -0.0008   -0.0010   -0.0028    0.0068    0.0005
          13   -0.0006   -0.0056   -0.0019   -0.0097   -0.0136    0.0047   -0.0188    0.0051
          14   -0.0028   -0.0189   -0.0023   -0.0148    0.0336    0.0076    0.0140   -0.0002
          15    0.0020    0.0233    0.0044    0.0232   -0.0051   -0.0134    0.0172    0.0019
          16    0.0030    0.0046    0.0021   -0.0290   -0.0204   -0.0053    0.0226   -0.0068
          17   -0.0103    0.0037   -0.0137   -0.0004    0.0137   -0.0184   -0.0143   -0.0056
          18    0.0048   -0.0019    0.0237    0.0184    0.0037    0.0227   -0.0073    0.0011
          19    0.0017    0.0084    0.0027    0.0022   -0.0022   -0.0006   -0.0061   -0.0039
          20    0.0190    0.0201   -0.0091    0.0117   -0.0063   -0.0059    0.0194    0.0019
          21   -0.0183   -0.0210    0.0042   -0.0070    0.0123    0.0026    0.0115    0.0015
          22    0.0029    0.0010   -0.0119    0.0008   -0.0007   -0.0023    0.0044   -0.0077
          23    0.0013    0.0040   -0.0225   -0.0034   -0.0110   -0.0006    0.0200    0.0107
          24    0.0111   -0.0126    0.0047    0.0013   -0.0061    0.0085    0.0219    0.0082
          25   -0.0021    0.0062    0.0170   -0.0098   -0.0065    0.0093    0.0187    0.0125
          26    0.0160   -0.0052    0.0229    0.0026   -0.0027    0.0105   -0.0011   -0.0021
          27   -0.0270    0.0137   -0.0171   -0.0130   -0.0010   -0.0083    0.0021   -0.0037
          28   -0.0066    0.0909    0.0188   -0.0419    0.0528   -0.0232   -0.0632    0.1286
          29   -0.0075    0.0557    0.0854   -0.0380    0.0344   -0.0440   -0.0785   -0.0819
          30   -0.0358    0.0814    0.0771   -0.0230    0.0352   -0.0304   -0.0877   -0.0123
          31    0.0147    0.0822   -0.0466    0.0015    0.0856    0.1079    0.0340   -0.0749
          32   -0.0368   -0.0342    0.0217    0.0404   -0.1068   -0.0496   -0.0448    0.0186
          33   -0.0510   -0.0010    0.0203    0.0531   -0.1193   -0.0360   -0.0611    0.0145
          34   -0.0513   -0.0779    0.0504    0.0642    0.0034   -0.0934    0.0898    0.0139
          35    0.0670   -0.0358   -0.0529   -0.0805   -0.0128    0.0596   -0.0962   -0.0014
          36    0.0450    0.0021   -0.0422   -0.0579   -0.0108    0.0567   -0.0746   -0.0064
          37    0.0878   -0.0631   -0.0656    0.0625    0.0780   -0.1587   -0.0713   -0.0166
          38    0.0141   -0.0031   -0.0570   -0.0283   -0.0417    0.0639    0.0270    0.0205
          39    0.0078   -0.0113   -0.0027    0.0182    0.0167   -0.0316   -0.0171   -0.0063
          40   -0.0675    0.0330   -0.0543    0.1124    0.0620    0.1587   -0.0604    0.0192
          41   -0.0129   -0.0294    0.0565    0.0130   -0.0287   -0.0703    0.0011    0.0171
          42   -0.0440    0.0079    0.0132    0.0577    0.0201    0.0374   -0.0343    0.0066
          43    0.0074    0.0333    0.0126   -0.0031    0.0059   -0.0139   -0.0199    0.0458
          44    0.0345    0.1280    0.0343    0.0383    0.0418   -0.0516    0.0178    0.0880
          45   -0.0301   -0.0532    0.0244   -0.0699    0.1377   -0.0076    0.0005    0.1029
          46    0.0321    0.0061    0.0593   -0.0273   -0.0029   -0.0008   -0.0143   -0.0870
          47    0.0459   -0.0117    0.0715    0.0384    0.0239    0.0275   -0.0417   -0.0417
          48   -0.0623    0.0353   -0.0487   -0.0633    0.0157   -0.0680   -0.0231   -0.0795
          49    0.0443   -0.0429    0.0036    0.0468    0.0662   -0.0273   -0.0453   -0.1042
          50    0.0013   -0.0284    0.0567   -0.0271   -0.0271    0.0357    0.0432    0.0615
          51   -0.0015    0.0225   -0.0529    0.0020   -0.0169   -0.0074    0.0245    0.0046
          52   -0.0425   -0.0032    0.0216    0.0411    0.0882   -0.0029    0.1239   -0.1114
          53   -0.0893   -0.0928    0.0208   -0.0297    0.0187    0.0099   -0.0080    0.0156
          54    0.0885    0.0898   -0.0252    0.0328   -0.0124   -0.0132    0.0381   -0.0088
          55   -0.0424    0.0165   -0.0260    0.0015    0.0080   -0.0021    0.0170    0.0259
          56   -0.1076    0.0533   -0.0252   -0.0944   -0.0465   -0.0203    0.0002   -0.0645
          57    0.1130   -0.0247    0.1222   -0.0367   -0.0398    0.0310    0.0111   -0.0366


   Root No.      25        26        27        28        29        30        31        32

                25 A      26 A      27 A      28 A      29 A      30 A      31 A      32 A   

                1090.5    1108.5    1130.9    1155.5    1191.3    1194.6    1249.6    1274.5
  
           1    0.0053    0.0182   -0.0103    0.0008   -0.0381   -0.0040    0.0531   -0.0047
           2    0.0014   -0.0071   -0.0288   -0.0018   -0.0160   -0.0323   -0.0074    0.0370
           3   -0.0053   -0.0063    0.0329    0.0196   -0.0194   -0.0103    0.0142    0.0161
           4    0.0035   -0.0215    0.0089   -0.0016   -0.0025    0.0193   -0.0318   -0.0296
           5   -0.0020   -0.0138    0.0116    0.0034   -0.0013   -0.0003    0.0034    0.0225
           6    0.0015    0.0003   -0.0073   -0.0023    0.0089   -0.0066   -0.0093    0.0253
           7   -0.0083    0.0015    0.0040    0.0015   -0.0092    0.0065    0.0289    0.0006
           8    0.0085    0.0133    0.0221    0.0116    0.0159   -0.0012   -0.0095   -0.0157
           9   -0.0048   -0.0052   -0.0176   -0.0026    0.0007    0.0060    0.0090   -0.0089
          10   -0.0040   -0.0046    0.0015   -0.0025    0.0170   -0.0111    0.0111   -0.0171
          11   -0.0045    0.0051    0.0083   -0.0029   -0.0164   -0.0016   -0.0145    0.0009
          12    0.0123    0.0001    0.0018   -0.0021   -0.0232   -0.0184   -0.0096    0.0018
          13   -0.0006   -0.0029   -0.0002    0.0022   -0.0050   -0.0001   -0.0056    0.0193
          14   -0.0022    0.0006    0.0016   -0.0016    0.0217    0.0019    0.0178   -0.0125
          15    0.0040   -0.0024   -0.0046   -0.0024    0.0169    0.0019    0.0173   -0.0103
          16    0.0001   -0.0006    0.0009    0.0009    0.0089    0.0162   -0.0182    0.0221
          17    0.0045    0.0024   -0.0017    0.0048   -0.0083    0.0049    0.0144    0.0031
          18    0.0083    0.0057   -0.0024    0.0020    0.0000    0.0053    0.0013    0.0074
          19    0.0035   -0.0046    0.0022    0.0004    0.0098   -0.0072    0.0117    0.0194
          20   -0.0032    0.0064   -0.0080    0.0002    0.0054    0.0006    0.0063   -0.0140
          21   -0.0087    0.0069   -0.0034    0.0001    0.0107    0.0025    0.0090   -0.0099
          22    0.0044    0.0007   -0.0028   -0.0001    0.0101   -0.0146    0.0059   -0.0246
          23   -0.0116   -0.0008   -0.0013   -0.0085    0.0043    0.0127   -0.0127    0.0058
          24   -0.0164    0.0006   -0.0020   -0.0069    0.0128    0.0093   -0.0116   -0.0080
          25   -0.0117   -0.0010    0.0004   -0.0058   -0.0068    0.0036   -0.0148    0.0004
          26    0.0053    0.0029    0.0006   -0.0019    0.0018    0.0082    0.0050    0.0121
          27    0.0060    0.0028   -0.0010   -0.0021   -0.0038    0.0092    0.0007    0.0124
          28   -0.0037    0.1753    0.0180    0.0162    0.1650   -0.0430   -0.1038    0.0212
          29   -0.1106   -0.0800   -0.1158   -0.1002    0.0110    0.0958    0.0258   -0.0547
          30   -0.0834    0.0117   -0.0100   -0.0380    0.0818    0.0562   -0.0294   -0.0317
          31   -0.0104   -0.0995    0.1346    0.0348    0.0689    0.0197    0.0090    0.0607
          32    0.0038    0.0266   -0.0480   -0.0142   -0.0534    0.0076   -0.0360   -0.0327
          33   -0.0005    0.0227   -0.0175   -0.0050   -0.0526    0.0185   -0.0694   -0.0277
          34    0.0609   -0.0543   -0.0924   -0.0304    0.0893   -0.0357   -0.0383    0.0928
          35   -0.0252    0.0260    0.0153    0.0005   -0.0508    0.0256   -0.0786   -0.0324
          36   -0.0273    0.0231    0.0373    0.0096   -0.0405    0.0230   -0.0278   -0.0375
          37   -0.0803   -0.0514    0.0733   -0.0516    0.0189   -0.0989   -0.0651   -0.0145
          38    0.0433    0.0318   -0.0747    0.0325    0.0139    0.0663    0.0570   -0.0784
          39   -0.0179   -0.0123    0.0211   -0.0081    0.0016   -0.0194   -0.0155    0.0147
          40    0.0147   -0.0085   -0.1197   -0.0880    0.0026   -0.0798   -0.0529   -0.0189
          41   -0.0076    0.0253    0.1303    0.0734    0.0160    0.0398    0.0394   -0.0328
          42   -0.0035   -0.0013    0.0019   -0.0088    0.0089   -0.0186   -0.0041   -0.0386
          43    0.0395   -0.0457    0.0064    0.0034   -0.0464    0.0199   -0.0487    0.0056
          44    0.0880   -0.0924    0.0120   -0.0001   -0.0698    0.0456   -0.0724   -0.0481
          45    0.0893   -0.0972    0.0192    0.0024   -0.0750    0.0463   -0.0820   -0.0429
          46    0.0505   -0.0057   -0.0663    0.1964    0.0386   -0.0502   -0.0553   -0.0656
          47    0.0405    0.0059   -0.0369    0.1137    0.0114   -0.0370   -0.0076   -0.0485
          48    0.0343   -0.0092   -0.0566    0.1492    0.0149   -0.0338   -0.0174   -0.0558
          49    0.1367    0.1057   -0.0008   -0.0699    0.0278    0.1459   -0.0135    0.0694
          50   -0.0856   -0.0501   -0.0048    0.0272   -0.0062   -0.0673   -0.0036   -0.0390
          51   -0.0092    0.0008   -0.0001   -0.0107    0.0151    0.0124   -0.0136   -0.0093
          52   -0.0806    0.1647    0.0126   -0.0054   -0.1634   -0.0165   -0.0939   -0.0136
          53   -0.0034   -0.0144   -0.0042    0.0004    0.0315    0.0068    0.0209   -0.0111
          54   -0.0069    0.0242   -0.0078   -0.0001   -0.0099   -0.0037   -0.0011   -0.0149
          55   -0.0343   -0.0029   -0.0222    0.0452   -0.0121    0.0358   -0.0204    0.0310
          56    0.1033    0.0149    0.0747   -0.1735    0.0116   -0.0991    0.0213   -0.0880
          57    0.0610    0.0081    0.0549   -0.1295    0.0109   -0.0685    0.0093   -0.0633


   Root No.      33        34        35        36        37        38        39        40

                33 A      34 A      35 A      36 A      37 A      38 A      39 A      40 A   

                1360.0    1368.8    1394.3    1401.9    1429.7    1440.6    1789.7    1830.7
  
           1   -0.0173   -0.0373   -0.0259    0.0040    0.0077   -0.0326    0.0044   -0.0010
           2    0.0242    0.0012    0.0132    0.0209   -0.0374    0.0575   -0.0075   -0.0006
           3    0.0133   -0.0256   -0.0098    0.0163   -0.0315    0.0317   -0.0053    0.0010
           4    0.0405   -0.0050    0.0227   -0.0152   -0.0078    0.0190    0.0085   -0.0001
           5   -0.0305    0.0012    0.0028   -0.0409   -0.0023   -0.0037    0.0099    0.0007
           6   -0.0261    0.0049    0.0070   -0.0382   -0.0042   -0.0003    0.0120   -0.0000
           7    0.0035    0.0571    0.0019   -0.0091    0.0174    0.0636    0.0027    0.0239
           8    0.0074   -0.0158   -0.0444   -0.0203    0.0164   -0.0318    0.0032    0.0085
           9   -0.0011    0.0147   -0.0091   -0.0080    0.0117    0.0102    0.0021    0.0136
          10    0.0036    0.0124   -0.0058   -0.0006   -0.0453   -0.0094   -0.0130   -0.0383
          11    0.0016    0.0141    0.0207   -0.0055    0.0573   -0.0344    0.0011    0.0086
          12    0.0062    0.0238    0.0262   -0.0060    0.0538   -0.0460   -0.0021   -0.0124
          13   -0.0181   -0.0019   -0.0033   -0.0087    0.0028    0.0058   -0.1609    0.0215
          14    0.0281   -0.0092    0.0060    0.0192    0.0232   -0.0028   -0.0850    0.0102
          15    0.0254   -0.0098    0.0056    0.0170    0.0250   -0.0025   -0.1203    0.0151
          16    0.0147   -0.0130    0.0063    0.0048   -0.0320   -0.0517   -0.0130   -0.0917
          17    0.0032    0.0145    0.0050    0.0000   -0.0065   -0.0032   -0.0188   -0.1394
          18    0.0074    0.0056    0.0043    0.0003   -0.0147   -0.0193   -0.0176   -0.1309
          19    0.0227   -0.0062    0.0179    0.0143    0.0529   -0.0073    0.1841   -0.0172
          20   -0.0119    0.0020   -0.0160   -0.0015   -0.0424    0.0061    0.0560   -0.0101
          21   -0.0078   -0.0011   -0.0130    0.0018   -0.0294    0.0051    0.0984   -0.0144
          22    0.0008    0.0292   -0.0011   -0.0050   -0.0414   -0.0246   -0.0079    0.0476
          23   -0.0102   -0.0244   -0.0078    0.0020    0.0268    0.0384    0.0040   -0.0321
          24   -0.0106   -0.0106   -0.0097   -0.0007    0.0048    0.0279    0.0005   -0.0054
          25   -0.0148   -0.0241   -0.0045    0.0011    0.0442    0.0403    0.0085    0.0278
          26    0.0128    0.0066    0.0074    0.0038   -0.0345   -0.0363    0.0175    0.1658
          27    0.0063   -0.0014    0.0058    0.0037   -0.0129   -0.0171    0.0154    0.1356
          28    0.0133    0.0529    0.0337   -0.0201   -0.0193    0.0405    0.0007   -0.0003
          29   -0.0342    0.0048   -0.0225   -0.0272    0.0391   -0.0551    0.0056    0.0019
          30   -0.0124    0.0153   -0.0073   -0.0251    0.0090   -0.0118    0.0001    0.0013
          31   -0.1155    0.0619   -0.0727    0.0957    0.0413   -0.0541   -0.0180    0.0012
          32    0.0361   -0.0023    0.0076    0.0103   -0.0131    0.0181    0.0169   -0.0007
          33   -0.0148    0.0661   -0.0803    0.2097    0.0174   -0.0199    0.0152   -0.0033
          34   -0.1067    0.0849   -0.0517    0.0932    0.0370   -0.0374   -0.0186    0.0032
          35   -0.0101    0.0674   -0.0780    0.2111    0.0141   -0.0173    0.0299   -0.0048
          36    0.0356   -0.0129    0.0126   -0.0108   -0.0164    0.0173    0.0232   -0.0019
          37   -0.0521   -0.1332    0.0642    0.0546   -0.0498   -0.0438    0.0056    0.0443
          38   -0.1260    0.0020    0.1766    0.0609   -0.0161    0.0112    0.0009   -0.0005
          39    0.0480    0.0076   -0.0898   -0.0371    0.0216   -0.0039    0.0023    0.0136
          40   -0.0162   -0.0939    0.0008    0.0100   -0.0139   -0.0571    0.0028    0.0060
          41   -0.0806    0.0058    0.1340    0.0544   -0.0293    0.0394   -0.0013   -0.0028
          42   -0.0975   -0.0749    0.1551    0.0761   -0.0534   -0.0104   -0.0008   -0.0015
          43   -0.0387    0.0078   -0.0101   -0.0284   -0.0327    0.0140   -0.1263    0.0182
          44   -0.0143    0.0123   -0.0102   -0.0214   -0.0573    0.0115    0.0833   -0.0119
          45   -0.0245    0.0153   -0.0124   -0.0268   -0.0645    0.0134    0.0563   -0.0074
          46   -0.0306   -0.0534   -0.0356   -0.0121    0.0630    0.0282    0.0174    0.1096
          47   -0.0217   -0.0077   -0.0206   -0.0110    0.0466    0.0413   -0.0054   -0.0571
          48   -0.0269   -0.0190   -0.0236   -0.0109    0.0543    0.0382    0.0003   -0.0184
          49   -0.0112   -0.0792   -0.0243    0.0161    0.0017    0.0856    0.0107    0.0299
          50   -0.0048    0.0282    0.0036   -0.0079    0.0060   -0.0118   -0.0070   -0.0203
          51   -0.0121   -0.0120   -0.0107   -0.0012    0.0073    0.0301    0.0032    0.0009
          52   -0.0662    0.0466   -0.0059   -0.0432   -0.0373   -0.0222   -0.0500    0.0027
          53   -0.0014   -0.0064   -0.0148    0.0064   -0.0316    0.0086    0.1140   -0.0162
          54   -0.0164    0.0067   -0.0155   -0.0036   -0.0422    0.0014    0.0998   -0.0173
          55   -0.0009   -0.0285    0.0036    0.0052    0.0280    0.0088    0.0187    0.1132
          56   -0.0370    0.0137   -0.0199   -0.0097    0.0357    0.0763   -0.0033   -0.0265
          57   -0.0317    0.0018   -0.0149   -0.0053    0.0361    0.0691    0.0019    0.0077


   Root No.      41        42        43        44        45        46        47        48

                41 A      42 A      43 A      44 A      45 A      46 A      47 A      48 A   

                1903.0    2876.2    2944.1    2976.0    3027.9    3054.4    3056.6    3072.9
  
           1   -0.0141    0.0208   -0.0015   -0.0011    0.0003   -0.0007   -0.0003    0.0001
           2   -0.0084    0.0323   -0.0024   -0.0015   -0.0004    0.0001    0.0001   -0.0001
           3   -0.0183   -0.0496    0.0037    0.0022   -0.0003   -0.0004   -0.0001   -0.0001
           4   -0.0042    0.0008   -0.0004   -0.0038   -0.0006   -0.0254    0.0000   -0.0000
           5   -0.0034   -0.0028   -0.0015   -0.0417    0.0002   -0.0172    0.0000   -0.0001
           6   -0.0052    0.0030    0.0008    0.0388   -0.0015   -0.0279   -0.0000   -0.0000
           7    0.0092   -0.0021   -0.0184    0.0001   -0.0140    0.0006   -0.0005    0.0007
           8    0.0028   -0.0007   -0.0144   -0.0001   -0.0320    0.0011   -0.0019    0.0017
           9    0.0063    0.0057    0.0507   -0.0021   -0.0201   -0.0001   -0.0019    0.0015
          10    0.2362   -0.0006   -0.0000   -0.0001   -0.0002    0.0004    0.0000   -0.0016
          11   -0.0301   -0.0005   -0.0002    0.0000    0.0003    0.0001   -0.0001    0.0000
          12    0.0940   -0.0010   -0.0001   -0.0000    0.0001    0.0003   -0.0001   -0.0008
          13   -0.0137   -0.0002    0.0000   -0.0003    0.0000    0.0014    0.0000   -0.0000
          14   -0.0010    0.0001   -0.0000   -0.0002   -0.0000   -0.0009    0.0000    0.0000
          15   -0.0038   -0.0000   -0.0000   -0.0001   -0.0000   -0.0007    0.0000    0.0000
          16   -0.0249   -0.0000    0.0001   -0.0000   -0.0037    0.0001    0.0219   -0.0149
          17   -0.0297   -0.0000   -0.0010    0.0001    0.0036   -0.0002   -0.0248    0.0205
          18   -0.0308   -0.0002   -0.0006    0.0000    0.0015   -0.0001   -0.0114    0.0105
          19   -0.0349    0.0000    0.0000    0.0001    0.0001    0.0003   -0.0000    0.0001
          20    0.0207    0.0002   -0.0000   -0.0002   -0.0000   -0.0003   -0.0000    0.0001
          21    0.0104    0.0000    0.0000    0.0002   -0.0000   -0.0002    0.0000    0.0001
          22   -0.1891    0.0006    0.0001    0.0000    0.0001   -0.0001    0.0018    0.0079
          23    0.0335   -0.0001   -0.0001   -0.0000   -0.0001   -0.0000    0.0030    0.0126
          24   -0.0734   -0.0000   -0.0000    0.0000   -0.0000   -0.0001    0.0047    0.0203
          25    0.0251   -0.0001   -0.0002   -0.0000    0.0001   -0.0000   -0.0309   -0.0235
          26    0.0245    0.0001    0.0002    0.0000    0.0001    0.0000   -0.0011   -0.0037
          27    0.0278    0.0002    0.0003    0.0000    0.0001    0.0000   -0.0100   -0.0097
          28    0.0147   -0.2526    0.0155    0.0150   -0.0018   -0.0032   -0.0002   -0.0002
          29   -0.0051   -0.3944    0.0311    0.0160   -0.0035   -0.0032   -0.0004   -0.0001
          30    0.0022    0.6045   -0.0413   -0.0250    0.0033    0.0041    0.0004    0.0002
          31    0.0017    0.0087    0.0089    0.1931    0.0010    0.1282   -0.0002    0.0002
          32   -0.0031    0.0284    0.0159    0.4439    0.0005    0.3287   -0.0006    0.0007
          33    0.0048   -0.0088   -0.0052   -0.1383   -0.0010   -0.1296    0.0002   -0.0003
          34   -0.0041   -0.0071   -0.0021   -0.1440    0.0077    0.1805   -0.0001    0.0002
          35    0.0043    0.0056    0.0002    0.0597   -0.0045   -0.1226    0.0001   -0.0001
          36   -0.0065   -0.0286   -0.0033   -0.3279    0.0186    0.4628   -0.0002    0.0004
          37   -0.0002   -0.0035   -0.0175    0.0006    0.0012    0.0000    0.0030   -0.0021
          38    0.0102   -0.0133   -0.1457    0.0083    0.1769   -0.0033    0.0130   -0.0099
          39    0.0029   -0.0388   -0.3117    0.0200    0.4727   -0.0098    0.0354   -0.0267
          40    0.0001    0.0273    0.2422   -0.0066    0.1664   -0.0085    0.0084   -0.0066
          41   -0.0003    0.0304    0.3237   -0.0061    0.2115   -0.0097    0.0092   -0.0075
          42   -0.0044   -0.0311   -0.2960    0.0054   -0.2334    0.0101   -0.0115    0.0093
          43   -0.0168   -0.0011    0.0001    0.0024   -0.0005   -0.0174   -0.0004    0.0007
          44    0.0102    0.0006   -0.0001   -0.0014    0.0002    0.0043    0.0001   -0.0002
          45    0.0096    0.0003    0.0000    0.0009    0.0000    0.0008    0.0000   -0.0001
          46    0.0311   -0.0005   -0.0063    0.0005    0.0358   -0.0014   -0.2640    0.1908
          47   -0.0074    0.0008    0.0079   -0.0007   -0.0436    0.0017    0.2908   -0.2142
          48    0.0029    0.0005    0.0058   -0.0003   -0.0202    0.0008    0.1322   -0.0984
          49    0.0229    0.0008   -0.0002    0.0001    0.0000    0.0002   -0.0187   -0.0744
          50   -0.0867    0.0015   -0.0005    0.0001    0.0001    0.0005   -0.0348   -0.1537
          51   -0.1066    0.0006   -0.0006    0.0001    0.0000    0.0008   -0.0537   -0.2331
          52    0.0263   -0.0002   -0.0000   -0.0001    0.0000    0.0005    0.0001    0.0002
          53    0.0127    0.0011   -0.0001   -0.0002    0.0003    0.0080    0.0000   -0.0009
          54    0.0281    0.0009   -0.0001    0.0008    0.0003    0.0083    0.0000   -0.0008
          55    0.0481   -0.0004    0.0002    0.0001    0.0017    0.0002    0.3658    0.2640
          56   -0.0408   -0.0000   -0.0005    0.0000    0.0005   -0.0000    0.0168    0.0158
          57   -0.0169   -0.0000    0.0006    0.0000    0.0010    0.0001    0.1201    0.0896


   Root No.      49        50        51

                49 A      50 A      51 A   

                3082.7    3119.1    3137.0
  
           1    0.0004    0.0001    0.0006
           2   -0.0000    0.0000   -0.0005
           3    0.0003    0.0000   -0.0007
           4   -0.0000   -0.0002   -0.0012
           5    0.0000    0.0002   -0.0010
           6    0.0000   -0.0002   -0.0015
           7    0.0004    0.0000   -0.0000
           8    0.0011    0.0000    0.0000
           9    0.0010    0.0000   -0.0000
          10    0.0033    0.0000    0.0018
          11   -0.0007    0.0001   -0.0004
          12    0.0012    0.0001    0.0003
          13   -0.0001   -0.0369   -0.0402
          14    0.0000    0.0119    0.0094
          15   -0.0000    0.0043    0.0010
          16   -0.0084    0.0000    0.0000
          17    0.0128   -0.0000   -0.0001
          18    0.0068   -0.0000   -0.0000
          19   -0.0002   -0.0002    0.0051
          20   -0.0000   -0.0266    0.0290
          21   -0.0001   -0.0273    0.0307
          22   -0.0117    0.0000   -0.0004
          23   -0.0205    0.0000    0.0000
          24   -0.0319    0.0001   -0.0002
          25   -0.0228    0.0001   -0.0000
          26   -0.0026   -0.0000    0.0000
          27   -0.0087    0.0000   -0.0000
          28    0.0004    0.0000   -0.0004
          29    0.0004   -0.0000   -0.0007
          30   -0.0004    0.0001    0.0010
          31   -0.0001   -0.0003    0.0030
          32   -0.0003    0.0019    0.0097
          33    0.0001   -0.0002   -0.0035
          34   -0.0003    0.0010    0.0051
          35    0.0001   -0.0002   -0.0029
          36   -0.0005    0.0060    0.0160
          37   -0.0013    0.0000   -0.0000
          38   -0.0059   -0.0000    0.0002
          39   -0.0158   -0.0001    0.0002
          40   -0.0037   -0.0000   -0.0001
          41   -0.0041   -0.0000   -0.0000
          42    0.0052    0.0000    0.0000
          43    0.0004    0.4351    0.4097
          44   -0.0001   -0.1435   -0.1332
          45   -0.0000   -0.0529   -0.0480
          46    0.1089   -0.0004   -0.0006
          47   -0.1226    0.0005    0.0006
          48   -0.0566    0.0002    0.0003
          49    0.1110   -0.0002    0.0000
          50    0.2383   -0.0012    0.0010
          51    0.3589   -0.0017    0.0013
          52   -0.0003    0.0060   -0.0084
          53    0.0015    0.3139   -0.3104
          54    0.0014    0.3214   -0.3185
          55    0.2527   -0.0005   -0.0001
          56    0.0116   -0.0000   -0.0000
          57    0.0826   -0.0002   -0.0001


           MASS-WEIGHTED COORDINATE ANALYSIS (NORMAL COORDINATES)


   Root No.       1         2         3         4         5         6         7         8

                 1 A       2 A       3 A       4 A       5 A       6 A       7 A       8 A   

                 130.6     173.3     282.8     373.1     417.7     441.5     503.4     547.1
  
           1    0.0577    0.0449   -0.0595    0.2159    0.0307   -0.0517   -0.0869   -0.2146
           2   -0.0242    0.1354   -0.1266    0.2973   -0.1764   -0.0305    0.1515    0.1078
           3    0.0354   -0.1596    0.2105    0.1163    0.3518    0.0969    0.0575   -0.0015
           4    0.0688    0.0378   -0.0469    0.2895    0.0655   -0.0298   -0.1696   -0.2639
           5    0.2632    0.0831    0.0226   -0.2470    0.0785   -0.0400    0.0840   -0.1248
           6   -0.3433   -0.1124    0.0107    0.0557   -0.0932   -0.0406    0.0092   -0.1379
           7   -0.1622   -0.0295    0.0902   -0.1923    0.0317   -0.0436    0.2518   -0.1734
           8   -0.1335    0.0904   -0.0496    0.1509   -0.1692    0.0388    0.2466    0.2885
           9    0.3997   -0.1115   -0.2158    0.0380   -0.1020    0.0381    0.1711    0.0433
          10   -0.0194    0.0848   -0.1044    0.0465   -0.0527    0.0285   -0.1248    0.1466
          11   -0.0625    0.1801   -0.2125    0.2312    0.0228    0.0028    0.0760   -0.3069
          12    0.0879   -0.2075    0.2669    0.2320    0.2436    0.0629    0.0410    0.1696
          13   -0.0098   -0.0241   -0.0153   -0.0086   -0.0700   -0.0133   -0.2844    0.0262
          14   -0.0427   -0.3092    0.2642   -0.1638   -0.1975   -0.0009    0.0496   -0.1613
          15   -0.0491    0.2774   -0.2283   -0.1956    0.1537   -0.0956    0.0157   -0.0617
          16   -0.0213   -0.1653   -0.0353   -0.2036    0.0175    0.0546    0.3653   -0.1766
          17    0.0075   -0.2049   -0.1302   -0.1546   -0.0354    0.1869   -0.2650    0.1937
          18   -0.0182    0.3296    0.1781   -0.0675   -0.1262   -0.3036    0.0177    0.1412
          19   -0.0805    0.0141   -0.1014   -0.1919   -0.0494   -0.0485   -0.2494    0.1588
          20   -0.2390   -0.1192   -0.1601    0.0470    0.3507   -0.1051    0.1043   -0.1056
          21    0.1910    0.0883    0.1934   -0.0081   -0.2262    0.0491   -0.0479   -0.2679
          22    0.0668    0.1106    0.1571    0.1275    0.0417    0.2003    0.0286    0.2435
          23    0.0474    0.2585    0.2225    0.0154    0.0573    0.2559   -0.2499   -0.0570
          24   -0.0579   -0.2417   -0.1797    0.0518    0.0608   -0.1856   -0.2624    0.1334
          25    0.0945   -0.0459    0.0592   -0.0634   -0.0909   -0.0895    0.2932    0.3085
          26    0.1590   -0.0664    0.1104   -0.0882   -0.0333   -0.3110   -0.2041    0.0553
          27   -0.2419    0.1127   -0.1378   -0.2119   -0.0718    0.3466   -0.0500    0.0694
          28    0.1153    0.0088   -0.0041    0.0754    0.0768   -0.0064   -0.0593   -0.0990
          29   -0.0575    0.0263    0.0325    0.1174   -0.0197    0.0085    0.0596    0.1108
          30    0.0188   -0.0553    0.1077    0.0616    0.1446    0.0409    0.0134    0.0366
          31   -0.0569    0.0197   -0.0564    0.1940   -0.0861   -0.0227   -0.0423   -0.0841
          32    0.0634   -0.0170    0.0441   -0.0893   -0.0065   -0.0036    0.0131   -0.0545
          33   -0.2457   -0.1512    0.0646    0.1238   -0.2774   -0.0043   -0.0303   -0.1114
          34    0.1071    0.0046    0.0305    0.0532    0.1539    0.0165   -0.0321   -0.0710
          35    0.2158    0.1418   -0.0567   -0.2339    0.2571   -0.0290    0.0464    0.0236
          36   -0.1068   -0.0054   -0.0284   -0.0041   -0.0381   -0.0262   -0.0004   -0.0319
          37   -0.1449    0.0778    0.1490   -0.1300    0.0290   -0.1486    0.0224   -0.0108
          38   -0.1631    0.0711    0.1465    0.0487    0.0815   -0.0681    0.0449    0.0808
          39    0.1739   -0.0556   -0.1385    0.0117   -0.0887    0.0523    0.0649    0.0122
          40   -0.0200   -0.0900   -0.0134   -0.0970    0.0317    0.0860    0.0867   -0.0780
          41    0.0659    0.0096   -0.1409    0.0891   -0.1545    0.0546    0.1070    0.0900
          42    0.2511   -0.1171   -0.2360    0.0302   -0.1304    0.1441    0.1009   -0.0015
          43   -0.0061   -0.0287    0.0197   -0.0233   -0.0475    0.0009   -0.0889    0.0349
          44   -0.0224   -0.1942    0.1925   -0.0834   -0.1612    0.0244   -0.0016    0.0291
          45   -0.0133    0.1864   -0.1827   -0.1335    0.1066   -0.0536    0.0038    0.0076
          46   -0.0125   -0.0950   -0.0314   -0.1038    0.0388    0.0332    0.0289   -0.1230
          47    0.0132   -0.1643   -0.1142   -0.0871    0.0316    0.1190   -0.1679    0.0001
          48   -0.0394    0.2307    0.1737   -0.0131   -0.0636   -0.1949    0.0559    0.0222
          49    0.0346    0.0422    0.1194    0.1163    0.1049    0.1485    0.0366    0.0672
          50    0.0041    0.1207    0.1603   -0.0548    0.0778    0.2636   -0.1011    0.0269
          51   -0.0156   -0.1031   -0.1386    0.0287   -0.0523   -0.2067   -0.0640    0.0111
          52   -0.0513   -0.0043   -0.0424   -0.1545   -0.0225   -0.0471   -0.0912    0.0620
          53   -0.1375   -0.0744   -0.0861    0.0360    0.2522   -0.0657    0.0632    0.1003
          54    0.1227    0.0647    0.0952   -0.0222   -0.2121    0.0496   -0.0454   -0.2056
          55    0.0535   -0.0292    0.0231    0.0024   -0.0170   -0.0843    0.0571    0.1117
          56    0.1036   -0.0845    0.0266   -0.0468   -0.0045   -0.2928   -0.0393   -0.0258
          57   -0.1585    0.0909   -0.0551   -0.1196   -0.0464    0.3091    0.0668   -0.0430


   Root No.       9        10        11        12        13        14        15        16

                 9 A      10 A      11 A      12 A      13 A      14 A      15 A      16 A   

                 650.7     741.4     761.8     779.3     797.7     871.2     888.7     921.0
  
           1   -0.1501   -0.1340   -0.1618   -0.1033   -0.0143    0.0842    0.0224   -0.0148
           2   -0.1206   -0.0653    0.0420   -0.0465   -0.0855    0.0304   -0.0747    0.0184
           3    0.2678    0.1104    0.0275    0.0907    0.0441    0.2837   -0.0189   -0.0315
           4   -0.1905   -0.0730   -0.0323   -0.0733    0.2655    0.1596    0.1400   -0.0363
           5   -0.0384   -0.2339   -0.2158    0.0105    0.0018   -0.0197   -0.1471    0.1216
           6   -0.0433   -0.0517   -0.1632   -0.1833    0.0131    0.1822    0.2882   -0.1351
           7   -0.0454    0.0696    0.0144    0.0371   -0.2062   -0.0230    0.0004   -0.0315
           8   -0.0622    0.1096    0.1844    0.0566   -0.0492    0.2751    0.0400   -0.0345
           9    0.0651   -0.0287    0.1642   -0.0153    0.0932    0.2553   -0.2405    0.1920
          10    0.3007   -0.0156   -0.1568   -0.0539   -0.1798    0.0114    0.0179    0.0715
          11    0.4987    0.1464    0.0551   -0.0827   -0.0559   -0.1562    0.0380    0.1640
          12   -0.2019   -0.0080   -0.0132    0.1100   -0.0611   -0.2189   -0.0707   -0.0931
          13   -0.0569    0.2976    0.3994    0.1780    0.0697   -0.1366   -0.0613   -0.0148
          14    0.0210   -0.1126   -0.0962    0.0818    0.0007    0.0648    0.0576   -0.1085
          15   -0.1629   -0.0192   -0.0519   -0.1522    0.0085    0.0087   -0.0279    0.0844
          16   -0.0263    0.0487    0.0475    0.0451   -0.1823    0.0335   -0.1091    0.0497
          17    0.0393    0.0246   -0.1461    0.0227    0.3353   -0.0477    0.1291    0.1256
          18    0.0035   -0.1413    0.1040   -0.0769    0.0355   -0.0852    0.0250   -0.1699
          19   -0.0574    0.0992    0.1233    0.1215   -0.0764    0.1673   -0.0573   -0.0059
          20   -0.1066    0.0388    0.1877    0.2027    0.1715   -0.2552    0.1464   -0.0764
          21   -0.0385    0.2045    0.2265   -0.1146    0.1361   -0.2791   -0.1040    0.0544
          22    0.1604   -0.0714   -0.1754   -0.0469   -0.0713   -0.1591   -0.0616   -0.1253
          23   -0.0229    0.0477   -0.1095   -0.0442   -0.2246   -0.0095   -0.2184   -0.2893
          24    0.1187   -0.0140   -0.1448    0.0756   -0.3563   -0.0771    0.0988    0.2724
          25    0.1307   -0.1287   -0.0968   -0.0403    0.3953   -0.1946    0.1456    0.0050
          26   -0.0668    0.1157   -0.1150    0.0773    0.0488    0.0329   -0.0271    0.0400
          27    0.0387   -0.1656    0.0918   -0.0958    0.0647   -0.0800    0.0976   -0.0721
          28   -0.0999   -0.1035   -0.0733   -0.0030    0.0990    0.0628   -0.1213    0.0812
          29   -0.1239   -0.0109    0.0612    0.0436   -0.0812    0.0626    0.0014   -0.1456
          30   -0.0078    0.0085    0.0271    0.0744    0.0148    0.1251   -0.0463   -0.0720
          31   -0.1518   -0.1356   -0.0529   -0.0267    0.0897   -0.0036   -0.1196    0.1215
          32    0.0229   -0.0791   -0.0619    0.0674    0.0006   -0.0153   -0.0596    0.0207
          33   -0.0377   -0.2208   -0.1020    0.1619    0.0288   -0.0597   -0.2145    0.1089
          34    0.0411    0.0603   -0.0102   -0.0493    0.0982    0.2482    0.2132   -0.1458
          35   -0.0043    0.1324   -0.0130   -0.2080   -0.0354    0.0511    0.2595   -0.1073
          36   -0.0544   -0.0137   -0.0401   -0.0829   -0.0119   -0.0190    0.0681   -0.0087
          37    0.0815   -0.1033    0.0905   -0.0603    0.0588   -0.0497   -0.1052    0.0867
          38    0.1680   -0.0256    0.1689   -0.0139    0.1227    0.3204   -0.1801    0.1529
          39   -0.0704    0.0234   -0.0067    0.0133   -0.0423   -0.0287    0.0194   -0.0227
          40   -0.0071    0.1260   -0.0708    0.0817   -0.0579   -0.0107    0.0345    0.0477
          41   -0.1837    0.0578    0.0022    0.0269   -0.1596   -0.0328    0.1492   -0.1853
          42   -0.1645    0.1129   -0.0754    0.0686   -0.1336   -0.0569    0.1176   -0.0953
          43   -0.0190    0.1342    0.1180   -0.0393   -0.0232   -0.0157   -0.0355    0.0363
          44   -0.0203    0.1873   -0.0138   -0.4353   -0.1197    0.0665    0.0103    0.1409
          45    0.0174   -0.2144   -0.0492    0.4479   -0.0438    0.0485   -0.1356   -0.1060
          46    0.0055   -0.0882    0.0853   -0.0551   -0.1408   -0.0483   -0.0963   -0.0933
          47    0.0773   -0.2535    0.1743   -0.1628    0.0218   -0.0635   -0.0814   -0.1864
          48   -0.1210    0.3296   -0.2999    0.2153    0.0052   -0.0232    0.1424    0.2255
          49    0.0033   -0.0963    0.0168    0.0331   -0.1631   -0.1498    0.1008    0.2452
          50   -0.1978   -0.1943    0.1631    0.0442   -0.1389    0.0612    0.2381    0.3894
          51    0.1757    0.1573   -0.1928   -0.0303   -0.0116   -0.0357   -0.2083   -0.3223
          52   -0.1436    0.0126   -0.0051   -0.0529   -0.0104    0.2549   -0.1001   -0.0128
          53   -0.2106    0.1116    0.0046   -0.2644    0.0568   -0.1871   -0.2534    0.0835
          54    0.1679   -0.0375    0.1157    0.2842    0.0318    0.0204    0.2600   -0.0869
          55    0.0647   -0.1252    0.0343   -0.0489    0.0498   -0.0900    0.1016   -0.0137
          56   -0.0159   -0.1710    0.2514   -0.0578   -0.1601    0.0309    0.1103   -0.0283
          57   -0.0673    0.2467   -0.2085    0.0960    0.2389    0.0649   -0.1673    0.0298


   Root No.      17        18        19        20        21        22        23        24

                17 A      18 A      19 A      20 A      21 A      22 A      23 A      24 A   

                 950.0     979.3     997.1    1036.7    1043.2    1049.4    1073.2    1079.9
  
           1    0.0671    0.0294    0.0465   -0.1235    0.0701   -0.0982   -0.0666    0.2492
           2    0.0921    0.0695    0.0302   -0.1462    0.0863    0.0025    0.0165   -0.0808
           3   -0.2007    0.1164    0.1677    0.0523   -0.0113    0.0426   -0.1024   -0.0667
           4   -0.0638   -0.1343   -0.0856    0.1250   -0.1053    0.0594    0.0315   -0.1516
           5   -0.0884    0.0299   -0.0254    0.1382   -0.2779    0.0617   -0.1538   -0.1154
           6    0.1062   -0.1796   -0.0677   -0.1591   -0.0685    0.0339   -0.1762    0.0217
           7   -0.0055   -0.0600   -0.0696    0.2470    0.1239    0.0047   -0.1316    0.1009
           8   -0.0608   -0.1400   -0.1171    0.2120   -0.0673    0.0463   -0.0435    0.1381
           9    0.2008   -0.0851   -0.2444   -0.0350    0.0329   -0.1104   -0.0317   -0.0297
          10   -0.0257   -0.0382    0.0521   -0.0190   -0.0349    0.0241   -0.0190   -0.0591
          11   -0.0931    0.0026    0.1793   -0.0270    0.1182   -0.0143   -0.0328   -0.0138
          12    0.1362    0.0114   -0.1169   -0.0080   -0.0091   -0.0265    0.0629    0.0045
          13   -0.0057   -0.0550   -0.0181   -0.0929   -0.1262    0.0451   -0.1752    0.0493
          14   -0.0273   -0.1843   -0.0226   -0.1424    0.3113    0.0726    0.1299   -0.0015
          15    0.0190    0.2271    0.0422    0.2225   -0.0473   -0.1277    0.1606    0.0182
          16    0.0289    0.0447    0.0200   -0.2783   -0.1893   -0.0506    0.2104   -0.0662
          17   -0.0998    0.0361   -0.1323   -0.0040    0.1272   -0.1754   -0.1329   -0.0547
          18    0.0461   -0.0187    0.2288    0.1764    0.0348    0.2166   -0.0677    0.0105
          19    0.0161    0.0818    0.0263    0.0213   -0.0202   -0.0059   -0.0571   -0.0381
          20    0.1845    0.1962   -0.0880    0.1126   -0.0586   -0.0559    0.1805    0.0185
[...]
 FORCE CONSTANT      1.0311

 VIBRATION         34   34A           ATOM PAIR      ENERGY CONTRIBUTION    RADIAL
 FREQUENCY          1368.78         C  1 -- C  3         +13.6% ( 53.1%)     29.8%
 TRANSITION DIPOLE   0.1331         C  3 -- H 13         +12.5% ( 50.8%)      0.7%
 TRAVEL (Ang.)       0.2084         C  3 -- H 14         +11.6% ( 49.0%)      0.8%
 REDUCED MASS        1.1341         C  3 -- C  6         +10.0% ( 45.7%)     76.6%
 EFFECTIVE MASS      7.4887
 FORCE CONSTANT      1.2519

 VIBRATION         35   35A           ATOM PAIR      ENERGY CONTRIBUTION    RADIAL
 FREQUENCY          1394.30         C  3 -- H 13         +16.9% ( 50.4%)      5.3%
 TRANSITION DIPOLE   0.0408         C  3 -- H 14         +16.9% ( 50.4%)      4.4%
 TRAVEL (Ang.)       0.3127         C  1 -- C  3         +10.1% ( 38.9%)    100.0%
 REDUCED MASS        0.4947         C  4 -- C  7          +7.9% ( 34.5%)     70.2%
 EFFECTIVE MASS      5.0804
 FORCE CONSTANT      0.5666

 VIBRATION         36   36A           ATOM PAIR      ENERGY CONTRIBUTION    RADIAL
 FREQUENCY          1401.90         C  2 -- H 11         +22.5% ( 57.5%)      5.5%
 TRANSITION DIPOLE   0.0677         C  2 -- H 12         +22.3% ( 57.2%)      5.8%
 TRAVEL (Ang.)       0.2618         C  2 -- C  5         +14.8% ( 46.6%)     89.8%
 REDUCED MASS        0.7016         C  1 -- C  2         +12.3% ( 42.5%)      5.1%
 EFFECTIVE MASS      4.6095
 FORCE CONSTANT      0.8123

 VIBRATION         37   37A           ATOM PAIR      ENERGY CONTRIBUTION    RADIAL
 FREQUENCY          1429.67         C  4 -- C  7         +19.5% ( 70.3%)     89.8%
 TRANSITION DIPOLE   0.2361         C  1 -- C  4         +12.5% ( 56.1%)     59.7%
 TRAVEL (Ang.)       0.1595         C  4 -- C  5          +9.4% ( 48.6%)     54.6%
 REDUCED MASS        1.8535         C  8 -- C  9          +9.1% ( 47.9%)     93.0%
 EFFECTIVE MASS     10.8644
 FORCE CONSTANT      2.2321

 VIBRATION         38   38A           ATOM PAIR      ENERGY CONTRIBUTION    RADIAL
 FREQUENCY          1440.59         C  1 -- C  3         +12.4% ( 55.3%)     84.8%
 TRANSITION DIPOLE   0.1627         C  3 -- C  6         +10.9% ( 51.9%)     90.8%
 TRAVEL (Ang.)       0.1733         C  1 -- C  4         +10.8% ( 51.7%)     74.8%
 REDUCED MASS        1.5582         C  8 -- C  9          +9.9% ( 49.4%)     99.4%
 EFFECTIVE MASS     10.5414
 FORCE CONSTANT      1.9052

 VIBRATION         39   39A           ATOM PAIR      ENERGY CONTRIBUTION    RADIAL
 FREQUENCY          1789.66         C  5 -- C  7         +39.7% ( 99.7%)    100.0%
 TRANSITION DIPOLE   0.3610         C  2 -- C  5         +12.3% ( 55.4%)     23.4%
 TRAVEL (Ang.)       0.0849         C  4 -- C  7         +11.9% ( 54.6%)     20.8%
 REDUCED MASS        5.2313         C  4 -- C  5         +11.9% ( 54.5%)     50.8%
 EFFECTIVE MASS     11.9022         C  5 -- H 15         +11.4% ( 53.4%)     10.3%
 FORCE CONSTANT      9.8718         C  7 -- H 18         +11.1% ( 52.8%)     10.8%

 VIBRATION         40   40A           ATOM PAIR      ENERGY CONTRIBUTION    RADIAL
 FREQUENCY          1830.74         C  6 -- C  9         +41.4% ( 95.6%)     99.9%
 TRANSITION DIPOLE   0.2639         C  8 -- C  9         +14.6% ( 56.9%)     65.2%
 TRAVEL (Ang.)       0.0868         C  3 -- C  6         +13.1% ( 53.9%)     48.2%
 REDUCED MASS        4.8941         C  9 -- H 19         +12.5% ( 52.5%)      4.4%
 EFFECTIVE MASS     11.8899         C  6 -- H 16         +12.1% ( 51.7%)      5.4%
 FORCE CONSTANT      9.6644

 VIBRATION         41   41A           ATOM PAIR      ENERGY CONTRIBUTION    RADIAL
 FREQUENCY          1903.02         C  4 -- C  8         +35.4% ( 95.5%)     99.0%
 TRANSITION DIPOLE   0.3966         C  4 -- C  7         +15.5% ( 63.3%)     59.2%
 TRAVEL (Ang.)       0.0816         C  1 -- C  4         +14.7% ( 61.6%)     26.0%
 REDUCED MASS        5.3210         C  4 -- C  5         +14.5% ( 61.2%)     93.3%
 EFFECTIVE MASS     11.8931
 FORCE CONSTANT     11.3535

 VIBRATION         42   42A           ATOM PAIR      ENERGY CONTRIBUTION    RADIAL
 FREQUENCY          2876.22         C  1 -- H 10         +95.8% ( 99.5%)    100.0%
 TRANSITION DIPOLE   0.0943         C  1 -- C  3          +1.0% ( 10.3%)      8.2%
 TRAVEL (Ang.)       0.1605         C  1 -- C  2          +1.0% ( 10.2%)      9.1%
 REDUCED MASS        0.9101         C  1 -- C  4          +1.0% ( 10.1%)      8.2%
 EFFECTIVE MASS      1.4411
 FORCE CONSTANT      4.4358

 VIBRATION         43   43A           ATOM PAIR      ENERGY CONTRIBUTION    RADIAL
 FREQUENCY          2944.12         C  3 -- H 14         +64.5% ( 83.2%)     97.9%
 TRANSITION DIPOLE   0.0404         C  3 -- H 13         +32.5% ( 59.1%)     94.1%
 TRAVEL (Ang.)       0.2024         C  3 -- C  6          +1.1% ( 10.9%)      0.1%
 REDUCED MASS        0.5591         C  1 -- C  3          +1.1% ( 10.8%)      0.4%
 EFFECTIVE MASS      1.5287
 FORCE CONSTANT      2.8555

 VIBRATION         44   44A           ATOM PAIR      ENERGY CONTRIBUTION    RADIAL
 FREQUENCY          2976.04         C  2 -- H 11         +62.9% ( 82.1%)     98.0%
 TRANSITION DIPOLE   0.0583         C  2 -- H 12         +34.5% ( 60.9%)     94.5%
 TRAVEL (Ang.)       0.2024         C  2 -- C  5          +1.1% ( 10.9%)      0.2%
 REDUCED MASS        0.5532         C  1 -- C  2          +1.1% ( 10.8%)      0.3%
 EFFECTIVE MASS      1.5311
 FORCE CONSTANT      2.8866

 VIBRATION         45   45A           ATOM PAIR      ENERGY CONTRIBUTION    RADIAL
 FREQUENCY          3027.88         C  3 -- H 13         +66.0% ( 80.2%)     99.1%
 TRANSITION DIPOLE   0.0723         C  3 -- H 14         +31.5% ( 55.4%)     94.5%
 TRAVEL (Ang.)       0.2061         C  6 -- H 16          +1.0% ( 10.0%)    100.0%
 REDUCED MASS        0.5241         C  3 -- C  6          +0.7% (  8.1%)     19.2%
 EFFECTIVE MASS      1.2890
 FORCE CONSTANT      2.8312

 VIBRATION         46   46A           ATOM PAIR      ENERGY CONTRIBUTION    RADIAL
 FREQUENCY          3054.42         C  2 -- H 12         +64.7% ( 79.5%)     98.9%
 TRANSITION DIPOLE   0.1095         C  2 -- H 11         +33.7% ( 57.3%)     94.7%
 TRAVEL (Ang.)       0.2055         C  1 -- C  2          +0.7% (  8.3%)     36.7%
 REDUCED MASS        0.5230         C  2 -- C  5          +0.7% (  8.3%)     30.7%
 EFFECTIVE MASS      1.2892
 FORCE CONSTANT      2.8746

 VIBRATION         47   47A           ATOM PAIR      ENERGY CONTRIBUTION    RADIAL
 FREQUENCY          3056.65         C  6 -- H 16         +51.3% ( 72.7%)    100.0%
 TRANSITION DIPOLE   0.2646         C  9 -- H 19         +44.4% ( 67.7%)    100.0%
 TRAVEL (Ang.)       0.2214         C  8 -- H 17          +1.3% ( 11.8%)     99.9%
 REDUCED MASS        0.4502         C  6 -- C  9          +1.1% ( 10.7%)      0.1%
 EFFECTIVE MASS      1.4643
 FORCE CONSTANT      2.4781

 VIBRATION         48   48A           ATOM PAIR      ENERGY CONTRIBUTION    RADIAL
 FREQUENCY          3072.85         C  6 -- H 16         +34.8% ( 60.0%)     99.9%
 TRANSITION DIPOLE   0.2951         C  8 -- H 17         +31.7% ( 57.2%)    100.0%
 TRAVEL (Ang.)       0.2663         C  9 -- H 19         +29.7% ( 55.4%)     99.9%
 REDUCED MASS        0.3094         C  6 -- C  9          +1.3% ( 11.7%)     99.8%
 EFFECTIVE MASS      1.5543
 FORCE CONSTANT      1.7214

 VIBRATION         49   49A           ATOM PAIR      ENERGY CONTRIBUTION    RADIAL
 FREQUENCY          3082.65         C  8 -- H 17         +63.9% ( 81.1%)    100.0%
 TRANSITION DIPOLE   0.4528         C  9 -- H 19         +22.8% ( 48.5%)    100.0%
 TRAVEL (Ang.)       0.2164         C  6 -- H 16          +9.8% ( 31.7%)     99.8%
 REDUCED MASS        0.4669         C  8 -- C  9          +1.4% ( 12.0%)     77.4%
 EFFECTIVE MASS      1.5687
 FORCE CONSTANT      2.6142

 VIBRATION         50   50A           ATOM PAIR      ENERGY CONTRIBUTION    RADIAL
 FREQUENCY          3119.13         C  5 -- H 15         +49.6% ( 71.8%)    100.0%
 TRANSITION DIPOLE   0.3914         C  7 -- H 18         +47.1% ( 70.0%)    100.0%
 TRAVEL (Ang.)       0.2156         C  5 -- C  7          +1.2% ( 10.9%)      0.0%
 REDUCED MASS        0.4652         C  4 -- C  5          +0.7% (  8.8%)     92.1%
 EFFECTIVE MASS      1.4698
 FORCE CONSTANT      2.6663

 VIBRATION         51   51A           ATOM PAIR      ENERGY CONTRIBUTION    RADIAL
 FREQUENCY          3136.96         C  7 -- H 18         +48.6% ( 71.3%)     99.9%
 TRANSITION DIPOLE   0.4072         C  5 -- H 15         +46.1% ( 69.5%)     99.9%
 TRAVEL (Ang.)       0.2146         C  5 -- C  7          +2.4% ( 15.9%)    100.0%
 REDUCED MASS        0.4668         C  4 -- C  7          +1.0% ( 10.2%)     24.3%
 EFFECTIVE MASS      1.6492
 FORCE CONSTANT      2.7067

      SYMMETRY NUMBER FOR POINT-GROUP C1  =  1


          SYSTEM IS A GROUND STATE



 InChI=1S/C9H10/c1-2-5-9-7-3-6-8(9)4-1/h1-4,6,9H,5,7H2


          MOLECULE IS NOT LINEAR

          THERE ARE 51 GENUINE VIBRATIONS IN THIS SYSTEM
          THIS THERMODYNAMICS CALCULATION IS LIMITED TO
          MOLECULES WHICH HAVE NO INTERNAL ROTATIONS




                    CALCULATED THERMODYNAMIC PROPERTIES
                                          *
   TEMP. (K)   PARTITION FUNCTION   H.O.F.    ENTHALPY  HEAT CAPACITY ENTROPY
                                   KCAL/MOL   CAL/MOLE    CAL/K/MOL  CAL/K/MOL


 298.00  VIB.     0.1238D+02                  2606.9092    22.8043    13.7479
         ROT.     0.3536D+06                   888.2803     2.9808    28.3691
         INT.     0.4377D+07                  3495.1895    25.7851    42.1170
         TRA.     0.1242D+28                  1480.4672     4.9680    40.2136
         TOT.                       39.123    4975.6566    30.7531    82.3307

 200.00  VIB.     0.3399D+01                   914.5709    12.0477     7.0041
         ROT.     0.1944D+06                   596.1613     2.9808    27.1804
         INT.     0.6608D+06                  1510.7322    15.0285    34.1845
         TRA.     0.6829D+27                   993.6021     4.9680    38.2325
         TOT.                       36.651    2504.3343    19.9965    72.4170

 210.00  VIB.     0.3820D+01                  1039.9770    13.0392     7.6158
         ROT.     0.2092D+06                   625.9693     2.9808    27.3259
         INT.     0.7991D+06                  1665.9464    16.0200    34.9416
         TRA.     0.7347D+27                  1043.2822     4.9680    38.4749
         TOT.                       36.856    2709.2286    20.9880    73.4165

 220.00  VIB.     0.4309D+01                  1175.4627    14.0632     8.2459
         ROT.     0.2243D+06                   655.7774     2.9808    27.4645
         INT.     0.9665D+06                  1831.2401    17.0440    35.7104
         TRA.     0.7878D+27                  1092.9623     4.9680    38.7060
         TOT.                       37.071    2924.2025    22.0120    74.4164

 230.00  VIB.     0.4878D+01                  1321.3399    15.1170     8.8942
         ROT.     0.2398D+06                   685.5855     2.9808    27.5970
         INT.     0.1170D+07                  2006.9254    18.0978    36.4912
         TRA.     0.8422D+27                  1142.6424     4.9680    38.9268
         TOT.                       37.297    3149.5678    23.0658    75.4180

 240.00  VIB.     0.5541D+01                  1477.8909    16.1974     9.5603
         ROT.     0.2556D+06                   715.3935     2.9808    27.7239
         INT.     0.1416D+07                  2193.2844    19.1782    37.2842
         TRA.     0.8977D+27                  1192.3226     4.9680    39.1383
         TOT.                       37.533    3385.6070    24.1462    76.4224

 250.00  VIB.     0.6315D+01                  1645.3649    17.3010    10.2438
         ROT.     0.2717D+06                   745.2016     2.9808    27.8456
         INT.     0.1716D+07                  2390.5665    20.2818    38.0893
         TRA.     0.9544D+27                  1242.0027     4.9680    39.3411
         TOT.                       37.780    3632.5692    25.2498    77.4304

 260.00  VIB.     0.7222D+01                  1823.9752    18.4240    10.9442
         ROT.     0.2882D+06                   775.0097     2.9808    27.9625
         INT.     0.2081D+07                  2598.9849    21.4048    38.9066
         TRA.     0.1012D+28                  1291.6828     4.9680    39.5359
         TOT.                       38.038    3890.6677    26.3729    78.4426

 270.00  VIB.     0.8285D+01                  2013.8982    19.5629    11.6608
         ROT.     0.3049D+06                   804.8177     2.9808    28.0750
         INT.     0.2527D+07                  2818.7159    22.5437    39.7358
         TRA.     0.1071D+28                  1341.3629     4.9680    39.7234
         TOT.                       38.307    4160.0788    27.5117    79.4592

 280.00  VIB.     0.9536D+01                  2215.2728    20.7137    12.3930
         ROT.     0.3220D+06                   834.6258     2.9808    28.1834
         INT.     0.3071D+07                  3049.8985    23.6946    40.5764
         TRA.     0.1131D+28                  1391.0430     4.9680    39.9041
         TOT.                       38.588    4440.9415    28.6626    80.4805

 290.00  VIB.     0.1101D+02                  2428.2013    21.8731    13.1401
         ROT.     0.3394D+06                   864.4339     2.9808    28.2880
         INT.     0.3737D+07                  3292.6351    24.8539    41.4281
         TRA.     0.1192D+28                  1440.7231     4.9680    40.0784
         TOT.                       38.880    4733.3582    29.8219    81.5065

 300.00  VIB.     0.1275D+02                  2652.7508    23.0374    13.9012
         ROT.     0.3572D+06                   894.2419     2.9808    28.3890
         INT.     0.4554D+07                  3546.9927    26.0182    42.2903
         TRA.     0.1255D+28                  1490.4032     4.9680    40.2469
         TOT.                       39.185    5037.3959    30.9862    82.5371

 310.00  VIB.     0.1481D+02                  2888.9549    24.2035    14.6756
         ROT.     0.3752D+06                   924.0500     2.9808    28.4868
         INT.     0.5557D+07                  3813.0049    27.1843    43.1624
         TRA.     0.1318D+28                  1540.0833     4.9680    40.4098
         TOT.                       39.500    5353.0882    32.1523    83.5722

 320.00  VIB.     0.1726D+02                  3136.8160    25.3683    15.4625
         ROT.     0.3935D+06                   953.8580     2.9808    28.5814
         INT.     0.6790D+07                  4090.6741    28.3491    44.0439
         TRA.     0.1382D+28                  1589.7634     4.9680    40.5675
         TOT.                       39.828    5680.4375    33.3171    84.6114

 330.00  VIB.     0.2016D+02                  3396.3077    26.5292    16.2609
         ROT.     0.4120D+06                   983.6661     2.9808    28.6731
         INT.     0.8307D+07                  4379.9738    29.5100    44.9340
         TRA.     0.1447D+28                  1639.4435     4.9680    40.7204
         TOT.                       40.167    6019.4174    34.4780    85.6544

 340.00  VIB.     0.2362D+02                  3667.3777    27.6836    17.0700
         ROT.     0.4309D+06                  1013.4742     2.9808    28.7621
         INT.     0.1018D+08                  4680.8519    30.6644    45.8321
         TRA.     0.1514D+28                  1689.1236     4.9680    40.8687
         TOT.                       40.517    6369.9755    35.6324    86.7008

 350.00  VIB.     0.2774D+02                  3949.9501    28.8293    17.8890
         ROT.     0.4501D+06                  1043.2822     2.9808    28.8485
         INT.     0.1249D+08                  4993.2323    31.8101    46.7376
         TRA.     0.1581D+28                  1738.8037     4.9680    41.0127
         TOT.                       40.879    6732.0361    36.7781    87.7503

 360.00  VIB.     0.3267D+02                  4243.9285    29.9644    18.7171
         ROT.     0.4695D+06                  1073.0903     2.9808    28.9325
         INT.     0.1534D+08                  5317.0188    32.9453    47.6496
         TRA.     0.1649D+28                  1788.4838     4.9680    41.1526
         TOT.                       41.253    7105.5026    37.9133    88.8023

 370.00  VIB.     0.3857D+02                  4549.1980    31.0873    19.5535
         ROT.     0.4892D+06                  1102.8984     2.9808    29.0142
         INT.     0.1887D+08                  5652.0964    34.0681    48.5676
         TRA.     0.1718D+28                  1838.1639     4.9680    41.2888
         TOT.                       41.637    7490.2603    39.0361    89.8564

 380.00  VIB.     0.4565D+02                  4865.6285    32.1964    20.3973
         ROT.     0.5092D+06                  1132.7064     2.9808    29.0937
         INT.     0.2324D+08                  5998.3349    35.1772    49.4909
         TRA.     0.1788D+28                  1887.8440     4.9680    41.4213
         TOT.                       42.033    7886.1790    40.1452    90.9122

 390.00  VIB.     0.5414D+02                  5193.0762    33.2905    21.2478
         ROT.     0.5294D+06                  1162.5145     2.9808    29.1711
         INT.     0.2866D+08                  6355.5907    36.2714    50.4189
         TRA.     0.1860D+28                  1937.5242     4.9680    41.5503
         TOT.                       42.440    8293.1148    41.2394    91.9692

 400.00  VIB.     0.6436D+02                  5531.3862    34.3687    22.1042
         ROT.     0.5499D+06                  1192.3226     2.9808    29.2466
         INT.     0.3539D+08                  6723.7087    37.3495    51.3508
         TRA.     0.1932D+28                  1987.2043     4.9680    41.6761
         TOT.                       42.858    8710.9130    42.3175    93.0269

   *: NOTE: HEATS OF FORMATION ARE RELATIVE TO THE
            ELEMENTS IN THEIR STANDARD STATE AT 298K
              (=  Standard Enthalpy of Formation).

            Hvib:  Zero-point energy is not included.
                   frequencies of less than zero cm-1 are not included.
            Hrot = (3/2)RT
            Htra = (3/2)RT + pV = (5/2)RT

            Heat capacity is Cp, not Cv

          For more information, see: HTTP://OpenMOPAC.net/Manual/thermochemistry.html


           FORCE CONSTANT IN CARTESIAN COORDINATES (Millidynes/A)

    ATOM   CHEMICAL       X               Y               Z
   NUMBER   SYMBOL  FORCE CONSTANT  FORCE CONSTANT  FORCE CONSTANT

      1       C        8.351931        8.575617        8.448075
      2       C        7.714510        8.508801        8.771020
      3       C        8.559424        8.384871        8.383744
      4       C       15.350650        5.469474        7.720195
      5       C       14.295360        5.996322        6.669767
      6       C        9.351322       10.149520        7.203982
      7       C       11.696628        7.553377        8.445053
      8       C       12.606306        6.436996        8.406298
      9       C       10.581256        9.508303        7.288438
     10       H        1.120553        1.715057        3.095614
     11       H        1.301881        4.019197        1.031853
     12       H        1.304408        0.849382        4.276814
     13       H        0.674164        1.309963        4.378219
     14       H        1.639320        2.358646        2.231749
     15       H        4.854675        0.974297        0.593030
     16       H        2.500999        2.799457        0.961289
     17       H        0.958856        1.805321        3.506936
     18       H        0.686975        2.802168        2.923516
     19       H        4.702028        0.611269        0.953739

 **********************
 *                    *
 * JOB ENDED NORMALLY *
 *                    *
 **********************



 TOTAL JOB TIME:             1.82 SECONDS

 == MOPAC DONE ==
