 *******************************************************************************
 **                                                                           **
 **                              MOPAC v23.1.2                                **
 **                                                                           **
 *******************************************************************************
 **          Digital Object Identifier (DOI): 10.5281/zenodo.6511958          **
 **    Visit the DOI location for information on how to cite this program.    **
 *******************************************************************************

                              PM3 CALCULATION RESULTS

 *******************************************************************************
 *  CALCULATION DONE: (MAX THREADS = 1)              Tue Jun  3 16:30:00 2025  *
 *  PM3        - The PM3 Hamiltonian to be used
 *  PRECISE    - TIGHTER CRITERIA TO BE USED
 *  NOSYM      - POINT-GROUP SYMMETRY SET TO C1
 *  THREADS=1  - MULTI-THREADING NOT USED
 *  T=         - A TIME OF 172800.0 SECONDS REQUESTED
 *  DUMP=N     - RESTART FILE WRITTEN EVERY 7200.0 SECONDS REQUESTED
 *******************************************************************************
pm3  precise nosym THREADS=1
 InChI=1S/C9H12/c1-2-6-9-7-4-3-5-8-9/h3-7H,2,8H2,1H3

   ATOM   CHEMICAL          X               Y               Z
  NUMBER   SYMBOL      (ANGSTROMS)     (ANGSTROMS)     (ANGSTROMS)

     1       C          2.09150000  *   0.32460000  *  -0.31080000  *
     2       C         -1.39040000  *  -1.10150000  *   0.66500000  *
     3       C          3.43880000  *  -0.34460000  *  -0.05660000  *
     4       C         -0.34080000  *  -0.16160000  *   0.10690000  *
     5       C          0.95320000  *  -0.51830000  *   0.20310000  *
     6       C         -2.80440000  *  -0.60470000  *   0.50450000  *
     7       C         -0.76100000  *   1.11460000  *  -0.52480000  *
     8       C         -3.09980000  *   0.56000000  *  -0.07800000  *
     9       C         -2.05020000  *   1.44300000  *  -0.60670000  *
    10       H          1.97270000  *   0.48100000  *  -1.40480000  *
    11       H          2.08230000  *   1.31150000  *   0.20020000  *
    12       H         -1.19880000  *  -1.25820000  *   1.74830000  *
    13       H         -1.30780000  *  -2.08400000  *   0.15250000  *
    14       H          4.25400000  *   0.30090000  *  -0.44630000  *
    15       H          3.59490000  *  -0.49500000  *   1.03320000  *
    16       H          3.48510000  *  -1.32670000  *  -0.57410000  *
    17       H          1.19350000  *  -1.46500000  *   0.67660000  *
    18       H         -3.61100000  *  -1.22240000  *   0.87920000  *
    19       H         -0.03150000  *   1.80310000  *  -0.93090000  *
    20       H         -2.33530000  *   2.37840000  *  -1.07130000  *
    21       H         -4.13490000  *   0.86500000  *  -0.16520000  *



          CARTESIAN COORDINATES 

    NO.       ATOM           X           Y           Z

     1         C          2.0915      0.3246     -0.3108
     2         C         -1.3904     -1.1015      0.6650
     3         C          3.4388     -0.3446     -0.0566
     4         C         -0.3408     -0.1616      0.1069
     5         C          0.9532     -0.5183      0.2031
     6         C         -2.8044     -0.6047      0.5045
     7         C         -0.7610      1.1146     -0.5248
     8         C         -3.0998      0.5600     -0.0780
     9         C         -2.0502      1.4430     -0.6067
    10         H          1.9727      0.4810     -1.4048
    11         H          2.0823      1.3115      0.2002
    12         H         -1.1988     -1.2582      1.7483
    13         H         -1.3078     -2.0840      0.1525
    14         H          4.2540      0.3009     -0.4463
    15         H          3.5949     -0.4950      1.0332
    16         H          3.4851     -1.3267     -0.5741
    17         H          1.1935     -1.4650      0.6766
    18         H         -3.6110     -1.2224      0.8792
    19         H         -0.0315      1.8031     -0.9309
    20         H         -2.3353      2.3784     -1.0713
    21         H         -4.1349      0.8650     -0.1652

  H: (PM3): J. J. P. STEWART, J. COMP. CHEM. 10, 209 (1989).
  C: (PM3): J. J. P. STEWART, J. COMP. CHEM. 10, 209 (1989).

           Empirical Formula: C9 H12  =    21 atoms



      MOLECULAR POINT GROUP   :   C1  


      RHF CALCULATION, NO. OF DOUBLY OCCUPIED LEVELS = 24


          Geometry optimization using EF

          DIAGONAL MATRIX USED AS START HESSIAN

 CYCLE:     1 TIME:   0.008 TIME LEFT:  2.00D  GRAD.:    80.833 HEAT:  28.43314
 CYCLE:     2 TIME:   0.016 TIME LEFT:  2.00D  GRAD.:    36.124 HEAT:  26.64021
 CYCLE:     3 TIME:   0.008 TIME LEFT:  2.00D  GRAD.:    37.716 HEAT:  26.22968
 CYCLE:     4 TIME:   0.012 TIME LEFT:  2.00D  GRAD.:    31.064 HEAT:  26.01271
 CYCLE:     5 TIME:   0.004 TIME LEFT:  2.00D  GRAD.:    32.666 HEAT:  25.89552
 CYCLE:     6 TIME:   0.004 TIME LEFT:  2.00D  GRAD.:    22.854 HEAT:  25.71218
 CYCLE:     7 TIME:   0.012 TIME LEFT:  2.00D  GRAD.:    19.754 HEAT:  25.60381
 CYCLE:     8 TIME:   0.004 TIME LEFT:  2.00D  GRAD.:    13.169 HEAT:  25.51560
 CYCLE:     9 TIME:   0.008 TIME LEFT:  2.00D  GRAD.:    17.418 HEAT:  25.50541
 CYCLE:    10 TIME:   0.008 TIME LEFT:  2.00D  GRAD.:     9.328 HEAT:  25.44364
 CYCLE:    11 TIME:   0.012 TIME LEFT:  2.00D  GRAD.:     6.889 HEAT:  25.42688
 CYCLE:    12 TIME:   0.004 TIME LEFT:  2.00D  GRAD.:     7.769 HEAT:  25.42620
 CYCLE:    13 TIME:   0.008 TIME LEFT:  2.00D  GRAD.:     3.663 HEAT:  25.41248
 CYCLE:    14 TIME:   0.008 TIME LEFT:  2.00D  GRAD.:     7.136 HEAT:  25.42146
 CYCLE:    15 TIME:   0.004 TIME LEFT:  2.00D  GRAD.:     2.706 HEAT:  25.40859
 CYCLE:    16 TIME:   0.008 TIME LEFT:  2.00D  GRAD.:     4.734 HEAT:  25.41046
 CYCLE:    17 TIME:   0.004 TIME LEFT:  2.00D  GRAD.:     1.623 HEAT:  25.40591
 CYCLE:    18 TIME:   0.008 TIME LEFT:  2.00D  GRAD.:     3.093 HEAT:  25.40654
 CYCLE:    19 TIME:   0.004 TIME LEFT:  2.00D  GRAD.:     2.606 HEAT:  25.40538
 CYCLE:    20 TIME:   0.004 TIME LEFT:  2.00D  GRAD.:     2.577 HEAT:  25.40438
 CYCLE:    21 TIME:   0.004 TIME LEFT:  2.00D  GRAD.:     1.371 HEAT:  25.40212
 CYCLE:    22 TIME:   0.008 TIME LEFT:  2.00D  GRAD.:     1.996 HEAT:  25.40158
 CYCLE:    23 TIME:   0.004 TIME LEFT:  2.00D  GRAD.:     1.199 HEAT:  25.39956
 CYCLE:    24 TIME:   0.004 TIME LEFT:  2.00D  GRAD.:     1.786 HEAT:  25.39747
 CYCLE:    25 TIME:   0.004 TIME LEFT:  2.00D  GRAD.:     1.810 HEAT:  25.39515
 CYCLE:    26 TIME:   0.008 TIME LEFT:  2.00D  GRAD.:     2.429 HEAT:  25.39358
 CYCLE:    27 TIME:   0.004 TIME LEFT:  2.00D  GRAD.:     1.516 HEAT:  25.39102
 CYCLE:    28 TIME:   0.004 TIME LEFT:  2.00D  GRAD.:     2.013 HEAT:  25.38950
 CYCLE:    29 TIME:   0.004 TIME LEFT:  2.00D  GRAD.:     1.348 HEAT:  25.38761
 CYCLE:    30 TIME:   0.008 TIME LEFT:  2.00D  GRAD.:     1.041 HEAT:  25.38646
 CYCLE:    31 TIME:   0.004 TIME LEFT:  2.00D  GRAD.:     0.593 HEAT:  25.38584
 CYCLE:    32 TIME:   0.004 TIME LEFT:  2.00D  GRAD.:     0.556 HEAT:  25.38546
 CYCLE:    33 TIME:   0.008 TIME LEFT:  2.00D  GRAD.:     0.345 HEAT:  25.38523
 CYCLE:    34 TIME:   0.004 TIME LEFT:  2.00D  GRAD.:     0.260 HEAT:  25.38511
 CYCLE:    35 TIME:   0.004 TIME LEFT:  2.00D  GRAD.:     0.259 HEAT:  25.38502
 CYCLE:    36 TIME:   0.004 TIME LEFT:  2.00D  GRAD.:     0.193 HEAT:  25.38494
 CYCLE:    37 TIME:   0.008 TIME LEFT:  2.00D  GRAD.:     0.164 HEAT:  25.38489
 CYCLE:    38 TIME:   0.004 TIME LEFT:  2.00D  GRAD.:     0.140 HEAT:  25.38486
 CYCLE:    39 TIME:   0.008 TIME LEFT:  2.00D  GRAD.:     0.119 HEAT:  25.38484
 CYCLE:    40 TIME:   0.004 TIME LEFT:  2.00D  GRAD.:     0.063 HEAT:  25.38482
 CYCLE:    41 TIME:   0.008 TIME LEFT:  2.00D  GRAD.:     0.055 HEAT:  25.38482
 CYCLE:    42 TIME:   0.004 TIME LEFT:  2.00D  GRAD.:     0.043 HEAT:  25.38481

     GRADIENT =  0.04298 IS LESS THAN CUTOFF =  0.05000



 -------------------------------------------------------------------------------
 pm3  precise nosym THREADS=1
 InChI=1S/C9H12/c1-2-6-9-7-4-3-5-8-9/h3-7H,2,8H2,1H3



     GEOMETRY OPTIMISED USING EIGENVECTOR FOLLOWING (EF).     
     SCF FIELD WAS ACHIEVED                                   


                              PM3 CALCULATION
                                                       MOPAC v23.1.2 MacOS
                                                       Tue Jun  3 16:30:00 2025




          FINAL HEAT OF FORMATION =         25.38481 KCAL/MOL =     106.21005 KJ/MOL


          COSMO AREA              =        175.02 SQUARE ANGSTROMS
          COSMO VOLUME            =        170.84 CUBIC ANGSTROMS

          GRADIENT NORM           =          0.04298          =       0.00938 PER ATOM
          IONIZATION POTENTIAL    =          8.419516 EV
          HOMO LUMO ENERGIES (EV) =         -8.420 -0.200
          NO. OF FILLED LEVELS    =         24
          MOLECULAR WEIGHT        =        120.1938         POINT GROUP:  C1  

          MOLECULAR DIMENSIONS (Angstroms)

            Atom       Atom       Distance
            H    21    H    14     8.43616
            H    20    H    12     4.51758
            H    11    H    13     2.35042


          SCF CALCULATIONS        =         52

          WALL-CLOCK TIME         =      0.273 SECONDS
          COMPUTATION TIME        =      0.205 SECONDS




   ATOM   CHEMICAL          X               Y               Z
  NUMBER   SYMBOL      (ANGSTROMS)     (ANGSTROMS)     (ANGSTROMS)

     1       C          2.09809658  *   0.31373042  *  -0.30833491  *
     2       C         -1.38318098  *  -1.06974473  *   0.64585546  *
     3       C          3.42835939  *  -0.35868336  *  -0.04420632  *
     4       C         -0.33965661  *  -0.14490500  *   0.09581719  *
     5       C          0.95629587  *  -0.49669349  *   0.18883334  *
     6       C         -2.78448102  *  -0.60246159  *   0.50349224  *
     7       C         -0.77876323  *   1.09968721  *  -0.51758409  *
     8       C         -3.10629331  *   0.56195387  *  -0.07524129  *
     9       C         -2.07754896  *   1.43421880  *  -0.59893275  *
    10       H          1.97955597  *   0.49782176  *  -1.39587413  *
    11       H          2.08190185  *   1.31471483  *   0.16961852  *
    12       H         -1.18227055  *  -1.25019312  *   1.72273863  *
    13       H         -1.29260581  *  -2.05988885  *   0.15186928  *
    14       H          4.26094620  *   0.25167275  *  -0.41666081  *
    15       H          3.59521756  *  -0.52171030  *   1.02871913  *
    16       H          3.49355617  *  -1.33803650  *  -0.53638292  *
    17       H          1.21419757  *  -1.45226396  *   0.66513033  *
    18       H         -3.55744034  *  -1.26885945  *   0.90225004  *
    19       H         -0.00555702  *   1.76665690  *  -0.91763634  *
    20       H         -2.39352297  *   2.37421887  *  -1.06287638  *
    21       H         -4.14767922  *   0.88608646  *  -0.16895964  *

                             CARTESIAN COORDINATES

   1    C        2.098096583     0.313730421    -0.308334906
   2    C       -1.383180982    -1.069744727     0.645855461
   3    C        3.428359387    -0.358683363    -0.044206321
   4    C       -0.339656607    -0.144905000     0.095817188
   5    C        0.956295875    -0.496693490     0.188833339
   6    C       -2.784481023    -0.602461593     0.503492244
   7    C       -0.778763234     1.099687210    -0.517584086
   8    C       -3.106293308     0.561953874    -0.075241294
   9    C       -2.077548956     1.434218795    -0.598932751
  10    H        1.979555966     0.497821761    -1.395874125
  11    H        2.081901848     1.314714832     0.169618518
  12    H       -1.182270553    -1.250193124     1.722738634
  13    H       -1.292605814    -2.059888847     0.151869279
  14    H        4.260946197     0.251672752    -0.416660807
  15    H        3.595217558    -0.521710295     1.028719127
  16    H        3.493556174    -1.338036496    -0.536382922
  17    H        1.214197566    -1.452263957     0.665130330
  18    H       -3.557440339    -1.268859451     0.902250042
  19    H       -0.005557025     1.766656901    -0.917636338
  20    H       -2.393522965     2.374218874    -1.062876384
  21    H       -4.147679223     0.886086459    -0.168959637


           Empirical Formula: C9 H12  =    21 atoms



      MOLECULAR POINT GROUP   :   C1  


                  EIGENVALUES  
 -40.13023 -35.73689 -30.64275 -30.00716 -25.08437 -22.28096 -21.41462 -19.26524
 -17.78691 -16.30726 -15.91304 -15.61067 -14.83078 -14.80634 -14.31644 -13.94336
 -13.22397 -12.69250 -12.49521 -12.32761 -11.64844 -11.61656 -10.47159  -8.41952
  -0.19997   1.28827   2.36690   3.14890   3.35600   3.39714   3.65788   3.77274
   3.84477   3.91824   3.98498   4.08490   4.23014   4.34667   4.44552   4.67044
   4.78650   4.87246   4.90865   5.29327   5.47557   5.68895   6.22384   6.30198


              NET ATOMIC CHARGES AND DIPOLE CONTRIBUTIONS

  ATOM NO.   TYPE          CHARGE      No. of ELECS.   s-Pop       p-Pop       
    1          C          -0.057135        4.0571     1.14280     2.91434
    2          C          -0.017978        4.0180     1.13337     2.88461
    3          C          -0.108358        4.1084     1.13897     2.96938
    4          C          -0.089792        4.0898     1.18167     2.90812
    5          C          -0.153002        4.1530     1.19752     2.95548
    6          C          -0.127953        4.1280     1.19574     2.93222
    7          C          -0.093410        4.0934     1.17851     2.91490
    8          C          -0.117500        4.1175     1.17792     2.93958
    9          C          -0.095037        4.0950     1.17948     2.91556
   10          H           0.055995        0.9440     0.94401
   11          H           0.056003        0.9440     0.94400
   12          H           0.063751        0.9362     0.93625
   13          H           0.063760        0.9362     0.93624
   14          H           0.037252        0.9627     0.96275
   15          H           0.038903        0.9611     0.96110
   16          H           0.038879        0.9611     0.96112
   17          H           0.101779        0.8982     0.89822
   18          H           0.097895        0.9021     0.90210
   19          H           0.103524        0.8965     0.89648
   20          H           0.100326        0.8997     0.89967
   21          H           0.102096        0.8979     0.89790
 DIPOLE           X         Y         Z       TOTAL
 POINT-CHG.     0.117    -0.152     0.070     0.205
 HYBRID        -0.011    -0.063     0.033     0.072
 SUM            0.106    -0.215     0.103     0.261


          ATOMIC ORBITAL ELECTRON POPULATIONS

     Atom    s        px        py        pz   
    1  C   1.14280   0.93321   0.97928   1.00184
    2  C   1.13337   0.91948   0.96933   0.99581
    3  C   1.13897   0.96213   0.99888   1.00838
    4  C   1.18167   0.94635   0.95897   1.00280
    5  C   1.19752   0.94056   0.99964   1.01528
    6  C   1.19574   0.96954   0.97275   0.98992
    7  C   1.17851   0.96406   0.95811   0.99274
    8  C   1.17792   0.97671   0.96019   1.00268
    9  C   1.17948   0.94250   0.98053   0.99253
   10  H   0.94401
   11  H   0.94400
   12  H   0.93625
   13  H   0.93624
   14  H   0.96275
   15  H   0.96110
   16  H   0.96112
   17  H   0.89822
   18  H   0.90210
   19  H   0.89648
   20  H   0.89967
   21  H   0.89790
 *******************************************************************************
 **                                                                           **
 **                              MOPAC v23.1.2                                **
 **                                                                           **
 *******************************************************************************
 **          Digital Object Identifier (DOI): 10.5281/zenodo.6511958          **
 **    Visit the DOI location for information on how to cite this program.    **
 *******************************************************************************

                              PM3 CALCULATION RESULTS

 *******************************************************************************
 *  CALCULATION DONE: (MAX THREADS = 1)              Tue Jun  3 16:30:00 2025  *
 *  PM3        - The PM3 Hamiltonian to be used
 *  OLDGEO     - PREVIOUS GEOMETRY TO BE USED
 *  PRECISE    - TIGHTER CRITERIA TO BE USED
 *  NOSYM      - POINT-GROUP SYMMETRY SET TO C1
 *  THREADS=1  - MULTI-THREADING NOT USED
 *  T=         - A TIME OF 172800.0 SECONDS REQUESTED
 *  DUMP=N     - RESTART FILE WRITTEN EVERY 7200.0 SECONDS REQUESTED
 *  THERMO     - THERMODYNAMIC QUANTITIES TO BE CALCULATED
 *******************************************************************************
oldgeo thermo nosym precise THREADS=1  pm3
 InChI=1S/C9H12/c1-2-6-9-7-4-3-5-8-9/h3-7H,2,8H2,1H3

   ATOM   CHEMICAL          X               Y               Z
  NUMBER   SYMBOL      (ANGSTROMS)     (ANGSTROMS)     (ANGSTROMS)

     1       C          2.09809658  *   0.31373042  *  -0.30833491  *
     2       C         -1.38318098  *  -1.06974473  *   0.64585546  *
     3       C          3.42835939  *  -0.35868336  *  -0.04420632  *
     4       C         -0.33965661  *  -0.14490500  *   0.09581719  *
     5       C          0.95629587  *  -0.49669349  *   0.18883334  *
     6       C         -2.78448102  *  -0.60246159  *   0.50349224  *
     7       C         -0.77876323  *   1.09968721  *  -0.51758409  *
     8       C         -3.10629331  *   0.56195387  *  -0.07524129  *
     9       C         -2.07754896  *   1.43421880  *  -0.59893275  *
    10       H          1.97955597  *   0.49782176  *  -1.39587413  *
    11       H          2.08190185  *   1.31471483  *   0.16961852  *
    12       H         -1.18227055  *  -1.25019312  *   1.72273863  *
    13       H         -1.29260581  *  -2.05988885  *   0.15186928  *
    14       H          4.26094620  *   0.25167275  *  -0.41666081  *
    15       H          3.59521756  *  -0.52171030  *   1.02871913  *
    16       H          3.49355617  *  -1.33803650  *  -0.53638292  *
    17       H          1.21419757  *  -1.45226396  *   0.66513033  *
    18       H         -3.55744034  *  -1.26885945  *   0.90225004  *
    19       H         -0.00555702  *   1.76665690  *  -0.91763634  *
    20       H         -2.39352297  *   2.37421887  *  -1.06287638  *
    21       H         -4.14767922  *   0.88608646  *  -0.16895964  *



          CARTESIAN COORDINATES 

    NO.       ATOM           X           Y           Z

     1         C          2.0981      0.3137     -0.3083
     2         C         -1.3832     -1.0697      0.6459
     3         C          3.4284     -0.3587     -0.0442
     4         C         -0.3397     -0.1449      0.0958
     5         C          0.9563     -0.4967      0.1888
     6         C         -2.7845     -0.6025      0.5035
     7         C         -0.7788      1.0997     -0.5176
     8         C         -3.1063      0.5620     -0.0752
     9         C         -2.0775      1.4342     -0.5989
    10         H          1.9796      0.4978     -1.3959
    11         H          2.0819      1.3147      0.1696
    12         H         -1.1823     -1.2502      1.7227
    13         H         -1.2926     -2.0599      0.1519
    14         H          4.2609      0.2517     -0.4167
    15         H          3.5952     -0.5217      1.0287
    16         H          3.4936     -1.3380     -0.5364
    17         H          1.2142     -1.4523      0.6651
    18         H         -3.5574     -1.2689      0.9023
    19         H         -0.0056      1.7667     -0.9176
    20         H         -2.3935      2.3742     -1.0629
    21         H         -4.1477      0.8861     -0.1690

  H: (PM3): J. J. P. STEWART, J. COMP. CHEM. 10, 209 (1989).
  C: (PM3): J. J. P. STEWART, J. COMP. CHEM. 10, 209 (1989).

           Empirical Formula: C9 H12  =    21 atoms



      MOLECULAR POINT GROUP   :   C1  


      RHF CALCULATION, NO. OF DOUBLY OCCUPIED LEVELS = 24



          HEAT OF FORMATION =      25.384811 KCALS/MOLE


          CARTESIAN COORDINATE DERIVATIVES

   NUMBER  ATOM         X            Y            Z

     1       C      0.008789    -0.007307     0.003970
     2       C      0.000476    -0.002339     0.002899
     3       C     -0.009867    -0.003142     0.005212
     4       C     -0.001473     0.005182    -0.002887
     5       C      0.007873    -0.001682    -0.002711
     6       C      0.001600    -0.005821     0.001923
     7       C      0.004809     0.001144    -0.002185
     8       C     -0.000683     0.004776     0.000650
     9       C      0.004325    -0.001848     0.003289
    10       H     -0.014220     0.005475     0.002117
    11       H     -0.004452     0.007910    -0.005063
    12       H      0.010424    -0.007584     0.003845
    13       H      0.009982    -0.002029    -0.001626
    14       H      0.007647     0.003657     0.000406
    15       H     -0.003927    -0.003075    -0.000327
    16       H     -0.009179     0.007843    -0.002971
    17       H     -0.011970    -0.003017    -0.001709
    18       H      0.004461     0.003619    -0.003762
    19       H      0.001301    -0.002824    -0.008267
    20       H      0.000598    -0.005013     0.006535
    21       H     -0.006517     0.006075     0.000662



          GRADIENT NORM =   0.04292

          MOLECULAR WEIGHT =  120.19



          ROTATIONAL CONSTANTS IN CM(-1)

          A =    0.14914023   B =    0.02892943   C =    0.02456372



           PRINCIPAL MOMENTS OF INERTIA IN UNITS OF 10**(-40)*GRAM-CM**2

          A =      187.6942   B =      967.6219   C =     1139.5975


          ORIENTATION OF MOLECULE IN FORCE CALCULATION

    NO.       ATOM         X         Y         Z

     1          C      -2.3797    0.7426   -0.0059
     2          C       1.4860    0.7426   -0.0059
     3          C      -3.2718    1.9655   -0.0059
     4          C       0.0795    0.2243   -0.0032
     5          C      -0.9387    1.1048   -0.0081
     6          C       2.5456   -0.2964    0.0027
     7          C      -0.1219   -1.2170    0.0049
     8          C       2.2758   -1.6085    0.0112
     9          C       0.9079   -2.0800    0.0119
    10          H      -2.6073    0.1115   -0.8894
    11          H      -2.6054    0.1132    0.8793
    12          H       1.6355    1.4019    0.8747
    13          H       1.6369    1.3889   -0.8959
    14          H      -4.3320    1.6818   -0.0041
    15          H      -3.0989    2.5945    0.8773
    16          H      -3.1015    2.5929   -0.8908
    17          H      -0.7114    2.1794   -0.0142
    18          H       3.5786    0.0689    0.0017
    19          H      -1.1556   -1.5832    0.0050
    20          H       0.7416   -3.1621    0.0184
    21          H       3.0745   -2.3571    0.0175


    FIRST DERIVATIVES WILL BE USED IN THE CALCULATION OF SECOND DERIVATIVES

          ESTIMATED TIME TO COMPLETE CALCULATION =        1.97 SECONDS

    FOR POINT-GROUP C1   THERE ARE   1 UNIQUE SYMMETRY FUNCTIONS.

 STEP:   1 TIME =     0.02 SECS, INTEGRAL =      0.02 TIME LEFT: 172799.97
 STEP:   2 TIME =     0.02 SECS, INTEGRAL =      0.04 TIME LEFT: 172799.95
 STEP:   3 TIME =     0.02 SECS, INTEGRAL =      0.06 TIME LEFT: 172799.93
 STEP:   4 TIME =     0.02 SECS, INTEGRAL =      0.08 TIME LEFT: 172799.91
 STEP:   5 TIME =     0.02 SECS, INTEGRAL =      0.10 TIME LEFT: 172799.89
 STEP:   6 TIME =     0.02 SECS, INTEGRAL =      0.12 TIME LEFT: 172799.88
 STEP:   7 TIME =     0.02 SECS, INTEGRAL =      0.13 TIME LEFT: 172799.86
 STEP:   8 TIME =     0.02 SECS, INTEGRAL =      0.15 TIME LEFT: 172799.84
 STEP:   9 TIME =     0.02 SECS, INTEGRAL =      0.17 TIME LEFT: 172799.82
 STEP:  10 TIME =     0.02 SECS, INTEGRAL =      0.19 TIME LEFT: 172799.80
 STEP:  11 TIME =     0.02 SECS, INTEGRAL =      0.21 TIME LEFT: 172799.78
 STEP:  12 TIME =     0.02 SECS, INTEGRAL =      0.23 TIME LEFT: 172799.76
 STEP:  13 TIME =     0.02 SECS, INTEGRAL =      0.25 TIME LEFT: 172799.75
 STEP:  14 TIME =     0.02 SECS, INTEGRAL =      0.26 TIME LEFT: 172799.73
 STEP:  15 TIME =     0.02 SECS, INTEGRAL =      0.29 TIME LEFT: 172799.71
 STEP:  16 TIME =     0.02 SECS, INTEGRAL =      0.30 TIME LEFT: 172799.69
 STEP:  17 TIME =     0.02 SECS, INTEGRAL =      0.32 TIME LEFT: 172799.67
 STEP:  18 TIME =     0.02 SECS, INTEGRAL =      0.34 TIME LEFT: 172799.65
 STEP:  19 TIME =     0.02 SECS, INTEGRAL =      0.36 TIME LEFT: 172799.63
 STEP:  20 TIME =     0.02 SECS, INTEGRAL =      0.38 TIME LEFT: 172799.61
 STEP:  21 TIME =     0.02 SECS, INTEGRAL =      0.40 TIME LEFT: 172799.59
 STEP:  22 TIME =     0.02 SECS, INTEGRAL =      0.42 TIME LEFT: 172799.57
 STEP:  23 TIME =     0.02 SECS, INTEGRAL =      0.44 TIME LEFT: 172799.55
 STEP:  24 TIME =     0.02 SECS, INTEGRAL =      0.46 TIME LEFT: 172799.53
 STEP:  25 TIME =     0.02 SECS, INTEGRAL =      0.48 TIME LEFT: 172799.51
 STEP:  26 TIME =     0.02 SECS, INTEGRAL =      0.50 TIME LEFT: 172799.49
 STEP:  27 TIME =     0.02 SECS, INTEGRAL =      0.52 TIME LEFT: 172799.47
 STEP:  28 TIME =     0.02 SECS, INTEGRAL =      0.54 TIME LEFT: 172799.45
 STEP:  29 TIME =     0.02 SECS, INTEGRAL =      0.56 TIME LEFT: 172799.43
 STEP:  30 TIME =     0.02 SECS, INTEGRAL =      0.58 TIME LEFT: 172799.41
 STEP:  31 TIME =     0.02 SECS, INTEGRAL =      0.60 TIME LEFT: 172799.39
 STEP:  32 TIME =     0.02 SECS, INTEGRAL =      0.62 TIME LEFT: 172799.37
 STEP:  33 TIME =     0.02 SECS, INTEGRAL =      0.64 TIME LEFT: 172799.35
 STEP:  34 TIME =     0.02 SECS, INTEGRAL =      0.66 TIME LEFT: 172799.33
 STEP:  35 TIME =     0.02 SECS, INTEGRAL =      0.68 TIME LEFT: 172799.31
 STEP:  36 TIME =     0.02 SECS, INTEGRAL =      0.70 TIME LEFT: 172799.29
 STEP:  37 TIME =     0.02 SECS, INTEGRAL =      0.73 TIME LEFT: 172799.27
 STEP:  38 TIME =     0.02 SECS, INTEGRAL =      0.75 TIME LEFT: 172799.25
 STEP:  39 TIME =     0.02 SECS, INTEGRAL =      0.77 TIME LEFT: 172799.23
 STEP:  40 TIME =     0.02 SECS, INTEGRAL =      0.78 TIME LEFT: 172799.21
 STEP:  41 TIME =     0.02 SECS, INTEGRAL =      0.80 TIME LEFT: 172799.20
 STEP:  42 TIME =     0.02 SECS, INTEGRAL =      0.82 TIME LEFT: 172799.18
 STEP:  43 TIME =     0.02 SECS, INTEGRAL =      0.84 TIME LEFT: 172799.16
 STEP:  44 TIME =     0.02 SECS, INTEGRAL =      0.86 TIME LEFT: 172799.14
 STEP:  45 TIME =     0.02 SECS, INTEGRAL =      0.88 TIME LEFT: 172799.12
 STEP:  46 TIME =     0.02 SECS, INTEGRAL =      0.89 TIME LEFT: 172799.10
 STEP:  47 TIME =     0.02 SECS, INTEGRAL =      0.91 TIME LEFT: 172799.08
 STEP:  48 TIME =     0.02 SECS, INTEGRAL =      0.93 TIME LEFT: 172799.06
 STEP:  49 TIME =     0.02 SECS, INTEGRAL =      0.95 TIME LEFT: 172799.04
 STEP:  50 TIME =     0.02 SECS, INTEGRAL =      0.96 TIME LEFT: 172799.03
 STEP:  51 TIME =     0.02 SECS, INTEGRAL =      0.98 TIME LEFT: 172799.01
 STEP:  52 TIME =     0.02 SECS, INTEGRAL =      1.00 TIME LEFT: 172798.99
 STEP:  53 TIME =     0.02 SECS, INTEGRAL =      1.02 TIME LEFT: 172798.98
 STEP:  54 TIME =     0.02 SECS, INTEGRAL =      1.04 TIME LEFT: 172798.96
 STEP:  55 TIME =     0.02 SECS, INTEGRAL =      1.05 TIME LEFT: 172798.94
 STEP:  56 TIME =     0.02 SECS, INTEGRAL =      1.07 TIME LEFT: 172798.92
 STEP:  57 TIME =     0.02 SECS, INTEGRAL =      1.09 TIME LEFT: 172798.90
 STEP:  58 TIME =     0.02 SECS, INTEGRAL =      1.11 TIME LEFT: 172798.88
 STEP:  59 TIME =     0.02 SECS, INTEGRAL =      1.13 TIME LEFT: 172798.86
 STEP:  60 TIME =     0.02 SECS, INTEGRAL =      1.15 TIME LEFT: 172798.84
 STEP:  61 TIME =     0.02 SECS, INTEGRAL =      1.17 TIME LEFT: 172798.82
 STEP:  62 TIME =     0.02 SECS, INTEGRAL =      1.19 TIME LEFT: 172798.80
 STEP:  63 TIME =     0.02 SECS, INTEGRAL =      1.21 TIME LEFT: 172798.78

(To convert to Hartree/Bohr^2, multiply by (10^(-21) x N x a0^2)/(4.184 x 627.51) =  0.0642)


           FORCE MATRIX IN MILLIDYNES/ANGSTROM


                  C  1       C  2       C  3       C  4       C  5       C  6
 ------------------------------------------------------------------------------
     C    1  14.633888
     C    2   0.119243  14.990367
     C    3   4.429628   0.008111  14.379894
     C    4   0.759579   4.572865   0.053097  18.516839
     C    5   4.964889   0.857753   0.712267   9.794033  17.956966
     C    6   0.011202   5.033993   0.001947   0.680871   0.065849  18.023565
     C    7   0.107032   0.614764   0.004830   5.428357   1.061890   0.221762
     C    8   0.013050   0.868353   0.000231   0.186890   0.069830  10.206798
     C    9   0.018911   0.140332   0.001115   1.115514   0.168360   1.209296
     H   10   4.398201   0.012219   0.436319   0.027479   0.423398   0.001102
     H   11   4.398473   0.012110   0.436167   0.027519   0.423833   0.001098
     H   12   0.013637   4.361441   0.000468   0.417020   0.042275   0.415753
     H   13   0.013695   4.361209   0.000484   0.416902   0.042094   0.415744
     H   14   0.444624   0.001570   4.750967   0.009165   0.054007   0.000421
     H   15   0.463756   0.000454   4.732925   0.002372   0.022229   0.000208
     H   16   0.463801   0.000455   4.732450   0.002374   0.022321   0.000208
     H   17   0.440569   0.085519   0.061455   0.451638   4.741144   0.002783
     H   18   0.004324   0.422811   0.000511   0.049406   0.008606   4.829435
     H   19   0.042940   0.040652   0.002079   0.446197   0.033983   0.011685
     H   20   0.007692   0.004049   0.000289   0.123905   0.010227   0.048473
     H   21   0.000639   0.123537   0.000201   0.002800   0.001072   0.445083


                  C  7       C  8       C  9       H 10       H 11       H 12
 ------------------------------------------------------------------------------
     C    7  18.311678
     C    8   1.187366  18.368344
     C    9   9.916897   5.709414  18.258523
     H   10   0.017241   0.002120   0.002079   5.001617
     H   11   0.017417   0.002124   0.002064   0.568266   5.001755
     H   12   0.027001   0.041693   0.015903   0.001393   0.001569   4.950374
     H   13   0.026905   0.041674   0.015933   0.001588   0.001384   0.568371
     H   14   0.000667   0.000079   0.000345   0.030528   0.030588   0.000125
     H   15   0.000902   0.000146   0.000502   0.048453   0.024605   0.000104
     H   16   0.000905   0.000146   0.000503   0.024577   0.048438   0.000106
     H   17   0.116101   0.008897   0.009605   0.023352   0.023587   0.017114
     H   18   0.011214   0.444987   0.125458   0.000496   0.000494   0.030155
     H   19   4.784200   0.127206   0.438805   0.028981   0.028928   0.004979
     H   20   0.439590   0.435229   4.856931   0.001041   0.001038   0.000993
     H   21   0.048533   4.860576   0.436462   0.000137   0.000136   0.016405


                  H 13       H 14       H 15       H 16       H 17       H 18
 ------------------------------------------------------------------------------
     H   13   4.950153
     H   14   0.000126   5.488846
     H   15   0.000106   0.574998   5.477122
     H   16   0.000104   0.575028   0.578261   5.476773
     H   17   0.016938   0.002512   0.018666   0.018923   5.122667
     H   18   0.030074   0.000125   0.000070   0.000070   0.002114   5.205196
     H   19   0.004965   0.000360   0.000708   0.000710   0.003086   0.010056
     H   20   0.000993   0.000129   0.000111   0.000111   0.009503   0.007803
     H   21   0.016415   0.000075   0.000077   0.000077   0.000361   0.065989


                  H 19       H 20       H 21
 ------------------------------------------
     H   19   5.165215
     H   20   0.066339   5.220277
     H   21   0.007110   0.031541   5.226880


          HEAT OF FORMATION =      25.384811 KCALS/MOLE

          ZERO POINT ENERGY     114.098 KCAL/MOL


           NORMAL COORDINATE ANALYSIS (Total motion = 1 Angstrom)


   Root No.       1         2         3         4         5         6         7         8

                 1 A       2 A       3 A       4 A       5 A       6 A       7 A       8 A   

                  30.3      57.5     158.4     165.7     227.2     247.4     346.3     416.7
  
           1    0.0000    0.0000   -0.0004   -0.0267   -0.0001    0.0001    0.0181   -0.0001
           2   -0.0000    0.0002    0.0001    0.0090    0.0001   -0.0000   -0.0598   -0.0001
           3   -0.0090    0.0511    0.0056   -0.0002   -0.0332    0.0082    0.0001   -0.0013
           4    0.0000    0.0000   -0.0005   -0.0280   -0.0001    0.0001   -0.0072    0.0001
           5   -0.0002   -0.0001    0.0001   -0.0034   -0.0002   -0.0001    0.0284   -0.0000
           6   -0.0395   -0.0199    0.0238   -0.0003   -0.0209   -0.0113   -0.0002    0.0010
           7    0.0001   -0.0001    0.0007    0.0292   -0.0001    0.0000    0.0818    0.0000
           8    0.0001    0.0001    0.0009    0.0525    0.0001   -0.0001   -0.0208    0.0000
           9    0.0489   -0.0349    0.0109   -0.0004   -0.0048    0.0022   -0.0001   -0.0002
          10    0.0000    0.0000   -0.0003   -0.0182   -0.0001    0.0000    0.0069   -0.0000
          11   -0.0001   -0.0001   -0.0006   -0.0326    0.0001    0.0002    0.0046    0.0004
          12   -0.0313   -0.0040   -0.0123    0.0004    0.0287    0.0151    0.0002    0.0543
          13    0.0000   -0.0000   -0.0003   -0.0177   -0.0000    0.0000    0.0013   -0.0001
          14   -0.0001    0.0001   -0.0008   -0.0331    0.0002   -0.0001   -0.0134   -0.0001
          15   -0.0172    0.0339   -0.0378    0.0007    0.0415   -0.0329    0.0005   -0.0160
          16   -0.0001   -0.0000   -0.0001   -0.0051    0.0000   -0.0001   -0.0214    0.0001
          17    0.0002    0.0001    0.0004    0.0219    0.0001    0.0002    0.0200   -0.0004
          18    0.0305    0.0149    0.0121   -0.0002    0.0029    0.0430   -0.0002   -0.0476
          19    0.0000    0.0001    0.0001    0.0100    0.0000   -0.0001   -0.0257    0.0001
          20   -0.0002   -0.0002   -0.0006   -0.0357   -0.0000    0.0003    0.0112    0.0002
          21   -0.0386   -0.0304   -0.0052    0.0003    0.0170    0.0418   -0.0000    0.0142
          22   -0.0001   -0.0000    0.0003    0.0217    0.0001   -0.0000   -0.0372   -0.0000
          23    0.0003    0.0001    0.0003    0.0166   -0.0000   -0.0002    0.0227    0.0003
          24    0.0498    0.0137   -0.0018   -0.0001   -0.0059   -0.0229   -0.0002    0.0578
          25   -0.0001    0.0001    0.0005    0.0308    0.0001   -0.0000   -0.0321    0.0001
          26    0.0000   -0.0001   -0.0002   -0.0122   -0.0001   -0.0002    0.0086   -0.0002
          27    0.0013   -0.0215   -0.0051    0.0000   -0.0102   -0.0388   -0.0001   -0.0433
          28   -0.0118   -0.0012   -0.0307   -0.0490    0.0385   -0.0200    0.0127   -0.0069
          29    0.0324   -0.0597   -0.0199    0.0174    0.0494   -0.0209   -0.0565   -0.0048
          30   -0.0292    0.0941    0.0280    0.0001   -0.0785    0.0283   -0.0005    0.0035
          31    0.0118    0.0014    0.0289   -0.0502   -0.0387    0.0202    0.0122    0.0066
          32   -0.0324    0.0601    0.0204    0.0165   -0.0494    0.0208   -0.0567    0.0046
          33   -0.0291    0.0940    0.0279   -0.0014   -0.0783    0.0282    0.0005    0.0035
          34   -0.0110    0.0005   -0.0175   -0.0419    0.0217   -0.0027   -0.0120    0.0441
          35    0.0494    0.0317   -0.0306    0.0005    0.0543    0.0619    0.0305   -0.0343
          36   -0.0749   -0.0440    0.0500   -0.0007   -0.0661   -0.0580   -0.0007    0.0199
          37    0.0112   -0.0004    0.0161   -0.0423   -0.0219    0.0029   -0.0124   -0.0440
          38   -0.0504   -0.0323    0.0314   -0.0006   -0.0554   -0.0627    0.0300    0.0345
          39   -0.0741   -0.0435    0.0495   -0.0009   -0.0654   -0.0571   -0.0001    0.0194
          40    0.0001   -0.0001    0.0007    0.0153    0.0001   -0.0000    0.0644   -0.0000
          41    0.0001    0.0001    0.0022    0.1053    0.0001   -0.0002    0.0494    0.0002
          42    0.0570   -0.0213    0.1995   -0.0047    0.1026   -0.0349   -0.0003   -0.0025
          43    0.0153   -0.0050    0.1327    0.0572    0.0789   -0.0264    0.1251   -0.0009
          44   -0.0311    0.0598    0.0944    0.0421    0.0379   -0.0160   -0.0319   -0.0026
          45    0.0682   -0.0765   -0.0812    0.0017   -0.0470    0.0186    0.0003    0.0018
          46   -0.0149    0.0046   -0.1304    0.0632   -0.0792    0.0264    0.1253    0.0012
          47    0.0313   -0.0598   -0.0931    0.0465   -0.0379    0.0159   -0.0319    0.0026
          48    0.0681   -0.0764   -0.0806    0.0017   -0.0467    0.0185   -0.0005    0.0018
          49    0.0000   -0.0000   -0.0001    0.0003    0.0001   -0.0001   -0.0183   -0.0002
          50   -0.0000    0.0003   -0.0010   -0.0356    0.0004   -0.0004   -0.0089   -0.0006
          51   -0.0106    0.0573   -0.0697    0.0011    0.0775   -0.0998    0.0009   -0.1026
          52   -0.0001   -0.0001   -0.0003   -0.0132   -0.0000   -0.0001   -0.0163    0.0002
          53    0.0004    0.0003    0.0008    0.0448    0.0003    0.0007    0.0051   -0.0009
          54    0.0634    0.0391    0.0170   -0.0002    0.0194    0.1157   -0.0001   -0.1114
          55    0.0001    0.0001    0.0002    0.0154    0.0000   -0.0002   -0.0293    0.0001
          56   -0.0004   -0.0004   -0.0008   -0.0507    0.0000    0.0007    0.0218   -0.0001
          57   -0.0760   -0.0542   -0.0071    0.0004    0.0314    0.0996   -0.0001   -0.0432
          58   -0.0001    0.0001    0.0008    0.0558    0.0002   -0.0000   -0.0282    0.0002
          59    0.0000   -0.0003   -0.0003   -0.0161   -0.0002   -0.0005    0.0084   -0.0011
          60   -0.0018   -0.0397   -0.0070   -0.0000   -0.0266   -0.0808   -0.0001   -0.1891
          61   -0.0002   -0.0000    0.0006    0.0374    0.0002   -0.0000   -0.0375   -0.0003
          62    0.0007    0.0003    0.0005    0.0334    0.0001   -0.0003    0.0223    0.0010
          63    0.1011    0.0384   -0.0103    0.0000   -0.0012   -0.0303   -0.0002    0.1725


   Root No.       9        10        11        12        13        14        15        16

                 9 A      10 A      11 A      12 A      13 A      14 A      15 A      16 A   

                 436.5     545.6     580.0     594.9     748.4     759.4     805.2     864.6
  
           1    0.0546    0.0001   -0.0084   -0.0115    0.0001   -0.0001    0.0001    0.0159
           2    0.0328    0.0000    0.0121    0.0087    0.0000   -0.0000    0.0000    0.0121
           3   -0.0001   -0.0011   -0.0000    0.0000    0.0170   -0.0221    0.0151   -0.0002
           4   -0.0317   -0.0002    0.0275    0.0471   -0.0000    0.0000   -0.0001   -0.0165
           5    0.0014   -0.0001    0.0742   -0.0082   -0.0002    0.0001    0.0002    0.0143
           6   -0.0000    0.0149   -0.0005    0.0002   -0.0161    0.0073    0.0253   -0.0001
           7   -0.0003    0.0001   -0.0230   -0.0237    0.0000   -0.0000    0.0000    0.0075
           8   -0.0150   -0.0001    0.0139    0.0111   -0.0000    0.0000    0.0000    0.0061
           9    0.0001    0.0005   -0.0000    0.0000    0.0003   -0.0010    0.0027   -0.0001
          10   -0.0104   -0.0002    0.0501    0.0310   -0.0000    0.0000    0.0000    0.0252
          11   -0.0350    0.0004    0.0006   -0.0382    0.0001    0.0001   -0.0000   -0.0188
          12    0.0002    0.0637    0.0003    0.0005    0.0174    0.0218   -0.0019    0.0002
          13    0.0431   -0.0000    0.0105    0.0143   -0.0000    0.0000    0.0000    0.0116
          14    0.0234    0.0001   -0.0421   -0.0572    0.0001   -0.0000   -0.0001   -0.0621
          15   -0.0002   -0.0185    0.0001    0.0002    0.0093   -0.0092   -0.0023    0.0003
          16   -0.0236   -0.0001   -0.0432    0.0768   -0.0000    0.0001   -0.0001   -0.0481
          17    0.0250    0.0000    0.0062    0.0257   -0.0001   -0.0001    0.0000   -0.0153
          18   -0.0003    0.0058   -0.0001   -0.0001   -0.0092   -0.0143    0.0035    0.0000
          19   -0.0206    0.0001    0.0434   -0.0626    0.0000    0.0000    0.0001   -0.0177
          20   -0.0380   -0.0002   -0.0084   -0.0203   -0.0000   -0.0001   -0.0001    0.0256
          21    0.0003   -0.0349    0.0000   -0.0000   -0.0100   -0.0151   -0.0258   -0.0002
          22   -0.0140    0.0001   -0.0393   -0.0301    0.0001   -0.0000    0.0000    0.0351
          23    0.0234   -0.0001    0.0004    0.0498   -0.0002   -0.0000    0.0000   -0.0325
          24   -0.0000   -0.0160   -0.0001   -0.0004   -0.0190   -0.0115    0.0115    0.0003
          25   -0.0018    0.0000   -0.0100   -0.0313    0.0000   -0.0000    0.0001    0.0058
          26   -0.0174    0.0002   -0.0693    0.0284    0.0001   -0.0002   -0.0001    0.0657
          27   -0.0000    0.0303    0.0005   -0.0002    0.0031   -0.0090   -0.0253   -0.0004
          28    0.0758   -0.0173   -0.0248   -0.0342    0.0385   -0.0456    0.0212   -0.0096
          29    0.0250   -0.0140    0.0188    0.0174    0.0627   -0.0816    0.0536    0.0236
          30   -0.0009    0.0133   -0.0004   -0.0005   -0.0403    0.0511   -0.0304   -0.0025
          31    0.0760    0.0177   -0.0252   -0.0346   -0.0384    0.0455   -0.0212   -0.0098
          32    0.0253    0.0140    0.0183    0.0170   -0.0628    0.0816   -0.0536    0.0247
          33    0.0010    0.0133   -0.0001    0.0002   -0.0401    0.0508   -0.0303    0.0031
          34   -0.0494    0.0395    0.0363    0.0258    0.0055    0.0355    0.0117   -0.0242
          35    0.0058    0.0965    0.0786   -0.0039   -0.0579    0.0092    0.0668    0.0193
          36    0.0005   -0.0671   -0.0045   -0.0003    0.0279   -0.0057   -0.0286   -0.0012
          37   -0.0494   -0.0399    0.0361    0.0257   -0.0057   -0.0355   -0.0118   -0.0245
          38    0.0065   -0.0979    0.0782   -0.0045    0.0582   -0.0092   -0.0673    0.0194
          39   -0.0000   -0.0658    0.0031   -0.0000    0.0270   -0.0057   -0.0277    0.0009
          40    0.0177    0.0001   -0.0181   -0.0192    0.0000   -0.0000    0.0000    0.0318
          41   -0.0847   -0.0001   -0.0081   -0.0101   -0.0001    0.0001   -0.0002   -0.0932
          42    0.0002   -0.0011    0.0000    0.0000   -0.0164    0.0218   -0.0178    0.0003
          43   -0.0404   -0.0004   -0.0390   -0.0391   -0.0186    0.0259   -0.0229   -0.0532
          44   -0.0051   -0.0035    0.0181    0.0151    0.0291   -0.0402    0.0336    0.0191
          45    0.0002    0.0031   -0.0004   -0.0005   -0.0182    0.0242   -0.0181    0.0011
          46   -0.0404    0.0005   -0.0390   -0.0391    0.0185   -0.0258    0.0227   -0.0538
          47   -0.0052    0.0034    0.0180    0.0149   -0.0292    0.0402   -0.0336    0.0199
          48   -0.0001    0.0031    0.0004    0.0004   -0.0182    0.0242   -0.0181   -0.0006
          49    0.0770    0.0000    0.0050    0.0270   -0.0001    0.0001   -0.0000    0.0364
          50    0.0158   -0.0003   -0.0401   -0.0604   -0.0008    0.0005   -0.0004   -0.0685
          51   -0.0004   -0.0990   -0.0007   -0.0005   -0.1435    0.0883   -0.0577    0.0007
          52   -0.0280   -0.0000   -0.0242    0.0897   -0.0003   -0.0000    0.0001   -0.0642
          53    0.0370   -0.0002   -0.0458   -0.0121    0.0011    0.0005   -0.0008    0.0274
          54   -0.0004   -0.0548    0.0002   -0.0000    0.1548    0.0818   -0.1243   -0.0000
          55   -0.0177    0.0004    0.0249   -0.0693    0.0000   -0.0001   -0.0003   -0.0206
          56   -0.0448   -0.0012    0.0433   -0.0006   -0.0001    0.0003    0.0010    0.0335
          57    0.0004   -0.1891   -0.0009   -0.0005   -0.0277    0.0616    0.1680   -0.0002
          58    0.0324   -0.0000   -0.0151    0.0165   -0.0002   -0.0001   -0.0003   -0.0555
          59   -0.0227    0.0003   -0.0678    0.0211    0.0006    0.0006    0.0009    0.0771
          60   -0.0003    0.0361    0.0005   -0.0000    0.0881    0.1201    0.1295   -0.0007
          61    0.0029    0.0003   -0.0060   -0.0683   -0.0001   -0.0003   -0.0000    0.0248
          62    0.0413   -0.0008    0.0354    0.0081    0.0006    0.0009    0.0001   -0.0431
          63    0.0003   -0.1238   -0.0006   -0.0005    0.0933    0.1205    0.0227    0.0003


   Root No.      17        18        19        20        21        22        23        24

                17 A      18 A      19 A      20 A      21 A      22 A      23 A      24 A   

                 876.5     928.8     947.3     968.9     991.8    1012.0    1043.3    1046.9
  
           1    0.0001    0.0000   -0.0071   -0.0000    0.0006    0.0000   -0.0045    0.0001
           2    0.0000    0.0000   -0.0055    0.0000   -0.0048    0.0000   -0.0063   -0.0000
           3    0.0135   -0.0003    0.0000    0.0015    0.0000    0.0092   -0.0002    0.0360
           4   -0.0000   -0.0000    0.0250   -0.0000   -0.0094   -0.0000    0.0182    0.0002
           5    0.0001    0.0003    0.0501    0.0001   -0.0229    0.0002   -0.0334   -0.0003
           6    0.0224    0.0323   -0.0003    0.0176    0.0002    0.0242    0.0003   -0.0079
           7    0.0000   -0.0000   -0.0177   -0.0000   -0.0419   -0.0001    0.0049   -0.0000
           8    0.0000   -0.0000   -0.0047   -0.0000   -0.0073   -0.0000    0.0047    0.0001
           9    0.0096   -0.0095    0.0001   -0.0003    0.0001   -0.0069    0.0001   -0.0196
          10    0.0000   -0.0000   -0.0077   -0.0000    0.0232    0.0000    0.0082    0.0000
          11   -0.0000   -0.0002   -0.0047   -0.0000   -0.0102   -0.0001    0.0094    0.0002
          12   -0.0068   -0.0306    0.0001   -0.0017    0.0001   -0.0200   -0.0000    0.0097
          13    0.0000   -0.0000    0.0068    0.0000    0.0298    0.0000    0.0020   -0.0000
          14   -0.0002    0.0001    0.0235    0.0000   -0.0050   -0.0000    0.0008   -0.0002
          15   -0.0287    0.0231   -0.0001    0.0016   -0.0000   -0.0013    0.0003   -0.0374
          16   -0.0000    0.0000   -0.0152    0.0001   -0.0151    0.0001   -0.0439   -0.0003
          17   -0.0001   -0.0001   -0.0147   -0.0002    0.0058   -0.0003    0.0039    0.0001
          18   -0.0139   -0.0075    0.0001   -0.0344   -0.0000   -0.0394   -0.0003    0.0145
          19   -0.0000   -0.0000   -0.0469    0.0001    0.0097   -0.0000   -0.0101   -0.0001
          20    0.0001    0.0000   -0.0394   -0.0003    0.0161    0.0002   -0.0027   -0.0001
          21    0.0128    0.0097    0.0002   -0.0431   -0.0001    0.0278    0.0000   -0.0054
          22    0.0000    0.0001    0.0269   -0.0000   -0.0020   -0.0001   -0.0100   -0.0001
          23   -0.0001   -0.0002   -0.0236    0.0001    0.0052    0.0003    0.0186    0.0001
          24   -0.0151   -0.0254    0.0002    0.0161   -0.0001    0.0396   -0.0000   -0.0077
          25   -0.0000   -0.0000    0.0113   -0.0001   -0.0034    0.0001    0.0053    0.0000
          26    0.0001    0.0001    0.0185    0.0002    0.0064   -0.0002    0.0076    0.0001
          27    0.0088    0.0123   -0.0001    0.0407   -0.0000   -0.0341   -0.0001    0.0053
          28   -0.0308    0.0527    0.0162    0.0126    0.0299    0.0469   -0.0284    0.1492
          29    0.0675   -0.0314   -0.0157   -0.0010   -0.0139    0.0005   -0.0019    0.0203
          30   -0.0288    0.0095    0.0022   -0.0009    0.0007   -0.0032    0.0023   -0.0169
          31    0.0306   -0.0524    0.0168   -0.0126    0.0298   -0.0466   -0.0262   -0.1487
          32   -0.0674    0.0314   -0.0161    0.0009   -0.0139   -0.0006   -0.0017   -0.0205
          33   -0.0288    0.0096   -0.0023   -0.0009   -0.0007   -0.0031   -0.0020   -0.0165
          34    0.0203   -0.0268    0.0627    0.0518   -0.0223    0.0272    0.1581    0.0638
          35    0.0530    0.0829    0.0600    0.0284   -0.0290    0.0488   -0.0827   -0.0305
          36   -0.0221   -0.0272   -0.0121   -0.0132    0.0068   -0.0179    0.0122    0.0043
          37   -0.0204    0.0269    0.0627   -0.0520   -0.0224   -0.0274    0.1605   -0.0615
          38   -0.0534   -0.0833    0.0600   -0.0285   -0.0291   -0.0490   -0.0836    0.0295
          39   -0.0214   -0.0259    0.0113   -0.0129   -0.0064   -0.0173   -0.0107    0.0036
          40    0.0000    0.0000   -0.0456   -0.0001   -0.0966   -0.0001    0.0142    0.0001
          41   -0.0003    0.0001    0.1079    0.0002    0.2109    0.0002   -0.0340   -0.0000
          42   -0.0342    0.0255   -0.0002    0.0013   -0.0001    0.0132   -0.0002    0.0340
          43   -0.0499    0.0396    0.0496    0.0021    0.0860    0.0224   -0.0223    0.0586
          44    0.0691   -0.0538   -0.0181   -0.0025   -0.0316   -0.0302    0.0114   -0.0788
          45   -0.0325    0.0231   -0.0021    0.0012   -0.0051    0.0113    0.0002    0.0283
          46    0.0495   -0.0393    0.0500   -0.0019    0.0861   -0.0222   -0.0215   -0.0588
          47   -0.0691    0.0538   -0.0186    0.0024   -0.0316    0.0301    0.0102    0.0791
          48   -0.0325    0.0231    0.0017    0.0012    0.0049    0.0113   -0.0006    0.0284
          49    0.0001   -0.0001    0.0083    0.0000    0.0731   -0.0001   -0.0131   -0.0006
          50    0.0007   -0.0006    0.0235   -0.0001   -0.0150   -0.0000    0.0034    0.0007
          51    0.1371   -0.1094   -0.0001   -0.0312    0.0002   -0.0021   -0.0007    0.0993
          52   -0.0001    0.0000    0.0005   -0.0002   -0.0334   -0.0002   -0.0520   -0.0002
          53    0.0003   -0.0002   -0.0583    0.0010    0.0570    0.0009    0.0295   -0.0003
          54    0.0426   -0.0217    0.0004    0.1693   -0.0006    0.1391    0.0003   -0.0321
          55    0.0001    0.0001   -0.0260   -0.0004   -0.0045    0.0002   -0.0084   -0.0000
          56   -0.0003   -0.0004   -0.1017    0.0011    0.0579   -0.0006   -0.0061   -0.0003
          57   -0.0590   -0.0449    0.0005    0.1996   -0.0004   -0.0973    0.0000    0.0124
          58    0.0000    0.0001    0.0729    0.0004   -0.0400   -0.0002    0.1051    0.0011
          59   -0.0002   -0.0003    0.0080   -0.0012    0.0132    0.0007   -0.0068   -0.0002
          60   -0.0410   -0.0557    0.0003   -0.1965   -0.0002    0.1173    0.0004   -0.0135
          61   -0.0001   -0.0002    0.0271    0.0001    0.0140    0.0002    0.0907    0.0005
          62    0.0006    0.0009   -0.0259   -0.0006    0.0240   -0.0010    0.1294    0.0010
          63    0.0913    0.1444    0.0002   -0.0921    0.0000   -0.1388   -0.0010    0.0189


   Root No.      25        26        27        28        29        30        31        32

                25 A      26 A      27 A      28 A      29 A      30 A      31 A      32 A   

                1079.4    1084.2    1117.2    1131.3    1143.2    1156.0    1173.9    1219.0
  
           1   -0.0001   -0.0071    0.0216   -0.0001   -0.0040   -0.0044    0.0103   -0.0112
           2   -0.0000   -0.0036   -0.0497    0.0002   -0.0145    0.0011    0.0307   -0.0209
           3   -0.0117    0.0001   -0.0002   -0.0345   -0.0001   -0.0000   -0.0001    0.0001
           4    0.0001    0.0056   -0.0008    0.0000   -0.0062    0.0008   -0.0019   -0.0110
           5   -0.0001    0.0058   -0.0042    0.0001   -0.0058    0.0029    0.0019    0.0093
           6    0.0059   -0.0000    0.0000   -0.0003    0.0000   -0.0000   -0.0000   -0.0001
           7    0.0001    0.0059   -0.0184    0.0001    0.0000    0.0022   -0.0004    0.0001
           8   -0.0000   -0.0032    0.0532   -0.0002    0.0015   -0.0032   -0.0104    0.0156
           9    0.0054   -0.0001    0.0001    0.0475    0.0001    0.0000    0.0000   -0.0001
          10    0.0000    0.0084    0.0128   -0.0002    0.0229    0.0034   -0.0031   -0.0200
          11   -0.0002    0.0050    0.0055   -0.0000    0.0054    0.0038    0.0129   -0.0073
          12   -0.0345   -0.0001   -0.0001    0.0006   -0.0000   -0.0000   -0.0001    0.0000
          13    0.0000    0.0060    0.0050   -0.0002    0.0242    0.0038   -0.0354   -0.0054
          14    0.0001    0.0130    0.0002   -0.0001    0.0158    0.0042   -0.0289    0.0069
          15    0.0195   -0.0001    0.0001   -0.0086   -0.0001   -0.0000    0.0002   -0.0000
          16   -0.0002    0.0155    0.0007    0.0001   -0.0056   -0.0014    0.0077    0.0045
          17    0.0001    0.0063   -0.0000    0.0000   -0.0086    0.0083   -0.0063    0.0041
          18    0.0258    0.0000    0.0000    0.0001    0.0000   -0.0001    0.0001   -0.0000
          19   -0.0000   -0.0290   -0.0065    0.0000   -0.0063    0.0064   -0.0084    0.0019
          20    0.0001   -0.0102   -0.0035    0.0000    0.0000   -0.0094    0.0049    0.0025
          21    0.0104    0.0000    0.0000    0.0008   -0.0000    0.0001   -0.0000   -0.0000
          22   -0.0001    0.0413    0.0022    0.0001   -0.0036   -0.0020    0.0049    0.0104
          23    0.0001   -0.0145   -0.0027    0.0000   -0.0044   -0.0015   -0.0060    0.0008
          24   -0.0063    0.0002    0.0000   -0.0001    0.0000    0.0000    0.0000    0.0000
          25    0.0001   -0.0242   -0.0043   -0.0000    0.0047    0.0013   -0.0082    0.0006
          26    0.0001   -0.0331   -0.0024   -0.0001    0.0034   -0.0039   -0.0089   -0.0061
          27   -0.0011    0.0002    0.0000   -0.0006   -0.0000    0.0000    0.0000    0.0000
          28   -0.0413   -0.0542    0.1142    0.2112   -0.0984   -0.0298    0.1386    0.0431
          29   -0.0098    0.0116   -0.0910   -0.1515    0.0058    0.0047    0.0297   -0.0563
          30    0.0059    0.0006    0.0063    0.0201    0.0084    0.0035   -0.0282    0.0086
          31    0.0407   -0.0543    0.1139   -0.2102   -0.1002   -0.0302    0.1399    0.0429
          32    0.0098    0.0114   -0.0901    0.1523    0.0067    0.0049    0.0296   -0.0565
          33    0.0057   -0.0006   -0.0062    0.0206   -0.0081   -0.0035    0.0279   -0.0085
          34    0.2923   -0.0107   -0.0284   -0.0000   -0.0930    0.0886    0.0070    0.0561
          35   -0.0480    0.0188    0.0016   -0.0002    0.0108   -0.0105    0.0022    0.0003
          36   -0.0082   -0.0050    0.0006   -0.0000    0.0022   -0.0025   -0.0017   -0.0041
          37   -0.2916   -0.0118   -0.0287    0.0013   -0.0925    0.0880    0.0069    0.0562
          38    0.0472    0.0190    0.0016    0.0001    0.0107   -0.0104    0.0023    0.0003
          39   -0.0095    0.0047   -0.0007   -0.0000   -0.0025    0.0028    0.0017    0.0041
          40    0.0001    0.0101   -0.0117   -0.0000   -0.0009    0.0031   -0.0043    0.0110
          41   -0.0002   -0.0225    0.0237   -0.0000   -0.0025   -0.0077    0.0168   -0.0268
          42   -0.0086    0.0001   -0.0002   -0.0393   -0.0001   -0.0000   -0.0001    0.0002
          43   -0.0151   -0.0074   -0.0818   -0.0894   -0.0186    0.0010    0.0451   -0.0295
          44    0.0203   -0.0014    0.0842    0.1314    0.0086   -0.0042   -0.0266    0.0260
          45   -0.0070    0.0010   -0.0085   -0.0304   -0.0011    0.0008    0.0028   -0.0026
          46    0.0150   -0.0076   -0.0811    0.0901   -0.0181    0.0010    0.0451   -0.0296
          47   -0.0204   -0.0011    0.0833   -0.1321    0.0079   -0.0043   -0.0266    0.0263
          48   -0.0070   -0.0009    0.0083   -0.0305    0.0010   -0.0008   -0.0029    0.0027
          49    0.0005   -0.0310   -0.1319    0.0007   -0.0363    0.0137   -0.0837    0.2272
          50   -0.0005    0.0217    0.0286   -0.0002    0.0299    0.0023   -0.0193   -0.0443
          51   -0.0656   -0.0001   -0.0004    0.0074   -0.0001   -0.0000    0.0001    0.0002
          52    0.0000   -0.0396   -0.0172    0.0001   -0.0024   -0.0953   -0.0111    0.0207
          53   -0.0008    0.1722    0.0511   -0.0000   -0.0236    0.2787    0.0488   -0.0405
          54   -0.0342   -0.0013   -0.0004   -0.0001    0.0002   -0.0020   -0.0003    0.0003
          55    0.0002   -0.0809    0.0073    0.0001   -0.0421    0.0222   -0.0445   -0.0547
          56   -0.0004    0.1260   -0.0423   -0.0001    0.1031   -0.0513    0.1049    0.1596
          57   -0.0345   -0.0009    0.0002   -0.0091   -0.0007    0.0003   -0.0006   -0.0010
          58    0.0009   -0.1083   -0.0021   -0.0011    0.2275    0.0244    0.1656    0.0370
          59   -0.0000   -0.0214   -0.0032    0.0001   -0.0310   -0.0092   -0.0365   -0.0117
          60   -0.0008   -0.0001    0.0000    0.0029    0.0006    0.0001    0.0005    0.0001
          61    0.0002    0.1288    0.0004    0.0005   -0.0353   -0.2087    0.0078   -0.0226
          62    0.0005    0.0772   -0.0047    0.0005   -0.0399   -0.2218   -0.0046   -0.0360
          63    0.0060   -0.0003    0.0000    0.0001    0.0002    0.0011    0.0000    0.0002


   Root No.      33        34        35        36        37        38        39        40

                33 A      34 A      35 A      36 A      37 A      38 A      39 A      40 A   

                1236.9    1328.8    1345.2    1371.9    1398.9    1408.6    1411.8    1416.1
  
           1   -0.0147    0.0451   -0.0269   -0.0160    0.0202   -0.0000    0.0040    0.0020
           2    0.0008   -0.0110    0.0061   -0.0283    0.0134    0.0002    0.0123    0.0245
           3    0.0001   -0.0000    0.0000    0.0001   -0.0000   -0.0011   -0.0000   -0.0000
           4    0.0157   -0.0252    0.0115    0.0236    0.0376    0.0000    0.0070    0.0167
           5   -0.0008   -0.0025   -0.0339   -0.0057    0.0196   -0.0002   -0.0115   -0.0247
           6    0.0000   -0.0000    0.0003    0.0001   -0.0001    0.0000    0.0001    0.0002
           7    0.0029   -0.0038    0.0009    0.0131    0.0049    0.0003   -0.0190    0.0272
           8    0.0023   -0.0083    0.0076   -0.0174   -0.0088   -0.0000   -0.0271   -0.0238
           9   -0.0000    0.0000    0.0000   -0.0000   -0.0000   -0.0418   -0.0001    0.0001
          10    0.0028   -0.0223    0.0026   -0.0027   -0.0311    0.0001    0.0056    0.0110
          11    0.0122   -0.0066   -0.0155    0.0007   -0.0231    0.0002    0.0106    0.0230
          12   -0.0001    0.0000    0.0001   -0.0000    0.0001   -0.0001   -0.0001   -0.0001
          13   -0.0056   -0.0044    0.0078   -0.0043   -0.0144   -0.0001   -0.0078   -0.0169
          14   -0.0015   -0.0109    0.0103    0.0084    0.0032   -0.0000   -0.0028   -0.0061
          15   -0.0000    0.0001   -0.0001   -0.0000   -0.0000   -0.0002    0.0000    0.0000
          16    0.0093    0.0200   -0.0092   -0.0094    0.0020   -0.0001   -0.0085   -0.0190
          17   -0.0153   -0.0088   -0.0059   -0.0028   -0.0222    0.0001    0.0068    0.0156
          18    0.0001    0.0001    0.0000    0.0000    0.0002    0.0000   -0.0001   -0.0001
          19   -0.0015    0.0077    0.0079    0.0014    0.0146   -0.0001   -0.0052   -0.0113
          20    0.0169    0.0172   -0.0087   -0.0112   -0.0130   -0.0000   -0.0033   -0.0056
          21   -0.0001   -0.0001    0.0001    0.0001    0.0001   -0.0000    0.0000    0.0000
          22   -0.0135   -0.0075   -0.0174   -0.0087   -0.0355    0.0002    0.0085    0.0198
          23   -0.0121   -0.0074    0.0048    0.0032   -0.0055    0.0001    0.0051    0.0113
          24    0.0001    0.0000   -0.0001   -0.0000   -0.0000   -0.0000   -0.0000   -0.0000
          25   -0.0156   -0.0105    0.0178    0.0134    0.0268   -0.0000   -0.0002   -0.0019
          26    0.0005    0.0001    0.0129    0.0056    0.0211   -0.0001   -0.0050   -0.0117
          27   -0.0000   -0.0000   -0.0001   -0.0000   -0.0001    0.0000    0.0000    0.0001
          28    0.0168   -0.0709    0.0391    0.0487   -0.0261    0.0033   -0.0136   -0.0008
          29   -0.0270    0.0364   -0.0277    0.1470   -0.0618   -0.0010   -0.0441   -0.0615
          30    0.0099   -0.0034    0.0061   -0.1220    0.0559   -0.0020    0.0381    0.0534
          31    0.0167   -0.0709    0.0390    0.0491   -0.0263   -0.0031   -0.0138   -0.0009
          32   -0.0271    0.0365   -0.0277    0.1471   -0.0619    0.0004   -0.0442   -0.0616
          33   -0.0099    0.0035   -0.0061    0.1216   -0.0557   -0.0025   -0.0380   -0.0533
          34   -0.0698    0.0767    0.0113   -0.0372   -0.0404   -0.0001   -0.0124   -0.0287
          35    0.0307    0.0886    0.1508    0.0076   -0.0338    0.0002    0.0147    0.0302
          36   -0.0070   -0.0737   -0.1183    0.0005    0.0450   -0.0002   -0.0137   -0.0281
          37   -0.0695    0.0765    0.0110   -0.0371   -0.0404   -0.0001   -0.0124   -0.0287
          38    0.0308    0.0897    0.1525    0.0076   -0.0344    0.0002    0.0149    0.0307
          39    0.0065    0.0725    0.1160   -0.0007   -0.0446    0.0002    0.0135    0.0276
          40    0.0120   -0.0358    0.0227   -0.0128   -0.0141    0.0002    0.0166   -0.0300
          41   -0.0302    0.0951   -0.0623    0.0595    0.0516    0.0024   -0.0914    0.1390
          42    0.0001    0.0000   -0.0001    0.0001    0.0002    0.4218    0.0021   -0.0016
          43   -0.0004   -0.0380    0.0269   -0.0544   -0.0256   -0.2576    0.1201   -0.1067
          44   -0.0019    0.0417   -0.0321    0.0711    0.0208   -0.0190    0.1899    0.0117
          45    0.0023   -0.0232    0.0189   -0.0412   -0.0113    0.0515   -0.1658    0.0075
          46   -0.0004   -0.0379    0.0268   -0.0541   -0.0254    0.2539    0.1231   -0.1086
          47   -0.0018    0.0418   -0.0322    0.0712    0.0208    0.0159    0.1904    0.0116
          48   -0.0022    0.0233   -0.0190    0.0413    0.0114    0.0476    0.1656   -0.0076
          49    0.1560   -0.0022   -0.0417    0.0434   -0.0249    0.0000    0.0051    0.0314
          50   -0.0365   -0.0125    0.0217   -0.0018    0.0056   -0.0001   -0.0051   -0.0165
          51    0.0002    0.0000   -0.0001   -0.0000   -0.0000   -0.0021    0.0000    0.0001
          52   -0.0343    0.0107   -0.0206   -0.0182   -0.0374    0.0001    0.0004    0.0009
          53    0.1100    0.0216    0.0216    0.0195    0.0887   -0.0004   -0.0200   -0.0443
          54   -0.0008   -0.0001   -0.0002   -0.0002   -0.0007   -0.0000    0.0001    0.0003
          55    0.0561    0.0198   -0.0161   -0.0104   -0.0268   -0.0000   -0.0049   -0.0088
          56   -0.1422   -0.0147    0.0615    0.0213    0.1055   -0.0002   -0.0058   -0.0164
          57    0.0009    0.0001   -0.0004   -0.0001   -0.0007    0.0001    0.0000    0.0001
          58    0.0900    0.0483   -0.0317   -0.0283   -0.0233   -0.0001   -0.0090   -0.0169
          59   -0.0163   -0.0089    0.0225    0.0129    0.0322   -0.0001   -0.0044   -0.0112
          60    0.0003    0.0001   -0.0002   -0.0001   -0.0002    0.0000    0.0000    0.0000
          61    0.0679    0.0354   -0.0080   -0.0112    0.0125   -0.0002   -0.0139   -0.0304
          62    0.0752    0.0379    0.0180    0.0023    0.0497   -0.0003   -0.0190   -0.0429
          63   -0.0004   -0.0002   -0.0001   -0.0000   -0.0003    0.0000    0.0001    0.0002


   Root No.      41        42        43        44        45        46        47        48

                41 A      42 A      43 A      44 A      45 A      46 A      47 A      48 A   

                1439.1    1510.4    1826.2    1847.0    1882.1    2923.0    2935.5    3003.3
  
           1    0.0581    0.0093   -0.0057    0.0164   -0.0249    0.0000   -0.0001    0.0000
           2   -0.0211    0.0042    0.0001   -0.0008    0.0021    0.0000   -0.0001   -0.0000
           3   -0.0000   -0.0000    0.0000   -0.0000    0.0000    0.0005   -0.0580    0.0000
           4    0.0396   -0.0838    0.0096    0.0022    0.0229    0.0001    0.0000    0.0088
           5   -0.0209    0.0054   -0.0084   -0.0175   -0.0140   -0.0004   -0.0000    0.0390
           6    0.0002   -0.0001    0.0001    0.0001    0.0001   -0.0605   -0.0006   -0.0003
           7   -0.0290   -0.0006   -0.0003    0.0008   -0.0015   -0.0000    0.0000   -0.0000
           8    0.0315   -0.0008   -0.0002    0.0005   -0.0009   -0.0000    0.0000   -0.0000
           9    0.0000    0.0000    0.0000   -0.0000    0.0000   -0.0000    0.0026   -0.0000
          10   -0.0137    0.0702   -0.0201    0.0689   -0.1209    0.0000    0.0000    0.0009
          11    0.0285    0.0972   -0.0071   -0.0455    0.1213   -0.0000   -0.0000    0.0001
          12   -0.0002   -0.0005    0.0000    0.0003   -0.0007   -0.0001   -0.0001   -0.0000
          13   -0.0351   -0.0216    0.0254   -0.0791    0.1302   -0.0000   -0.0000   -0.0001
          14   -0.0079   -0.0089   -0.0183    0.0465   -0.0788   -0.0000   -0.0000   -0.0004
          15    0.0001    0.0000    0.0001   -0.0003    0.0004   -0.0001   -0.0001    0.0000
          16   -0.0211    0.0373    0.0103    0.0037    0.0039    0.0000   -0.0000   -0.0043
          17    0.0094   -0.0393    0.0985    0.1325    0.0763    0.0000   -0.0000   -0.0009
          18   -0.0001    0.0003   -0.0007   -0.0009   -0.0005   -0.0001    0.0000   -0.0000
          19   -0.0087   -0.0218   -0.1202    0.0429    0.0398   -0.0000    0.0000    0.0005
          20   -0.0126   -0.0793    0.1314   -0.0474   -0.0671   -0.0000    0.0000    0.0001
          21    0.0001    0.0004   -0.0010    0.0004    0.0005   -0.0002    0.0000    0.0000
          22    0.0098   -0.0554   -0.0685   -0.0356   -0.0196   -0.0000   -0.0000   -0.0002
          23    0.0118   -0.0076   -0.0977   -0.1226   -0.0686   -0.0000    0.0000   -0.0003
          24   -0.0001   -0.0000    0.0005    0.0008    0.0004   -0.0003    0.0000    0.0000
          25    0.0093    0.0670    0.1722   -0.0458   -0.0357    0.0000   -0.0000    0.0002
          26   -0.0084    0.0184   -0.0821    0.0496    0.0313    0.0000    0.0000   -0.0001
          27    0.0001   -0.0000    0.0008   -0.0004   -0.0003    0.0001   -0.0000    0.0000
          28   -0.0578   -0.0066    0.0044   -0.0091    0.0137   -0.0008    0.0918   -0.0000
          29    0.0428   -0.0054   -0.0026    0.0068   -0.0109   -0.0022    0.2566   -0.0000
          30   -0.0143    0.0091   -0.0008   -0.0006    0.0027   -0.0031    0.3496    0.0000
          31   -0.0578   -0.0067    0.0045   -0.0093    0.0139    0.0008   -0.0910   -0.0000
          32    0.0428   -0.0054   -0.0026    0.0068   -0.0109    0.0022   -0.2559   -0.0000
          33    0.0144   -0.0091    0.0008    0.0005   -0.0027   -0.0031    0.3501   -0.0000
          34   -0.0526    0.0272    0.0113    0.0173   -0.0158    0.0632    0.0004   -0.0539
          35    0.0225   -0.0086   -0.0084   -0.0144    0.0010    0.2801    0.0021   -0.2367
          36   -0.0141   -0.0055    0.0028   -0.0001   -0.0042    0.3639    0.0029   -0.3686
          37   -0.0524    0.0273    0.0112    0.0172   -0.0157   -0.0638   -0.0004   -0.0544
          38    0.0227   -0.0085   -0.0084   -0.0143    0.0011   -0.2748   -0.0021   -0.2310
          39    0.0137    0.0057   -0.0027    0.0003    0.0042    0.3682    0.0029    0.3718
          40    0.0024   -0.0039   -0.0005    0.0014   -0.0028    0.0000    0.0000   -0.0001
          41   -0.0591    0.0093   -0.0005    0.0017   -0.0020    0.0000    0.0000   -0.0000
          42    0.0001   -0.0001    0.0000   -0.0000    0.0000    0.0000    0.0003    0.0000
          43    0.0637   -0.0028   -0.0003    0.0008   -0.0012    0.0000   -0.0062   -0.0000
          44   -0.0628   -0.0024    0.0002   -0.0004    0.0004    0.0001   -0.0090    0.0000
          45    0.0387    0.0014   -0.0003    0.0009   -0.0014    0.0001   -0.0175    0.0000
          46    0.0636   -0.0029   -0.0003    0.0008   -0.0012   -0.0000    0.0062   -0.0000
          47   -0.0628   -0.0024    0.0002   -0.0005    0.0004   -0.0001    0.0090    0.0000
          48   -0.0388   -0.0014    0.0003   -0.0009    0.0014    0.0001   -0.0175   -0.0000
          49    0.0745    0.1002   -0.0172    0.0373   -0.0521   -0.0000    0.0000    0.0032
          50   -0.0323   -0.0333   -0.0163    0.0346   -0.0622    0.0000    0.0001    0.0070
          51    0.0001    0.0002    0.0001   -0.0002    0.0004   -0.0001   -0.0024   -0.0000
          52   -0.0135    0.0091    0.0572    0.0761    0.0481   -0.0000    0.0000    0.0444
          53   -0.0161    0.0372    0.0116   -0.0127   -0.0065   -0.0000   -0.0000    0.0190
          54    0.0001   -0.0002    0.0000    0.0002    0.0001   -0.0016   -0.0001   -0.0001
          55   -0.0195   -0.0614   -0.0801    0.0316    0.0035    0.0000   -0.0001   -0.0092
          56    0.0119    0.0252   -0.0587    0.0210    0.0528   -0.0000   -0.0000   -0.0036
          57   -0.0001   -0.0002    0.0002   -0.0001   -0.0003   -0.0003   -0.0009    0.0000
          58   -0.0289   -0.1031   -0.0340    0.0538    0.0292    0.0000    0.0000    0.0003
          59   -0.0038    0.0468   -0.0765    0.0455    0.0274    0.0000    0.0000    0.0014
          60   -0.0000   -0.0005    0.0004   -0.0002   -0.0001    0.0000   -0.0001   -0.0000
          61   -0.0313    0.0156    0.0122    0.0878    0.0506    0.0000   -0.0000    0.0020
          62   -0.0312    0.0737   -0.0335   -0.0194   -0.0101   -0.0000    0.0000   -0.0026
          63    0.0002   -0.0005    0.0002    0.0003    0.0002   -0.0007   -0.0000    0.0000


   Root No.      49        50        51        52        53        54        55        56

                49 A      50 A      51 A      52 A      53 A      54 A      55 A      56 A   

                3014.7    3028.4    3040.1    3051.1    3064.1    3075.9    3081.4    3085.3
  
           1    0.0110   -0.0032    0.0011   -0.0001    0.0001   -0.0001    0.0000   -0.0008
           2    0.0308   -0.0098    0.0028   -0.0002    0.0004   -0.0002    0.0000   -0.0021
           3   -0.0000    0.0000   -0.0000    0.0000   -0.0000    0.0000   -0.0026   -0.0000
           4    0.0001    0.0004    0.0003   -0.0006   -0.0002   -0.0003    0.0000   -0.0000
           5   -0.0002   -0.0008    0.0008   -0.0021   -0.0010   -0.0016    0.0000   -0.0000
           6    0.0000    0.0000   -0.0000    0.0000    0.0000    0.0000   -0.0000    0.0000
           7   -0.0025    0.0011   -0.0004    0.0000   -0.0001    0.0002    0.0004   -0.0387
           8   -0.0012    0.0008   -0.0002    0.0000   -0.0001    0.0001    0.0003   -0.0290
           9    0.0000    0.0000    0.0000   -0.0000    0.0000   -0.0000   -0.0552   -0.0004
          10   -0.0007   -0.0032   -0.0002    0.0004   -0.0002    0.0004    0.0000   -0.0001
          11    0.0007    0.0022    0.0005   -0.0003    0.0004   -0.0005   -0.0000    0.0001
          12   -0.0000   -0.0000   -0.0000    0.0000   -0.0000    0.0000   -0.0000   -0.0000
          13   -0.0009   -0.0087   -0.0002   -0.0000    0.0001   -0.0001   -0.0000    0.0003
          14   -0.0105   -0.0556   -0.0019    0.0003   -0.0003    0.0002    0.0000   -0.0009
          15    0.0001    0.0003    0.0000   -0.0000    0.0000   -0.0000   -0.0000    0.0000
          16    0.0000    0.0000   -0.0014   -0.0348   -0.0158   -0.0169    0.0000   -0.0000
          17    0.0000    0.0001   -0.0006   -0.0130   -0.0077   -0.0094    0.0000   -0.0000
          18   -0.0000   -0.0000    0.0000    0.0000    0.0000    0.0000   -0.0000    0.0000
          19    0.0036    0.0002   -0.0452    0.0046   -0.0142    0.0090   -0.0000    0.0002
          20    0.0011    0.0009   -0.0146    0.0013   -0.0022    0.0012   -0.0000    0.0001
          21    0.0000   -0.0000   -0.0000    0.0000   -0.0000    0.0000    0.0000   -0.0000
          22   -0.0000   -0.0000    0.0021    0.0198   -0.0102   -0.0214    0.0000   -0.0001
          23   -0.0000   -0.0001   -0.0019   -0.0172    0.0128    0.0232   -0.0000    0.0001
          24    0.0000    0.0000    0.0000    0.0001   -0.0001   -0.0002    0.0000   -0.0000
          25   -0.0003    0.0002    0.0047    0.0003   -0.0023    0.0024   -0.0000    0.0000
          26   -0.0006   -0.0003    0.0175    0.0055   -0.0319    0.0225   -0.0000    0.0001
          27    0.0000    0.0000   -0.0001   -0.0000    0.0002   -0.0001    0.0000   -0.0000
          28   -0.0665    0.0226   -0.0061    0.0004   -0.0008    0.0004    0.0020    0.0024
          29   -0.1869    0.0574   -0.0171    0.0012   -0.0023    0.0010    0.0138    0.0132
          30   -0.3036    0.0940   -0.0280    0.0020   -0.0038    0.0017    0.0141    0.0198
          31   -0.0659    0.0225   -0.0061    0.0004   -0.0008    0.0004   -0.0020    0.0023
          32   -0.1864    0.0574   -0.0171    0.0012   -0.0023    0.0010   -0.0141    0.0130
          33    0.3042   -0.0944    0.0282   -0.0020    0.0039   -0.0017    0.0146   -0.0196
          34    0.0003    0.0015   -0.0007    0.0008    0.0004    0.0007   -0.0000    0.0000
          35    0.0007    0.0027   -0.0028    0.0139    0.0061    0.0074    0.0000    0.0001
          36    0.0012    0.0047   -0.0044    0.0201    0.0088    0.0109    0.0000    0.0001
          37    0.0003    0.0015   -0.0007    0.0008    0.0005    0.0007    0.0000    0.0000
          38    0.0007    0.0026   -0.0027    0.0135    0.0060    0.0072   -0.0000    0.0001
          39   -0.0013   -0.0048    0.0045   -0.0203   -0.0089   -0.0110    0.0000   -0.0001
          40    0.0228   -0.0171    0.0034   -0.0003    0.0012   -0.0016   -0.0048    0.4190
          41    0.0097   -0.0055    0.0013   -0.0001    0.0004   -0.0005   -0.0013    0.1145
          42   -0.0000    0.0000   -0.0000    0.0000   -0.0000    0.0000   -0.0287   -0.0010
          43    0.0012   -0.0014    0.0002   -0.0000    0.0001   -0.0001    0.0796    0.0220
          44    0.0052   -0.0028    0.0008   -0.0001    0.0003   -0.0004    0.2536    0.1189
          45    0.0090   -0.0047    0.0013   -0.0001    0.0005   -0.0007    0.3419    0.1959
          46    0.0012   -0.0014    0.0002   -0.0000    0.0001   -0.0001   -0.0792    0.0200
          47    0.0053   -0.0027    0.0008   -0.0001    0.0003   -0.0005   -0.2558    0.1140
          48   -0.0091    0.0046   -0.0014    0.0001   -0.0005    0.0008    0.3474   -0.1900
          49    0.0234    0.1379    0.0038   -0.0005    0.0004   -0.0002   -0.0000    0.0032
          50    0.1190    0.6351    0.0175   -0.0019    0.0021   -0.0006    0.0000    0.0070
          51   -0.0007   -0.0036   -0.0001    0.0000   -0.0000    0.0000   -0.0008   -0.0001
          52   -0.0003    0.0000    0.0162    0.4135    0.1850    0.1895   -0.0000    0.0005
          53   -0.0001   -0.0000    0.0055    0.1416    0.0654    0.0677   -0.0000    0.0002
          54    0.0000    0.0000   -0.0000   -0.0004   -0.0002   -0.0002   -0.0000   -0.0000
          55   -0.0402   -0.0076    0.5157   -0.0516    0.1406   -0.0823    0.0001   -0.0021
          56   -0.0162   -0.0015    0.1861   -0.0180    0.0481   -0.0281    0.0000   -0.0006
          57    0.0000   -0.0000   -0.0001    0.0000   -0.0000    0.0000   -0.0000   -0.0000
          58    0.0016    0.0003   -0.0376   -0.0070    0.0531   -0.0397    0.0000   -0.0002
          59    0.0085    0.0017   -0.2222   -0.0589    0.3538   -0.2448    0.0000   -0.0015
          60   -0.0000   -0.0000    0.0013    0.0004   -0.0021    0.0014   -0.0000    0.0000
          61   -0.0003   -0.0006   -0.0214   -0.2324    0.1291    0.2518   -0.0000    0.0007
          62    0.0002    0.0005    0.0217    0.2142   -0.1249   -0.2345    0.0000   -0.0007
          63   -0.0000   -0.0000   -0.0002   -0.0018    0.0011    0.0020   -0.0000    0.0000


   Root No.      57

                57 A   

                3183.2
  
           1   -0.0004
           2    0.0002
           3    0.0000
           4    0.0000
           5   -0.0000
           6    0.0000
           7   -0.0153
           8    0.0193
           9    0.0000
          10   -0.0000
          11    0.0000
          12   -0.0000
          13    0.0001
          14   -0.0002
          15    0.0000
          16    0.0000
          17    0.0000
          18    0.0000
          19    0.0000
          20    0.0000
          21   -0.0000
          22    0.0000
          23   -0.0000
          24    0.0000
          25   -0.0000
          26   -0.0000
          27    0.0000
          28   -0.0001
          29    0.0020
          30    0.0020
          31   -0.0001
          32    0.0020
          33   -0.0020
          34    0.0000
          35   -0.0000
          36   -0.0000
          37    0.0000
          38   -0.0000
          39    0.0000
          40    0.3125
          41    0.1029
          42   -0.0005
          43   -0.0629
          44   -0.1703
          45   -0.2618
          46   -0.0621
          47   -0.1696
          48    0.2621
          49   -0.0003
          50    0.0026
          51   -0.0000
          52   -0.0000
          53   -0.0000
          54    0.0000
          55   -0.0001
          56   -0.0000
          57   -0.0000
          58    0.0000
          59    0.0001
          60   -0.0000
          61   -0.0000
          62    0.0000
          63   -0.0000


           MASS-WEIGHTED COORDINATE ANALYSIS (NORMAL COORDINATES)


   Root No.       1         2         3         4         5         6         7         8

                 1 A       2 A       3 A       4 A       5 A       6 A       7 A       8 A   

                  30.3      57.5     158.4     165.7     227.2     247.4     346.3     416.7
  
           1    0.0002    0.0001   -0.0039   -0.2150   -0.0008    0.0006    0.1239   -0.0010
           2   -0.0001    0.0014    0.0005    0.0723    0.0006   -0.0004   -0.4101   -0.0008
           3   -0.0740    0.4606    0.0497   -0.0016   -0.3196    0.0735    0.0010   -0.0093
           4    0.0003    0.0001   -0.0042   -0.2257   -0.0005    0.0005   -0.0495    0.0004
           5   -0.0020   -0.0013    0.0012   -0.0271   -0.0021   -0.0007    0.1945   -0.0002
           6   -0.3236   -0.1794    0.2105   -0.0026   -0.2016   -0.1016   -0.0014    0.0072
           7    0.0012   -0.0011    0.0059    0.2352   -0.0009    0.0001    0.5608    0.0001
           8    0.0006    0.0005    0.0081    0.4228    0.0005   -0.0008   -0.1423    0.0002
           9    0.4013   -0.3151    0.0965   -0.0029   -0.0466    0.0199   -0.0007   -0.0015
          10    0.0002    0.0001   -0.0027   -0.1470   -0.0006    0.0002    0.0475   -0.0002
          11   -0.0012   -0.0005   -0.0050   -0.2627    0.0005    0.0017    0.0316    0.0031
          12   -0.2570   -0.0363   -0.1086    0.0030    0.2767    0.1361    0.0016    0.3934
          13    0.0002   -0.0001   -0.0029   -0.1430   -0.0001    0.0001    0.0088   -0.0010
          14   -0.0005    0.0011   -0.0067   -0.2666    0.0019   -0.0007   -0.0918   -0.0006
          15   -0.1414    0.3060   -0.3345    0.0056    0.3998   -0.2958    0.0034   -0.1158
          16   -0.0006   -0.0001   -0.0011   -0.0408    0.0001   -0.0005   -0.1468    0.0009
          17    0.0017    0.0010    0.0038    0.1767    0.0005    0.0022    0.1370   -0.0030
          18    0.2498    0.1339    0.1074   -0.0014    0.0281    0.3869   -0.0012   -0.3445
          19    0.0000    0.0005    0.0012    0.0805    0.0003   -0.0007   -0.1761    0.0004
          20   -0.0015   -0.0019   -0.0051   -0.2881   -0.0002    0.0031    0.0766    0.0015
          21   -0.3169   -0.2744   -0.0463    0.0021    0.1634    0.3757   -0.0001    0.1029
          22   -0.0012   -0.0000    0.0027    0.1746    0.0011   -0.0001   -0.2551   -0.0003
          23    0.0028    0.0009    0.0022    0.1339   -0.0002   -0.0017    0.1558    0.0022
          24    0.4084    0.1233   -0.0161   -0.0005   -0.0565   -0.2059   -0.0014    0.4186
          25   -0.0006    0.0005    0.0040    0.2486    0.0014   -0.0001   -0.2201    0.0006
          26    0.0004   -0.0013   -0.0019   -0.0987   -0.0012   -0.0019    0.0591   -0.0016
          27    0.0108   -0.1940   -0.0448    0.0002   -0.0987   -0.3495   -0.0005   -0.3133
          28   -0.0281   -0.0032   -0.0787   -0.1143    0.1076   -0.0521    0.0252   -0.0146
          29    0.0769   -0.1560   -0.0511    0.0405    0.1379   -0.0544   -0.1121   -0.0100
          30   -0.0693    0.2457    0.0718    0.0002   -0.2192    0.0738   -0.0009    0.0074
          31    0.0280    0.0036    0.0743   -0.1171   -0.1081    0.0526    0.0242    0.0138
          32   -0.0771    0.1571    0.0523    0.0385   -0.1379    0.0543   -0.1125    0.0097
          33   -0.0692    0.2455    0.0715   -0.0032   -0.2188    0.0736    0.0010    0.0074
          34   -0.0262    0.0012   -0.0450   -0.0978    0.0607   -0.0069   -0.0239    0.0924
[...]
 EFFECTIVE MASS      2.1475
 FORCE CONSTANT      0.4414

 VIBRATION         40   40A           ATOM PAIR      ENERGY CONTRIBUTION    RADIAL
 FREQUENCY          1416.13         C  3 -- H 14         +11.5% ( 43.6%)      6.1%
 TRANSITION DIPOLE   0.0785         C  3 -- H 16          +9.0% ( 38.5%)      1.6%
 TRAVEL (Ang.)       0.3243         C  3 -- H 15          +8.8% ( 38.2%)      1.6%
 REDUCED MASS        0.4528         C  2 -- C  6          +8.3% ( 37.2%)     99.5%
 EFFECTIVE MASS      6.0205
 FORCE CONSTANT      0.5350

 VIBRATION         41   41A           ATOM PAIR      ENERGY CONTRIBUTION    RADIAL
 FREQUENCY          1439.09         C  1 -- C  3         +13.3% ( 54.7%)     85.1%
 TRANSITION DIPOLE   0.1006         C  1 -- C  5         +13.1% ( 54.3%)     85.7%
 TRAVEL (Ang.)       0.1909         C  1 -- H 11          +8.5% ( 43.8%)      0.0%
 REDUCED MASS        1.2863         C  1 -- H 10          +8.5% ( 43.8%)      0.0%
 EFFECTIVE MASS      8.7138
 FORCE CONSTANT      1.5695

 VIBRATION         42   42A           ATOM PAIR      ENERGY CONTRIBUTION    RADIAL
 FREQUENCY          1510.42         C  4 -- C  7         +20.0% ( 67.5%)     88.8%
 TRANSITION DIPOLE   0.0269         C  2 -- C  4         +17.5% ( 63.0%)     96.6%
 TRAVEL (Ang.)       0.1409         C  4 -- C  5         +10.0% ( 47.8%)      0.0%
 REDUCED MASS        2.2481         C  8 -- C  9          +8.4% ( 43.8%)     98.5%
 EFFECTIVE MASS     11.2242
 FORCE CONSTANT      3.0218

 VIBRATION         43   43A           ATOM PAIR      ENERGY CONTRIBUTION    RADIAL
 FREQUENCY          1826.19         C  7 -- C  9         +32.2% ( 84.8%)     99.6%
 TRANSITION DIPOLE   0.3169         C  8 -- C  9         +16.4% ( 60.5%)     93.0%
 TRAVEL (Ang.)       0.1034         C  6 -- C  8         +11.1% ( 49.8%)     96.8%
 REDUCED MASS        3.4514         C  9 -- H 20         +10.3% ( 48.0%)      2.7%
 EFFECTIVE MASS     11.9581
 FORCE CONSTANT      6.7817

 VIBRATION         44   44A           ATOM PAIR      ENERGY CONTRIBUTION    RADIAL
 FREQUENCY          1847.02         C  6 -- C  8         +26.4% ( 75.6%)     99.7%
 TRANSITION DIPOLE   0.4896         C  4 -- C  5         +11.8% ( 50.5%)     97.6%
 TRAVEL (Ang.)       0.1232         C  8 -- C  9          +9.8% ( 46.1%)      7.3%
 REDUCED MASS        2.4043         C  2 -- C  6          +8.8% ( 43.6%)     48.0%
 EFFECTIVE MASS     11.8121
 FORCE CONSTANT      4.8326

 VIBRATION         45   45A           ATOM PAIR      ENERGY CONTRIBUTION    RADIAL
 FREQUENCY          1882.08         C  4 -- C  5         +31.5% ( 83.0%)     99.8%
 TRANSITION DIPOLE   0.3050         C  4 -- C  7         +14.9% ( 57.0%)     44.1%
 TRAVEL (Ang.)       0.1052         C  2 -- C  4         +11.6% ( 50.3%)     20.0%
 REDUCED MASS        3.2404         C  1 -- C  5          +9.3% ( 45.0%)     55.8%
 EFFECTIVE MASS     11.8719
 FORCE CONSTANT      6.7627

 VIBRATION         46   46A           ATOM PAIR      ENERGY CONTRIBUTION    RADIAL
 FREQUENCY          2922.99         C  2 -- H 13         +48.9% ( 72.6%)     96.5%
 TRANSITION DIPOLE   0.0505         C  2 -- H 12         +48.9% ( 72.6%)     96.5%
 TRAVEL (Ang.)       0.2112         C  2 -- C  4          +1.1% ( 10.8%)      0.0%
 REDUCED MASS        0.5174         C  2 -- C  6          +1.1% ( 10.8%)      0.0%
 EFFECTIVE MASS      1.5339
 FORCE CONSTANT      2.6043

 VIBRATION         47   47A           ATOM PAIR      ENERGY CONTRIBUTION    RADIAL
 FREQUENCY          2935.53         C  1 -- H 10         +48.8% ( 72.5%)     96.5%
 TRANSITION DIPOLE   0.0175         C  1 -- H 11         +48.8% ( 72.5%)     96.5%
 TRAVEL (Ang.)       0.2111         C  1 -- C  3          +1.1% ( 11.0%)      0.0%
 REDUCED MASS        0.5155         C  1 -- C  5          +1.1% ( 10.9%)      0.0%
 EFFECTIVE MASS      1.5382
 FORCE CONSTANT      2.6172

 VIBRATION         48   48A           ATOM PAIR      ENERGY CONTRIBUTION    RADIAL
 FREQUENCY          3003.27         C  2 -- H 12         +49.0% ( 69.0%)     97.8%
 TRANSITION DIPOLE   0.1055         C  2 -- H 13         +49.0% ( 68.9%)     97.8%
 TRAVEL (Ang.)       0.2168         C  6 -- H 18          +0.7% (  8.0%)    100.0%
 REDUCED MASS        0.4777         C  2 -- C  6          +0.7% (  8.0%)     19.5%
 EFFECTIVE MASS      1.2775
 FORCE CONSTANT      2.5387

 VIBRATION         49   49A           ATOM PAIR      ENERGY CONTRIBUTION    RADIAL
 FREQUENCY          3014.66         C  1 -- H 11         +45.9% ( 67.0%)     97.8%
 TRANSITION DIPOLE   0.1133         C  1 -- H 10         +45.9% ( 66.9%)     97.8%
 TRAVEL (Ang.)       0.2291         C  5 -- H 17          +5.6% ( 23.4%)     99.8%
 REDUCED MASS        0.4262         C  1 -- C  5          +0.8% (  8.6%)     25.2%
 EFFECTIVE MASS      1.2953
 FORCE CONSTANT      2.2821

 VIBRATION         50   50A           ATOM PAIR      ENERGY CONTRIBUTION    RADIAL
 FREQUENCY          3028.39         C  5 -- H 17         +92.2% ( 97.1%)    100.0%
 TRANSITION DIPOLE   0.3321         C  1 -- H 11          +2.5% ( 16.1%)     97.7%
 TRAVEL (Ang.)       0.1638         C  1 -- H 10          +2.5% ( 16.1%)     97.7%
 REDUCED MASS        0.8301         C  4 -- C  5          +1.3% ( 11.7%)     33.5%
 EFFECTIVE MASS      1.4864
 FORCE CONSTANT      4.4853

 VIBRATION         51   51A           ATOM PAIR      ENERGY CONTRIBUTION    RADIAL
 FREQUENCY          3040.06         C  7 -- H 19         +82.4% ( 92.2%)    100.0%
 TRANSITION DIPOLE   0.3016         C  9 -- H 20         +13.9% ( 37.9%)     99.9%
 TRAVEL (Ang.)       0.1797         C  7 -- C  9          +1.3% ( 11.4%)      8.9%
 REDUCED MASS        0.6870         C  4 -- C  7          +1.2% ( 11.1%)     19.9%
 EFFECTIVE MASS      1.4866
 FORCE CONSTANT      3.7411

 VIBRATION         52   52A           ATOM PAIR      ENERGY CONTRIBUTION    RADIAL
 FREQUENCY          3051.15         C  6 -- H 18         +62.4% ( 80.2%)    100.0%
 TRANSITION DIPOLE   0.2492         C  8 -- H 21         +32.6% ( 58.0%)    100.0%
 TRAVEL (Ang.)       0.2134         C  9 -- H 20          +1.2% ( 11.0%)     99.7%
 REDUCED MASS        0.4852         C  6 -- C  8          +1.1% ( 10.7%)      1.6%
 EFFECTIVE MASS      1.4672
 FORCE CONSTANT      2.6613

 VIBRATION         53   53A           ATOM PAIR      ENERGY CONTRIBUTION    RADIAL
 FREQUENCY          3064.12         C  9 -- H 20         +55.9% ( 76.0%)    100.0%
 TRANSITION DIPOLE   0.3407         C  6 -- H 18         +16.7% ( 41.6%)     99.9%
 TRAVEL (Ang.)       0.2445         C  8 -- H 21         +14.2% ( 38.2%)     99.8%
 REDUCED MASS        0.3683         C  7 -- H 19          +9.6% ( 31.5%)     99.7%
 EFFECTIVE MASS      1.5613
 FORCE CONSTANT      2.0371

 VIBRATION         54   54A           ATOM PAIR      ENERGY CONTRIBUTION    RADIAL
 FREQUENCY          3075.90         C  8 -- H 21         +50.0% ( 71.7%)    100.0%
 TRANSITION DIPOLE   0.4048         C  9 -- H 20         +25.9% ( 51.6%)    100.0%
 TRAVEL (Ang.)       0.2511         C  6 -- H 18         +17.1% ( 42.0%)     99.8%
 REDUCED MASS        0.3478         C  7 -- H 19          +3.2% ( 18.2%)     99.6%
 EFFECTIVE MASS      1.5988
 FORCE CONSTANT      1.9388

 VIBRATION         55   55A           ATOM PAIR      ENERGY CONTRIBUTION    RADIAL
 FREQUENCY          3081.40         C  3 -- H 16         +49.5% ( 72.6%)     97.1%
 TRANSITION DIPOLE   0.0003         C  3 -- H 15         +48.3% ( 71.7%)     96.9%
 TRAVEL (Ang.)       0.2078         C  1 -- C  3          +1.0% ( 10.2%)      0.0%
 REDUCED MASS        0.5070         C  3 -- H 14          +0.9% ( 10.0%)      0.2%
 EFFECTIVE MASS      1.5011
 FORCE CONSTANT      2.8360

 VIBRATION         56   56A           ATOM PAIR      ENERGY CONTRIBUTION    RADIAL
 FREQUENCY          3085.35         C  3 -- H 14         +63.4% ( 82.1%)     98.8%
 TRANSITION DIPOLE   0.0192         C  3 -- H 15         +18.2% ( 44.0%)     85.8%
 TRAVEL (Ang.)       0.2107         C  3 -- H 16         +17.1% ( 42.6%)     84.7%
 REDUCED MASS        0.4924         C  1 -- C  3          +1.0% ( 10.4%)      0.0%
 EFFECTIVE MASS      1.5048
 FORCE CONSTANT      2.7615

 VIBRATION         57   57A           ATOM PAIR      ENERGY CONTRIBUTION    RADIAL
 FREQUENCY          3183.17         C  3 -- H 14         +34.9% ( 56.8%)     97.4%
 TRANSITION DIPOLE   0.0287         C  3 -- H 15         +32.5% ( 54.8%)     97.0%
 TRAVEL (Ang.)       0.2544         C  3 -- H 16         +32.4% ( 54.8%)     97.0%
 REDUCED MASS        0.3273         C  1 -- C  3          +0.3% (  5.1%)     99.9%
 EFFECTIVE MASS      1.1363
 FORCE CONSTANT      1.9541

      SYMMETRY NUMBER FOR POINT-GROUP C1  =  1


          SYSTEM IS A GROUND STATE



 InChI=1S/C9H12/c1-2-6-9-7-4-3-5-8-9/h3-7H,2,8H2,1H3


          MOLECULE IS NOT LINEAR

          THERE ARE 57 GENUINE VIBRATIONS IN THIS SYSTEM
          THIS THERMODYNAMICS CALCULATION IS LIMITED TO
          MOLECULES WHICH HAVE NO INTERNAL ROTATIONS




                    CALCULATED THERMODYNAMIC PROPERTIES
                                          *
   TEMP. (K)   PARTITION FUNCTION   H.O.F.    ENTHALPY  HEAT CAPACITY ENTROPY
                                   KCAL/MOL   CAL/MOLE    CAL/K/MOL  CAL/K/MOL


 298.00  VIB.     0.5383D+03                  3964.4077    28.0768    25.7999
         ROT.     0.5132D+06                   888.2803     2.9808    29.1094
         INT.     0.2763D+09                  4852.6880    31.0577    54.9093
         TRA.     0.1274D+28                  1480.4672     4.9680    40.2640
         TOT.                       25.385    6333.1552    36.0257    95.1733

 200.00  VIB.     0.6137D+02                  1748.5321    17.4601    16.9237
         ROT.     0.2822D+06                   596.1613     2.9808    27.9208
         INT.     0.1732D+08                  2344.6934    20.4409    44.8445
         TRA.     0.7004D+27                   993.6021     4.9680    38.2829
         TOT.                       22.390    3338.2955    25.4089    83.1274

 210.00  VIB.     0.7646D+02                  1928.0211    18.4425    17.7992
         ROT.     0.3036D+06                   625.9693     2.9808    28.0662
         INT.     0.2321D+08                  2553.9905    21.4233    45.8654
         TRA.     0.7536D+27                  1043.2822     4.9680    38.5253
         TOT.                       22.649    3597.2727    26.3913    84.3907

 220.00  VIB.     0.9529D+02                  2117.4770    19.4533    18.6804
         ROT.     0.3255D+06                   655.7774     2.9808    28.2049
         INT.     0.3102D+08                  2773.2544    22.4341    46.8853
         TRA.     0.8081D+27                  1092.9623     4.9680    38.7564
         TOT.                       22.918    3866.2168    27.4022    85.6417

 230.00  VIB.     0.1188D+03                  2317.1786    20.4913    19.5679
         ROT.     0.3480D+06                   685.5855     2.9808    28.3374
         INT.     0.4133D+08                  3002.7640    23.4722    47.9053
         TRA.     0.8638D+27                  1142.6424     4.9680    38.9773
         TOT.                       23.197    4145.4065    28.4402    86.8826

 240.00  VIB.     0.1481D+03                  2527.3881    21.5546    20.4624
         ROT.     0.3709D+06                   715.3935     2.9808    28.4642
         INT.     0.5493D+08                  3242.7816    24.5354    48.9266
         TRA.     0.9207D+27                  1192.3226     4.9680    39.1887
         TOT.                       23.487    4435.1041    29.5034    88.1153

 250.00  VIB.     0.1847D+03                  2748.3458    22.6405    21.3643
         ROT.     0.3943D+06                   745.2016     2.9808    28.5859
         INT.     0.7284D+08                  3493.5474    25.6214    49.9502
         TRA.     0.9789D+27                  1242.0027     4.9680    39.3915
         TOT.                       23.787    4735.5500    30.5894    89.3417

 260.00  VIB.     0.2305D+03                  2980.2656    23.7465    22.2737
         ROT.     0.4182D+06                   775.0097     2.9808    28.7028
         INT.     0.9642D+08                  3755.2752    26.7273    50.9765
         TRA.     0.1038D+28                  1291.6828     4.9680    39.5863
         TOT.                       24.099    5046.9580    31.6953    90.5629

 270.00  VIB.     0.2879D+03                  3223.3322    24.8694    23.1909
         ROT.     0.4426D+06                   804.8177     2.9808    28.8153
         INT.     0.1274D+09                  4028.1499    27.8502    52.0062
         TRA.     0.1099D+28                  1341.3629     4.9680    39.7738
         TOT.                       24.421    5369.5128    32.8182    91.7801

 280.00  VIB.     0.3598D+03                  3477.6994    26.0061    24.1159
         ROT.     0.4674D+06                   834.6258     2.9808    28.9237
         INT.     0.1682D+09                  4312.3252    28.9869    53.0396
         TRA.     0.1160D+28                  1391.0430     4.9680    39.9545
         TOT.                       24.755    5703.3682    33.9549    92.9941

 290.00  VIB.     0.4499D+03                  3743.4894    27.1534    25.0484
         ROT.     0.4927D+06                   864.4339     2.9808    29.0283
         INT.     0.2217D+09                  4607.9232    30.1342    54.0768
         TRA.     0.1223D+28                  1440.7231     4.9680    40.1289
         TOT.                       25.100    6048.6463    35.1022    94.2056

 300.00  VIB.     0.5631D+03                  4020.7928    28.3083    25.9884
         ROT.     0.5184D+06                   894.2419     2.9808    29.1294
         INT.     0.2919D+09                  4915.0347    31.2891    55.1178
         TRA.     0.1287D+28                  1490.4032     4.9680    40.2973
         TOT.                       25.457    6405.4379    36.2571    95.4151

 310.00  VIB.     0.7053D+03                  4309.6699    29.4676    26.9356
         ROT.     0.5445D+06                   924.0500     2.9808    29.2271
         INT.     0.3841D+09                  5233.7198    32.4485    56.1627
         TRA.     0.1352D+28                  1540.0833     4.9680    40.4602
         TOT.                       25.825    6773.8031    37.4165    96.6229

 320.00  VIB.     0.8843D+03                  4610.1513    30.6287    27.8894
         ROT.     0.5711D+06                   953.8580     2.9808    29.3218
         INT.     0.5050D+09                  5564.0093    33.6095    57.2112
         TRA.     0.1418D+28                  1589.7634     4.9680    40.6179
         TOT.                       26.205    7153.7727    38.5775    97.8291

 330.00  VIB.     0.1110D+04                  4922.2404    31.7887    28.8497
         ROT.     0.5981D+06                   983.6661     2.9808    29.4135
         INT.     0.6636D+09                  5905.9065    34.7696    58.2632
         TRA.     0.1485D+28                  1639.4435     4.9680    40.7708
         TOT.                       26.597    7545.3500    39.7376    99.0340

 340.00  VIB.     0.1394D+04                  5245.9148    32.9454    29.8159
         ROT.     0.6254D+06                  1013.4742     2.9808    29.5025
         INT.     0.8716D+09                  6259.3890    35.9262    59.3184
         TRA.     0.1553D+28                  1689.1236     4.9680    40.9191
         TOT.                       27.000    7948.5126    40.8942   100.2374

 350.00  VIB.     0.1752D+04                  5581.1289    34.0963    30.7875
         ROT.     0.6532D+06                  1043.2822     2.9808    29.5889
         INT.     0.1144D+10                  6624.4112    37.0771    60.3764
         TRA.     0.1622D+28                  1738.8037     4.9680    41.0631
         TOT.                       27.415    8363.2149    42.0452   101.4395

 360.00  VIB.     0.2204D+04                  5927.8159    35.2396    31.7641
         ROT.     0.6814D+06                  1073.0903     2.9808    29.6728
         INT.     0.1502D+10                  7000.9062    38.2204    61.4369
         TRA.     0.1692D+28                  1788.4838     4.9680    41.2031
         TOT.                       27.841    8789.3900    43.1884   102.6400

 370.00  VIB.     0.2776D+04                  6285.8901    36.3735    32.7451
         ROT.     0.7100D+06                  1102.8984     2.9808    29.7545
         INT.     0.1971D+10                  7388.7884    39.3543    62.4996
         TRA.     0.1762D+28                  1838.1639     4.9680    41.3392
         TOT.                       28.279    9226.9524    44.3223   103.8388

 380.00  VIB.     0.3499D+04                  6655.2491    37.4964    33.7300
         ROT.     0.7390D+06                  1132.7064     2.9808    29.8340
         INT.     0.2586D+10                  7787.9555    40.4772    63.5641
         TRA.     0.1834D+28                  1887.8440     4.9680    41.4717
         TOT.                       28.727    9675.7995    45.4452   105.0357

 390.00  VIB.     0.4415D+04                  7035.7760    38.6069    34.7184
         ROT.     0.7684D+06                  1162.5145     2.9808    29.9114
         INT.     0.3392D+10                  8198.2905    41.5877    64.6299
         TRA.     0.1907D+28                  1937.5242     4.9680    41.6007
         TOT.                       29.187   10135.8147    46.5557   106.2306

 400.00  VIB.     0.5574D+04                  7427.3417    39.7039    35.7097
         ROT.     0.7981D+06                  1192.3226     2.9808    29.9869
         INT.     0.4449D+10                  8619.6643    42.6847    65.6966
         TRA.     0.1981D+28                  1987.2043     4.9680    41.7265
         TOT.                       29.659   10606.8686    47.6527   107.4231

   *: NOTE: HEATS OF FORMATION ARE RELATIVE TO THE
            ELEMENTS IN THEIR STANDARD STATE AT 298K
              (=  Standard Enthalpy of Formation).

            Hvib:  Zero-point energy is not included.
                   frequencies of less than zero cm-1 are not included.
            Hrot = (3/2)RT
            Htra = (3/2)RT + pV = (5/2)RT

            Heat capacity is Cp, not Cv

          For more information, see: HTTP://OpenMOPAC.net/Manual/thermochemistry.html


           FORCE CONSTANT IN CARTESIAN COORDINATES (Millidynes/A)

    ATOM   CHEMICAL       X               Y               Z
   NUMBER   SYMBOL  FORCE CONSTANT  FORCE CONSTANT  FORCE CONSTANT

      1       C        8.963936        8.491506        7.854351
      2       C        9.371235        8.885929        7.588812
      3       C        8.475941        8.227778        8.200140
      4       C       12.702076       12.696196        2.611885
      5       C       12.945332       11.579763        2.329122
      6       C        9.933080       14.725220        2.367869
      7       C       13.149106       12.078176        2.194794
      8       C       10.662729       14.762480        2.187935
      9       C       12.878766       12.417330        2.189043
     10       H        0.854626        1.962488        3.460768
     11       H        0.852357        1.955256        3.470809
     12       H        0.762120        1.999429        3.400197
     13       H        0.762866        1.941422        3.456647
     14       H        5.035929        1.091360        0.666747
     15       H        0.838694        2.164228        3.782322
     16       H        0.835058        2.155980        3.794119
     17       H        1.037515        4.853527        0.326482
     18       H        4.666851        1.238927        0.345134
     19       H        4.603386        1.306912        0.334493
     20       H        0.865910        5.048664        0.342655
     21       H        3.112118        2.807849        0.343740

 **********************
 *                    *
 * JOB ENDED NORMALLY *
 *                    *
 **********************



 TOTAL JOB TIME:             1.87 SECONDS

 == MOPAC DONE ==
