 *******************************************************************************
 **                                                                           **
 **                              MOPAC v23.1.2                                **
 **                                                                           **
 *******************************************************************************
 **          Digital Object Identifier (DOI): 10.5281/zenodo.6511958          **
 **    Visit the DOI location for information on how to cite this program.    **
 *******************************************************************************

                              PM3 CALCULATION RESULTS

 *******************************************************************************
 *  CALCULATION DONE: (MAX THREADS = 1)              Tue Jun  3 16:36:58 2025  *
 *  PM3        - The PM3 Hamiltonian to be used
 *  PRECISE    - TIGHTER CRITERIA TO BE USED
 *  NOSYM      - POINT-GROUP SYMMETRY SET TO C1
 *  THREADS=1  - MULTI-THREADING NOT USED
 *  T=         - A TIME OF 172800.0 SECONDS REQUESTED
 *  DUMP=N     - RESTART FILE WRITTEN EVERY 7200.0 SECONDS REQUESTED
 *******************************************************************************
pm3  precise nosym THREADS=1
 InChI=1S/C12H22/c1-4-7-11(6-3)12-8-10(5-2)9-12/h4,7,10-12H,5-6,8-9H2,1-3H3

   ATOM   CHEMICAL          X               Y               Z
  NUMBER   SYMBOL      (ANGSTROMS)     (ANGSTROMS)     (ANGSTROMS)

     1       C          0.26320000  *  -0.62480000  *  -1.33420000  *
     2       C          2.35480000  *  -0.19660000  *  -0.96430000  *
     3       C         -0.86100000  *  -0.63660000  *  -0.27170000  *
     4       C          1.49300000  *  -1.45860000  *  -0.96050000  *
     5       C          1.12570000  *   0.64130000  *  -1.31860000  *
     6       C          2.96460000  *   0.12710000  *   0.41100000  *
     7       C         -1.57550000  *  -2.00470000  *  -0.25850000  *
     8       C          3.75800000  *   1.43040000  *   0.37420000  *
     9       C         -2.57010000  *  -2.12730000  *   0.89660000  *
    10       C         -3.10290000  *   2.52360000  *  -0.06130000  *
    11       C         -1.85520000  *   0.45900000  *  -0.58880000  *
    12       C         -2.11400000  *   1.45130000  *   0.27460000  *
    13       H          3.11010000  *  -0.21350000  *  -1.78210000  *
    14       H         -0.10570000  *  -0.86150000  *  -2.35820000  *
    15       H         -0.40620000  *  -0.46630000  *   0.73170000  *
    16       H          2.17010000  *   0.20200000  *   1.18610000  *
    17       H          3.65130000  *  -0.69690000  *   0.70230000  *
    18       H          1.78030000  *  -2.16450000  *  -1.77010000  *
    19       H          1.42560000  *  -1.94840000  *   0.03660000  *
    20       H         -2.10980000  *  -2.16750000  *  -1.22050000  *
    21       H         -0.82800000  *  -2.81940000  *  -0.14940000  *
    22       H          0.83870000  *   1.37300000  *  -0.53100000  *
    23       H          1.21070000  *   1.10210000  *  -2.32670000  *
    24       H          4.57720000  *   1.36180000  *  -0.37290000  *
    25       H          4.20360000  *   1.62190000  *   1.37290000  *
    26       H          3.09540000  *   2.28250000  *   0.11350000  *
    27       H         -2.05530000  *  -1.96820000  *   1.86790000  *
    28       H         -3.38920000  *  -1.38530000  *   0.78920000  *
    29       H         -3.01660000  *  -3.14390000  *   0.89480000  *
    30       H         -3.17240000  *   3.24580000  *   0.77880000  *
    31       H         -2.77830000  *   3.06530000  *  -0.97480000  *
    32       H         -4.10410000  *   2.07490000  *  -0.23310000  *
    33       H         -2.37170000  *   0.43170000  *  -1.54540000  *
    34       H         -1.60630000  *   1.49060000  *   1.23430000  *



          CARTESIAN COORDINATES 

    NO.       ATOM           X           Y           Z

     1         C          0.2632     -0.6248     -1.3342
     2         C          2.3548     -0.1966     -0.9643
     3         C         -0.8610     -0.6366     -0.2717
     4         C          1.4930     -1.4586     -0.9605
     5         C          1.1257      0.6413     -1.3186
     6         C          2.9646      0.1271      0.4110
     7         C         -1.5755     -2.0047     -0.2585
     8         C          3.7580      1.4304      0.3742
     9         C         -2.5701     -2.1273      0.8966
    10         C         -3.1029      2.5236     -0.0613
    11         C         -1.8552      0.4590     -0.5888
    12         C         -2.1140      1.4513      0.2746
    13         H          3.1101     -0.2135     -1.7821
    14         H         -0.1057     -0.8615     -2.3582
    15         H         -0.4062     -0.4663      0.7317
    16         H          2.1701      0.2020      1.1861
    17         H          3.6513     -0.6969      0.7023
    18         H          1.7803     -2.1645     -1.7701
    19         H          1.4256     -1.9484      0.0366
    20         H         -2.1098     -2.1675     -1.2205
    21         H         -0.8280     -2.8194     -0.1494
    22         H          0.8387      1.3730     -0.5310
    23         H          1.2107      1.1021     -2.3267
    24         H          4.5772      1.3618     -0.3729
    25         H          4.2036      1.6219      1.3729
    26         H          3.0954      2.2825      0.1135
    27         H         -2.0553     -1.9682      1.8679
    28         H         -3.3892     -1.3853      0.7892
    29         H         -3.0166     -3.1439      0.8948
    30         H         -3.1724      3.2458      0.7788
    31         H         -2.7783      3.0653     -0.9748
    32         H         -4.1041      2.0749     -0.2331
    33         H         -2.3717      0.4317     -1.5454
    34         H         -1.6063      1.4906      1.2343

  H: (PM3): J. J. P. STEWART, J. COMP. CHEM. 10, 209 (1989).
  C: (PM3): J. J. P. STEWART, J. COMP. CHEM. 10, 209 (1989).

           Empirical Formula: C12 H22  =    34 atoms



      MOLECULAR POINT GROUP   :   C1  


      RHF CALCULATION, NO. OF DOUBLY OCCUPIED LEVELS = 35


          Geometry optimization using L-BFGS
 CYCLE:     1 TIME:   0.016 TIME LEFT:  2.00D  GRAD.:    84.795 HEAT: -16.69237
 CYCLE:     2 TIME:   0.008 TIME LEFT:  2.00D  GRAD.:    83.460 HEAT: -16.76370
 CYCLE:     3 TIME:   0.012 TIME LEFT:  2.00D  GRAD.:    33.155 HEAT: -19.77553
 CYCLE:     4 TIME:   0.012 TIME LEFT:  2.00D  GRAD.:    83.463 HEAT: -16.76376
 CYCLE:     5 TIME:   0.008 TIME LEFT:  2.00D  GRAD.:    33.158 HEAT: -19.77552
 CYCLE:     6 TIME:   0.012 TIME LEFT:  2.00D  GRAD.:    32.571 HEAT: -20.29445
 CYCLE:     7 TIME:   0.008 TIME LEFT:  2.00D  GRAD.:    21.583 HEAT: -20.83149
 CYCLE:     8 TIME:   0.012 TIME LEFT:  2.00D  GRAD.:    17.410 HEAT: -21.25706
 CYCLE:     9 TIME:   0.012 TIME LEFT:  2.00D  GRAD.:    20.659 HEAT: -21.47683
 CYCLE:    10 TIME:   0.012 TIME LEFT:  2.00D  GRAD.:     7.567 HEAT: -21.59661
 CYCLE:    11 TIME:   0.008 TIME LEFT:  2.00D  GRAD.:     3.953 HEAT: -21.61673
 CYCLE:    12 TIME:   0.008 TIME LEFT:  2.00D  GRAD.:     3.098 HEAT: -21.63254
 CYCLE:    13 TIME:   0.012 TIME LEFT:  2.00D  GRAD.:     3.154 HEAT: -21.64595
 CYCLE:    14 TIME:   0.012 TIME LEFT:  2.00D  GRAD.:     6.799 HEAT: -21.65296
 CYCLE:    15 TIME:   0.008 TIME LEFT:  2.00D  GRAD.:     2.065 HEAT: -21.66568
 CYCLE:    16 TIME:   0.012 TIME LEFT:  2.00D  GRAD.:     1.677 HEAT: -21.66920
 CYCLE:    17 TIME:   0.008 TIME LEFT:  2.00D  GRAD.:     1.817 HEAT: -21.67441
 CYCLE:    18 TIME:   0.012 TIME LEFT:  2.00D  GRAD.:     1.836 HEAT: -21.67891
 CYCLE:    19 TIME:   0.012 TIME LEFT:  2.00D  GRAD.:     3.282 HEAT: -21.67849
 CYCLE:    20 TIME:   0.008 TIME LEFT:  2.00D  GRAD.:     0.787 HEAT: -21.68173
 CYCLE:    21 TIME:   0.012 TIME LEFT:  2.00D  GRAD.:     0.701 HEAT: -21.68223
 CYCLE:    22 TIME:   0.008 TIME LEFT:  2.00D  GRAD.:     1.444 HEAT: -21.68352
 CYCLE:    23 TIME:   0.012 TIME LEFT:  2.00D  GRAD.:     1.856 HEAT: -21.68425
 CYCLE:    24 TIME:   0.012 TIME LEFT:  2.00D  GRAD.:     0.958 HEAT: -21.68510
 CYCLE:    25 TIME:   0.012 TIME LEFT:  2.00D  GRAD.:     0.902 HEAT: -21.68598
 CYCLE:    26 TIME:   0.012 TIME LEFT:  2.00D  GRAD.:     1.123 HEAT: -21.68682
 CYCLE:    27 TIME:   0.008 TIME LEFT:  2.00D  GRAD.:     1.422 HEAT: -21.68908
 CYCLE:    28 TIME:   0.012 TIME LEFT:  2.00D  GRAD.:     2.352 HEAT: -21.69098
 CYCLE:    29 TIME:   0.012 TIME LEFT:  2.00D  GRAD.:     1.679 HEAT: -21.69418
 CYCLE:    30 TIME:   0.012 TIME LEFT:  2.00D  GRAD.:     1.400 HEAT: -21.69740
 CYCLE:    31 TIME:   0.012 TIME LEFT:  2.00D  GRAD.:     1.642 HEAT: -21.70059
 CYCLE:    32 TIME:   0.008 TIME LEFT:  2.00D  GRAD.:     2.148 HEAT: -21.70349
 CYCLE:    33 TIME:   0.012 TIME LEFT:  2.00D  GRAD.:     2.769 HEAT: -21.70626
 CYCLE:    34 TIME:   0.012 TIME LEFT:  2.00D  GRAD.:     3.377 HEAT: -21.70878
 CYCLE:    35 TIME:   0.008 TIME LEFT:  2.00D  GRAD.:     3.578 HEAT: -21.71242
 CYCLE:    36 TIME:   0.012 TIME LEFT:  2.00D  GRAD.:     3.696 HEAT: -21.71772
 CYCLE:    37 TIME:   0.012 TIME LEFT:  2.00D  GRAD.:     4.238 HEAT: -21.72495
 CYCLE:    38 TIME:   0.012 TIME LEFT:  2.00D  GRAD.:    23.705 HEAT: -21.61668
 CYCLE:    39 TIME:   0.012 TIME LEFT:  2.00D  GRAD.:     6.703 HEAT: -21.72043
 CYCLE:    40 TIME:   0.012 TIME LEFT:  2.00D  GRAD.:    12.212 HEAT: -21.68281
 CYCLE:    41 TIME:   0.008 TIME LEFT:  2.00D  GRAD.:    28.578 HEAT: -21.50027
 CYCLE:    42 TIME:   0.012 TIME LEFT:  2.00D  GRAD.:    22.070 HEAT: -21.57547
 CYCLE:    43 TIME:   0.012 TIME LEFT:  2.00D  GRAD.:     9.783 HEAT: -21.71101
 CYCLE:    44 TIME:   0.012 TIME LEFT:  2.00D  GRAD.:    30.998 HEAT: -21.46584
 CYCLE:    45 TIME:   0.008 TIME LEFT:  2.00D  GRAD.:    13.040 HEAT: -21.68368
 CYCLE:    46 TIME:   0.016 TIME LEFT:  2.00D  GRAD.:    14.744 HEAT: -21.64027
 CYCLE:    47 TIME:   0.008 TIME LEFT:  2.00D  GRAD.:    10.328 HEAT: -21.70525
 CYCLE:    48 TIME:   0.012 TIME LEFT:  2.00D  GRAD.:    29.829 HEAT: -21.38636
 CYCLE:    49 TIME:   0.012 TIME LEFT:  2.00D  GRAD.:    15.924 HEAT: -21.67131
 CYCLE:    50 TIME:   0.012 TIME LEFT:  2.00D  GRAD.:    78.671 HEAT: -20.35297
 CYCLE:    51 TIME:   0.012 TIME LEFT:  2.00D  GRAD.:     3.755 HEAT: -21.73283
 CYCLE:    52 TIME:   0.012 TIME LEFT:  2.00D  GRAD.:     8.959 HEAT: -21.71320
 CYCLE:    53 TIME:   0.012 TIME LEFT:  2.00D  GRAD.:     1.444 HEAT: -21.73831
 CYCLE:    54 TIME:   0.012 TIME LEFT:  2.00D  GRAD.:     2.166 HEAT: -21.73808
 CYCLE:    55 TIME:   0.008 TIME LEFT:  2.00D  GRAD.:     0.601 HEAT: -21.73899
 CYCLE:    56 TIME:   0.012 TIME LEFT:  2.00D  GRAD.:     0.544 HEAT: -21.73918
 CYCLE:    57 TIME:   0.012 TIME LEFT:  2.00D  GRAD.:     1.876 HEAT: -21.73988
 CYCLE:    58 TIME:   0.008 TIME LEFT:  2.00D  GRAD.:     1.001 HEAT: -21.74107
 CYCLE:    59 TIME:   0.012 TIME LEFT:  2.00D  GRAD.:     0.546 HEAT: -21.74219
 CYCLE:    60 TIME:   0.012 TIME LEFT:  2.00D  GRAD.:     0.665 HEAT: -21.74267
 CYCLE:    61 TIME:   0.012 TIME LEFT:  2.00D  GRAD.:     1.705 HEAT: -21.74315
 CYCLE:    62 TIME:   0.008 TIME LEFT:  2.00D  GRAD.:     0.626 HEAT: -21.74429
 CYCLE:    63 TIME:   0.012 TIME LEFT:  2.00D  GRAD.:     0.717 HEAT: -21.74505
 CYCLE:    64 TIME:   0.008 TIME LEFT:  2.00D  GRAD.:     0.870 HEAT: -21.74587
 CYCLE:    65 TIME:   0.012 TIME LEFT:  2.00D  GRAD.:     3.892 HEAT: -21.74509
 CYCLE:    66 TIME:   0.012 TIME LEFT:  2.00D  GRAD.:     0.988 HEAT: -21.74796
 CYCLE:    67 TIME:   0.012 TIME LEFT:  2.00D  GRAD.:     0.620 HEAT: -21.74864
 CYCLE:    68 TIME:   0.008 TIME LEFT:  2.00D  GRAD.:     1.013 HEAT: -21.74970
 CYCLE:    69 TIME:   0.012 TIME LEFT:  2.00D  GRAD.:     1.052 HEAT: -21.75078
 CYCLE:    70 TIME:   0.012 TIME LEFT:  2.00D  GRAD.:     3.581 HEAT: -21.75219
 CYCLE:    71 TIME:   0.012 TIME LEFT:  2.00D  GRAD.:     1.201 HEAT: -21.75554
 CYCLE:    72 TIME:   0.008 TIME LEFT:  2.00D  GRAD.:     1.140 HEAT: -21.75747
 CYCLE:    73 TIME:   0.012 TIME LEFT:  2.00D  GRAD.:     1.544 HEAT: -21.76055
 CYCLE:    74 TIME:   0.012 TIME LEFT:  2.00D  GRAD.:     1.633 HEAT: -21.76351
 CYCLE:    75 TIME:   0.012 TIME LEFT:  2.00D  GRAD.:     1.686 HEAT: -21.76647
 CYCLE:    76 TIME:   0.012 TIME LEFT:  2.00D  GRAD.:     2.042 HEAT: -21.76953
 CYCLE:    77 TIME:   0.008 TIME LEFT:  2.00D  GRAD.:     2.228 HEAT: -21.77233
 CYCLE:    78 TIME:   0.012 TIME LEFT:  2.00D  GRAD.:     2.620 HEAT: -21.77503
 CYCLE:    79 TIME:   0.012 TIME LEFT:  2.00D  GRAD.:     2.635 HEAT: -21.77856
 CYCLE:    80 TIME:   0.012 TIME LEFT:  2.00D  GRAD.:     3.539 HEAT: -21.78640
 CYCLE:    81 TIME:   0.012 TIME LEFT:  2.00D  GRAD.:     4.388 HEAT: -21.80149
 CYCLE:    82 TIME:   0.012 TIME LEFT:  2.00D  GRAD.:     5.500 HEAT: -21.81171
 CYCLE:    83 TIME:   0.008 TIME LEFT:  2.00D  GRAD.:    33.625 HEAT: -21.56595
 CYCLE:    84 TIME:   0.012 TIME LEFT:  2.00D  GRAD.:     8.092 HEAT: -21.78875
 CYCLE:    85 TIME:   0.012 TIME LEFT:  2.00D  GRAD.:     5.877 HEAT: -21.81645
 CYCLE:    86 TIME:   0.012 TIME LEFT:  2.00D  GRAD.:    10.091 HEAT: -21.81443
 CYCLE:    87 TIME:   0.008 TIME LEFT:  2.00D  GRAD.:    12.105 HEAT: -21.79742
 CYCLE:    88 TIME:   0.012 TIME LEFT:  2.00D  GRAD.:    22.969 HEAT: -21.73801
 CYCLE:    89 TIME:   0.012 TIME LEFT:  2.00D  GRAD.:    23.097 HEAT: -21.74606
 CYCLE:    90 TIME:   0.012 TIME LEFT:  2.00D  GRAD.:    15.412 HEAT: -21.69622
 CYCLE:    91 TIME:   0.012 TIME LEFT:  2.00D  GRAD.:    40.675 HEAT: -20.86225
 CYCLE:    92 TIME:   0.012 TIME LEFT:  2.00D  GRAD.:    36.625 HEAT: -21.13403
 CYCLE:    93 TIME:   0.012 TIME LEFT:  2.00D  GRAD.:    43.127 HEAT: -21.03518
 CYCLE:    94 TIME:   0.012 TIME LEFT:  2.00D  GRAD.:    76.042 HEAT: -19.96681
 CYCLE:    95 TIME:   0.012 TIME LEFT:  2.00D  GRAD.:    68.678 HEAT: -20.31149
 CYCLE:    96 TIME:   0.012 TIME LEFT:  2.00D  GRAD.:   193.866 HEAT: -10.20493
 CYCLE:    97 TIME:   0.012 TIME LEFT:  2.00D  GRAD.:   106.140 HEAT: -18.79346
 CYCLE:    98 TIME:   0.012 TIME LEFT:  2.00D  GRAD.:   149.073 HEAT: -9.011037
 CYCLE:    99 TIME:   0.012 TIME LEFT:  2.00D  GRAD.:   132.304 HEAT: -11.91365
 CYCLE:   100 TIME:   0.012 TIME LEFT:  2.00D  GRAD.:   114.580 HEAT: -13.59399
 CYCLE:   101 TIME:   0.012 TIME LEFT:  2.00D  GRAD.:  1352.889 HEAT:  187.7072
 CYCLE:   102 TIME:   0.012 TIME LEFT:  2.00D  GRAD.:   647.283 HEAT:  78.41753
 CYCLE:   103 TIME:   0.012 TIME LEFT:  2.00D  GRAD.:   429.754 HEAT:  20.35736
 CYCLE:   104 TIME:   0.012 TIME LEFT:  2.00D  GRAD.:   362.966 HEAT:  25.15939
 CYCLE:   105 TIME:   0.012 TIME LEFT:  2.00D  GRAD.:   358.541 HEAT:  69.23206
 CYCLE:   106 TIME:   0.016 TIME LEFT:  2.00D  GRAD.:   308.951 HEAT:  14.10194
 CYCLE:   107 TIME:   0.012 TIME LEFT:  2.00D  GRAD.:   922.658 HEAT:  200.1537
 CYCLE:   108 TIME:   0.012 TIME LEFT:  2.00D  GRAD.:   492.385 HEAT:  140.7607
 CYCLE:   109 TIME:   0.012 TIME LEFT:  2.00D  GRAD.:   407.093 HEAT:  32.46330
 CYCLE:   110 TIME:   0.016 TIME LEFT:  2.00D  GRAD.:  1043.884 HEAT:  381.8935
 CYCLE:   111 TIME:   0.012 TIME LEFT:  2.00D  GRAD.:   568.459 HEAT:  207.7980
 CYCLE:   112 TIME:   0.012 TIME LEFT:  2.00D  GRAD.:   351.941 HEAT:  55.31222
 CYCLE:   113 TIME:   0.012 TIME LEFT:  2.00D  GRAD.:  1451.007 HEAT:  401.9353
 CYCLE:   114 TIME:   0.012 TIME LEFT:  2.00D  GRAD.:   487.459 HEAT:  81.13744
 CYCLE:   115 TIME:   0.016 TIME LEFT:  2.00D  GRAD.:   834.635 HEAT:  196.5304
 CYCLE:   116 TIME:   0.008 TIME LEFT:  2.00D  GRAD.:   569.854 HEAT:  126.5833
 CYCLE:   117 TIME:   0.012 TIME LEFT:  2.00D  GRAD.:   520.980 HEAT:  85.02791
 CYCLE:   118 TIME:   0.016 TIME LEFT:  2.00D  GRAD.:   386.766 HEAT:  39.77896
 CYCLE:   119 TIME:   0.012 TIME LEFT:  2.00D  GRAD.:   599.425 HEAT:  88.63450
 CYCLE:   120 TIME:   0.012 TIME LEFT:  2.00D  GRAD.:   233.068 HEAT:  15.56545
 CYCLE:   121 TIME:   0.020 TIME LEFT:  2.00D  GRAD.:   368.633 HEAT:  33.52845
 CYCLE:   122 TIME:   0.012 TIME LEFT:  2.00D  GRAD.:   370.402 HEAT:  25.65720
 CYCLE:   123 TIME:   0.012 TIME LEFT:  2.00D  GRAD.:   244.411 HEAT:  7.086224
 CYCLE:   124 TIME:   0.012 TIME LEFT:  2.00D  GRAD.:   113.469 HEAT: -8.119058
 CYCLE:   125 TIME:   0.012 TIME LEFT:  2.00D  GRAD.:    70.976 HEAT: -13.45919
 CYCLE:   126 TIME:   0.012 TIME LEFT:  2.00D  GRAD.:    61.488 HEAT: -15.83566
 CYCLE:   127 TIME:   0.008 TIME LEFT:  2.00D  GRAD.:    44.277 HEAT: -18.29779
 CYCLE:   128 TIME:   0.012 TIME LEFT:  2.00D  GRAD.:    31.531 HEAT: -19.76004
 CYCLE:   129 TIME:   0.008 TIME LEFT:  2.00D  GRAD.:    28.832 HEAT: -20.20243
 CYCLE:   130 TIME:   0.012 TIME LEFT:  2.00D  GRAD.:    19.712 HEAT: -20.58411
 CYCLE:   131 TIME:   0.008 TIME LEFT:  2.00D  GRAD.:    18.823 HEAT: -21.05608
 CYCLE:   132 TIME:   0.008 TIME LEFT:  2.00D  GRAD.:    16.149 HEAT: -21.35434
 CYCLE:   133 TIME:   0.012 TIME LEFT:  2.00D  GRAD.:    14.457 HEAT: -21.49594
 CYCLE:   134 TIME:   0.008 TIME LEFT:  2.00D  GRAD.:     7.188 HEAT: -21.57450
 CYCLE:   135 TIME:   0.008 TIME LEFT:  2.00D  GRAD.:     6.515 HEAT: -21.61601
 CYCLE:   136 TIME:   0.012 TIME LEFT:  2.00D  GRAD.:     7.497 HEAT: -21.67396
 CYCLE:   137 TIME:   0.008 TIME LEFT:  2.00D  GRAD.:    14.834 HEAT: -21.69639
 CYCLE:   138 TIME:   0.008 TIME LEFT:  2.00D  GRAD.:     4.695 HEAT: -21.75099
 CYCLE:   139 TIME:   0.012 TIME LEFT:  2.00D  GRAD.:     3.468 HEAT: -21.76665
 CYCLE:   140 TIME:   0.008 TIME LEFT:  2.00D  GRAD.:     3.929 HEAT: -21.78659
 CYCLE:   141 TIME:   0.008 TIME LEFT:  2.00D  GRAD.:     3.949 HEAT: -21.80937
 CYCLE:   142 TIME:   0.012 TIME LEFT:  2.00D  GRAD.:    10.534 HEAT: -21.80233
 CYCLE:   143 TIME:   0.008 TIME LEFT:  2.00D  GRAD.:     2.583 HEAT: -21.82997
 CYCLE:   144 TIME:   0.008 TIME LEFT:  2.00D  GRAD.:     2.013 HEAT: -21.83438
 CYCLE:   145 TIME:   0.012 TIME LEFT:  2.00D  GRAD.:     3.142 HEAT: -21.84421
 CYCLE:   146 TIME:   0.008 TIME LEFT:  2.00D  GRAD.:     4.426 HEAT: -21.85088
 CYCLE:   147 TIME:   0.008 TIME LEFT:  2.00D  GRAD.:     2.267 HEAT: -21.85654
 CYCLE:   148 TIME:   0.012 TIME LEFT:  2.00D  GRAD.:     1.807 HEAT: -21.86103
 CYCLE:   149 TIME:   0.008 TIME LEFT:  2.00D  GRAD.:     2.263 HEAT: -21.86477
 CYCLE:   150 TIME:   0.008 TIME LEFT:  2.00D  GRAD.:     3.198 HEAT: -21.87454
 CYCLE:   151 TIME:   0.012 TIME LEFT:  2.00D  GRAD.:     7.432 HEAT: -21.87555
 CYCLE:   152 TIME:   0.008 TIME LEFT:  2.00D  GRAD.:     2.452 HEAT: -21.88774
 CYCLE:   153 TIME:   0.012 TIME LEFT:  2.00D  GRAD.:     1.875 HEAT: -21.89231
 CYCLE:   154 TIME:   0.008 TIME LEFT:  2.00D  GRAD.:     2.601 HEAT: -21.89848
 CYCLE:   155 TIME:   0.008 TIME LEFT:  2.00D  GRAD.:     3.081 HEAT: -21.90760
 CYCLE:   156 TIME:   0.012 TIME LEFT:  2.00D  GRAD.:     5.106 HEAT: -21.91755
 CYCLE:   157 TIME:   0.008 TIME LEFT:  2.00D  GRAD.:     3.436 HEAT: -21.93237
 CYCLE:   158 TIME:   0.012 TIME LEFT:  2.00D  GRAD.:     3.554 HEAT: -21.94614
 CYCLE:   159 TIME:   0.008 TIME LEFT:  2.00D  GRAD.:     5.119 HEAT: -21.96174
 CYCLE:   160 TIME:   0.012 TIME LEFT:  2.00D  GRAD.:     3.643 HEAT: -21.98161
 CYCLE:   161 TIME:   0.008 TIME LEFT:  2.00D  GRAD.:     4.973 HEAT: -21.99529
 CYCLE:   162 TIME:   0.012 TIME LEFT:  2.00D  GRAD.:     3.832 HEAT: -22.01087
 CYCLE:   163 TIME:   0.008 TIME LEFT:  2.00D  GRAD.:     3.601 HEAT: -22.02742
 CYCLE:   164 TIME:   0.008 TIME LEFT:  2.00D  GRAD.:     5.325 HEAT: -22.04217
 CYCLE:   165 TIME:   0.012 TIME LEFT:  2.00D  GRAD.:     5.131 HEAT: -22.05694
 CYCLE:   166 TIME:   0.008 TIME LEFT:  2.00D  GRAD.:     3.679 HEAT: -22.07618
 CYCLE:   167 TIME:   0.008 TIME LEFT:  2.00D  GRAD.:     3.874 HEAT: -22.09755
 CYCLE:   168 TIME:   0.012 TIME LEFT:  2.00D  GRAD.:     4.328 HEAT: -22.11559
 CYCLE:   169 TIME:   0.008 TIME LEFT:  2.00D  GRAD.:     4.081 HEAT: -22.13518
 CYCLE:   170 TIME:   0.012 TIME LEFT:  2.00D  GRAD.:     3.955 HEAT: -22.15188
 CYCLE:   171 TIME:   0.008 TIME LEFT:  2.00D  GRAD.:     4.742 HEAT: -22.16920
 CYCLE:   172 TIME:   0.008 TIME LEFT:  2.00D  GRAD.:     6.993 HEAT: -22.18933
 CYCLE:   173 TIME:   0.008 TIME LEFT:  2.00D  GRAD.:     3.461 HEAT: -22.20841
 CYCLE:   174 TIME:   0.012 TIME LEFT:  2.00D  GRAD.:     3.595 HEAT: -22.21674
 CYCLE:   175 TIME:   0.008 TIME LEFT:  2.00D  GRAD.:     3.700 HEAT: -22.22645
 CYCLE:   176 TIME:   0.012 TIME LEFT:  2.00D  GRAD.:     3.801 HEAT: -22.23887
 CYCLE:   177 TIME:   0.008 TIME LEFT:  2.00D  GRAD.:     2.634 HEAT: -22.24799
 CYCLE:   178 TIME:   0.008 TIME LEFT:  2.00D  GRAD.:     2.270 HEAT: -22.25393
 CYCLE:   179 TIME:   0.012 TIME LEFT:  2.00D  GRAD.:     3.420 HEAT: -22.26496
 CYCLE:   180 TIME:   0.008 TIME LEFT:  2.00D  GRAD.:     3.690 HEAT: -22.27139
 CYCLE:   181 TIME:   0.008 TIME LEFT:  2.00D  GRAD.:     2.059 HEAT: -22.27676
 CYCLE:   182 TIME:   0.012 TIME LEFT:  2.00D  GRAD.:     1.697 HEAT: -22.28227
 CYCLE:   183 TIME:   0.008 TIME LEFT:  2.00D  GRAD.:     2.054 HEAT: -22.28628
 CYCLE:   184 TIME:   0.012 TIME LEFT:  2.00D  GRAD.:     3.001 HEAT: -22.28866
 CYCLE:   185 TIME:   0.008 TIME LEFT:  2.00D  GRAD.:     1.290 HEAT: -22.29161
 CYCLE:   186 TIME:   0.008 TIME LEFT:  2.00D  GRAD.:     1.594 HEAT: -22.29318
 CYCLE:   187 TIME:   0.008 TIME LEFT:  2.00D  GRAD.:     1.849 HEAT: -22.29520
 CYCLE:   188 TIME:   0.012 TIME LEFT:  2.00D  GRAD.:     1.898 HEAT: -22.29774
 CYCLE:   189 TIME:   0.008 TIME LEFT:  2.00D  GRAD.:     1.869 HEAT: -22.30059
 CYCLE:   190 TIME:   0.008 TIME LEFT:  2.00D  GRAD.:     1.686 HEAT: -22.30316
 CYCLE:   191 TIME:   0.012 TIME LEFT:  2.00D  GRAD.:     1.961 HEAT: -22.30750
 CYCLE:   192 TIME:   0.008 TIME LEFT:  2.00D  GRAD.:     2.909 HEAT: -22.31245
 CYCLE:   193 TIME:   0.012 TIME LEFT:  2.00D  GRAD.:     2.038 HEAT: -22.31904
 CYCLE:   194 TIME:   0.008 TIME LEFT:  2.00D  GRAD.:     1.909 HEAT: -22.32473
 CYCLE:   195 TIME:   0.008 TIME LEFT:  2.00D  GRAD.:     2.669 HEAT: -22.33205
 CYCLE:   196 TIME:   0.012 TIME LEFT:  2.00D  GRAD.:     2.670 HEAT: -22.33789
 CYCLE:   197 TIME:   0.012 TIME LEFT:  2.00D  GRAD.:     1.798 HEAT: -22.34235
 CYCLE:   198 TIME:   0.008 TIME LEFT:  2.00D  GRAD.:     1.622 HEAT: -22.34548
 CYCLE:   199 TIME:   0.012 TIME LEFT:  2.00D  GRAD.:     2.057 HEAT: -22.34830
 CYCLE:   200 TIME:   0.008 TIME LEFT:  2.00D  GRAD.:     2.317 HEAT: -22.35211
 CYCLE:   201 TIME:   0.012 TIME LEFT:  2.00D  GRAD.:     1.391 HEAT: -22.35613
 CYCLE:   202 TIME:   0.012 TIME LEFT:  2.00D  GRAD.:     1.507 HEAT: -22.35832
 CYCLE:   203 TIME:   0.012 TIME LEFT:  2.00D  GRAD.:     1.812 HEAT: -22.35971
 CYCLE:   204 TIME:   0.008 TIME LEFT:  2.00D  GRAD.:     1.240 HEAT: -22.36119
 CYCLE:   205 TIME:   0.012 TIME LEFT:  2.00D  GRAD.:     0.948 HEAT: -22.36320
 CYCLE:   206 TIME:   0.012 TIME LEFT:  2.00D  GRAD.:     1.335 HEAT: -22.36431
 CYCLE:   207 TIME:   0.012 TIME LEFT:  2.00D  GRAD.:     0.866 HEAT: -22.36544
 CYCLE:   208 TIME:   0.008 TIME LEFT:  2.00D  GRAD.:     0.886 HEAT: -22.36645
 CYCLE:   209 TIME:   0.012 TIME LEFT:  2.00D  GRAD.:     1.027 HEAT: -22.36715
 CYCLE:   210 TIME:   0.012 TIME LEFT:  2.00D  GRAD.:     0.781 HEAT: -22.36781
 CYCLE:   211 TIME:   0.012 TIME LEFT:  2.00D  GRAD.:     0.906 HEAT: -22.36893
 CYCLE:   212 TIME:   0.008 TIME LEFT:  2.00D  GRAD.:     1.121 HEAT: -22.36975
 CYCLE:   213 TIME:   0.012 TIME LEFT:  2.00D  GRAD.:     1.032 HEAT: -22.37067
 CYCLE:   214 TIME:   0.012 TIME LEFT:  2.00D  GRAD.:     2.371 HEAT: -22.37185
 CYCLE:   215 TIME:   0.008 TIME LEFT:  2.00D  GRAD.:     1.535 HEAT: -22.37298
 CYCLE:   216 TIME:   0.012 TIME LEFT:  2.00D  GRAD.:     0.532 HEAT: -22.37352
 CYCLE:   217 TIME:   0.012 TIME LEFT:  2.00D  GRAD.:     0.524 HEAT: -22.37376
 CYCLE:   218 TIME:   0.008 TIME LEFT:  2.00D  GRAD.:     0.863 HEAT: -22.37447
 CYCLE:   219 TIME:   0.012 TIME LEFT:  2.00D  GRAD.:     1.049 HEAT: -22.37541
 CYCLE:   220 TIME:   0.012 TIME LEFT:  2.00D  GRAD.:     1.528 HEAT: -22.37636
 CYCLE:   221 TIME:   0.008 TIME LEFT:  2.00D  GRAD.:     0.941 HEAT: -22.37780
 CYCLE:   222 TIME:   0.012 TIME LEFT:  2.00D  GRAD.:     0.980 HEAT: -22.37913
 CYCLE:   223 TIME:   0.012 TIME LEFT:  2.00D  GRAD.:     1.227 HEAT: -22.38056
 CYCLE:   224 TIME:   0.008 TIME LEFT:  2.00D  GRAD.:     2.010 HEAT: -22.38179
 CYCLE:   225 TIME:   0.012 TIME LEFT:  2.00D  GRAD.:     1.056 HEAT: -22.38337
 CYCLE:   226 TIME:   0.012 TIME LEFT:  2.00D  GRAD.:     0.792 HEAT: -22.38436
 CYCLE:   227 TIME:   0.012 TIME LEFT:  2.00D  GRAD.:     0.926 HEAT: -22.38523
 CYCLE:   228 TIME:   0.008 TIME LEFT:  2.00D  GRAD.:     1.849 HEAT: -22.38618
 CYCLE:   229 TIME:   0.012 TIME LEFT:  2.00D  GRAD.:     0.817 HEAT: -22.38727
 CYCLE:   230 TIME:   0.012 TIME LEFT:  2.00D  GRAD.:     0.591 HEAT: -22.38801
 CYCLE:   231 TIME:   0.008 TIME LEFT:  2.00D  GRAD.:     0.659 HEAT: -22.38846
 CYCLE:   232 TIME:   0.012 TIME LEFT:  2.00D  GRAD.:     1.041 HEAT: -22.38919
 CYCLE:   233 TIME:   0.012 TIME LEFT:  2.00D  GRAD.:     1.080 HEAT: -22.38988
 CYCLE:   234 TIME:   0.008 TIME LEFT:  2.00D  GRAD.:     0.656 HEAT: -22.39045
 CYCLE:   235 TIME:   0.012 TIME LEFT:  2.00D  GRAD.:     0.609 HEAT: -22.39109
 CYCLE:   236 TIME:   0.012 TIME LEFT:  2.00D  GRAD.:     1.635 HEAT: -22.39129
 CYCLE:   237 TIME:   0.008 TIME LEFT:  2.00D  GRAD.:     0.775 HEAT: -22.39173
 CYCLE:   238 TIME:   0.012 TIME LEFT:  2.00D  GRAD.:     0.491 HEAT: -22.39219
 CYCLE:   239 TIME:   0.012 TIME LEFT:  2.00D  GRAD.:     0.636 HEAT: -22.39248
 CYCLE:   240 TIME:   0.012 TIME LEFT:  2.00D  GRAD.:     0.700 HEAT: -22.39302
 CYCLE:   241 TIME:   0.012 TIME LEFT:  2.00D  GRAD.:     1.350 HEAT: -22.39368
 CYCLE:   242 TIME:   0.012 TIME LEFT:  2.00D  GRAD.:     0.568 HEAT: -22.39440
 CYCLE:   243 TIME:   0.012 TIME LEFT:  2.00D  GRAD.:     0.467 HEAT: -22.39478
 CYCLE:   244 TIME:   0.012 TIME LEFT:  2.00D  GRAD.:     0.902 HEAT: -22.39527
 CYCLE:   245 TIME:   0.008 TIME LEFT:  2.00D  GRAD.:     0.661 HEAT: -22.39569
 CYCLE:   246 TIME:   0.012 TIME LEFT:  2.00D  GRAD.:     0.435 HEAT: -22.39598
 CYCLE:   247 TIME:   0.012 TIME LEFT:  2.00D  GRAD.:     0.401 HEAT: -22.39629
 CYCLE:   248 TIME:   0.008 TIME LEFT:  2.00D  GRAD.:     0.440 HEAT: -22.39652
 CYCLE:   249 TIME:   0.012 TIME LEFT:  2.00D  GRAD.:     0.452 HEAT: -22.39680
 CYCLE:   250 TIME:   0.012 TIME LEFT:  2.00D  GRAD.:     1.047 HEAT: -22.39693
 CYCLE:   251 TIME:   0.008 TIME LEFT:  2.00D  GRAD.:     0.472 HEAT: -22.39721
 CYCLE:   252 TIME:   0.012 TIME LEFT:  2.00D  GRAD.:     0.395 HEAT: -22.39743
 CYCLE:   253 TIME:   0.012 TIME LEFT:  2.00D  GRAD.:     0.607 HEAT: -22.39768
 CYCLE:   254 TIME:   0.012 TIME LEFT:  2.00D  GRAD.:     1.055 HEAT: -22.39800
 CYCLE:   255 TIME:   0.008 TIME LEFT:  2.00D  GRAD.:     0.691 HEAT: -22.39843
 CYCLE:   256 TIME:   0.012 TIME LEFT:  2.00D  GRAD.:     0.602 HEAT: -22.39893
 CYCLE:   257 TIME:   0.012 TIME LEFT:  2.00D  GRAD.:     0.678 HEAT: -22.39953
 CYCLE:   258 TIME:   0.012 TIME LEFT:  2.00D  GRAD.:     0.739 HEAT: -22.40024
 CYCLE:   259 TIME:   0.008 TIME LEFT:  2.00D  GRAD.:     0.840 HEAT: -22.40080
 CYCLE:   260 TIME:   0.012 TIME LEFT:  2.00D  GRAD.:     0.740 HEAT: -22.40127
 CYCLE:   261 TIME:   0.012 TIME LEFT:  2.00D  GRAD.:     1.674 HEAT: -22.40110
 CYCLE:   262 TIME:   0.012 TIME LEFT:  2.00D  GRAD.:     5.134 HEAT: -22.39547
 CYCLE:   263 TIME:   0.008 TIME LEFT:  2.00D  GRAD.:     0.656 HEAT: -22.40245
 CYCLE:   264 TIME:   0.012 TIME LEFT:  2.00D  GRAD.:     0.756 HEAT: -22.40235
 CYCLE:   265 TIME:   0.012 TIME LEFT:  2.00D  GRAD.:     0.363 HEAT: -22.40283
 CYCLE:   266 TIME:   0.008 TIME LEFT:  2.00D  GRAD.:     0.388 HEAT: -22.40306
 CYCLE:   267 TIME:   0.012 TIME LEFT:  2.00D  GRAD.:     0.953 HEAT: -22.40328
 CYCLE:   268 TIME:   0.012 TIME LEFT:  2.00D  GRAD.:     0.507 HEAT: -22.40355
 CYCLE:   269 TIME:   0.008 TIME LEFT:  2.00D  GRAD.:     0.588 HEAT: -22.40375
 CYCLE:   270 TIME:   0.012 TIME LEFT:  2.00D  GRAD.:     0.399 HEAT: -22.40392
 CYCLE:   271 TIME:   0.012 TIME LEFT:  2.00D  GRAD.:     0.576 HEAT: -22.40409
 CYCLE:   272 TIME:   0.008 TIME LEFT:  2.00D  GRAD.:     0.414 HEAT: -22.40420
 CYCLE:   273 TIME:   0.012 TIME LEFT:  2.00D  GRAD.:     0.275 HEAT: -22.40427
 CYCLE:   274 TIME:   0.008 TIME LEFT:  2.00D  GRAD.:     0.264 HEAT: -22.40435
 CYCLE:   275 TIME:   0.012 TIME LEFT:  2.00D  GRAD.:     0.251 HEAT: -22.40442
 CYCLE:   276 TIME:   0.012 TIME LEFT:  2.00D  GRAD.:     0.271 HEAT: -22.40447
 CYCLE:   277 TIME:   0.012 TIME LEFT:  2.00D  GRAD.:     0.194 HEAT: -22.40451

 -------------------------------------------------------------------------------
 pm3  precise nosym THREADS=1
 InChI=1S/C12H22/c1-4-7-11(6-3)12-8-10(5-2)9-12/h4,7,10-12H,5-6,8-9H2,1-3H3



     HERBERTS TEST WAS SATISFIED IN BFGS                      
     SCF FIELD WAS ACHIEVED                                   


                              PM3 CALCULATION
                                                       MOPAC v23.1.2 MacOS
                                                       Tue Jun  3 16:37:01 2025




          FINAL HEAT OF FORMATION =        -22.40451 KCAL/MOL =     -93.74047 KJ/MOL


          COSMO AREA              =        240.77 SQUARE ANGSTROMS
          COSMO VOLUME            =        258.52 CUBIC ANGSTROMS

          GRADIENT NORM           =          0.19398          =       0.03327 PER ATOM
          IONIZATION POTENTIAL    =          9.741816 EV
          HOMO LUMO ENERGIES (EV) =         -9.742  1.116
          NO. OF FILLED LEVELS    =         35
          MOLECULAR WEIGHT        =        166.3058         POINT GROUP:  C1  

          MOLECULAR DIMENSIONS (Angstroms)

            Atom       Atom       Distance
            H    29    H    24     8.94482
            H    30    H    18     7.34190
            H    25    H    32     4.42883


          SCF CALCULATIONS        =        278

          WALL-CLOCK TIME         =      2.934 SECONDS
          COMPUTATION TIME        =      2.122 SECONDS




   ATOM   CHEMICAL          X               Y               Z
  NUMBER   SYMBOL      (ANGSTROMS)     (ANGSTROMS)     (ANGSTROMS)

     1       C          0.18838428  *  -0.58795747  *  -1.28397027  *
     2       C          2.31449134  *  -0.15307056  *  -0.94204193  *
     3       C         -0.91562670  *  -0.63539524  *  -0.23067063  *
     4       C          1.44493709  *  -1.43283765  *  -0.95638347  *
     5       C          1.05793371  *   0.69262222  *  -1.25790697  *
     6       C          2.97397694  *   0.13853872  *   0.38995618  *
     7       C         -1.59717633  *  -2.00703917  *  -0.23424683  *
     8       C          3.76023213  *   1.42972712  *   0.35843622  *
     9       C         -2.51832379  *  -2.18487059  *   0.95140401  *
    10       C         -3.02058615  *   2.60429194  *  -0.04522728  *
    11       C         -1.91817109  *   0.44002765  *  -0.51717138  *
    12       C         -2.03865880  *   1.53396024  *   0.23666916  *
    13       H          3.07245682  *  -0.12803806  *  -1.75299607  *
    14       H         -0.23922268  *  -0.80739560  *  -2.28495700  *
    15       H         -0.45398702  *  -0.46863243  *   0.77633456  *
    16       H          2.20720997  *   0.17967472  *   1.19052171  *
    17       H          3.63922901  *  -0.70645071  *   0.65676854  *
    18       H          1.71740072  *  -2.16528234  *  -1.73016732  *
    19       H          1.40621512  *  -1.97209731  *   0.00417200  *
    20       H         -2.16035990  *  -2.14670836  *  -1.17881368  *
    21       H         -0.82222846  *  -2.80023109  *  -0.22940049  *
    22       H          0.77952551  *   1.41998143  *  -0.47681838  *
    23       H          1.09853965  *   1.23829043  *  -2.21177400  *
    24       H          4.55739811  *   1.40164492  *  -0.39627197  *
    25       H          4.23263272  *   1.63230166  *   1.32793633  *
    26       H          3.11536965  *   2.28655284  *   0.12010482  *
    27       H         -1.97117723  *  -2.13029589  *   1.90205676  *
    28       H         -3.29449356  *  -1.40803302  *   0.97720354  *
    29       H         -3.02486773  *  -3.15779372  *   0.91922990  *
    30       H         -3.68396267  *   2.75589380  *   0.81687606  *
    31       H         -2.50683692  *   3.55581085  *  -0.23804506  *
    32       H         -3.65328579  *   2.38703223  *  -0.91622659  *
    33       H         -2.55299215  *   0.28304434  *  -1.39898400  *
    34       H         -1.39668890  *   1.68842816  *   1.11356750  *

                             CARTESIAN COORDINATES

   1    C        0.188384284    -0.587957471    -1.283970268
   2    C        2.314491342    -0.153070563    -0.942041931
   3    C       -0.915626702    -0.635395237    -0.230670631
   4    C        1.444937091    -1.432837650    -0.956383472
   5    C        1.057933710     0.692622223    -1.257906967
   6    C        2.973976943     0.138538723     0.389956178
   7    C       -1.597176327    -2.007039166    -0.234246827
   8    C        3.760232129     1.429727116     0.358436219
   9    C       -2.518323794    -2.184870587     0.951404007
  10    C       -3.020586148     2.604291940    -0.045227284
  11    C       -1.918171093     0.440027645    -0.517171384
  12    C       -2.038658801     1.533960245     0.236669161
  13    H        3.072456815    -0.128038061    -1.752996068
  14    H       -0.239222678    -0.807395602    -2.284956996
  15    H       -0.453987025    -0.468632433     0.776334560
  16    H        2.207209973     0.179674715     1.190521708
  17    H        3.639229008    -0.706450714     0.656768536
  18    H        1.717400722    -2.165282337    -1.730167315
  19    H        1.406215120    -1.972097307     0.004172000
  20    H       -2.160359901    -2.146708364    -1.178813680
  21    H       -0.822228464    -2.800231093    -0.229400487
  22    H        0.779525508     1.419981429    -0.476818384
  23    H        1.098539650     1.238290432    -2.211773998
  24    H        4.557398115     1.401644920    -0.396271974
  25    H        4.232632724     1.632301662     1.327936334
  26    H        3.115369648     2.286552840     0.120104822
  27    H       -1.971177230    -2.130295892     1.902056760
  28    H       -3.294493561    -1.408033015     0.977203536
  29    H       -3.024867731    -3.157793722     0.919229905
  30    H       -3.683962673     2.755893805     0.816876062
  31    H       -2.506836920     3.555810854    -0.238045055
  32    H       -3.653285793     2.387032227    -0.916226587
  33    H       -2.552992150     0.283044344    -1.398984000
  34    H       -1.396688903     1.688428161     1.113567504


           Empirical Formula: C12 H22  =    34 atoms



      MOLECULAR POINT GROUP   :   C1  


                  EIGENVALUES  
 -42.25608 -37.48159 -34.03092 -32.65566 -28.45438 -25.74824 -25.10424 -23.17078
 -21.26126 -19.94116 -19.83328 -18.37888 -17.11208 -16.39032 -16.04886 -15.59255
 -15.15982 -14.59292 -14.32579 -14.19185 -14.18338 -13.82930 -13.14559 -13.06602
 -12.89305 -12.82161 -12.43392 -12.21534 -12.15159 -11.91155 -11.59808 -11.37074
 -11.23585 -11.10282  -9.74182   1.11599   3.22737   3.26948   3.43290   3.55322
   3.62820   3.81347   3.82969   3.90031   3.94282   3.99538   4.01875   4.06412
   4.12228   4.15432   4.24245   4.28837   4.37206   4.40227   4.45773   4.52227
   4.55374   4.56805   4.58310   4.64768   4.81751   4.91237   4.98401   5.00765
   5.09060   5.11143   5.52291   5.66023   5.75849   6.02359


              NET ATOMIC CHARGES AND DIPOLE CONTRIBUTIONS

  ATOM NO.   TYPE          CHARGE      No. of ELECS.   s-Pop       p-Pop       
    1          C          -0.087684        4.0877     1.19235     2.89533
    2          C          -0.093396        4.0934     1.19021     2.90319
    3          C          -0.038699        4.0387     1.16848     2.87022
    4          C          -0.112682        4.1127     1.17836     2.93432
    5          C          -0.112744        4.1127     1.17796     2.93479
    6          C          -0.089358        4.0894     1.15745     2.93191
    7          C          -0.096638        4.0966     1.16140     2.93524
    8          C          -0.109702        4.1097     1.13800     2.97170
    9          C          -0.112087        4.1121     1.13851     2.97358
   10          C          -0.073674        4.0737     1.12510     2.94857
   11          C          -0.146302        4.1463     1.19895     2.94735
   12          C          -0.149364        4.1494     1.19411     2.95526
   13          H           0.071447        0.9286     0.92855
   14          H           0.072318        0.9277     0.92768
   15          H           0.071275        0.9287     0.92873
   16          H           0.051258        0.9487     0.94874
   17          H           0.049068        0.9509     0.95093
   18          H           0.055268        0.9447     0.94473
   19          H           0.063730        0.9363     0.93627
   20          H           0.050436        0.9496     0.94956
   21          H           0.051587        0.9484     0.94841
   22          H           0.067849        0.9322     0.93215
   23          H           0.056240        0.9438     0.94376
   24          H           0.037845        0.9622     0.96215
   25          H           0.036672        0.9633     0.96333
   26          H           0.039516        0.9605     0.96048
   27          H           0.037279        0.9627     0.96272
   28          H           0.043315        0.9567     0.95668
   29          H           0.036569        0.9634     0.96343
   30          H           0.043326        0.9567     0.95667
   31          H           0.043523        0.9565     0.95648
   32          H           0.040880        0.9591     0.95912
   33          H           0.103560        0.8964     0.89644
   34          H           0.099370        0.9006     0.90063
 DIPOLE           X         Y         Z       TOTAL
 POINT-CHG.    -0.005     0.076     0.086     0.115
 HYBRID        -0.027     0.040    -0.010     0.049
 SUM           -0.032     0.115     0.076     0.142


          ATOMIC ORBITAL ELECTRON POPULATIONS

     Atom    s        px        py        pz   
    1  C   1.19235   0.93785   0.96817   0.98932
    2  C   1.19021   0.95994   0.96443   0.97882
    3  C   1.16848   0.94243   0.94028   0.98751
    4  C   1.17836   0.95979   0.95614   1.01839
    5  C   1.17796   0.95639   0.95823   1.02016
    6  C   1.15745   0.99243   0.97498   0.96451
    7  C   1.16140   0.98823   0.96272   0.98429
    8  C   1.13800   0.99294   0.97142   1.00734
    9  C   1.13851   0.99109   1.00824   0.97425
   10  C   1.12510   0.97324   0.97067   1.00466
   11  C   1.19895   0.99140   0.96066   0.99529
   12  C   1.19411   0.99445   0.96366   0.99715
   13  H   0.92855
   14  H   0.92768
   15  H   0.92873
   16  H   0.94874
   17  H   0.95093
   18  H   0.94473
   19  H   0.93627
   20  H   0.94956
   21  H   0.94841
   22  H   0.93215
   23  H   0.94376
   24  H   0.96215
   25  H   0.96333
   26  H   0.96048
   27  H   0.96272
   28  H   0.95668
   29  H   0.96343
   30  H   0.95667
   31  H   0.95648
   32  H   0.95912
   33  H   0.89644
   34  H   0.90063
 *******************************************************************************
 **                                                                           **
 **                              MOPAC v23.1.2                                **
 **                                                                           **
 *******************************************************************************
 **          Digital Object Identifier (DOI): 10.5281/zenodo.6511958          **
 **    Visit the DOI location for information on how to cite this program.    **
 *******************************************************************************

                              PM3 CALCULATION RESULTS

 *******************************************************************************
 *  CALCULATION DONE: (MAX THREADS = 1)              Tue Jun  3 16:37:01 2025  *
 *  PM3        - The PM3 Hamiltonian to be used
 *  OLDGEO     - PREVIOUS GEOMETRY TO BE USED
 *  PRECISE    - TIGHTER CRITERIA TO BE USED
 *  NOSYM      - POINT-GROUP SYMMETRY SET TO C1
 *  THREADS=1  - MULTI-THREADING NOT USED
 *  T=         - A TIME OF 172800.0 SECONDS REQUESTED
 *  DUMP=N     - RESTART FILE WRITTEN EVERY 7200.0 SECONDS REQUESTED
 *  THERMO     - THERMODYNAMIC QUANTITIES TO BE CALCULATED
 *******************************************************************************
oldgeo thermo nosym precise THREADS=1  pm3
 InChI=1S/C12H22/c1-4-7-11(6-3)12-8-10(5-2)9-12/h4,7,10-12H,5-6,8-9H2,1-3H3

   ATOM   CHEMICAL          X               Y               Z
  NUMBER   SYMBOL      (ANGSTROMS)     (ANGSTROMS)     (ANGSTROMS)

     1       C          0.18838428  *  -0.58795747  *  -1.28397027  *
     2       C          2.31449134  *  -0.15307056  *  -0.94204193  *
     3       C         -0.91562670  *  -0.63539524  *  -0.23067063  *
     4       C          1.44493709  *  -1.43283765  *  -0.95638347  *
     5       C          1.05793371  *   0.69262222  *  -1.25790697  *
     6       C          2.97397694  *   0.13853872  *   0.38995618  *
     7       C         -1.59717633  *  -2.00703917  *  -0.23424683  *
     8       C          3.76023213  *   1.42972712  *   0.35843622  *
     9       C         -2.51832379  *  -2.18487059  *   0.95140401  *
    10       C         -3.02058615  *   2.60429194  *  -0.04522728  *
    11       C         -1.91817109  *   0.44002765  *  -0.51717138  *
    12       C         -2.03865880  *   1.53396024  *   0.23666916  *
    13       H          3.07245682  *  -0.12803806  *  -1.75299607  *
    14       H         -0.23922268  *  -0.80739560  *  -2.28495700  *
    15       H         -0.45398702  *  -0.46863243  *   0.77633456  *
    16       H          2.20720997  *   0.17967472  *   1.19052171  *
    17       H          3.63922901  *  -0.70645071  *   0.65676854  *
    18       H          1.71740072  *  -2.16528234  *  -1.73016732  *
    19       H          1.40621512  *  -1.97209731  *   0.00417200  *
    20       H         -2.16035990  *  -2.14670836  *  -1.17881368  *
    21       H         -0.82222846  *  -2.80023109  *  -0.22940049  *
    22       H          0.77952551  *   1.41998143  *  -0.47681838  *
    23       H          1.09853965  *   1.23829043  *  -2.21177400  *
    24       H          4.55739811  *   1.40164492  *  -0.39627197  *
    25       H          4.23263272  *   1.63230166  *   1.32793633  *
    26       H          3.11536965  *   2.28655284  *   0.12010482  *
    27       H         -1.97117723  *  -2.13029589  *   1.90205676  *
    28       H         -3.29449356  *  -1.40803302  *   0.97720354  *
    29       H         -3.02486773  *  -3.15779372  *   0.91922990  *
    30       H         -3.68396267  *   2.75589380  *   0.81687606  *
    31       H         -2.50683692  *   3.55581085  *  -0.23804506  *
    32       H         -3.65328579  *   2.38703223  *  -0.91622659  *
    33       H         -2.55299215  *   0.28304434  *  -1.39898400  *
    34       H         -1.39668890  *   1.68842816  *   1.11356750  *



          CARTESIAN COORDINATES 

    NO.       ATOM           X           Y           Z

     1         C          0.1884     -0.5880     -1.2840
     2         C          2.3145     -0.1531     -0.9420
     3         C         -0.9156     -0.6354     -0.2307
     4         C          1.4449     -1.4328     -0.9564
     5         C          1.0579      0.6926     -1.2579
     6         C          2.9740      0.1385      0.3900
     7         C         -1.5972     -2.0070     -0.2342
     8         C          3.7602      1.4297      0.3584
     9         C         -2.5183     -2.1849      0.9514
    10         C         -3.0206      2.6043     -0.0452
    11         C         -1.9182      0.4400     -0.5172
    12         C         -2.0387      1.5340      0.2367
    13         H          3.0725     -0.1280     -1.7530
    14         H         -0.2392     -0.8074     -2.2850
    15         H         -0.4540     -0.4686      0.7763
    16         H          2.2072      0.1797      1.1905
    17         H          3.6392     -0.7065      0.6568
    18         H          1.7174     -2.1653     -1.7302
    19         H          1.4062     -1.9721      0.0042
    20         H         -2.1604     -2.1467     -1.1788
    21         H         -0.8222     -2.8002     -0.2294
    22         H          0.7795      1.4200     -0.4768
    23         H          1.0985      1.2383     -2.2118
    24         H          4.5574      1.4016     -0.3963
    25         H          4.2326      1.6323      1.3279
    26         H          3.1154      2.2866      0.1201
    27         H         -1.9712     -2.1303      1.9021
    28         H         -3.2945     -1.4080      0.9772
    29         H         -3.0249     -3.1578      0.9192
    30         H         -3.6840      2.7559      0.8169
    31         H         -2.5068      3.5558     -0.2380
    32         H         -3.6533      2.3870     -0.9162
    33         H         -2.5530      0.2830     -1.3990
    34         H         -1.3967      1.6884      1.1136

  H: (PM3): J. J. P. STEWART, J. COMP. CHEM. 10, 209 (1989).
  C: (PM3): J. J. P. STEWART, J. COMP. CHEM. 10, 209 (1989).

           Empirical Formula: C12 H22  =    34 atoms



      MOLECULAR POINT GROUP   :   C1  


      RHF CALCULATION, NO. OF DOUBLY OCCUPIED LEVELS = 35



          HEAT OF FORMATION =     -22.404510 KCALS/MOLE


          CARTESIAN COORDINATE DERIVATIVES

   NUMBER  ATOM         X            Y            Z

     1       C     -0.032655    -0.015633    -0.002673
     2       C      0.030426     0.013414     0.008663
     3       C      0.014649    -0.013357     0.016498
     4       C     -0.002067     0.001790     0.044810
     5       C      0.008076    -0.002245    -0.048601
     6       C      0.010363    -0.009815    -0.014878
     7       C     -0.015086     0.002655     0.011719
     8       C     -0.024369     0.016438     0.009061
     9       C     -0.005173     0.007142    -0.009294
    10       C      0.006536     0.029171     0.003012
    11       C      0.005549    -0.029739     0.013448
    12       C     -0.005796     0.007842    -0.014594
    13       H     -0.012406     0.024439     0.002487
    14       H     -0.012878    -0.015586    -0.024319
    15       H      0.010001     0.021302     0.001762
    16       H      0.005053    -0.003324    -0.025464
    17       H      0.025299     0.020982     0.022732
    18       H     -0.021783    -0.002371    -0.013234
    19       H      0.004783    -0.012071     0.021444
    20       H     -0.002802    -0.013730     0.008679
    21       H      0.008599    -0.017935     0.018466
    22       H      0.044371     0.026755     0.022362
    23       H      0.000779     0.000170    -0.015104
    24       H     -0.011687     0.016309     0.002168
    25       H      0.012884    -0.027618     0.011003
    26       H     -0.020661    -0.007633    -0.044144
    27       H      0.014904    -0.005901     0.026725
    28       H      0.010434     0.040670    -0.038440
    29       H     -0.016481    -0.001048    -0.012094
    30       H      0.022147     0.016986    -0.025079
    31       H     -0.002698    -0.029673    -0.001620
    32       H     -0.038144    -0.024497     0.002742
    33       H     -0.013647    -0.033480     0.016341
    34       H      0.003477     0.019589     0.025416



          GRADIENT NORM =   0.19397

          MOLECULAR WEIGHT =  166.31



          ROTATIONAL CONSTANTS IN CM(-1)

          A =    0.03670021   B =    0.01762924   C =    0.01378578



           PRINCIPAL MOMENTS OF INERTIA IN UNITS OF 10**(-40)*GRAM-CM**2

          A =      762.7408   B =     1587.8592   C =     2030.5533


          ORIENTATION OF MOLECULE IN FORCE CALCULATION

    NO.       ATOM         X         Y         Z

     1          C      -0.0718   -1.0889    0.4608
     2          C       2.1251   -1.0889    0.4608
     3          C      -0.9857    0.1339    0.4608
     4          C       1.0280   -1.0865    1.5519
     5          C       1.0273   -1.0798   -0.6294
     6          C       3.0284    0.1268    0.4812
     7          C      -1.9174    0.1031    1.6761
     8          C       4.0400    0.0957   -0.6422
     9          C      -2.6595    1.4083    1.8541
    10          C      -2.3526    1.0468   -3.0405
    11          C      -1.7876    0.1512   -0.8042
    12          C      -1.5704    1.0293   -1.7847
    13          H       2.7374   -2.0151    0.4557
    14          H      -0.6849   -2.0147    0.4578
    15          H      -0.3492    1.0538    0.5220
    16          H       2.4191    1.0516    0.4188
    17          H       3.5464    0.1760    1.4595
    18          H       1.0263   -1.9718    2.2043
    19          H       1.0333   -0.1993    2.2060
    20          H      -2.6371   -0.7345    1.5794
    21          H      -1.3236   -0.1179    2.5863
    22          H       1.0234   -0.1867   -1.2768
    23          H       1.0261   -1.9601   -1.2885
    24          H       4.6884   -0.7883   -0.5806
    25          H       4.6882    0.9809   -0.6192
    26          H       3.5484    0.0720   -1.6243
    27          H      -1.9712    2.2454    2.0317
    28          H      -3.2529    1.6577    0.9640
    29          H      -3.3473    1.3616    2.7079
    30          H      -2.8305    2.0253   -3.1836
    31          H      -1.6971    0.8699   -3.9039
    32          H      -3.1435    0.2852   -3.0635
    33          H      -2.5703   -0.6140   -0.8879
    34          H      -0.7820    1.7882   -1.6980


    FIRST DERIVATIVES WILL BE USED IN THE CALCULATION OF SECOND DERIVATIVES

          ESTIMATED TIME TO COMPLETE CALCULATION =        4.78 SECONDS

    FOR POINT-GROUP C1   THERE ARE   1 UNIQUE SYMMETRY FUNCTIONS.

 STEP:   1 TIME =     0.04 SECS, INTEGRAL =      0.04 TIME LEFT: 172799.95
 STEP:   2 TIME =     0.04 SECS, INTEGRAL =      0.08 TIME LEFT: 172799.91
 STEP:   3 TIME =     0.04 SECS, INTEGRAL =      0.12 TIME LEFT: 172799.87
 STEP:   4 TIME =     0.04 SECS, INTEGRAL =      0.16 TIME LEFT: 172799.83
 STEP:   5 TIME =     0.04 SECS, INTEGRAL =      0.19 TIME LEFT: 172799.80
 STEP:   6 TIME =     0.04 SECS, INTEGRAL =      0.23 TIME LEFT: 172799.76
 STEP:   7 TIME =     0.04 SECS, INTEGRAL =      0.27 TIME LEFT: 172799.71
 STEP:   8 TIME =     0.04 SECS, INTEGRAL =      0.31 TIME LEFT: 172799.68
 STEP:   9 TIME =     0.04 SECS, INTEGRAL =      0.36 TIME LEFT: 172799.63
 STEP:  10 TIME =     0.04 SECS, INTEGRAL =      0.39 TIME LEFT: 172799.59
 STEP:  11 TIME =     0.04 SECS, INTEGRAL =      0.43 TIME LEFT: 172799.55
 STEP:  12 TIME =     0.04 SECS, INTEGRAL =      0.47 TIME LEFT: 172799.52
 STEP:  13 TIME =     0.04 SECS, INTEGRAL =      0.52 TIME LEFT: 172799.47
 STEP:  14 TIME =     0.04 SECS, INTEGRAL =      0.56 TIME LEFT: 172799.43
 STEP:  15 TIME =     0.04 SECS, INTEGRAL =      0.60 TIME LEFT: 172799.39
 STEP:  16 TIME =     0.04 SECS, INTEGRAL =      0.64 TIME LEFT: 172799.35
 STEP:  17 TIME =     0.04 SECS, INTEGRAL =      0.68 TIME LEFT: 172799.31
 STEP:  18 TIME =     0.04 SECS, INTEGRAL =      0.71 TIME LEFT: 172799.27
 STEP:  19 TIME =     0.04 SECS, INTEGRAL =      0.75 TIME LEFT: 172799.23
 STEP:  20 TIME =     0.04 SECS, INTEGRAL =      0.79 TIME LEFT: 172799.20
 STEP:  21 TIME =     0.04 SECS, INTEGRAL =      0.83 TIME LEFT: 172799.16
 STEP:  22 TIME =     0.04 SECS, INTEGRAL =      0.87 TIME LEFT: 172799.12
 STEP:  23 TIME =     0.04 SECS, INTEGRAL =      0.91 TIME LEFT: 172799.08
 STEP:  24 TIME =     0.04 SECS, INTEGRAL =      0.95 TIME LEFT: 172799.04
 STEP:  25 TIME =     0.04 SECS, INTEGRAL =      0.98 TIME LEFT: 172799.00
 STEP:  26 TIME =     0.04 SECS, INTEGRAL =      1.02 TIME LEFT: 172798.96
 STEP:  27 TIME =     0.04 SECS, INTEGRAL =      1.07 TIME LEFT: 172798.92
 STEP:  28 TIME =     0.04 SECS, INTEGRAL =      1.11 TIME LEFT: 172798.88
 STEP:  29 TIME =     0.04 SECS, INTEGRAL =      1.15 TIME LEFT: 172798.84
 STEP:  30 TIME =     0.04 SECS, INTEGRAL =      1.19 TIME LEFT: 172798.80
 STEP:  31 TIME =     0.04 SECS, INTEGRAL =      1.23 TIME LEFT: 172798.76
 STEP:  32 TIME =     0.04 SECS, INTEGRAL =      1.27 TIME LEFT: 172798.72
 STEP:  33 TIME =     0.04 SECS, INTEGRAL =      1.31 TIME LEFT: 172798.68
 STEP:  34 TIME =     0.04 SECS, INTEGRAL =      1.35 TIME LEFT: 172798.64
 STEP:  35 TIME =     0.04 SECS, INTEGRAL =      1.39 TIME LEFT: 172798.60
 STEP:  36 TIME =     0.04 SECS, INTEGRAL =      1.43 TIME LEFT: 172798.56
 STEP:  37 TIME =     0.04 SECS, INTEGRAL =      1.47 TIME LEFT: 172798.52
 STEP:  38 TIME =     0.04 SECS, INTEGRAL =      1.51 TIME LEFT: 172798.48
 STEP:  39 TIME =     0.04 SECS, INTEGRAL =      1.55 TIME LEFT: 172798.44
 STEP:  40 TIME =     0.04 SECS, INTEGRAL =      1.59 TIME LEFT: 172798.39
 STEP:  41 TIME =     0.04 SECS, INTEGRAL =      1.63 TIME LEFT: 172798.36
 STEP:  42 TIME =     0.04 SECS, INTEGRAL =      1.68 TIME LEFT: 172798.31
 STEP:  43 TIME =     0.04 SECS, INTEGRAL =      1.72 TIME LEFT: 172798.27
 STEP:  44 TIME =     0.04 SECS, INTEGRAL =      1.76 TIME LEFT: 172798.23
 STEP:  45 TIME =     0.05 SECS, INTEGRAL =      1.81 TIME LEFT: 172798.18
 STEP:  46 TIME =     0.04 SECS, INTEGRAL =      1.85 TIME LEFT: 172798.14
 STEP:  47 TIME =     0.04 SECS, INTEGRAL =      1.89 TIME LEFT: 172798.10
 STEP:  48 TIME =     0.04 SECS, INTEGRAL =      1.93 TIME LEFT: 172798.05
 STEP:  49 TIME =     0.04 SECS, INTEGRAL =      1.97 TIME LEFT: 172798.02
 STEP:  50 TIME =     0.04 SECS, INTEGRAL =      2.02 TIME LEFT: 172797.97
 STEP:  51 TIME =     0.04 SECS, INTEGRAL =      2.05 TIME LEFT: 172797.93
 STEP:  52 TIME =     0.04 SECS, INTEGRAL =      2.10 TIME LEFT: 172797.89
 STEP:  53 TIME =     0.04 SECS, INTEGRAL =      2.14 TIME LEFT: 172797.85
 STEP:  54 TIME =     0.04 SECS, INTEGRAL =      2.17 TIME LEFT: 172797.82
 STEP:  55 TIME =     0.04 SECS, INTEGRAL =      2.21 TIME LEFT: 172797.77
 STEP:  56 TIME =     0.04 SECS, INTEGRAL =      2.26 TIME LEFT: 172797.73
 STEP:  57 TIME =     0.04 SECS, INTEGRAL =      2.30 TIME LEFT: 172797.69
 STEP:  58 TIME =     0.04 SECS, INTEGRAL =      2.34 TIME LEFT: 172797.65
 STEP:  59 TIME =     0.04 SECS, INTEGRAL =      2.38 TIME LEFT: 172797.61
 STEP:  60 TIME =     0.04 SECS, INTEGRAL =      2.42 TIME LEFT: 172797.57
 STEP:  61 TIME =     0.04 SECS, INTEGRAL =      2.46 TIME LEFT: 172797.52
 STEP:  62 TIME =     0.04 SECS, INTEGRAL =      2.51 TIME LEFT: 172797.48
 STEP:  63 TIME =     0.04 SECS, INTEGRAL =      2.55 TIME LEFT: 172797.44
 STEP:  64 TIME =     0.04 SECS, INTEGRAL =      2.59 TIME LEFT: 172797.40
 STEP:  65 TIME =     0.04 SECS, INTEGRAL =      2.63 TIME LEFT: 172797.36
 STEP:  66 TIME =     0.04 SECS, INTEGRAL =      2.67 TIME LEFT: 172797.32
 STEP:  67 TIME =     0.04 SECS, INTEGRAL =      2.71 TIME LEFT: 172797.27
 STEP:  68 TIME =     0.04 SECS, INTEGRAL =      2.76 TIME LEFT: 172797.23
 STEP:  69 TIME =     0.04 SECS, INTEGRAL =      2.80 TIME LEFT: 172797.19
 STEP:  70 TIME =     0.04 SECS, INTEGRAL =      2.84 TIME LEFT: 172797.15
 STEP:  71 TIME =     0.06 SECS, INTEGRAL =      2.89 TIME LEFT: 172797.09
 STEP:  72 TIME =     0.05 SECS, INTEGRAL =      2.95 TIME LEFT: 172797.04
 STEP:  73 TIME =     0.04 SECS, INTEGRAL =      2.99 TIME LEFT: 172797.00
 STEP:  74 TIME =     0.04 SECS, INTEGRAL =      3.03 TIME LEFT: 172796.96
 STEP:  75 TIME =     0.05 SECS, INTEGRAL =      3.07 TIME LEFT: 172796.91
 STEP:  76 TIME =     0.04 SECS, INTEGRAL =      3.11 TIME LEFT: 172796.88
 STEP:  77 TIME =     0.04 SECS, INTEGRAL =      3.16 TIME LEFT: 172796.83
 STEP:  78 TIME =     0.04 SECS, INTEGRAL =      3.20 TIME LEFT: 172796.79
 STEP:  79 TIME =     0.04 SECS, INTEGRAL =      3.23 TIME LEFT: 172796.75
 STEP:  80 TIME =     0.04 SECS, INTEGRAL =      3.27 TIME LEFT: 172796.71
 STEP:  81 TIME =     0.04 SECS, INTEGRAL =      3.32 TIME LEFT: 172796.67
 STEP:  82 TIME =     0.04 SECS, INTEGRAL =      3.36 TIME LEFT: 172796.63
 STEP:  83 TIME =     0.04 SECS, INTEGRAL =      3.40 TIME LEFT: 172796.59
 STEP:  84 TIME =     0.04 SECS, INTEGRAL =      3.44 TIME LEFT: 172796.55
 STEP:  85 TIME =     0.04 SECS, INTEGRAL =      3.48 TIME LEFT: 172796.51
 STEP:  86 TIME =     0.04 SECS, INTEGRAL =      3.52 TIME LEFT: 172796.46
 STEP:  87 TIME =     0.04 SECS, INTEGRAL =      3.56 TIME LEFT: 172796.43
 STEP:  88 TIME =     0.04 SECS, INTEGRAL =      3.60 TIME LEFT: 172796.39
 STEP:  89 TIME =     0.04 SECS, INTEGRAL =      3.64 TIME LEFT: 172796.35
 STEP:  90 TIME =     0.04 SECS, INTEGRAL =      3.68 TIME LEFT: 172796.30
 STEP:  91 TIME =     0.04 SECS, INTEGRAL =      3.72 TIME LEFT: 172796.27
 STEP:  92 TIME =     0.05 SECS, INTEGRAL =      3.77 TIME LEFT: 172796.22
 STEP:  93 TIME =     0.04 SECS, INTEGRAL =      3.81 TIME LEFT: 172796.18
 STEP:  94 TIME =     0.04 SECS, INTEGRAL =      3.85 TIME LEFT: 172796.14
 STEP:  95 TIME =     0.04 SECS, INTEGRAL =      3.89 TIME LEFT: 172796.10
 STEP:  96 TIME =     0.04 SECS, INTEGRAL =      3.93 TIME LEFT: 172796.05
 STEP:  97 TIME =     0.04 SECS, INTEGRAL =      3.97 TIME LEFT: 172796.02
 STEP:  98 TIME =     0.04 SECS, INTEGRAL =      4.01 TIME LEFT: 172795.98
 STEP:  99 TIME =     0.04 SECS, INTEGRAL =      4.05 TIME LEFT: 172795.93
 STEP: 100 TIME =     0.04 SECS, INTEGRAL =      4.10 TIME LEFT: 172795.89
 STEP: 101 TIME =     0.04 SECS, INTEGRAL =      4.14 TIME LEFT: 172795.85
 STEP: 102 TIME =     0.04 SECS, INTEGRAL =      4.18 TIME LEFT: 172795.81

(To convert to Hartree/Bohr^2, multiply by (10^(-21) x N x a0^2)/(4.184 x 627.51) =  0.0642)


           FORCE MATRIX IN MILLIDYNES/ANGSTROM


                  C  1       C  2       C  3       C  4       C  5       C  6
 ------------------------------------------------------------------------------
     C    1  14.412222
     C    2   1.798556  14.560386
     C    3   3.893620   0.039920  14.595827
     C    4   3.430440   3.490069   0.524569  14.320391
     C    5   3.463748   3.484623   0.525879   1.833549  14.332468
     C    6   0.040075   4.306235   0.005561   0.551051   0.543205  14.487651
     C    7   0.639708   0.004945   3.797835   0.045736   0.049549   0.001081
     C    8   0.004920   0.659298   0.001075   0.051023   0.032660   4.471466
     C    9   0.053347   0.000741   0.633650   0.002660   0.009352   0.000385
     C   10   0.022726   0.000280   0.144941   0.004007   0.001628   0.000364
     C   11   0.697511   0.005194   4.629598   0.048738   0.043734   0.001193
     C   12   0.035129   0.001797   0.794444   0.003950   0.022181   0.000469
     H   13   0.028443   4.427718   0.001673   0.427692   0.428649   0.431478
     H   14   4.424906   0.028363   0.436544   0.428126   0.428487   0.002146
     H   15   0.431989   0.002675   4.133057   0.026488   0.021007   0.004616
     H   16   0.002696   0.450713   0.004704   0.021341   0.023892   4.418981
     H   17   0.003451   0.434238   0.000722   0.019112   0.047570   4.455933
     H   18   0.441166   0.442090   0.033951   4.714431   0.031509   0.034171
     H   19   0.451085   0.452303   0.025795   4.628344   0.028394   0.032048
     H   20   0.020023   0.000376   0.451297   0.002324   0.000998   0.000189
     H   21   0.045004   0.000911   0.440099   0.018157   0.002154   0.000487
     H   22   0.454068   0.451726   0.028815   0.028134   4.607595   0.025847
     H   23   0.443252   0.441337   0.033990   0.031578   4.717916   0.034322
     H   24   0.000320   0.023868   0.000303   0.001649   0.002127   0.464068
     H   25   0.000599   0.052587   0.000243   0.008792   0.002255   0.451349
     H   26   0.000468   0.020045   0.000375   0.001879   0.007241   0.464092
     H   27   0.001628   0.000093   0.022242   0.000304   0.000519   0.000101
     H   28   0.002033   0.000120   0.023224   0.000453   0.000558   0.000120
     H   29   0.009428   0.000139   0.051252   0.000572   0.001854   0.000103
     H   30   0.002756   0.000044   0.019530   0.000391   0.000146   0.000092
     H   31   0.003995   0.000101   0.019553   0.000872   0.000335   0.000135
     H   32   0.000673   0.000076   0.002312   0.000182   0.000110   0.000106
     H   33   0.013489   0.000351   0.434284   0.002132   0.002498   0.000529
     H   34   0.011935   0.000566   0.085119   0.002281   0.004110   0.000730


                  C  7       C  8       C  9       C 10       C 11       C 12
 ------------------------------------------------------------------------------
     C    7  14.289007
     C    8   0.000510  14.375187
     C    9   4.475770   0.000191  14.375815
     C   10   0.019612   0.000337   0.000930  14.717776
     C   11   0.690100   0.001024   0.047707   0.845624  18.123829
     C   12   0.040586   0.000264   0.008253   5.265606  10.681852  18.166282
     H   13   0.000542   0.031079   0.000262   0.000118   0.000643   0.000366
     H   14   0.027562   0.000570   0.001346   0.000664   0.023480   0.001911
     H   15   0.425379   0.000559   0.034743   0.002676   0.442625   0.055435
     H   16   0.000432   0.437505   0.000206   0.000203   0.000553   0.000502
     H   17   0.000376   0.440160   0.000180   0.000132   0.000427   0.000161
     H   18   0.002103   0.006436   0.000479   0.000644   0.006918   0.000719
     H   19   0.014354   0.003028   0.001066   0.000323   0.002376   0.000725
     H   20   4.438627   0.000133   0.438817   0.000921   0.036548   0.002331
     H   21   4.425204   0.000252   0.436609   0.003495   0.049243   0.006533
     H   22   0.003209   0.008953   0.000949   0.001332   0.010292   0.011195
     H   23   0.005869   0.001758   0.001394   0.000443   0.002639   0.000997
     H   24   0.000171   4.725373   0.000037   0.000087   0.000233   0.000102
     H   25   0.000137   4.752966   0.000067   0.000131   0.000308   0.000087
     H   26   0.000174   4.711969   0.000115   0.000134   0.000281   0.000280
     H   27   0.464072   0.000077   4.721138   0.000200   0.002197   0.000572
     H   28   0.465090   0.000076   4.719287   0.000533   0.010654   0.005399
     H   29   0.450506   0.000084   4.751199   0.000266   0.002983   0.000485
     H   30   0.003553   0.000072   0.000260   4.708159   0.037077   0.440011
     H   31   0.001994   0.000106   0.000252   4.702744   0.034395   0.439273
     H   32   0.000694   0.000073   0.000189   4.722440   0.041237   0.480695
     H   33   0.027908   0.000182   0.004650   0.084746   4.757615   0.467414
     H   34   0.008190   0.000422   0.000716   0.424097   0.470269   4.762255


                  H 13       H 14       H 15       H 16       H 17       H 18
 ------------------------------------------------------------------------------
     H   13   4.928501
     H   14   0.002603   4.927233
     H   15   0.000542   0.041145   4.615383
     H   16   0.043877   0.000531   0.010462   5.031585
     H   17   0.024862   0.000670   0.000330   0.568887   5.065253
     H   18   0.026503   0.026715   0.001577   0.001301   0.001943   5.332864
     H   19   0.030741   0.030935   0.023892   0.016997   0.011996   0.553174
     H   20   0.000106   0.015770   0.042493   0.000158   0.000074   0.000356
     H   21   0.000386   0.002847   0.022533   0.000182   0.000148   0.001700
     H   22   0.030525   0.030668   0.017694   0.023224   0.003552   0.000965
     H   23   0.026879   0.026633   0.001417   0.001740   0.005977   0.003454
     H   24   0.021767   0.000116   0.000191   0.048261   0.024386   0.000350
     H   25   0.001988   0.000129   0.000139   0.030055   0.028981   0.001280
     H   26   0.001921   0.000305   0.000162   0.024425   0.048994   0.000414
     H   27   0.000044   0.000497   0.022721   0.000067   0.000031   0.000127
     H   28   0.000094   0.000435   0.002258   0.000059   0.000041   0.000219
     H   29   0.000053   0.000445   0.002188   0.000066   0.000044   0.000116
     H   30   0.000049   0.000142   0.000313   0.000044   0.000032   0.000058
     H   31   0.000063   0.000204   0.000636   0.000052   0.000042   0.000181
     H   32   0.000041   0.000201   0.000516   0.000055   0.000040   0.000058
     H   33   0.000296   0.008610   0.036277   0.000186   0.000181   0.000579
     H   34   0.000337   0.000758   0.030112   0.000452   0.000223   0.000440


                  H 19       H 20       H 21       H 22       H 23       H 24
 ------------------------------------------------------------------------------
     H   19   5.265991
     H   20   0.000515   5.062652
     H   21   0.024294   0.570121   5.045836
     H   22   0.002830   0.000470   0.000515   5.237608
     H   23   0.000991   0.000297   0.000411   0.550819   5.335354
     H   24   0.000462   0.000042   0.000052   0.000481   0.000355   5.468205
     H   25   0.000720   0.000020   0.000084   0.000625   0.000335   0.573618
     H   26   0.000421   0.000036   0.000069   0.013443   0.000811   0.576714
     H   27   0.000298   0.048286   0.026347   0.000183   0.000069   0.000028
     H   28   0.000335   0.022764   0.048605   0.000244   0.000066   0.000014
     H   29   0.000184   0.031175   0.028869   0.000182   0.000332   0.000018
     H   30   0.000065   0.000199   0.000777   0.000253   0.000092   0.000018
     H   31   0.000098   0.000140   0.000257   0.000259   0.000147   0.000033
     H   32   0.000057   0.000224   0.000155   0.000271   0.000152   0.000020
     H   33   0.000720   0.027596   0.002153   0.001070   0.000741   0.000065
     H   34   0.000306   0.000750   0.001669   0.006223   0.000439   0.000138


                  H 25       H 26       H 27       H 28       H 29       H 30
 ------------------------------------------------------------------------------
     H   25   5.489648
     H   26   0.571668   5.450940
     H   27   0.000018   0.000024   5.464768
     H   28   0.000023   0.000028   0.577408   5.453403
     H   29   0.000029   0.000037   0.574318   0.568526   5.487164
     H   30   0.000031   0.000032   0.000086   0.000173   0.000152   5.427005
     H   31   0.000041   0.000052   0.000096   0.000201   0.000102   0.576617
     H   32   0.000027   0.000036   0.000116   0.000142   0.000089   0.565364
     H   33   0.000059   0.000111   0.000608   0.002085   0.000637   0.009569
     H   34   0.000165   0.000242   0.000324   0.000647   0.000311   0.024519


                  H 31       H 32       H 33       H 34
 ------------------------------------------------------
     H   31   5.422614
     H   32   0.566298   5.448764
     H   33   0.009642   0.029639   5.141984
     H   34   0.022717   0.041805   0.107064   5.141389


          HEAT OF FORMATION =     -22.404510 KCALS/MOLE

          ZERO POINT ENERGY     194.556 KCAL/MOL


           NORMAL COORDINATE ANALYSIS (Total motion = 1 Angstrom)


   Root No.       1         2         3         4         5         6         7         8

                 1 A       2 A       3 A       4 A       5 A       6 A       7 A       8 A   

                  31.2      43.3      47.0      73.0      89.8     110.8     144.2     166.1
  
           1   -0.0073   -0.0047   -0.0028   -0.0031   -0.0029   -0.0051    0.0023    0.0007
           2   -0.0034   -0.0123    0.0132    0.0037   -0.0088    0.0024   -0.0004   -0.0029
           3    0.0106   -0.0118   -0.0126    0.0014    0.0009   -0.0028   -0.0019    0.0054
           4   -0.0073   -0.0045   -0.0028   -0.0032   -0.0028   -0.0053    0.0025    0.0013
           5    0.0019   -0.0056    0.0027    0.0117    0.0065   -0.0014    0.0037    0.0012
           6   -0.0054   -0.0013   -0.0103    0.0005   -0.0107   -0.0126    0.0170   -0.0100
           7   -0.0037    0.0048   -0.0068   -0.0141    0.0030   -0.0003   -0.0010   -0.0009
           8   -0.0004   -0.0050    0.0104   -0.0047   -0.0043    0.0064   -0.0036   -0.0049
           9    0.0142   -0.0075    0.0025   -0.0028    0.0017    0.0070   -0.0107    0.0097
          10    0.0007   -0.0098   -0.0039   -0.0026    0.0030   -0.0007   -0.0059    0.0080
          11   -0.0011   -0.0269   -0.0010    0.0204   -0.0023   -0.0113    0.0174   -0.0074
          12    0.0027   -0.0066   -0.0116    0.0010   -0.0052   -0.0079    0.0078   -0.0025
          13   -0.0153    0.0007   -0.0016   -0.0037   -0.0086   -0.0098    0.0111   -0.0059
          14   -0.0087   -0.0074    0.0281    0.0052   -0.0183    0.0073   -0.0102    0.0089
          15    0.0027   -0.0066   -0.0114    0.0009   -0.0053   -0.0079    0.0078   -0.0022
          16   -0.0161   -0.0210    0.0114    0.0008   -0.0248   -0.0074    0.0036    0.0036
          17    0.0088    0.0067   -0.0084    0.0088    0.0235    0.0000    0.0031   -0.0004
          18   -0.0171    0.0158    0.0076   -0.0098   -0.0235   -0.0042    0.0050   -0.0036
          19   -0.0070    0.0126    0.0053   -0.0224    0.0073    0.0066    0.0043   -0.0139
          20   -0.0049    0.0079    0.0010   -0.0183    0.0018    0.0091   -0.0079    0.0017
          21    0.0114   -0.0013    0.0115   -0.0091    0.0052    0.0118   -0.0056   -0.0002
          22   -0.0295   -0.0167    0.0185    0.0134    0.0269    0.0056   -0.0073    0.0087
          23    0.0159    0.0348   -0.0096   -0.0153   -0.0089    0.0009   -0.0047    0.0041
          24   -0.0294    0.0191    0.0140    0.0021    0.0241    0.0076   -0.0048    0.0008
          25   -0.0101    0.0453   -0.0081    0.0249   -0.0029   -0.0052    0.0045   -0.0034
          26   -0.0068    0.0248   -0.0074    0.0020   -0.0024    0.0035   -0.0097    0.0114
          27    0.0124    0.0122    0.0176    0.0378   -0.0069    0.0042    0.0053   -0.0202
          28    0.0521   -0.0067   -0.0012    0.0113   -0.0029    0.0154   -0.0234   -0.0076
          29   -0.0016   -0.0101   -0.0192   -0.0047    0.0113   -0.0155    0.0271    0.0008
          30   -0.0074   -0.0045   -0.0075   -0.0126    0.0087   -0.0045    0.0053    0.0145
          31    0.0026   -0.0037   -0.0178   -0.0035   -0.0020   -0.0020   -0.0107    0.0001
          32    0.0108   -0.0020    0.0128   -0.0071    0.0023    0.0050    0.0062   -0.0029
          33    0.0104   -0.0022    0.0094   -0.0095    0.0051    0.0080   -0.0045    0.0089
          34    0.0414    0.0016    0.0070   -0.0039    0.0053    0.0065    0.0258    0.0122
          35   -0.0113   -0.0117   -0.0177    0.0002   -0.0014   -0.0051   -0.0265   -0.0142
          36   -0.0010   -0.0096   -0.0125   -0.0031    0.0034    0.0010   -0.0260    0.0018
          37   -0.0007    0.0073   -0.0133   -0.0057    0.0131   -0.0042    0.0022    0.0003
          38    0.0064    0.0024   -0.0043    0.0099    0.0171   -0.0006    0.0034    0.0005
          39   -0.0067   -0.0069   -0.0221    0.0072   -0.0059   -0.0232    0.0341   -0.0214
          40   -0.0097   -0.0110   -0.0009    0.0051   -0.0063   -0.0091    0.0056    0.0030
          41   -0.0017   -0.0079    0.0119   -0.0017   -0.0064    0.0051   -0.0025   -0.0042
          42    0.0179   -0.0223   -0.0254    0.0076    0.0101   -0.0074    0.0029    0.0040
          43   -0.0009    0.0137   -0.0099   -0.0222    0.0084    0.0028   -0.0023   -0.0016
          44   -0.0027   -0.0106    0.0125    0.0004   -0.0077    0.0044   -0.0025   -0.0047
          45    0.0218   -0.0144    0.0009    0.0052   -0.0010    0.0044   -0.0125    0.0138
          46   -0.0241   -0.0340    0.0232    0.0053   -0.0383   -0.0083    0.0041    0.0056
          47    0.0041   -0.0011   -0.0003    0.0101    0.0101   -0.0010    0.0035    0.0010
          48   -0.0105    0.0247    0.0129   -0.0324   -0.0904   -0.0116    0.0055   -0.0015
          49   -0.0048   -0.0251    0.0057   -0.0099   -0.0691   -0.0183    0.0122    0.0002
          50    0.0136    0.0024   -0.0244    0.0236    0.0753    0.0017    0.0075   -0.0060
          51   -0.0234    0.0182    0.0115   -0.0049   -0.0026    0.0016    0.0001   -0.0015
          52    0.0077   -0.0104   -0.0089    0.0010    0.0129    0.0006   -0.0099    0.0146
          53   -0.0018   -0.0385   -0.0058    0.0287   -0.0038   -0.0188    0.0276   -0.0116
          54    0.0017   -0.0223   -0.0181    0.0122   -0.0071   -0.0180    0.0216   -0.0082
          55    0.0030   -0.0151   -0.0000   -0.0057    0.0007    0.0037   -0.0120    0.0095
          56   -0.0019   -0.0385   -0.0058    0.0287   -0.0038   -0.0188    0.0275   -0.0115
          57    0.0037    0.0091   -0.0051   -0.0101   -0.0031    0.0021   -0.0056    0.0030
          58   -0.0051   -0.0078    0.0139   -0.0520    0.0136    0.0140    0.0043   -0.0203
          59   -0.0061    0.0255   -0.0074    0.0113   -0.0050    0.0015   -0.0082    0.0082
          60    0.0078   -0.0018    0.0195   -0.0447    0.0166    0.0234   -0.0045   -0.0095
          61   -0.0086    0.0127    0.0165   -0.0355    0.0120    0.0140    0.0087   -0.0296
          62   -0.0058   -0.0119    0.0087   -0.0744    0.0165    0.0231   -0.0111   -0.0023
          63    0.0122   -0.0062    0.0061   -0.0140    0.0056    0.0104   -0.0091    0.0086
          64   -0.0227    0.0012    0.0035   -0.0072   -0.0178   -0.0110    0.0145   -0.0117
          65   -0.0136   -0.0073    0.0406    0.0041   -0.0299    0.0111   -0.0173    0.0151
          66   -0.0043   -0.0064    0.0057   -0.0006   -0.0210   -0.0028   -0.0020    0.0062
          67   -0.0180    0.0066   -0.0051   -0.0009   -0.0062   -0.0144    0.0185   -0.0088
          68   -0.0138   -0.0072    0.0409    0.0040   -0.0300    0.0112   -0.0176    0.0153
          69    0.0095   -0.0068   -0.0284    0.0024    0.0103   -0.0131    0.0176   -0.0107
          70   -0.0232   -0.0059    0.0086    0.0112    0.0487    0.0082   -0.0069   -0.0040
          71    0.0200    0.0420   -0.0171   -0.0152    0.0124    0.0034   -0.0044   -0.0061
          72   -0.0376    0.0094    0.0106    0.0270    0.1012    0.0174   -0.0049   -0.0112
          73   -0.0349   -0.0278    0.0279    0.0147    0.0015    0.0022   -0.0070    0.0212
          74    0.0200    0.0426   -0.0168   -0.0161    0.0101    0.0033   -0.0046   -0.0055
          75   -0.0368    0.0337    0.0259   -0.0084    0.0058    0.0130   -0.0176    0.0193
          76   -0.0411   -0.0126    0.0246    0.0241    0.0717    0.0170   -0.0169    0.0133
          77    0.0132    0.0423    0.0041   -0.0342   -0.0755   -0.0034   -0.0116    0.0279
          78   -0.0235    0.0169    0.0107   -0.0028    0.0034    0.0021    0.0001   -0.0020
          79   -0.0122    0.0667   -0.0159    0.0543   -0.0090   -0.0121    0.0056   -0.0036
          80   -0.0055    0.0066    0.0011   -0.0321    0.0061    0.0134   -0.0078   -0.0170
          81    0.0144    0.0152    0.0077    0.0848   -0.0236   -0.0157   -0.0082    0.1136
          82   -0.0097    0.0469   -0.0215    0.0468   -0.0118   -0.0194   -0.0121    0.1163
          83   -0.0070    0.0461   -0.0165    0.0642   -0.0198   -0.0147   -0.0126    0.0765
          84    0.0120    0.0171    0.0240    0.0408   -0.0059    0.0086    0.0156   -0.0821
          85   -0.0110    0.0484    0.0026    0.0112    0.0039    0.0062    0.0199   -0.1134
          86   -0.0096    0.0353   -0.0139   -0.0093    0.0031    0.0072   -0.0102   -0.0177
          87    0.0115    0.0153    0.0258    0.0262   -0.0011    0.0137    0.0177   -0.1106
          88    0.0902    0.0079    0.0419   -0.0052    0.0270   -0.1222   -0.0521   -0.0115
          89    0.0141   -0.0038   -0.0019   -0.0126    0.0250   -0.0710    0.0258    0.0025
          90   -0.0269   -0.0098   -0.0331   -0.0111    0.0027    0.0736    0.0891    0.0380
          91    0.0525   -0.0153   -0.0151    0.0256   -0.0145    0.0460   -0.0585   -0.0233
          92   -0.0401   -0.0280   -0.0743    0.0143   -0.0177    0.1489    0.0971    0.0145
          93    0.0007   -0.0074   -0.0068   -0.0057    0.0058   -0.0147   -0.0353   -0.0000
          94    0.0236   -0.0189   -0.0356    0.0260   -0.0271    0.1233   -0.0076   -0.0074
          95    0.0278    0.0023    0.0157   -0.0194    0.0360   -0.1255    0.0111    0.0004
          96   -0.0017    0.0074    0.0204   -0.0285    0.0216   -0.0729   -0.0073    0.0176
          97   -0.0247   -0.0147   -0.0466    0.0069   -0.0132   -0.0044   -0.0621   -0.0158
          98    0.0381    0.0081    0.0398   -0.0164    0.0133    0.0070    0.0555    0.0122
          99    0.0163    0.0079    0.0323   -0.0217    0.0105    0.0117    0.0257    0.0174
         100    0.0685    0.0126    0.0358   -0.0147    0.0176    0.0054    0.0835    0.0309
         101   -0.0387   -0.0219   -0.0449    0.0100   -0.0136   -0.0037   -0.0824   -0.0323
         102   -0.0063   -0.0203   -0.0360    0.0093   -0.0018    0.0002   -0.0601   -0.0109


   Root No.       9        10        11        12        13        14        15        16

                 9 A      10 A      11 A      12 A      13 A      14 A      15 A      16 A   

                 177.7     189.8     227.4     254.3     305.9     343.4     378.8     404.6
  
           1   -0.0021   -0.0007   -0.0017   -0.0019   -0.0025   -0.0103   -0.0043    0.0184
           2   -0.0091    0.0043   -0.0050    0.0050   -0.0067   -0.0069   -0.0059    0.0353
           3    0.0050   -0.0002   -0.0127    0.0082   -0.0158    0.0031    0.0362    0.0016
           4   -0.0014   -0.0015   -0.0025    0.0024   -0.0015   -0.0231   -0.0034    0.0066
           5    0.0075   -0.0042    0.0079   -0.0212    0.0014    0.0063    0.0021   -0.0338
           6   -0.0078    0.0023    0.0092   -0.0149    0.0024   -0.0138   -0.0011   -0.0025
           7   -0.0106    0.0098   -0.0067   -0.0084   -0.0017    0.0067   -0.0015    0.0056
           8   -0.0165    0.0133   -0.0099    0.0021   -0.0079   -0.0036   -0.0047    0.0187
           9    0.0028   -0.0043   -0.0098   -0.0031    0.0063   -0.0014    0.0002    0.0031
          10    0.0042   -0.0023   -0.0120    0.0103   -0.0109   -0.0100    0.0177    0.0154
          11    0.0053    0.0058    0.0111    0.0213    0.0217    0.0311   -0.0131    0.0119
          12   -0.0016    0.0012   -0.0019   -0.0043   -0.0078   -0.0031    0.0230    0.0027
          13   -0.0072   -0.0003    0.0083   -0.0108    0.0068   -0.0269   -0.0262    0.0103
          14    0.0045   -0.0240    0.0008   -0.0279   -0.0143    0.0144    0.0140    0.0149
          15   -0.0013    0.0009   -0.0023   -0.0027   -0.0077   -0.0097    0.0235   -0.0040
          16    0.0032   -0.0120   -0.0005    0.0124    0.0056   -0.0084    0.0027   -0.0309
          17    0.0042    0.0038    0.0062   -0.0280   -0.0037   -0.0083   -0.0018   -0.0110
          18   -0.0053   -0.0064    0.0042    0.0002    0.0030    0.0084   -0.0046   -0.0052
          19   -0.0116    0.0137    0.0305   -0.0026   -0.0072    0.0208    0.0134   -0.0006
          20   -0.0014    0.0012    0.0046    0.0078   -0.0244   -0.0062   -0.0200   -0.0135
          21    0.0015   -0.0006    0.0174    0.0027    0.0014    0.0051    0.0074   -0.0046
          22    0.0123    0.0013   -0.0071    0.0204    0.0030   -0.0095    0.0068   -0.0202
          23    0.0037    0.0014   -0.0082    0.0320    0.0045   -0.0023    0.0037   -0.0043
          24    0.0029    0.0061   -0.0016    0.0079    0.0008    0.0106   -0.0019    0.0100
          25    0.0072   -0.0061    0.0090   -0.0084    0.0190    0.0138    0.0219    0.0112
          26    0.0120   -0.0132   -0.0053    0.0038   -0.0059   -0.0118   -0.0167   -0.0076
          27   -0.0121    0.0144   -0.0034    0.0098   -0.0274   -0.0050   -0.0153   -0.0128
          28    0.0081   -0.0064    0.0194    0.0038    0.0038   -0.0036   -0.0084    0.0038
          29    0.0123   -0.0088    0.0144    0.0094   -0.0201   -0.0048    0.0082    0.0044
          30    0.0059   -0.0061   -0.0114   -0.0082    0.0117    0.0142   -0.0330    0.0005
          31   -0.0089    0.0084   -0.0285   -0.0127   -0.0183    0.0312   -0.0084   -0.0065
          32   -0.0187    0.0158   -0.0145   -0.0065    0.0370   -0.0127    0.0235   -0.0079
          33    0.0015   -0.0029    0.0027   -0.0020    0.0222   -0.0126   -0.0053    0.0091
          34    0.0012   -0.0010   -0.0198   -0.0084    0.0002    0.0214   -0.0171   -0.0078
          35   -0.0128    0.0121   -0.0066   -0.0062    0.0231    0.0017    0.0110   -0.0130
          36    0.0089   -0.0084    0.0112   -0.0012    0.0146   -0.0017   -0.0219    0.0056
[...]
 REDUCED MASS        0.4309         C  6 -- H 17          +2.8% ( 17.3%)     98.2%
 EFFECTIVE MASS      1.5073
 FORCE CONSTANT      2.3231

 VIBRATION         81   81A           ATOM PAIR      ENERGY CONTRIBUTION    RADIAL
 FREQUENCY          3027.40         C  7 -- H 20         +43.9% ( 65.6%)     98.0%
 TRANSITION DIPOLE   0.0325         C  7 -- H 21         +38.1% ( 61.1%)     97.3%
 TRAVEL (Ang.)       0.2537         C  4 -- H 19          +4.4% ( 20.8%)     98.6%
 REDUCED MASS        0.3461         C  6 -- H 17          +3.8% ( 19.2%)     98.4%
 EFFECTIVE MASS      1.2965
 FORCE CONSTANT      1.8690

 VIBRATION         82   82A           ATOM PAIR      ENERGY CONTRIBUTION    RADIAL
 FREQUENCY          3027.91         C  6 -- H 17         +49.1% ( 69.4%)     98.5%
 TRANSITION DIPOLE   0.0181         C  6 -- H 16         +35.9% ( 59.3%)     96.7%
 TRAVEL (Ang.)       0.2432         C  5 -- H 22          +5.1% ( 22.4%)     98.4%
 REDUCED MASS        0.3767         C  7 -- H 20          +2.8% ( 16.5%)     98.0%
 EFFECTIVE MASS      1.2970
 FORCE CONSTANT      2.0346

 VIBRATION         83   83A           ATOM PAIR      ENERGY CONTRIBUTION    RADIAL
 FREQUENCY          3031.40         C  4 -- H 19         +54.7% ( 76.6%)     98.3%
 TRANSITION DIPOLE   0.1179         C  4 -- H 18         +28.9% ( 55.7%)     94.5%
 TRAVEL (Ang.)       0.2305         C  5 -- H 22          +3.6% ( 19.5%)     98.7%
 REDUCED MASS        0.4187         C  7 -- H 21          +3.2% ( 18.6%)     98.0%
 EFFECTIVE MASS      1.5166
 FORCE CONSTANT      2.2668

 VIBRATION         84   84A           ATOM PAIR      ENERGY CONTRIBUTION    RADIAL
 FREQUENCY          3035.31         C 12 -- H 34         +58.5% ( 77.3%)    100.0%
 TRANSITION DIPOLE   0.3181         C 11 -- H 33         +37.0% ( 61.5%)    100.0%
 TRAVEL (Ang.)       0.2187         C 10 -- C 12          +0.8% (  8.9%)     15.8%
 REDUCED MASS        0.4646         C 11 -- C 12          +0.8% (  8.8%)     33.4%
 EFFECTIVE MASS      1.4362
 FORCE CONSTANT      2.5222

 VIBRATION         85   85A           ATOM PAIR      ENERGY CONTRIBUTION    RADIAL
 FREQUENCY          3036.39         C 11 -- H 33         +58.2% ( 77.7%)     99.9%
 TRANSITION DIPOLE   0.0530         C 12 -- H 34         +35.9% ( 61.0%)     99.9%
 TRAVEL (Ang.)       0.2173         C 11 -- C 12          +2.1% ( 14.9%)     39.6%
 REDUCED MASS        0.4701         C  3 -- C 11          +0.9% (  9.6%)     10.0%
 EFFECTIVE MASS      1.5886
 FORCE CONSTANT      2.5537

 VIBRATION         86   86A           ATOM PAIR      ENERGY CONTRIBUTION    RADIAL
 FREQUENCY          3069.80         C 10 -- H 31         +53.8% ( 75.7%)     97.7%
 TRANSITION DIPOLE   0.0171         C 10 -- H 30         +43.9% ( 68.3%)     96.2%
 TRAVEL (Ang.)       0.2075         C 10 -- H 32          +1.3% ( 11.8%)     10.0%
 REDUCED MASS        0.5103         C 10 -- C 12          +1.0% ( 10.2%)      0.0%
 EFFECTIVE MASS      1.5012
 FORCE CONSTANT      2.8334

 VIBRATION         87   87A           ATOM PAIR      ENERGY CONTRIBUTION    RADIAL
 FREQUENCY          3075.31         C 10 -- H 32         +62.4% ( 81.5%)     98.8%
 TRANSITION DIPOLE   0.0514         C 10 -- H 30         +21.9% ( 48.3%)     88.7%
 TRAVEL (Ang.)       0.2133         C 10 -- H 31         +12.7% ( 36.7%)     79.2%
 REDUCED MASS        0.4821         C 12 -- H 34          +1.8% ( 13.7%)    100.0%
 EFFECTIVE MASS      1.5085
 FORCE CONSTANT      2.6862

 VIBRATION         88   88A           ATOM PAIR      ENERGY CONTRIBUTION    RADIAL
 FREQUENCY          3076.49         C  8 -- H 26         +58.5% ( 78.9%)     98.2%
 TRANSITION DIPOLE   0.0078         C  8 -- H 24         +38.1% ( 63.6%)     95.2%
 TRAVEL (Ang.)       0.2063         C  8 -- H 25          +2.1% ( 14.9%)     25.0%
 REDUCED MASS        0.5148         C  6 -- C  8          +1.0% ( 10.2%)      0.0%
 EFFECTIVE MASS      1.5010
 FORCE CONSTANT      2.8708

 VIBRATION         89   89A           ATOM PAIR      ENERGY CONTRIBUTION    RADIAL
 FREQUENCY          3076.64         C  9 -- H 28         +51.6% ( 74.1%)     97.4%
 TRANSITION DIPOLE   0.0218         C  9 -- H 27         +46.2% ( 70.1%)     96.7%
 TRAVEL (Ang.)       0.2078         C  7 -- C  9          +1.0% ( 10.2%)      0.0%
 REDUCED MASS        0.5076         C  9 -- H 29          +1.0% ( 10.1%)      0.8%
 EFFECTIVE MASS      1.5018
 FORCE CONSTANT      2.8309

 VIBRATION         90   90A           ATOM PAIR      ENERGY CONTRIBUTION    RADIAL
 FREQUENCY          3084.22         C  9 -- H 29         +61.4% ( 80.8%)     98.7%
 TRANSITION DIPOLE   0.0131         C  9 -- H 27         +20.3% ( 46.4%)     87.3%
 TRAVEL (Ang.)       0.2144         C  9 -- H 28         +16.8% ( 42.3%)     84.3%
 REDUCED MASS        0.4755         C  7 -- C  9          +1.0% ( 10.4%)      0.0%
 EFFECTIVE MASS      1.5040
 FORCE CONSTANT      2.6649

 VIBRATION         91   91A           ATOM PAIR      ENERGY CONTRIBUTION    RADIAL
 FREQUENCY          3084.31         C  8 -- H 25         +59.8% ( 79.8%)     98.6%
 TRANSITION DIPOLE   0.0035         C  8 -- H 24         +28.2% ( 54.8%)     91.7%
 TRAVEL (Ang.)       0.2140         C  8 -- H 26         +10.5% ( 33.4%)     74.5%
 REDUCED MASS        0.4773         C  6 -- C  8          +1.0% ( 10.3%)      0.0%
 EFFECTIVE MASS      1.5037
 FORCE CONSTANT      2.6750

 VIBRATION         92   92A           ATOM PAIR      ENERGY CONTRIBUTION    RADIAL
 FREQUENCY          3097.28         C  5 -- H 23         +56.3% ( 74.5%)     99.1%
 TRANSITION DIPOLE   0.1005         C  5 -- H 22         +21.6% ( 46.2%)     92.1%
 TRAVEL (Ang.)       0.2394         C  4 -- H 18         +13.4% ( 36.3%)     98.9%
 REDUCED MASS        0.3799         C  4 -- H 19          +6.7% ( 25.7%)     94.4%
 EFFECTIVE MASS      1.2777
 FORCE CONSTANT      2.1473

 VIBRATION         93   93A           ATOM PAIR      ENERGY CONTRIBUTION    RADIAL
 FREQUENCY          3100.76         C  4 -- H 18         +52.0% ( 71.7%)     98.7%
 TRANSITION DIPOLE   0.0432         C  4 -- H 19         +25.6% ( 50.3%)     93.7%
 TRAVEL (Ang.)       0.2458         C  5 -- H 23         +14.4% ( 37.7%)     98.9%
 REDUCED MASS        0.3600         C  5 -- H 22          +5.6% ( 23.5%)     91.4%
 EFFECTIVE MASS      1.3076
 FORCE CONSTANT      2.0393

 VIBRATION         94   94A           ATOM PAIR      ENERGY CONTRIBUTION    RADIAL
 FREQUENCY          3169.32         C 10 -- H 32         +34.4% ( 56.5%)     97.2%
 TRANSITION DIPOLE   0.0628         C 10 -- H 30         +33.0% ( 55.3%)     97.1%
 TRAVEL (Ang.)       0.2550         C 10 -- H 31         +32.3% ( 54.7%)     97.0%
 REDUCED MASS        0.3272         C 10 -- C 12          +0.3% (  5.4%)    100.0%
 EFFECTIVE MASS      1.1393
 FORCE CONSTANT      1.9363

 VIBRATION         95   95A           ATOM PAIR      ENERGY CONTRIBUTION    RADIAL
 FREQUENCY          3179.07         C  9 -- H 29         +37.0% ( 58.5%)     97.6%
 TRANSITION DIPOLE   0.0203         C  9 -- H 27         +32.5% ( 54.8%)     97.0%
 TRAVEL (Ang.)       0.2540         C  9 -- H 28         +30.3% ( 53.0%)     96.5%
 REDUCED MASS        0.3289         C  7 -- C  9          +0.3% (  5.1%)     99.5%
 EFFECTIVE MASS      1.1366
 FORCE CONSTANT      1.9584

 VIBRATION         96   96A           ATOM PAIR      ENERGY CONTRIBUTION    RADIAL
 FREQUENCY          3179.52         C  8 -- H 25         +37.5% ( 58.9%)     97.7%
 TRANSITION DIPOLE   0.0092         C  8 -- H 24         +32.7% ( 55.1%)     97.0%
 TRAVEL (Ang.)       0.2537         C  8 -- H 26         +29.5% ( 52.2%)     96.4%
 REDUCED MASS        0.3296         C  6 -- C  8          +0.3% (  5.1%)     99.2%
 EFFECTIVE MASS      1.1369
 FORCE CONSTANT      1.9633

      SYMMETRY NUMBER FOR POINT-GROUP C1  =  1


          SYSTEM IS A GROUND STATE



 InChI=1S/C12H22/c1-4-7-11(6-3)12-8-10(5-2)9-12/h4,7,10-12H,5-6,8-9H2,1-3H3


          MOLECULE IS NOT LINEAR

          THERE ARE 96 GENUINE VIBRATIONS IN THIS SYSTEM
          THIS THERMODYNAMICS CALCULATION IS LIMITED TO
          MOLECULES WHICH HAVE NO INTERNAL ROTATIONS




                    CALCULATED THERMODYNAMIC PROPERTIES
                                          *
   TEMP. (K)   PARTITION FUNCTION   H.O.F.    ENTHALPY  HEAT CAPACITY ENTROPY
                                   KCAL/MOL   CAL/MOLE    CAL/K/MOL  CAL/K/MOL


 298.00  VIB.     0.4186D+06                  7463.8326    47.9177    50.7703
         ROT.     0.1769D+07                   888.2803     2.9808    31.5686
         INT.     0.7406D+12                  8352.1129    50.8985    82.3389
         TRA.     0.2073D+28                  1480.4672     4.9680    41.2320
         TOT.                      -22.405    9832.5801    55.8665   123.5709

 200.00  VIB.     0.5982D+04                  3571.1400    32.2353    35.1375
         ROT.     0.9727D+06                   596.1613     2.9808    30.3800
         INT.     0.5819D+10                  4167.3013    35.2161    65.5174
         TRA.     0.1140D+28                   993.6021     4.9680    39.2509
         TOT.                      -27.076    5160.9034    40.1841   104.7683

 210.00  VIB.     0.9355D+04                  3900.4116    33.6271    36.7437
         ROT.     0.1047D+07                   625.9693     2.9808    30.5254
         INT.     0.9790D+10                  4526.3810    36.6079    67.2691
         TRA.     0.1227D+28                  1043.2822     4.9680    39.4932
         TOT.                      -26.667    5569.6632    41.5759   106.7624

 220.00  VIB.     0.1457D+05                  4243.8487    35.0688    38.3411
         ROT.     0.1122D+07                   655.7774     2.9808    30.6641
         INT.     0.1635D+11                  4899.6261    38.0496    69.0052
         TRA.     0.1315D+28                  1092.9623     4.9680    39.7244
         TOT.                      -26.245    5992.5884    43.0176   108.7296

 230.00  VIB.     0.2261D+05                  4601.9598    36.5620    39.9327
         ROT.     0.1200D+07                   685.5855     2.9808    30.7966
         INT.     0.2712D+11                  5287.5452    39.5428    70.7293
         TRA.     0.1406D+28                  1142.6424     4.9680    39.9452
         TOT.                      -25.807    6430.1877    44.5108   110.6745

 240.00  VIB.     0.3498D+05                  4975.2602    38.1065    41.5213
         ROT.     0.1279D+07                   715.3935     2.9808    30.9234
         INT.     0.4472D+11                  5690.6537    41.0873    72.4447
         TRA.     0.1499D+28                  1192.3226     4.9680    40.1566
         TOT.                      -25.354    6882.9763    46.0553   112.6013

 250.00  VIB.     0.5394D+05                  5364.2548    39.7004    43.1090
         ROT.     0.1359D+07                   745.2016     2.9808    31.0451
         INT.     0.7333D+11                  6109.4564    42.6812    74.1541
         TRA.     0.1593D+28                  1242.0027     4.9680    40.3594
         TOT.                      -24.886    7351.4591    47.6493   114.5136

 260.00  VIB.     0.8298D+05                  5769.4237    41.3407    44.6979
         ROT.     0.1442D+07                   775.0097     2.9808    31.1620
         INT.     0.1196D+12                  6544.4333    44.3215    75.8599
         TRA.     0.1690D+28                  1291.6828     4.9680    40.5543
         TOT.                      -24.401    7836.1161    49.2896   116.4142

 270.00  VIB.     0.1274D+06                  6191.2107    43.0233    46.2895
         ROT.     0.1526D+07                   804.8177     2.9808    31.2745
         INT.     0.1943D+12                  6996.0284    46.0041    77.5640
         TRA.     0.1788D+28                  1341.3629     4.9680    40.7418
         TOT.                      -23.900    8337.3913    50.9722   118.3058

 280.00  VIB.     0.1951D+06                  6630.0157    44.7435    47.8852
         ROT.     0.1611D+07                   834.6258     2.9808    31.3829
         INT.     0.3143D+12                  7464.6415    47.7243    79.2681
         TRA.     0.1888D+28                  1391.0430     4.9680    40.9225
         TOT.                      -23.381    8855.6844    52.6923   120.1906

 290.00  VIB.     0.2983D+06                  7086.1884    46.4960    49.4858
         ROT.     0.1698D+07                   864.4339     2.9808    31.4875
         INT.     0.5067D+12                  7950.6223    49.4768    80.9733
         TRA.     0.1990D+28                  1440.7231     4.9680    41.0968
         TOT.                      -22.846    9391.3454    54.4448   122.0701

 300.00  VIB.     0.4556D+06                  7560.0256    48.2754    51.0920
         ROT.     0.1787D+07                   894.2419     2.9808    31.5886
         INT.     0.8141D+12                  8454.2675    51.2563    82.6806
         TRA.     0.2094D+28                  1490.4032     4.9680    41.2652
         TOT.                      -22.292    9944.6707    56.2243   123.9458

 310.00  VIB.     0.6948D+06                  8051.7688    50.0763    52.7042
         ROT.     0.1877D+07                   924.0500     2.9808    31.6863
         INT.     0.1304D+13                  8975.8188    53.0571    84.3905
         TRA.     0.2200D+28                  1540.0833     4.9680    41.4281
         TOT.                      -21.721   10515.9021    58.0251   125.8187

 320.00  VIB.     0.1059D+07                  8561.6053    51.8932    54.3227
         ROT.     0.1969D+07                   953.8580     2.9808    31.7810
         INT.     0.2084D+13                  9515.4633    54.8740    86.1037
         TRA.     0.2307D+28                  1589.7634     4.9680    41.5859
         TOT.                      -21.132   11105.2267    59.8420   127.6895

 330.00  VIB.     0.1612D+07                  9089.6690    53.7209    55.9475
         ROT.     0.2062D+07                   983.6661     2.9808    31.8727
         INT.     0.3323D+13                 10073.3351    56.7017    87.8202
         TRA.     0.2416D+28                  1639.4435     4.9680    41.7387
         TOT.                      -20.524   11712.7786    61.6697   129.5589

 340.00  VIB.     0.2453D+07                  9636.0429    55.5545    57.5785
         ROT.     0.2156D+07                  1013.4742     2.9808    31.9617
         INT.     0.5288D+13                 10649.5171    58.5353    89.5402
         TRA.     0.2527D+28                  1689.1236     4.9680    41.8870
         TOT.                      -19.898   12338.6407    63.5033   131.4272

 350.00  VIB.     0.3730D+07                 10200.7623    57.3892    59.2153
         ROT.     0.2252D+07                  1043.2822     2.9808    32.0481
         INT.     0.8399D+13                 11244.0445    60.3700    91.2634
         TRA.     0.2639D+28                  1738.8037     4.9680    42.0310
         TOT.                      -19.254   12982.8482    65.3381   133.2945

 360.00  VIB.     0.5671D+07                 10783.8177    59.2210    60.8577
         ROT.     0.2349D+07                  1073.0903     2.9808    32.1320
         INT.     0.1332D+14                 11856.9080    62.2018    92.9898
         TRA.     0.2753D+28                  1788.4838     4.9680    42.1710
         TOT.                      -18.592   13645.3918    67.1698   135.1608

 370.00  VIB.     0.8619D+07                 11385.1594    61.0459    62.5052
         ROT.     0.2447D+07                  1102.8984     2.9808    32.2137
         INT.     0.2109D+14                 12488.0578    64.0267    94.7190
         TRA.     0.2869D+28                  1838.1639     4.9680    42.3071
         TOT.                      -17.911   14326.2217    68.9947   137.0261

 380.00  VIB.     0.1310D+08                 12004.7011    62.8604    64.1573
         ROT.     0.2547D+07                  1132.7064     2.9808    32.2932
         INT.     0.3336D+14                 13137.4075    65.8412    96.4505
         TRA.     0.2986D+28                  1887.8440     4.9680    42.4396
         TOT.                      -17.212   15025.2515    70.8093   138.8902

 390.00  VIB.     0.1990D+08                 12642.3235    64.6616    65.8135
         ROT.     0.2649D+07                  1162.5145     2.9808    32.3706
         INT.     0.5270D+14                 13804.8380    67.6424    98.1841
         TRA.     0.3104D+28                  1937.5242     4.9680    42.5687
         TOT.                      -16.495   15742.3621    72.6104   140.7528

 400.00  VIB.     0.3023D+08                 13297.8788    66.4466    67.4731
         ROT.     0.2751D+07                  1192.3226     2.9808    32.4461
         INT.     0.8317D+14                 14490.2013    69.4274    99.9192
         TRA.     0.3224D+28                  1987.2043     4.9680    42.6944
         TOT.                      -15.760   16477.4056    74.3954   142.6137

   *: NOTE: HEATS OF FORMATION ARE RELATIVE TO THE
            ELEMENTS IN THEIR STANDARD STATE AT 298K
              (=  Standard Enthalpy of Formation).

            Hvib:  Zero-point energy is not included.
                   frequencies of less than zero cm-1 are not included.
            Hrot = (3/2)RT
            Htra = (3/2)RT + pV = (5/2)RT

            Heat capacity is Cp, not Cv

          For more information, see: HTTP://OpenMOPAC.net/Manual/thermochemistry.html


           FORCE CONSTANT IN CARTESIAN COORDINATES (Millidynes/A)

    ATOM   CHEMICAL       X               Y               Z
   NUMBER   SYMBOL  FORCE CONSTANT  FORCE CONSTANT  FORCE CONSTANT

      1       C        9.774357        8.425228        6.413429
      2       C        9.850354        8.639137        6.349472
      3       C        8.372446        8.266760        8.613514
      4       C        5.982610        8.643083        9.724701
      5       C        6.006188        8.638046        9.732356
      6       C        8.400614        8.263833        8.426600
      7       C        8.159044        8.461654        8.116390
      8       C        8.346000        8.344485        8.205126
      9       C        8.294128        8.234357        8.368333
     10       C        8.418576        8.217101        8.815222
     11       C        6.489902        9.151791       11.530495
     12       C        6.477790        9.016589       11.648462
     13       H        2.025866        3.568139        0.665995
     14       H        2.023111        3.566857        0.664905
     15       H        1.943003        3.276378        0.780612
     16       H        2.022874        3.612510        0.736531
     17       H        1.688253        0.694516        3.993399
     18       H        0.665157        3.706312        2.261589
     19       H        0.700291        3.648229        2.263237
     20       H        2.563700        3.067810        0.781437
     21       H        1.991972        0.840741        3.561628
     22       H        0.680229        3.662950        2.225212
     23       H        0.666656        3.673678        2.295415
     24       H        2.277824        3.768835        0.732448
     25       H        2.275017        3.807380        0.709522
     26       H        1.726757        0.670651        4.355831
     27       H        2.646881        3.333801        0.794864
     28       H        2.018204        0.910922        3.817097
     29       H        2.494009        0.738143        3.554986
     30       H        1.517547        4.441883        0.707064
     31       H        2.440018        0.774016        3.443677
     32       H        3.064573        2.964769        0.735208
     33       H        2.778187        2.684351        0.750920
     34       H        2.805460        2.659865        0.735011

 **********************
 *                    *
 * JOB ENDED NORMALLY *
 *                    *
 **********************



 TOTAL JOB TIME:            10.29 SECONDS

 == MOPAC DONE ==
