 *******************************************************************************
 **                                                                           **
 **                              MOPAC v23.1.2                                **
 **                                                                           **
 *******************************************************************************
 **          Digital Object Identifier (DOI): 10.5281/zenodo.6511958          **
 **    Visit the DOI location for information on how to cite this program.    **
 *******************************************************************************

                              PM3 CALCULATION RESULTS

 *******************************************************************************
 *  CALCULATION DONE: (MAX THREADS = 1)              Tue Jun  3 16:39:03 2025  *
 *  PM3        - The PM3 Hamiltonian to be used
 *  PRECISE    - TIGHTER CRITERIA TO BE USED
 *  NOSYM      - POINT-GROUP SYMMETRY SET TO C1
 *  THREADS=1  - MULTI-THREADING NOT USED
 *  T=         - A TIME OF 172800.0 SECONDS REQUESTED
 *  DUMP=N     - RESTART FILE WRITTEN EVERY 7200.0 SECONDS REQUESTED
 *******************************************************************************
pm3  precise nosym THREADS=1
 InChI=1S/C12H20/c1-4-7-10(5-2)12-9-8-11(12)6-3/h4-5,7,10-12H,2,6,8-9H2,1,3H3

   ATOM   CHEMICAL          X               Y               Z
  NUMBER   SYMBOL      (ANGSTROMS)     (ANGSTROMS)     (ANGSTROMS)

     1       C         -0.65980000  *  -0.87460000  *   0.11010000  *
     2       C         -1.16160000  *  -0.18030000  *  -1.16760000  *
     3       C          0.88110000  *  -0.98380000  *   0.19560000  *
     4       C         -1.85480000  *  -1.47430000  *  -1.59330000  *
     5       C         -1.34770000  *  -2.16780000  *  -0.33590000  *
     6       C         -2.14650000  *   0.97500000  *  -0.91430000  *
     7       C         -1.42540000  *   2.22420000  *  -0.41530000  *
     8       C          2.71080000  *   2.40780000  *  -0.24140000  *
     9       C          1.48750000  *   0.37700000  *   0.44910000  *
    10       C          1.30870000  *  -1.95160000  *   1.27660000  *
    11       C          2.16740000  *   1.03710000  *  -0.49930000  *
    12       C          0.98620000  *  -1.79380000  *   2.56640000  *
    13       H         -0.35420000  *   0.09890000  *  -1.88180000  *
    14       H         -1.11800000  *  -0.46880000  *   1.04050000  *
    15       H          1.26460000  *  -1.38790000  *  -0.76950000  *
    16       H         -2.92110000  *   0.67740000  *  -0.17330000  *
    17       H         -2.66130000  *   1.22160000  *  -1.86790000  *
    18       H         -2.96530000  *  -1.41090000  *  -1.62060000  *
    19       H         -1.41330000  *  -1.90510000  *  -2.51860000  *
    20       H         -0.64880000  *  -3.00130000  *  -0.56960000  *
    21       H         -2.17490000  *  -2.46210000  *   0.34640000  *
    22       H         -0.95600000  *   2.03340000  *   0.57230000  *
    23       H         -2.15490000  *   3.05360000  *  -0.30300000  *
    24       H         -0.64320000  *   2.53490000  *  -1.14030000  *
    25       H          3.23100000  *   2.78140000  *  -1.14790000  *
    26       H          1.88120000  *   3.10270000  *   0.00840000  *
    27       H          3.43360000  *   2.37640000  *   0.60100000  *
    28       H          2.32430000  *   0.58840000  *  -1.47620000  *
    29       H          1.31520000  *   0.85630000  *   1.40970000  *
    30       H          1.90120000  *  -2.81620000  *   0.99180000  *
    31       H          1.31780000  *  -2.52100000  *   3.30020000  *
    32       H          0.39620000  *  -0.94660000  *   2.90060000  *



          CARTESIAN COORDINATES 

    NO.       ATOM           X           Y           Z

     1         C         -0.6598     -0.8746      0.1101
     2         C         -1.1616     -0.1803     -1.1676
     3         C          0.8811     -0.9838      0.1956
     4         C         -1.8548     -1.4743     -1.5933
     5         C         -1.3477     -2.1678     -0.3359
     6         C         -2.1465      0.9750     -0.9143
     7         C         -1.4254      2.2242     -0.4153
     8         C          2.7108      2.4078     -0.2414
     9         C          1.4875      0.3770      0.4491
    10         C          1.3087     -1.9516      1.2766
    11         C          2.1674      1.0371     -0.4993
    12         C          0.9862     -1.7938      2.5664
    13         H         -0.3542      0.0989     -1.8818
    14         H         -1.1180     -0.4688      1.0405
    15         H          1.2646     -1.3879     -0.7695
    16         H         -2.9211      0.6774     -0.1733
    17         H         -2.6613      1.2216     -1.8679
    18         H         -2.9653     -1.4109     -1.6206
    19         H         -1.4133     -1.9051     -2.5186
    20         H         -0.6488     -3.0013     -0.5696
    21         H         -2.1749     -2.4621      0.3464
    22         H         -0.9560      2.0334      0.5723
    23         H         -2.1549      3.0536     -0.3030
    24         H         -0.6432      2.5349     -1.1403
    25         H          3.2310      2.7814     -1.1479
    26         H          1.8812      3.1027      0.0084
    27         H          3.4336      2.3764      0.6010
    28         H          2.3243      0.5884     -1.4762
    29         H          1.3152      0.8563      1.4097
    30         H          1.9012     -2.8162      0.9918
    31         H          1.3178     -2.5210      3.3002
    32         H          0.3962     -0.9466      2.9006

  H: (PM3): J. J. P. STEWART, J. COMP. CHEM. 10, 209 (1989).
  C: (PM3): J. J. P. STEWART, J. COMP. CHEM. 10, 209 (1989).

           Empirical Formula: C12 H20  =    32 atoms



      MOLECULAR POINT GROUP   :   C1  


      RHF CALCULATION, NO. OF DOUBLY OCCUPIED LEVELS = 34


          Geometry optimization using EF

          DIAGONAL MATRIX USED AS START HESSIAN

 CYCLE:     1 TIME:   0.012 TIME LEFT:  2.00D  GRAD.:    88.505 HEAT:  15.43261
 CYCLE:     2 TIME:   0.027 TIME LEFT:  2.00D  GRAD.:    63.600 HEAT:  13.55203
 CYCLE:     3 TIME:   0.012 TIME LEFT:  2.00D  GRAD.:    72.954 HEAT:  12.92509
 CYCLE:     4 TIME:   0.012 TIME LEFT:  2.00D  GRAD.:    48.517 HEAT:  11.88035
 CYCLE:     5 TIME:   0.016 TIME LEFT:  2.00D  GRAD.:    61.790 HEAT:  11.62919
 CYCLE:     6 TIME:   0.012 TIME LEFT:  2.00D  GRAD.:    37.941 HEAT:  11.12216
 CYCLE:     7 TIME:   0.012 TIME LEFT:  2.00D  GRAD.:    31.646 HEAT:  10.79568
 CYCLE:     8 TIME:   0.008 TIME LEFT:  2.00D  GRAD.:    31.626 HEAT:  10.60697
 CYCLE:     9 TIME:   0.012 TIME LEFT:  2.00D  GRAD.:    29.452 HEAT:  10.47114
 CYCLE:    10 TIME:   0.020 TIME LEFT:  2.00D  GRAD.:    14.326 HEAT:  10.28293
 CYCLE:    11 TIME:   0.016 TIME LEFT:  2.00D  GRAD.:    12.840 HEAT:  10.25414
 CYCLE:    12 TIME:   0.012 TIME LEFT:  2.00D  GRAD.:     8.349 HEAT:  10.21039
 CYCLE:    13 TIME:   0.020 TIME LEFT:  2.00D  GRAD.:     8.873 HEAT:  10.19958
 CYCLE:    14 TIME:   0.008 TIME LEFT:  2.00D  GRAD.:     7.310 HEAT:  10.18385
 CYCLE:    15 TIME:   0.016 TIME LEFT:  2.00D  GRAD.:     5.964 HEAT:  10.17326
 CYCLE:    16 TIME:   0.012 TIME LEFT:  2.00D  GRAD.:     5.907 HEAT:  10.17055
 CYCLE:    17 TIME:   0.012 TIME LEFT:  2.00D  GRAD.:     6.418 HEAT:  10.16476
 CYCLE:    18 TIME:   0.012 TIME LEFT:  2.00D  GRAD.:     5.820 HEAT:  10.16325
 CYCLE:    19 TIME:   0.008 TIME LEFT:  2.00D  GRAD.:     6.128 HEAT:  10.16002
 CYCLE:    20 TIME:   0.020 TIME LEFT:  2.00D  GRAD.:     2.468 HEAT:  10.15261
 CYCLE:    21 TIME:   0.012 TIME LEFT:  2.00D  GRAD.:     5.528 HEAT:  10.15552
 CYCLE:    22 TIME:   0.008 TIME LEFT:  2.00D  GRAD.:     2.285 HEAT:  10.14913
 CYCLE:    23 TIME:   0.012 TIME LEFT:  2.00D  GRAD.:     6.734 HEAT:  10.15653
 CYCLE:    24 TIME:   0.008 TIME LEFT:  2.00D  GRAD.:     2.503 HEAT:  10.14629
 CYCLE:    25 TIME:   0.020 TIME LEFT:  2.00D  GRAD.:     3.500 HEAT:  10.14682
 CYCLE:    26 TIME:   0.008 TIME LEFT:  2.00D  GRAD.:     1.291 HEAT:  10.14276
 CYCLE:    27 TIME:   0.012 TIME LEFT:  2.00D  GRAD.:     3.870 HEAT:  10.14304
 CYCLE:    28 TIME:   0.012 TIME LEFT:  2.00D  GRAD.:     2.434 HEAT:  10.13874
 CYCLE:    29 TIME:   0.012 TIME LEFT:  2.00D  GRAD.:     5.263 HEAT:  10.14162
 CYCLE:    30 TIME:   0.008 TIME LEFT:  2.00D  GRAD.:     3.157 HEAT:  10.13418
 CYCLE:    31 TIME:   0.012 TIME LEFT:  2.00D  GRAD.:     6.577 HEAT:  10.14193
 CYCLE:    32 TIME:   0.012 TIME LEFT:  2.00D  GRAD.:     1.529 HEAT:  10.12769
 CYCLE:    33 TIME:   0.008 TIME LEFT:  2.00D  GRAD.:     2.841 HEAT:  10.12657
 CYCLE:    34 TIME:   0.012 TIME LEFT:  2.00D  GRAD.:     1.959 HEAT:  10.12084
 CYCLE:    35 TIME:   0.012 TIME LEFT:  2.00D  GRAD.:     4.206 HEAT:  10.11415
 CYCLE:    36 TIME:   0.012 TIME LEFT:  2.00D  GRAD.:     3.174 HEAT:  10.10411
 CYCLE:    37 TIME:   0.012 TIME LEFT:  2.00D  GRAD.:     3.863 HEAT:  10.09623
 CYCLE:    38 TIME:   0.012 TIME LEFT:  2.00D  GRAD.:     3.318 HEAT:  10.08566
 CYCLE:    39 TIME:   0.008 TIME LEFT:  2.00D  GRAD.:     4.703 HEAT:  10.07954
 CYCLE:    40 TIME:   0.012 TIME LEFT:  2.00D  GRAD.:     3.135 HEAT:  10.06917
 CYCLE:    41 TIME:   0.012 TIME LEFT:  2.00D  GRAD.:     3.173 HEAT:  10.06299
 CYCLE:    42 TIME:   0.012 TIME LEFT:  2.00D  GRAD.:     2.194 HEAT:  10.05482
 CYCLE:    43 TIME:   0.008 TIME LEFT:  2.00D  GRAD.:     2.364 HEAT:  10.04847
 CYCLE:    44 TIME:   0.012 TIME LEFT:  2.00D  GRAD.:     1.610 HEAT:  10.04464
 CYCLE:    45 TIME:   0.008 TIME LEFT:  2.00D  GRAD.:     1.610 HEAT:  10.04171
 CYCLE:    46 TIME:   0.012 TIME LEFT:  2.00D  GRAD.:     1.467 HEAT:  10.03894
 CYCLE:    47 TIME:   0.012 TIME LEFT:  2.00D  GRAD.:     1.176 HEAT:  10.03693
 CYCLE:    48 TIME:   0.012 TIME LEFT:  2.00D  GRAD.:     1.279 HEAT:  10.03475
 CYCLE:    49 TIME:   0.012 TIME LEFT:  2.00D  GRAD.:     1.745 HEAT:  10.03335
 CYCLE:    50 TIME:   0.012 TIME LEFT:  2.00D  GRAD.:     1.213 HEAT:  10.03118
 CYCLE:    51 TIME:   0.012 TIME LEFT:  2.00D  GRAD.:     1.179 HEAT:  10.02911
 CYCLE:    52 TIME:   0.008 TIME LEFT:  2.00D  GRAD.:     1.668 HEAT:  10.02625
 CYCLE:    53 TIME:   0.012 TIME LEFT:  2.00D  GRAD.:     1.682 HEAT:  10.02354
 CYCLE:    54 TIME:   0.012 TIME LEFT:  2.00D  GRAD.:     1.293 HEAT:  10.02103
 CYCLE:    55 TIME:   0.012 TIME LEFT:  2.00D  GRAD.:     1.445 HEAT:  10.01924
 CYCLE:    56 TIME:   0.012 TIME LEFT:  2.00D  GRAD.:     1.258 HEAT:  10.01735
 CYCLE:    57 TIME:   0.012 TIME LEFT:  2.00D  GRAD.:     1.059 HEAT:  10.01486
 CYCLE:    58 TIME:   0.012 TIME LEFT:  2.00D  GRAD.:     0.995 HEAT:  10.01294
 CYCLE:    59 TIME:   0.008 TIME LEFT:  2.00D  GRAD.:     0.935 HEAT:  10.01174
 CYCLE:    60 TIME:   0.012 TIME LEFT:  2.00D  GRAD.:     0.946 HEAT:  10.01030
 CYCLE:    61 TIME:   0.012 TIME LEFT:  2.00D  GRAD.:     0.980 HEAT:  10.00832
 CYCLE:    62 TIME:   0.012 TIME LEFT:  2.00D  GRAD.:     0.991 HEAT:  10.00645
 CYCLE:    63 TIME:   0.012 TIME LEFT:  2.00D  GRAD.:     0.956 HEAT:  10.00443
 CYCLE:    64 TIME:   0.012 TIME LEFT:  2.00D  GRAD.:     0.978 HEAT:  10.00223
 CYCLE:    65 TIME:   0.012 TIME LEFT:  2.00D  GRAD.:     0.906 HEAT:  10.00043
 CYCLE:    66 TIME:   0.008 TIME LEFT:  2.00D  GRAD.:     0.807 HEAT:  9.998905
 CYCLE:    67 TIME:   0.012 TIME LEFT:  2.00D  GRAD.:     0.703 HEAT:  9.997777
 CYCLE:    68 TIME:   0.012 TIME LEFT:  2.00D  GRAD.:     0.723 HEAT:  9.996467
 CYCLE:    69 TIME:   0.012 TIME LEFT:  2.00D  GRAD.:     0.749 HEAT:  9.995374
 CYCLE:    70 TIME:   0.012 TIME LEFT:  2.00D  GRAD.:     0.773 HEAT:  9.994076
 CYCLE:    71 TIME:   0.008 TIME LEFT:  2.00D  GRAD.:     0.826 HEAT:  9.992617
 CYCLE:    72 TIME:   0.012 TIME LEFT:  2.00D  GRAD.:     0.956 HEAT:  9.990981
 CYCLE:    73 TIME:   0.012 TIME LEFT:  2.00D  GRAD.:     0.897 HEAT:  9.989376
 CYCLE:    74 TIME:   0.012 TIME LEFT:  2.00D  GRAD.:     1.127 HEAT:  9.987433
 CYCLE:    75 TIME:   0.012 TIME LEFT:  2.00D  GRAD.:     1.160 HEAT:  9.985057
 CYCLE:    76 TIME:   0.012 TIME LEFT:  2.00D  GRAD.:     1.966 HEAT:  9.980496
 CYCLE:    77 TIME:   0.012 TIME LEFT:  2.00D  GRAD.:     1.913 HEAT:  9.974343
 CYCLE:    78 TIME:   0.012 TIME LEFT:  2.00D  GRAD.:     3.486 HEAT:  9.965947
 CYCLE:    79 TIME:   0.008 TIME LEFT:  2.00D  GRAD.:     2.238 HEAT:  9.955643
 CYCLE:    80 TIME:   0.012 TIME LEFT:  2.00D  GRAD.:     1.950 HEAT:  9.948735
 CYCLE:    81 TIME:   0.012 TIME LEFT:  2.00D  GRAD.:     2.116 HEAT:  9.940337
 CYCLE:    82 TIME:   0.012 TIME LEFT:  2.00D  GRAD.:     3.279 HEAT:  9.932769
 CYCLE:    83 TIME:   0.008 TIME LEFT:  2.00D  GRAD.:     2.753 HEAT:  9.919474
 CYCLE:    84 TIME:   0.012 TIME LEFT:  2.00D  GRAD.:     3.898 HEAT:  9.906567
 CYCLE:    85 TIME:   0.012 TIME LEFT:  2.00D  GRAD.:     2.552 HEAT:  9.884190
 CYCLE:    86 TIME:   0.012 TIME LEFT:  2.00D  GRAD.:     3.734 HEAT:  9.868425
 CYCLE:    87 TIME:   0.008 TIME LEFT:  2.00D  GRAD.:     3.146 HEAT:  9.845994
 CYCLE:    88 TIME:   0.016 TIME LEFT:  2.00D  GRAD.:     4.562 HEAT:  9.826065
 CYCLE:    89 TIME:   0.008 TIME LEFT:  2.00D  GRAD.:     3.538 HEAT:  9.806578
 CYCLE:    90 TIME:   0.012 TIME LEFT:  2.00D  GRAD.:     3.174 HEAT:  9.787483
 CYCLE:    91 TIME:   0.012 TIME LEFT:  2.00D  GRAD.:     3.952 HEAT:  9.758662
 CYCLE:    92 TIME:   0.012 TIME LEFT:  2.00D  GRAD.:     4.325 HEAT:  9.731740
 CYCLE:    93 TIME:   0.012 TIME LEFT:  2.00D  GRAD.:     3.462 HEAT:  9.697187
 CYCLE:    94 TIME:   0.008 TIME LEFT:  2.00D  GRAD.:     4.915 HEAT:  9.681649
 CYCLE:    95 TIME:   0.012 TIME LEFT:  2.00D  GRAD.:     3.062 HEAT:  9.663558
 CYCLE:    96 TIME:   0.012 TIME LEFT:  2.00D  GRAD.:     2.292 HEAT:  9.653199
 CYCLE:    97 TIME:   0.012 TIME LEFT:  2.00D  GRAD.:     2.361 HEAT:  9.645739
 CYCLE:    98 TIME:   0.012 TIME LEFT:  2.00D  GRAD.:     2.431 HEAT:  9.638033
 CYCLE:    99 TIME:   0.012 TIME LEFT:  2.00D  GRAD.:     2.062 HEAT:  9.631992
 CYCLE:   100 TIME:   0.012 TIME LEFT:  2.00D  GRAD.:     2.213 HEAT:  9.623108
 CYCLE:   101 TIME:   0.012 TIME LEFT:  2.00D  GRAD.:     1.854 HEAT:  9.615723
 CYCLE:   102 TIME:   0.008 TIME LEFT:  2.00D  GRAD.:     2.517 HEAT:  9.600661
 CYCLE:   103 TIME:   0.016 TIME LEFT:  2.00D  GRAD.:     2.739 HEAT:  9.594727
 CYCLE:   104 TIME:   0.008 TIME LEFT:  2.00D  GRAD.:     2.249 HEAT:  9.587001
 CYCLE:   105 TIME:   0.012 TIME LEFT:  2.00D  GRAD.:     1.588 HEAT:  9.582021
 CYCLE:   106 TIME:   0.012 TIME LEFT:  2.00D  GRAD.:     1.935 HEAT:  9.575141
 CYCLE:   107 TIME:   0.012 TIME LEFT:  2.00D  GRAD.:     1.893 HEAT:  9.570105
 CYCLE:   108 TIME:   0.012 TIME LEFT:  2.00D  GRAD.:     1.837 HEAT:  9.560473
 CYCLE:   109 TIME:   0.008 TIME LEFT:  2.00D  GRAD.:     1.322 HEAT:  9.556680
 CYCLE:   110 TIME:   0.012 TIME LEFT:  2.00D  GRAD.:     2.370 HEAT:  9.550093
 CYCLE:   111 TIME:   0.012 TIME LEFT:  2.00D  GRAD.:     1.380 HEAT:  9.546736
 CYCLE:   112 TIME:   0.012 TIME LEFT:  2.00D  GRAD.:     0.692 HEAT:  9.543691
 CYCLE:   113 TIME:   0.008 TIME LEFT:  2.00D  GRAD.:     0.511 HEAT:  9.541247
 CYCLE:   114 TIME:   0.012 TIME LEFT:  2.00D  GRAD.:     0.618 HEAT:  9.540524
 CYCLE:   115 TIME:   0.012 TIME LEFT:  2.00D  GRAD.:     0.556 HEAT:  9.540003
 CYCLE:   116 TIME:   0.012 TIME LEFT:  2.00D  GRAD.:     0.442 HEAT:  9.539467
 CYCLE:   117 TIME:   0.012 TIME LEFT:  2.00D  GRAD.:     0.400 HEAT:  9.539133
 CYCLE:   118 TIME:   0.008 TIME LEFT:  2.00D  GRAD.:     0.477 HEAT:  9.538226
 CYCLE:   119 TIME:   0.012 TIME LEFT:  2.00D  GRAD.:     0.431 HEAT:  9.537786
 CYCLE:   120 TIME:   0.012 TIME LEFT:  2.00D  GRAD.:     0.689 HEAT:  9.536192
 CYCLE:   121 TIME:   0.012 TIME LEFT:  2.00D  GRAD.:     0.574 HEAT:  9.535562
 CYCLE:   122 TIME:   0.012 TIME LEFT:  2.00D  GRAD.:     0.652 HEAT:  9.533687
 CYCLE:   123 TIME:   0.008 TIME LEFT:  2.00D  GRAD.:     0.594 HEAT:  9.532955
 CYCLE:   124 TIME:   0.012 TIME LEFT:  2.00D  GRAD.:     0.746 HEAT:  9.531323
 CYCLE:   125 TIME:   0.012 TIME LEFT:  2.00D  GRAD.:     0.539 HEAT:  9.530574
 CYCLE:   126 TIME:   0.012 TIME LEFT:  2.00D  GRAD.:     0.335 HEAT:  9.529731
 CYCLE:   127 TIME:   0.012 TIME LEFT:  2.00D  GRAD.:     0.380 HEAT:  9.529240
 CYCLE:   128 TIME:   0.012 TIME LEFT:  2.00D  GRAD.:     0.514 HEAT:  9.528443
 CYCLE:   129 TIME:   0.012 TIME LEFT:  2.00D  GRAD.:     0.404 HEAT:  9.528128
 CYCLE:   130 TIME:   0.012 TIME LEFT:  2.00D  GRAD.:     0.442 HEAT:  9.527257
 CYCLE:   131 TIME:   0.012 TIME LEFT:  2.00D  GRAD.:     0.387 HEAT:  9.526946
 CYCLE:   132 TIME:   0.008 TIME LEFT:  2.00D  GRAD.:     0.411 HEAT:  9.526454
 CYCLE:   133 TIME:   0.012 TIME LEFT:  2.00D  GRAD.:     0.340 HEAT:  9.526193
 CYCLE:   134 TIME:   0.012 TIME LEFT:  2.00D  GRAD.:     0.399 HEAT:  9.525736
 CYCLE:   135 TIME:   0.012 TIME LEFT:  2.00D  GRAD.:     0.392 HEAT:  9.525337
 CYCLE:   136 TIME:   0.008 TIME LEFT:  2.00D  GRAD.:     0.499 HEAT:  9.524618
 CYCLE:   137 TIME:   0.012 TIME LEFT:  2.00D  GRAD.:     0.536 HEAT:  9.523980
 CYCLE:   138 TIME:   0.012 TIME LEFT:  2.00D  GRAD.:     0.573 HEAT:  9.523023
 CYCLE:   139 TIME:   0.012 TIME LEFT:  2.00D  GRAD.:     0.519 HEAT:  9.522489
 CYCLE:   140 TIME:   0.012 TIME LEFT:  2.00D  GRAD.:     0.423 HEAT:  9.521827
 CYCLE:   141 TIME:   0.008 TIME LEFT:  2.00D  GRAD.:     0.316 HEAT:  9.521610
 CYCLE:   142 TIME:   0.012 TIME LEFT:  2.00D  GRAD.:     0.466 HEAT:  9.521484
 CYCLE:   143 TIME:   0.012 TIME LEFT:  2.00D  GRAD.:     0.278 HEAT:  9.521150
 CYCLE:   144 TIME:   0.012 TIME LEFT:  2.00D  GRAD.:     0.254 HEAT:  9.521112
 CYCLE:   145 TIME:   0.012 TIME LEFT:  2.00D  GRAD.:     0.237 HEAT:  9.520932
 CYCLE:   146 TIME:   0.012 TIME LEFT:  2.00D  GRAD.:     0.589 HEAT:  9.520451
 CYCLE:   147 TIME:   0.012 TIME LEFT:  2.00D  GRAD.:     0.441 HEAT:  9.519992
 CYCLE:   148 TIME:   0.012 TIME LEFT:  2.00D  GRAD.:     0.436 HEAT:  9.519222
 CYCLE:   149 TIME:   0.012 TIME LEFT:  2.00D  GRAD.:     0.478 HEAT:  9.518507
 CYCLE:   150 TIME:   0.012 TIME LEFT:  2.00D  GRAD.:     1.288 HEAT:  9.519529
 CYCLE:   151 TIME:   0.012 TIME LEFT:  2.00D  GRAD.:     0.629 HEAT:  9.517416
 CYCLE:   152 TIME:   0.012 TIME LEFT:  2.00D  GRAD.:     0.444 HEAT:  9.517019
 CYCLE:   153 TIME:   0.012 TIME LEFT:  2.00D  GRAD.:     0.221 HEAT:  9.516436
 CYCLE:   154 TIME:   0.008 TIME LEFT:  2.00D  GRAD.:     0.205 HEAT:  9.516117
 CYCLE:   155 TIME:   0.016 TIME LEFT:  2.00D  GRAD.:     2.486 HEAT:  9.525050
 CYCLE:   156 TIME:   0.012 TIME LEFT:  2.00D  GRAD.:     0.222 HEAT:  9.515916
 CYCLE:   157 TIME:   0.008 TIME LEFT:  2.00D  GRAD.:     0.157 HEAT:  9.515864
 CYCLE:   158 TIME:   0.012 TIME LEFT:  2.00D  GRAD.:     0.317 HEAT:  9.515767
 CYCLE:   159 TIME:   0.012 TIME LEFT:  2.00D  GRAD.:     0.272 HEAT:  9.515683
 CYCLE:   160 TIME:   0.012 TIME LEFT:  2.00D  GRAD.:     0.289 HEAT:  9.515463
 CYCLE:   161 TIME:   0.012 TIME LEFT:  2.00D  GRAD.:     0.316 HEAT:  9.515320
 CYCLE:   162 TIME:   0.012 TIME LEFT:  2.00D  GRAD.:     0.311 HEAT:  9.515155
 CYCLE:   163 TIME:   0.008 TIME LEFT:  2.00D  GRAD.:     0.248 HEAT:  9.514828
 CYCLE:   164 TIME:   0.012 TIME LEFT:  2.00D  GRAD.:     0.223 HEAT:  9.514508
 CYCLE:   165 TIME:   0.012 TIME LEFT:  2.00D  GRAD.:     0.590 HEAT:  9.513815
 CYCLE:   166 TIME:   0.016 TIME LEFT:  2.00D  GRAD.:     0.669 HEAT:  9.513383
 CYCLE:   167 TIME:   0.012 TIME LEFT:  2.00D  GRAD.:     2.272 HEAT:  9.514292
 CYCLE:   168 TIME:   0.012 TIME LEFT:  2.00D  GRAD.:     0.643 HEAT:  9.511836
 CYCLE:   169 TIME:   0.012 TIME LEFT:  2.00D  GRAD.:     0.564 HEAT:  9.510890
 CYCLE:   170 TIME:   0.020 TIME LEFT:  2.00D  GRAD.:     1.546 HEAT:  9.508722
 CYCLE:   171 TIME:   0.012 TIME LEFT:  2.00D  GRAD.:     0.787 HEAT:  9.507481
 CYCLE:   172 TIME:   0.012 TIME LEFT:  2.00D  GRAD.:     0.434 HEAT:  9.506566
 CYCLE:   173 TIME:   0.012 TIME LEFT:  2.00D  GRAD.:     2.517 HEAT:  9.507075
 CYCLE:   174 TIME:   0.012 TIME LEFT:  2.00D  GRAD.:     0.599 HEAT:  9.504572
 CYCLE:   175 TIME:   0.012 TIME LEFT:  2.00D  GRAD.:     0.397 HEAT:  9.503952
 CYCLE:   176 TIME:   0.012 TIME LEFT:  2.00D  GRAD.:     1.267 HEAT:  9.503355
 CYCLE:   177 TIME:   0.012 TIME LEFT:  2.00D  GRAD.:     0.310 HEAT:  9.502604
 CYCLE:   178 TIME:   0.012 TIME LEFT:  2.00D  GRAD.:     0.262 HEAT:  9.502420
 CYCLE:   179 TIME:   0.012 TIME LEFT:  2.00D  GRAD.:     2.091 HEAT:  9.506965
 CYCLE:   180 TIME:   0.016 TIME LEFT:  2.00D  GRAD.:     0.351 HEAT:  9.502121
 CYCLE:   181 TIME:   0.008 TIME LEFT:  2.00D  GRAD.:     0.320 HEAT:  9.501986
 CYCLE:   182 TIME:   0.012 TIME LEFT:  2.00D  GRAD.:     0.365 HEAT:  9.502019
 CYCLE:   183 TIME:   0.016 TIME LEFT:  2.00D  GRAD.:     0.249 HEAT:  9.501903
 CYCLE:   184 TIME:   0.012 TIME LEFT:  2.00D  GRAD.:     1.065 HEAT:  9.504073
 CYCLE:   185 TIME:   0.012 TIME LEFT:  2.00D  GRAD.:     0.306 HEAT:  9.501798
 CYCLE:   186 TIME:   0.012 TIME LEFT:  2.00D  GRAD.:     0.257 HEAT:  9.501727
 CYCLE:   187 TIME:   0.008 TIME LEFT:  2.00D  GRAD.:     0.477 HEAT:  9.501575
 CYCLE:   188 TIME:   0.012 TIME LEFT:  2.00D  GRAD.:     0.243 HEAT:  9.501237
 CYCLE:   189 TIME:   0.012 TIME LEFT:  2.00D  GRAD.:     1.289 HEAT:  9.501096
 CYCLE:   190 TIME:   0.016 TIME LEFT:  2.00D  GRAD.:     0.376 HEAT:  9.500523
 CYCLE:   191 TIME:   0.012 TIME LEFT:  2.00D  GRAD.:     0.301 HEAT:  9.500242
 CYCLE:   192 TIME:   0.012 TIME LEFT:  2.00D  GRAD.:     1.954 HEAT:  9.500856
 CYCLE:   193 TIME:   0.012 TIME LEFT:  2.00D  GRAD.:     0.387 HEAT:  9.499440
 CYCLE:   194 TIME:   0.012 TIME LEFT:  2.00D  GRAD.:     0.404 HEAT:  9.499231
 CYCLE:   195 TIME:   0.016 TIME LEFT:  2.00D  GRAD.:     0.536 HEAT:  9.498976
 CYCLE:   196 TIME:   0.012 TIME LEFT:  2.00D  GRAD.:     3.930 HEAT:  9.505457
 CYCLE:   197 TIME:   0.012 TIME LEFT:  2.00D  GRAD.:     0.591 HEAT:  9.498281
 CYCLE:   198 TIME:   0.012 TIME LEFT:  2.00D  GRAD.:     0.455 HEAT:  9.498052
 CYCLE:   199 TIME:   0.012 TIME LEFT:  2.00D  GRAD.:     0.378 HEAT:  9.497858
 CYCLE:   200 TIME:   0.012 TIME LEFT:  2.00D  GRAD.:     0.414 HEAT:  9.497515
 CYCLE:   201 TIME:   0.012 TIME LEFT:  2.00D  GRAD.:     0.458 HEAT:  9.496989
 CYCLE:   202 TIME:   0.012 TIME LEFT:  2.00D  GRAD.:     1.846 HEAT:  9.496895
 CYCLE:   203 TIME:   0.008 TIME LEFT:  2.00D  GRAD.:     0.704 HEAT:  9.495138
 CYCLE:   204 TIME:   0.016 TIME LEFT:  2.00D  GRAD.:     0.468 HEAT:  9.494446
 CYCLE:   205 TIME:   0.016 TIME LEFT:  2.00D  GRAD.:     1.383 HEAT:  9.494578
 CYCLE:   206 TIME:   0.012 TIME LEFT:  2.00D  GRAD.:     2.699 HEAT:  9.496442
 CYCLE:   207 TIME:   0.012 TIME LEFT:  2.00D  GRAD.:     0.355 HEAT:  9.492905
 CYCLE:   208 TIME:   0.012 TIME LEFT:  2.00D  GRAD.:     0.298 HEAT:  9.492523
 CYCLE:   209 TIME:   0.016 TIME LEFT:  2.00D  GRAD.:     0.397 HEAT:  9.492130
 CYCLE:   210 TIME:   0.012 TIME LEFT:  2.00D  GRAD.:     2.038 HEAT:  9.493819
 CYCLE:   211 TIME:   0.012 TIME LEFT:  2.00D  GRAD.:     0.234 HEAT:  9.491511
 CYCLE:   212 TIME:   0.012 TIME LEFT:  2.00D  GRAD.:     0.158 HEAT:  9.491423
 CYCLE:   213 TIME:   0.012 TIME LEFT:  2.00D  GRAD.:     0.164 HEAT:  9.491282
 CYCLE:   214 TIME:   0.059 TIME LEFT:  2.00D  GRAD.:     1.540 HEAT:  9.492427
 CYCLE:   215 TIME:   0.008 TIME LEFT:  2.00D  GRAD.:     0.181 HEAT:  9.491243
 CYCLE:   216 TIME:   0.012 TIME LEFT:  2.00D  GRAD.:     0.151 HEAT:  9.491227
 CYCLE:   217 TIME:   0.012 TIME LEFT:  2.00D  GRAD.:     0.168 HEAT:  9.491158
 CYCLE:   218 TIME:   0.012 TIME LEFT:  2.00D  GRAD.:     0.159 HEAT:  9.491116
 CYCLE:   219 TIME:   0.008 TIME LEFT:  2.00D  GRAD.:     0.105 HEAT:  9.491048
 CYCLE:   220 TIME:   0.012 TIME LEFT:  2.00D  GRAD.:     0.103 HEAT:  9.490972
 CYCLE:   221 TIME:   0.012 TIME LEFT:  2.00D  GRAD.:     0.190 HEAT:  9.491000
 CYCLE:   222 TIME:   0.012 TIME LEFT:  2.00D  GRAD.:     0.100 HEAT:  9.490911
 CYCLE:   223 TIME:   0.008 TIME LEFT:  2.00D  GRAD.:     0.087 HEAT:  9.490896
 CYCLE:   224 TIME:   0.012 TIME LEFT:  2.00D  GRAD.:     0.123 HEAT:  9.490873
 CYCLE:   225 TIME:   0.012 TIME LEFT:  2.00D  GRAD.:     0.108 HEAT:  9.490852
 CYCLE:   226 TIME:   0.012 TIME LEFT:  2.00D  GRAD.:     0.190 HEAT:  9.490808
 CYCLE:   227 TIME:   0.008 TIME LEFT:  2.00D  GRAD.:     0.179 HEAT:  9.490753
 CYCLE:   228 TIME:   0.012 TIME LEFT:  2.00D  GRAD.:     0.168 HEAT:  9.490653
 CYCLE:   229 TIME:   0.012 TIME LEFT:  2.00D  GRAD.:     0.411 HEAT:  9.490377
 CYCLE:   230 TIME:   0.012 TIME LEFT:  2.00D  GRAD.:     0.454 HEAT:  9.490293
 CYCLE:   231 TIME:   0.008 TIME LEFT:  2.00D  GRAD.:     0.253 HEAT:  9.489985
 CYCLE:   232 TIME:   0.012 TIME LEFT:  2.00D  GRAD.:     0.200 HEAT:  9.489808
 CYCLE:   233 TIME:   0.012 TIME LEFT:  2.00D  GRAD.:     0.184 HEAT:  9.489704
 CYCLE:   234 TIME:   0.012 TIME LEFT:  2.00D  GRAD.:     0.150 HEAT:  9.489634
 CYCLE:   235 TIME:   0.012 TIME LEFT:  2.00D  GRAD.:     0.125 HEAT:  9.489603
 CYCLE:   236 TIME:   0.012 TIME LEFT:  2.00D  GRAD.:     0.100 HEAT:  9.489591
 CYCLE:   237 TIME:   0.008 TIME LEFT:  2.00D  GRAD.:     0.058 HEAT:  9.489576
 CYCLE:   238 TIME:   0.012 TIME LEFT:  2.00D  GRAD.:     0.032 HEAT:  9.489571

     GRADIENT =  0.03233 IS LESS THAN CUTOFF =  0.05000



 -------------------------------------------------------------------------------
 pm3  precise nosym THREADS=1
 InChI=1S/C12H20/c1-4-7-10(5-2)12-9-8-11(12)6-3/h4-5,7,10-12H,2,6,8-9H2,1,3H3



     GEOMETRY OPTIMISED USING EIGENVECTOR FOLLOWING (EF).     
     SCF FIELD WAS ACHIEVED                                   


                              PM3 CALCULATION
                                                       MOPAC v23.1.2 MacOS
                                                       Tue Jun  3 16:39:06 2025




          FINAL HEAT OF FORMATION =          9.48957 KCAL/MOL =      39.70437 KJ/MOL


          COSMO AREA              =        229.20 SQUARE ANGSTROMS
          COSMO VOLUME            =        254.96 CUBIC ANGSTROMS

          GRADIENT NORM           =          0.03233          =       0.00572 PER ATOM
          IONIZATION POTENTIAL    =          9.770350 EV
          HOMO LUMO ENERGIES (EV) =         -9.770  0.987
          NO. OF FILLED LEVELS    =         34
          MOLECULAR WEIGHT        =        164.2900         POINT GROUP:  C1  

          MOLECULAR DIMENSIONS (Angstroms)

            Atom       Atom       Distance
            H    25    H    18     7.99600
            H    31    H    23     7.29634
            H    32    H    19     4.41267


          SCF CALCULATIONS        =        252

          WALL-CLOCK TIME         =      2.801 SECONDS
          COMPUTATION TIME        =      2.110 SECONDS




   ATOM   CHEMICAL          X               Y               Z
  NUMBER   SYMBOL      (ANGSTROMS)     (ANGSTROMS)     (ANGSTROMS)

     1       C         -0.65489596  *  -0.90429053  *   0.09682875  *
     2       C         -1.23336823  *  -0.16240777  *  -1.14546519  *
     3       C          0.86952903  *  -0.96668566  *   0.16599284  *
     4       C         -1.91658372  *  -1.47458394  *  -1.59999137  *
     5       C         -1.33232101  *  -2.21178243  *  -0.38276697  *
     6       C         -2.19699684  *   0.96650434  *  -0.84213723  *
     7       C         -1.47873889  *   2.22541616  *  -0.41186861  *
     8       C          2.79840924  *   2.36240945  *  -0.22111138  *
     9       C          1.43293891  *   0.39988326  *   0.41105096  *
    10       C          1.31779510  *  -1.90559511  *   1.24927670  *
    11       C          2.24348987  *   1.01070284  *  -0.45424864  *
    12       C          1.06220055  *  -1.73331563  *   2.54087961  *
    13       H         -0.44340281  *   0.18950710  *  -1.84375071  *
    14       H         -1.06065597  *  -0.52377659  *   1.05956718  *
    15       H          1.24939719  *  -1.35746793  *  -0.81187867  *
    16       H         -2.91643058  *   0.65370503  *  -0.05866471  *
    17       H         -2.80861680  *   1.16780045  *  -1.74413022  *
    18       H         -3.01641317  *  -1.43286094  *  -1.63142901  *
    19       H         -1.57805009  *  -1.85208917  *  -2.57614909  *
    20       H         -0.63525057  *  -3.02860060  *  -0.62596011  *
    21       H         -2.07955012  *  -2.61962971  *   0.31392163  *
    22       H         -0.84408494  *   2.04326036  *   0.46777623  *
    23       H         -2.18801846  *   3.02101919  *  -0.15186844  *
    24       H         -0.82529067  *   2.61182361  *  -1.20573714  *
    25       H          3.89615971  *   2.33811276  *  -0.24139692  *
    26       H          2.46743466  *   3.05303928  *  -1.00868355  *
    27       H          2.49361038  *   2.79014141  *   0.74341579  *
    28       H          2.53357154  *   0.52802495  *  -1.39628317  *
    29       H          1.13735566  *   0.87920712  *   1.35436938  *
    30       H          1.89096406  *  -2.77646566  *   0.91018308  *
    31       H          1.40193160  *  -2.42933823  *   3.30170078  *
    32       H          0.49833585  *  -0.88951075  *   2.93094693  *

                             CARTESIAN COORDINATES

   1    C       -0.654895964    -0.904290530     0.096828749
   2    C       -1.233368235    -0.162407770    -1.145465190
   3    C        0.869529034    -0.966685664     0.165992844
   4    C       -1.916583718    -1.474583944    -1.599991373
   5    C       -1.332321012    -2.211782433    -0.382766969
   6    C       -2.196996836     0.966504340    -0.842137226
   7    C       -1.478738889     2.225416162    -0.411868614
   8    C        2.798409240     2.362409450    -0.221111384
   9    C        1.432938911     0.399883263     0.411050961
  10    C        1.317795095    -1.905595106     1.249276703
  11    C        2.243489868     1.010702840    -0.454248636
  12    C        1.062200549    -1.733315629     2.540879607
  13    H       -0.443402805     0.189507099    -1.843750708
  14    H       -1.060655969    -0.523776590     1.059567175
  15    H        1.249397190    -1.357467928    -0.811878670
  16    H       -2.916430578     0.653705029    -0.058664711
  17    H       -2.808616801     1.167800449    -1.744130215
  18    H       -3.016413170    -1.432860943    -1.631429007
  19    H       -1.578050089    -1.852089171    -2.576149094
  20    H       -0.635250575    -3.028600597    -0.625960107
  21    H       -2.079550122    -2.619629708     0.313921632
  22    H       -0.844084942     2.043260360     0.467776230
  23    H       -2.188018461     3.021019193    -0.151868436
  24    H       -0.825290674     2.611823606    -1.205737141
  25    H        3.896159712     2.338112761    -0.241396917
  26    H        2.467434657     3.053039278    -1.008683552
  27    H        2.493610380     2.790141411     0.743415794
  28    H        2.533571539     0.528024946    -1.396283167
  29    H        1.137355660     0.879207122     1.354369379
  30    H        1.890964061    -2.776465659     0.910183077
  31    H        1.401931596    -2.429338229     3.301700783
  32    H        0.498335852    -0.889510748     2.930946933


           Empirical Formula: C12 H20  =    32 atoms



      MOLECULAR POINT GROUP   :   C1  


                  EIGENVALUES  
 -42.14895 -36.63894 -34.07642 -32.47214 -28.43790 -25.48316 -24.66982 -22.75329
 -21.51371 -20.24465 -18.72878 -18.37750 -16.83975 -16.52263 -16.00181 -15.75710
 -15.21872 -14.85736 -14.36900 -14.22026 -14.12298 -13.73534 -13.16958 -12.93592
 -12.61451 -12.53188 -12.34096 -11.93122 -11.87217 -11.57124 -11.22587 -11.02566
 -10.21853  -9.77035   0.98750   1.26930   3.15130   3.29990   3.40527   3.55548
   3.62845   3.72487   3.81830   3.87599   3.91455   3.97933   4.03440   4.06434
   4.11379   4.21049   4.26453   4.37106   4.39384   4.41979   4.49005   4.52513
   4.58428   4.62237   4.73566   4.91561   4.98181   5.04753   5.44387   5.57464
   5.64984   5.69098   5.87775   6.02481


              NET ATOMIC CHARGES AND DIPOLE CONTRIBUTIONS

  ATOM NO.   TYPE          CHARGE      No. of ELECS.   s-Pop       p-Pop       
    1          C          -0.088171        4.0882     1.19671     2.89146
    2          C          -0.093874        4.0939     1.19440     2.89947
    3          C          -0.001451        4.0015     1.15543     2.84602
    4          C          -0.111044        4.1110     1.17393     2.93711
    5          C          -0.108202        4.1082     1.17331     2.93490
    6          C          -0.086854        4.0869     1.15692     2.92993
    7          C          -0.116058        4.1161     1.13958     2.97647
    8          C          -0.074620        4.0746     1.12531     2.94931
    9          C          -0.147256        4.1473     1.19868     2.94858
   10          C          -0.127623        4.1276     1.19672     2.93091
   11          C          -0.145579        4.1456     1.19374     2.95184
   12          C          -0.162989        4.1630     1.18180     2.98119
   13          H           0.078217        0.9218     0.92178
   14          H           0.079356        0.9206     0.92064
   15          H           0.067624        0.9324     0.93238
   16          H           0.050377        0.9496     0.94962
   17          H           0.048887        0.9511     0.95111
   18          H           0.058228        0.9418     0.94177
   19          H           0.054509        0.9455     0.94549
   20          H           0.059389        0.9406     0.94061
   21          H           0.056024        0.9440     0.94398
   22          H           0.043807        0.9562     0.95619
   23          H           0.036542        0.9635     0.96346
   24          H           0.039395        0.9606     0.96060
   25          H           0.044333        0.9557     0.95567
   26          H           0.043744        0.9563     0.95626
   27          H           0.041119        0.9589     0.95888
   28          H           0.099063        0.9009     0.90094
   29          H           0.106539        0.8935     0.89346
   30          H           0.094261        0.9057     0.90574
   31          H           0.079886        0.9201     0.92011
   32          H           0.082422        0.9176     0.91758
 DIPOLE           X         Y         Z       TOTAL
 POINT-CHG.     0.032     0.157    -0.147     0.218
 HYBRID         0.023     0.007     0.042     0.048
 SUM            0.055     0.164    -0.106     0.203


          ATOMIC ORBITAL ELECTRON POPULATIONS

     Atom    s        px        py        pz   
    1  C   1.19671   0.93993   0.96764   0.98389
    2  C   1.19440   0.98231   0.94226   0.97491
    3  C   1.15543   0.94447   0.92787   0.97369
    4  C   1.17393   0.99796   0.96474   0.97442
    5  C   1.17331   0.99922   0.95912   0.97656
    6  C   1.15692   0.97013   0.95043   1.00937
    7  C   1.13958   0.99904   0.96693   1.01051
    8  C   1.12531   0.99679   0.94599   1.00653
    9  C   1.19868   0.99014   0.96487   0.99356
   10  C   1.19672   0.99348   0.98312   0.95431
   11  C   1.19374   0.98945   0.97287   0.98952
   12  C   1.18180   1.00989   1.01140   0.95990
   13  H   0.92178
   14  H   0.92064
   15  H   0.93238
   16  H   0.94962
   17  H   0.95111
   18  H   0.94177
   19  H   0.94549
   20  H   0.94061
   21  H   0.94398
   22  H   0.95619
   23  H   0.96346
   24  H   0.96060
   25  H   0.95567
   26  H   0.95626
   27  H   0.95888
   28  H   0.90094
   29  H   0.89346
   30  H   0.90574
   31  H   0.92011
   32  H   0.91758
 *******************************************************************************
 **                                                                           **
 **                              MOPAC v23.1.2                                **
 **                                                                           **
 *******************************************************************************
 **          Digital Object Identifier (DOI): 10.5281/zenodo.6511958          **
 **    Visit the DOI location for information on how to cite this program.    **
 *******************************************************************************

                              PM3 CALCULATION RESULTS

 *******************************************************************************
 *  CALCULATION DONE: (MAX THREADS = 1)              Tue Jun  3 16:39:06 2025  *
 *  PM3        - The PM3 Hamiltonian to be used
 *  OLDGEO     - PREVIOUS GEOMETRY TO BE USED
 *  PRECISE    - TIGHTER CRITERIA TO BE USED
 *  NOSYM      - POINT-GROUP SYMMETRY SET TO C1
 *  THREADS=1  - MULTI-THREADING NOT USED
 *  T=         - A TIME OF 172800.0 SECONDS REQUESTED
 *  DUMP=N     - RESTART FILE WRITTEN EVERY 7200.0 SECONDS REQUESTED
 *  THERMO     - THERMODYNAMIC QUANTITIES TO BE CALCULATED
 *******************************************************************************
oldgeo thermo nosym precise THREADS=1  pm3
 InChI=1S/C12H20/c1-4-7-10(5-2)12-9-8-11(12)6-3/h4-5,7,10-12H,2,6,8-9H2,1,3H3

   ATOM   CHEMICAL          X               Y               Z
  NUMBER   SYMBOL      (ANGSTROMS)     (ANGSTROMS)     (ANGSTROMS)

     1       C         -0.65489596  *  -0.90429053  *   0.09682875  *
     2       C         -1.23336823  *  -0.16240777  *  -1.14546519  *
     3       C          0.86952903  *  -0.96668566  *   0.16599284  *
     4       C         -1.91658372  *  -1.47458394  *  -1.59999137  *
     5       C         -1.33232101  *  -2.21178243  *  -0.38276697  *
     6       C         -2.19699684  *   0.96650434  *  -0.84213723  *
     7       C         -1.47873889  *   2.22541616  *  -0.41186861  *
     8       C          2.79840924  *   2.36240945  *  -0.22111138  *
     9       C          1.43293891  *   0.39988326  *   0.41105096  *
    10       C          1.31779510  *  -1.90559511  *   1.24927670  *
    11       C          2.24348987  *   1.01070284  *  -0.45424864  *
    12       C          1.06220055  *  -1.73331563  *   2.54087961  *
    13       H         -0.44340281  *   0.18950710  *  -1.84375071  *
    14       H         -1.06065597  *  -0.52377659  *   1.05956718  *
    15       H          1.24939719  *  -1.35746793  *  -0.81187867  *
    16       H         -2.91643058  *   0.65370503  *  -0.05866471  *
    17       H         -2.80861680  *   1.16780045  *  -1.74413022  *
    18       H         -3.01641317  *  -1.43286094  *  -1.63142901  *
    19       H         -1.57805009  *  -1.85208917  *  -2.57614909  *
    20       H         -0.63525057  *  -3.02860060  *  -0.62596011  *
    21       H         -2.07955012  *  -2.61962971  *   0.31392163  *
    22       H         -0.84408494  *   2.04326036  *   0.46777623  *
    23       H         -2.18801846  *   3.02101919  *  -0.15186844  *
    24       H         -0.82529067  *   2.61182361  *  -1.20573714  *
    25       H          3.89615971  *   2.33811276  *  -0.24139692  *
    26       H          2.46743466  *   3.05303928  *  -1.00868355  *
    27       H          2.49361038  *   2.79014141  *   0.74341579  *
    28       H          2.53357154  *   0.52802495  *  -1.39628317  *
    29       H          1.13735566  *   0.87920712  *   1.35436938  *
    30       H          1.89096406  *  -2.77646566  *   0.91018308  *
    31       H          1.40193160  *  -2.42933823  *   3.30170078  *
    32       H          0.49833585  *  -0.88951075  *   2.93094693  *



          CARTESIAN COORDINATES 

    NO.       ATOM           X           Y           Z

     1         C         -0.6549     -0.9043      0.0968
     2         C         -1.2334     -0.1624     -1.1455
     3         C          0.8695     -0.9667      0.1660
     4         C         -1.9166     -1.4746     -1.6000
     5         C         -1.3323     -2.2118     -0.3828
     6         C         -2.1970      0.9665     -0.8421
     7         C         -1.4787      2.2254     -0.4119
     8         C          2.7984      2.3624     -0.2211
     9         C          1.4329      0.3999      0.4111
    10         C          1.3178     -1.9056      1.2493
    11         C          2.2435      1.0107     -0.4542
    12         C          1.0622     -1.7333      2.5409
    13         H         -0.4434      0.1895     -1.8438
    14         H         -1.0607     -0.5238      1.0596
    15         H          1.2494     -1.3575     -0.8119
    16         H         -2.9164      0.6537     -0.0587
    17         H         -2.8086      1.1678     -1.7441
    18         H         -3.0164     -1.4329     -1.6314
    19         H         -1.5781     -1.8521     -2.5761
    20         H         -0.6353     -3.0286     -0.6260
    21         H         -2.0796     -2.6196      0.3139
    22         H         -0.8441      2.0433      0.4678
    23         H         -2.1880      3.0210     -0.1519
    24         H         -0.8253      2.6118     -1.2057
    25         H          3.8962      2.3381     -0.2414
    26         H          2.4674      3.0530     -1.0087
    27         H          2.4936      2.7901      0.7434
    28         H          2.5336      0.5280     -1.3963
    29         H          1.1374      0.8792      1.3544
    30         H          1.8910     -2.7765      0.9102
    31         H          1.4019     -2.4293      3.3017
    32         H          0.4983     -0.8895      2.9309

  H: (PM3): J. J. P. STEWART, J. COMP. CHEM. 10, 209 (1989).
  C: (PM3): J. J. P. STEWART, J. COMP. CHEM. 10, 209 (1989).

           Empirical Formula: C12 H20  =    32 atoms



      MOLECULAR POINT GROUP   :   C1  


      RHF CALCULATION, NO. OF DOUBLY OCCUPIED LEVELS = 34



          HEAT OF FORMATION =       9.489571 KCALS/MOLE


          CARTESIAN COORDINATE DERIVATIVES

   NUMBER  ATOM         X            Y            Z

     1       C      0.000458    -0.000938    -0.001247
     2       C      0.000031     0.000561     0.001432
     3       C      0.001367    -0.004547     0.000916
     4       C     -0.000903     0.000989     0.000707
     5       C      0.000456    -0.001862    -0.002172
     6       C      0.000982     0.000275     0.002144
     7       C      0.000891     0.001958     0.005435
     8       C     -0.007680     0.005398     0.005556
     9       C     -0.003554    -0.004402     0.001521
    10       C      0.001357     0.007223    -0.003154
    11       C      0.007604     0.001161    -0.001931
    12       C     -0.003347    -0.007701     0.003099
    13       H      0.003924    -0.003281    -0.002242
    14       H     -0.000300     0.001840     0.000287
    15       H      0.000498    -0.000366    -0.000337
    16       H      0.001471     0.001761    -0.002532
    17       H      0.001144     0.000187     0.001581
    18       H     -0.002279     0.002448    -0.001475
    19       H      0.000357    -0.002040     0.001698
    20       H      0.003945    -0.001358    -0.001170
    21       H     -0.001684    -0.001473     0.000139
    22       H     -0.005501     0.002207    -0.004856
    23       H     -0.001009    -0.003242     0.002100
    24       H      0.003743     0.006643     0.001607
    25       H     -0.002767    -0.002766     0.002497
    26       H      0.004956    -0.005308    -0.004382
    27       H      0.000701    -0.001797    -0.006534
    28       H      0.000789     0.000245     0.001633
    29       H      0.000014     0.001263    -0.002232
    30       H     -0.002485     0.005234     0.004259
    31       H     -0.002816     0.001860    -0.001256
    32       H     -0.000364    -0.000172    -0.001091



          GRADIENT NORM =   0.02976

          MOLECULAR WEIGHT =  164.29



          ROTATIONAL CONSTANTS IN CM(-1)

          A =    0.03096606   B =    0.02558869   C =    0.01683080



           PRINCIPAL MOMENTS OF INERTIA IN UNITS OF 10**(-40)*GRAM-CM**2

          A =      903.9817   B =     1093.9500   C =     1663.1859


          ORIENTATION OF MOLECULE IN FORCE CALCULATION

    NO.       ATOM         X         Y         Z

     1          C      -0.2108   -0.8484    0.5709
     2          C       1.3475   -0.8484    0.5709
     3          C      -0.8615    0.5333    0.5709
     4          C       1.3388   -1.5698    1.9401
     5          C      -0.1994   -1.5555    1.9487
     6          C       2.0009   -1.6397   -0.5436
     7          C       1.9906   -0.8874   -1.8550
     8          C       0.3160    3.0462   -2.1220
     9          C      -0.6154    1.2213   -0.7371
    10          C      -2.3385    0.4288    0.8230
    11          C       0.0643    2.3648   -0.8329
    12          C      -3.1913   -0.1979    0.0210
    13          H       1.7785    0.1753    0.6134
    14          H      -0.6465   -1.4703   -0.2413
    15          H      -0.4090    1.1342    1.4000
    16          H       1.4945   -2.6186   -0.6639
    17          H       3.0429   -1.8780   -0.2508
    18          H       1.7920   -2.5733    1.9335
    19          H       1.8116   -1.0055    2.7574
    20          H      -0.6532   -0.9754    2.7672
    21          H      -0.6716   -2.5490    1.9547
    22          H       0.9670   -0.6170   -2.1532
    23          H       2.4254   -1.4881   -2.6636
    24          H       2.5649    0.0468   -1.7920
    25          H      -0.0869    4.0677   -2.1041
    26          H       1.3955    3.1189   -2.3121
    27          H      -0.1362    2.5260   -2.9770
    28          H       0.4778    2.8543    0.0582
    29          H      -1.0295    0.7258   -1.6259
    30          H      -2.6956    0.9154    1.7382
    31          H      -4.2553   -0.2547    0.2292
    32          H      -2.8912   -0.6973   -0.8970


    FIRST DERIVATIVES WILL BE USED IN THE CALCULATION OF SECOND DERIVATIVES

          ESTIMATED TIME TO COMPLETE CALCULATION =        4.50 SECONDS

    FOR POINT-GROUP C1   THERE ARE   1 UNIQUE SYMMETRY FUNCTIONS.

 STEP:   1 TIME =     0.04 SECS, INTEGRAL =      0.04 TIME LEFT: 172799.95
 STEP:   2 TIME =     0.04 SECS, INTEGRAL =      0.07 TIME LEFT: 172799.91
 STEP:   3 TIME =     0.04 SECS, INTEGRAL =      0.11 TIME LEFT: 172799.88
 STEP:   4 TIME =     0.04 SECS, INTEGRAL =      0.14 TIME LEFT: 172799.84
 STEP:   5 TIME =     0.04 SECS, INTEGRAL =      0.18 TIME LEFT: 172799.81
 STEP:   6 TIME =     0.04 SECS, INTEGRAL =      0.21 TIME LEFT: 172799.77
 STEP:   7 TIME =     0.04 SECS, INTEGRAL =      0.25 TIME LEFT: 172799.74
 STEP:   8 TIME =     0.04 SECS, INTEGRAL =      0.29 TIME LEFT: 172799.70
 STEP:   9 TIME =     0.04 SECS, INTEGRAL =      0.32 TIME LEFT: 172799.67
 STEP:  10 TIME =     0.04 SECS, INTEGRAL =      0.36 TIME LEFT: 172799.63
 STEP:  11 TIME =     0.04 SECS, INTEGRAL =      0.39 TIME LEFT: 172799.59
 STEP:  12 TIME =     0.04 SECS, INTEGRAL =      0.43 TIME LEFT: 172799.56
 STEP:  13 TIME =     0.04 SECS, INTEGRAL =      0.46 TIME LEFT: 172799.52
 STEP:  14 TIME =     0.04 SECS, INTEGRAL =      0.50 TIME LEFT: 172799.48
 STEP:  15 TIME =     0.04 SECS, INTEGRAL =      0.54 TIME LEFT: 172799.45
 STEP:  16 TIME =     0.04 SECS, INTEGRAL =      0.57 TIME LEFT: 172799.41
 STEP:  17 TIME =     0.04 SECS, INTEGRAL =      0.61 TIME LEFT: 172799.38
 STEP:  18 TIME =     0.04 SECS, INTEGRAL =      0.64 TIME LEFT: 172799.34
 STEP:  19 TIME =     0.04 SECS, INTEGRAL =      0.68 TIME LEFT: 172799.30
 STEP:  20 TIME =     0.04 SECS, INTEGRAL =      0.72 TIME LEFT: 172799.27
 STEP:  21 TIME =     0.04 SECS, INTEGRAL =      0.75 TIME LEFT: 172799.23
 STEP:  22 TIME =     0.04 SECS, INTEGRAL =      0.79 TIME LEFT: 172799.20
 STEP:  23 TIME =     0.04 SECS, INTEGRAL =      0.83 TIME LEFT: 172799.16
 STEP:  24 TIME =     0.04 SECS, INTEGRAL =      0.86 TIME LEFT: 172799.12
 STEP:  25 TIME =     0.04 SECS, INTEGRAL =      0.90 TIME LEFT: 172799.09
 STEP:  26 TIME =     0.04 SECS, INTEGRAL =      0.94 TIME LEFT: 172799.05
 STEP:  27 TIME =     0.04 SECS, INTEGRAL =      0.97 TIME LEFT: 172799.02
 STEP:  28 TIME =     0.04 SECS, INTEGRAL =      1.01 TIME LEFT: 172798.98
 STEP:  29 TIME =     0.04 SECS, INTEGRAL =      1.04 TIME LEFT: 172798.95
 STEP:  30 TIME =     0.04 SECS, INTEGRAL =      1.08 TIME LEFT: 172798.91
 STEP:  31 TIME =     0.04 SECS, INTEGRAL =      1.12 TIME LEFT: 172798.87
 STEP:  32 TIME =     0.04 SECS, INTEGRAL =      1.15 TIME LEFT: 172798.84
 STEP:  33 TIME =     0.04 SECS, INTEGRAL =      1.19 TIME LEFT: 172798.80
 STEP:  34 TIME =     0.04 SECS, INTEGRAL =      1.22 TIME LEFT: 172798.77
 STEP:  35 TIME =     0.04 SECS, INTEGRAL =      1.26 TIME LEFT: 172798.73
 STEP:  36 TIME =     0.04 SECS, INTEGRAL =      1.29 TIME LEFT: 172798.70
 STEP:  37 TIME =     0.04 SECS, INTEGRAL =      1.33 TIME LEFT: 172798.66
 STEP:  38 TIME =     0.04 SECS, INTEGRAL =      1.37 TIME LEFT: 172798.62
 STEP:  39 TIME =     0.04 SECS, INTEGRAL =      1.41 TIME LEFT: 172798.58
 STEP:  40 TIME =     0.04 SECS, INTEGRAL =      1.44 TIME LEFT: 172798.55
 STEP:  41 TIME =     0.04 SECS, INTEGRAL =      1.48 TIME LEFT: 172798.51
 STEP:  42 TIME =     0.04 SECS, INTEGRAL =      1.52 TIME LEFT: 172798.47
 STEP:  43 TIME =     0.04 SECS, INTEGRAL =      1.55 TIME LEFT: 172798.43
 STEP:  44 TIME =     0.04 SECS, INTEGRAL =      1.59 TIME LEFT: 172798.39
 STEP:  45 TIME =     0.04 SECS, INTEGRAL =      1.63 TIME LEFT: 172798.36
 STEP:  46 TIME =     0.04 SECS, INTEGRAL =      1.67 TIME LEFT: 172798.32
 STEP:  47 TIME =     0.04 SECS, INTEGRAL =      1.71 TIME LEFT: 172798.28
 STEP:  48 TIME =     0.04 SECS, INTEGRAL =      1.75 TIME LEFT: 172798.24
 STEP:  49 TIME =     0.04 SECS, INTEGRAL =      1.78 TIME LEFT: 172798.21
 STEP:  50 TIME =     0.04 SECS, INTEGRAL =      1.82 TIME LEFT: 172798.16
 STEP:  51 TIME =     0.04 SECS, INTEGRAL =      1.86 TIME LEFT: 172798.12
 STEP:  52 TIME =     0.04 SECS, INTEGRAL =      1.90 TIME LEFT: 172798.09
 STEP:  53 TIME =     0.04 SECS, INTEGRAL =      1.94 TIME LEFT: 172798.05
 STEP:  54 TIME =     0.04 SECS, INTEGRAL =      1.98 TIME LEFT: 172798.01
 STEP:  55 TIME =     0.04 SECS, INTEGRAL =      2.02 TIME LEFT: 172797.97
 STEP:  56 TIME =     0.04 SECS, INTEGRAL =      2.05 TIME LEFT: 172797.93
 STEP:  57 TIME =     0.04 SECS, INTEGRAL =      2.09 TIME LEFT: 172797.89
 STEP:  58 TIME =     0.04 SECS, INTEGRAL =      2.13 TIME LEFT: 172797.86
 STEP:  59 TIME =     0.04 SECS, INTEGRAL =      2.17 TIME LEFT: 172797.82
 STEP:  60 TIME =     0.04 SECS, INTEGRAL =      2.21 TIME LEFT: 172797.78
 STEP:  61 TIME =     0.04 SECS, INTEGRAL =      2.25 TIME LEFT: 172797.74
 STEP:  62 TIME =     0.04 SECS, INTEGRAL =      2.28 TIME LEFT: 172797.71
 STEP:  63 TIME =     0.04 SECS, INTEGRAL =      2.32 TIME LEFT: 172797.67
 STEP:  64 TIME =     0.03 SECS, INTEGRAL =      2.35 TIME LEFT: 172797.64
 STEP:  65 TIME =     0.04 SECS, INTEGRAL =      2.39 TIME LEFT: 172797.60
 STEP:  66 TIME =     0.04 SECS, INTEGRAL =      2.43 TIME LEFT: 172797.56
 STEP:  67 TIME =     0.04 SECS, INTEGRAL =      2.46 TIME LEFT: 172797.52
 STEP:  68 TIME =     0.04 SECS, INTEGRAL =      2.50 TIME LEFT: 172797.48
 STEP:  69 TIME =     0.04 SECS, INTEGRAL =      2.54 TIME LEFT: 172797.45
 STEP:  70 TIME =     0.04 SECS, INTEGRAL =      2.58 TIME LEFT: 172797.41
 STEP:  71 TIME =     0.04 SECS, INTEGRAL =      2.61 TIME LEFT: 172797.38
 STEP:  72 TIME =     0.04 SECS, INTEGRAL =      2.66 TIME LEFT: 172797.33
 STEP:  73 TIME =     0.04 SECS, INTEGRAL =      2.69 TIME LEFT: 172797.30
 STEP:  74 TIME =     0.04 SECS, INTEGRAL =      2.73 TIME LEFT: 172797.26
 STEP:  75 TIME =     0.04 SECS, INTEGRAL =      2.77 TIME LEFT: 172797.22
 STEP:  76 TIME =     0.03 SECS, INTEGRAL =      2.80 TIME LEFT: 172797.19
 STEP:  77 TIME =     0.04 SECS, INTEGRAL =      2.84 TIME LEFT: 172797.15
 STEP:  78 TIME =     0.04 SECS, INTEGRAL =      2.88 TIME LEFT: 172797.11
 STEP:  79 TIME =     0.04 SECS, INTEGRAL =      2.91 TIME LEFT: 172797.08
 STEP:  80 TIME =     0.04 SECS, INTEGRAL =      2.95 TIME LEFT: 172797.04
 STEP:  81 TIME =     0.04 SECS, INTEGRAL =      2.98 TIME LEFT: 172797.00
 STEP:  82 TIME =     0.04 SECS, INTEGRAL =      3.02 TIME LEFT: 172796.96
 STEP:  83 TIME =     0.04 SECS, INTEGRAL =      3.06 TIME LEFT: 172796.93
 STEP:  84 TIME =     0.04 SECS, INTEGRAL =      3.10 TIME LEFT: 172796.89
 STEP:  85 TIME =     0.04 SECS, INTEGRAL =      3.14 TIME LEFT: 172796.85
 STEP:  86 TIME =     0.04 SECS, INTEGRAL =      3.18 TIME LEFT: 172796.81
 STEP:  87 TIME =     0.04 SECS, INTEGRAL =      3.21 TIME LEFT: 172796.78
 STEP:  88 TIME =     0.04 SECS, INTEGRAL =      3.25 TIME LEFT: 172796.74
 STEP:  89 TIME =     0.04 SECS, INTEGRAL =      3.29 TIME LEFT: 172796.70
 STEP:  90 TIME =     0.04 SECS, INTEGRAL =      3.32 TIME LEFT: 172796.66
 STEP:  91 TIME =     0.03 SECS, INTEGRAL =      3.36 TIME LEFT: 172796.63
 STEP:  92 TIME =     0.04 SECS, INTEGRAL =      3.40 TIME LEFT: 172796.59
 STEP:  93 TIME =     0.04 SECS, INTEGRAL =      3.44 TIME LEFT: 172796.55
 STEP:  94 TIME =     0.04 SECS, INTEGRAL =      3.47 TIME LEFT: 172796.52
 STEP:  95 TIME =     0.04 SECS, INTEGRAL =      3.51 TIME LEFT: 172796.48
 STEP:  96 TIME =     0.04 SECS, INTEGRAL =      3.54 TIME LEFT: 172796.45

(To convert to Hartree/Bohr^2, multiply by (10^(-21) x N x a0^2)/(4.184 x 627.51) =  0.0642)


           FORCE MATRIX IN MILLIDYNES/ANGSTROM


                  C  1       C  2       C  3       C  4       C  5       C  6
 ------------------------------------------------------------------------------
     C    1  14.252227
     C    2   3.147238  14.413701
     C    3   3.855741   0.509398  14.873333
     C    4   1.811896   3.481507   0.040922  14.453082
     C    5   3.451635   1.816287   0.528414   3.783383  14.441224
     C    6   0.528136   4.296677   0.034852   0.551775   0.041544  14.488447
     C    7   0.027303   0.655271   0.001802   0.050863   0.004872   4.477910
     C    8   0.021948   0.001416   0.145000   0.000374   0.003970   0.000773
     C    9   0.684025   0.034457   4.603315   0.005588   0.049701   0.003109
     C   10   0.659621   0.048105   4.484663   0.005734   0.037803   0.007206
     C   11   0.036129   0.010917   0.801076   0.001040   0.005004   0.002109
     C   12   0.050115   0.004066   0.758082   0.000592   0.005986   0.000904
     H   13   0.437568   4.391905   0.033314   0.427148   0.026849   0.430741
     H   14   4.377738   0.435690   0.436145   0.026649   0.427984   0.031170
     H   15   0.432099   0.023930   4.161393   0.001848   0.025557   0.001027
     H   16   0.025942   0.450594   0.001641   0.019258   0.002008   4.434256
     H   17   0.046377   0.432735   0.006176   0.021997   0.003581   4.449670
     H   18   0.030002   0.452726   0.001321   4.669076   0.445435   0.032287
     H   19   0.030337   0.443253   0.003753   4.705025   0.445693   0.033995
     H   20   0.452267   0.030149   0.030253   0.445460   4.671558   0.001863
     H   21   0.443085   0.030537   0.033216   0.445721   4.706245   0.003831
     H   22   0.006506   0.021871   0.004031   0.002049   0.000575   0.463407
     H   23   0.002025   0.052294   0.000412   0.008786   0.000631   0.451338
     H   24   0.001871   0.021968   0.000787   0.001571   0.000423   0.463817
     H   25   0.002574   0.000227   0.019393   0.000104   0.000338   0.000196
     H   26   0.003912   0.000399   0.019929   0.000134   0.000881   0.000437
     H   27   0.000656   0.000152   0.002453   0.000122   0.000173   0.000254
     H   28   0.010353   0.001958   0.084455   0.000511   0.002025   0.000857
     H   29   0.016899   0.003003   0.434782   0.000673   0.002080   0.000829
     H   30   0.025834   0.003887   0.436597   0.000675   0.003795   0.000997
     H   31   0.015040   0.002408   0.136979   0.000359   0.001138   0.000501
     H   32   0.021075   0.003430   0.100626   0.000283   0.000846   0.000635


                  C  7       C  8       C  9       C 10       C 11       C 12
 ------------------------------------------------------------------------------
     C    7  14.364722
     C    8   0.002193  14.714552
     C    9   0.022022   0.848205  18.094380
     C   10   0.000402   0.020497   0.716944  17.939986
     C   11   0.006135   5.262833  10.688135   0.037389  18.171698
     C   12   0.000449   0.001304   0.061456  11.067220   0.005544  17.982746
     H   13   0.033329   0.000854   0.005686   0.002677   0.006890   0.000794
     H   14   0.007137   0.000717   0.025289   0.024275   0.001758   0.010382
     H   15   0.000352   0.002001   0.444497   0.418783   0.060472   0.048279
     H   16   0.437659   0.000191   0.000531   0.000651   0.000588   0.000261
     H   17   0.439837   0.000234   0.000876   0.001706   0.000533   0.000304
     H   18   0.002867   0.000085   0.000542   0.000571   0.000263   0.000200
     H   19   0.006262   0.000144   0.000723   0.000638   0.000265   0.000310
     H   20   0.000503   0.000310   0.002571   0.006443   0.000664   0.001404
     H   21   0.000778   0.000631   0.006583   0.002568   0.000719   0.001039
     H   22   4.669720   0.000710   0.009137   0.000451   0.004679   0.000451
     H   23   4.757262   0.000236   0.002102   0.000338   0.000785   0.000174
     H   24   4.718213   0.000735   0.001177   0.000185   0.002048   0.000244
     H   25   0.000210   4.711388   0.036433   0.003505   0.439810   0.000584
     H   26   0.000820   4.700646   0.034798   0.002192   0.438345   0.000289
     H   27   0.000592   4.722158   0.041937   0.000615   0.480788   0.000396
     H   28   0.000683   0.424432   0.470107   0.008385   4.766900   0.001356
     H   29   0.010657   0.084908   4.729932   0.019220   0.467094   0.010626
     H   30   0.000171   0.002144   0.026909   4.810778   0.002676   0.454657
     H   31   0.000156   0.001216   0.015432   0.464197   0.001312   5.104124
     H   32   0.000335   0.001440   0.019621   0.494025   0.003245   5.050320


                  H 13       H 14       H 15       H 16       H 17       H 18
 ------------------------------------------------------------------------------
     H   13   4.895745
     H   14   0.028710   4.890717
     H   15   0.023664   0.041289   4.609904
     H   16   0.042971   0.027619   0.000541   5.051849
     H   17   0.022946   0.003072   0.000397   0.572231   5.060098
     H   18   0.031062   0.002651   0.000545   0.014265   0.014770   5.299486
     H   19   0.026557   0.001240   0.001052   0.001198   0.001995   0.557016
     H   20   0.002707   0.030840   0.022704   0.000534   0.000617   0.032828
     H   21   0.001195   0.026715   0.001450   0.001017   0.000681   0.023229
     H   22   0.002411   0.008402   0.000320   0.022567   0.048981   0.000426
     H   23   0.002108   0.000502   0.000159   0.031778   0.027354   0.000678
     H   24   0.021200   0.000504   0.000216   0.048181   0.026161   0.000433
     H   25   0.000207   0.000129   0.000403   0.000076   0.000080   0.000040
     H   26   0.000257   0.000183   0.000454   0.000167   0.000143   0.000044
     H   27   0.000223   0.000208   0.000541   0.000083   0.000119   0.000031
     H   28   0.003651   0.000663   0.029190   0.000259   0.000229   0.000221
     H   29   0.001170   0.013750   0.037429   0.000352   0.000447   0.000264
     H   30   0.000527   0.001560   0.032196   0.000111   0.000286   0.000342
     H   31   0.000227   0.001159   0.006303   0.000117   0.000153   0.000082
     H   32   0.000500   0.021268   0.002725   0.000207   0.000199   0.000135


                  H 19       H 20       H 21       H 22       H 23       H 24
 ------------------------------------------------------------------------------
     H   19   5.326192
     H   20   0.023138   5.299858
     H   21   0.033565   0.557343   5.327018
     H   22   0.000433   0.000277   0.000235   5.407407
     H   23   0.001189   0.000091   0.000120   0.561673   5.488452
     H   24   0.000315   0.000092   0.000183   0.580286   0.571178   5.459453
     H   25   0.000036   0.000056   0.000049   0.000249   0.000088   0.000159
     H   26   0.000058   0.000088   0.000173   0.000390   0.000142   0.003296
     H   27   0.000061   0.000054   0.000052   0.001751   0.000084   0.000267
     H   28   0.000190   0.000274   0.000375   0.000489   0.000266   0.000446
     H   29   0.000319   0.000718   0.000499   0.018088   0.000515   0.000722
     H   30   0.000237   0.003003   0.000678   0.000186   0.000110   0.000118
     H   31   0.000119   0.000473   0.000450   0.000150   0.000064   0.000080
     H   32   0.000187   0.000492   0.000415   0.000246   0.000128   0.000144


                  H 25       H 26       H 27       H 28       H 29       H 30
 ------------------------------------------------------------------------------
     H   25   5.428947
     H   26   0.573896   5.417860
     H   27   0.564946   0.566073   5.448431
     H   28   0.024310   0.023076   0.041615   5.145315
     H   29   0.009490   0.009942   0.029694   0.106076   5.118984
     H   30   0.000530   0.000223   0.000176   0.001350   0.002275   5.162990
     H   31   0.000198   0.000127   0.000147   0.000624   0.001747   0.084235
     H   32   0.000351   0.000248   0.000250   0.001062   0.023021   0.124064


                  H 31       H 32
 ------------------------------
     H   31   5.493421
     H   32   0.423607   5.448176


          HEAT OF FORMATION =       9.489571 KCALS/MOLE

          ZERO POINT ENERGY     179.758 KCAL/MOL


           NORMAL COORDINATE ANALYSIS (Total motion = 1 Angstrom)


   Root No.       1         2         3         4         5         6         7         8

                 1 A       2 A       3 A       4 A       5 A       6 A       7 A       8 A   

                  24.5      32.3      73.2      81.6      97.0     107.2     143.4     170.9
  
           1   -0.0060   -0.0008   -0.0002    0.0069   -0.0040   -0.0037    0.0059   -0.0059
           2    0.0037    0.0004   -0.0074   -0.0013   -0.0010   -0.0013    0.0058   -0.0131
           3    0.0033   -0.0064    0.0128   -0.0122   -0.0098   -0.0113    0.0014    0.0023
           4   -0.0060   -0.0007   -0.0000    0.0070   -0.0037   -0.0034    0.0053   -0.0054
           5    0.0161   -0.0042   -0.0006    0.0076    0.0042    0.0097   -0.0024   -0.0059
           6   -0.0046    0.0080   -0.0024    0.0072   -0.0131   -0.0073    0.0073   -0.0041
           7   -0.0162    0.0038   -0.0052    0.0035   -0.0064   -0.0059    0.0030   -0.0009
           8   -0.0010    0.0026   -0.0096   -0.0027   -0.0020   -0.0019    0.0038   -0.0116
           9    0.0045   -0.0005    0.0073   -0.0024   -0.0022   -0.0003   -0.0020   -0.0114
          10    0.0067   -0.0157    0.0165   -0.0059    0.0017   -0.0022   -0.0027    0.0040
          11    0.0158   -0.0250    0.0019    0.0061    0.0268    0.0198   -0.0060    0.0018
          12   -0.0048   -0.0030   -0.0011    0.0064   -0.0013   -0.0021    0.0053   -0.0003
          13    0.0065   -0.0156    0.0166   -0.0063    0.0016   -0.0026   -0.0026    0.0042
          14    0.0049   -0.0141    0.0018   -0.0160    0.0012   -0.0095    0.0070    0.0090
          15    0.0037   -0.0138    0.0174   -0.0198   -0.0085   -0.0159    0.0025    0.0141
          16   -0.0056    0.0082   -0.0049    0.0243   -0.0046    0.0049   -0.0033    0.0060
          17    0.0225    0.0130    0.0031    0.0100   -0.0163    0.0035   -0.0049    0.0011
          18   -0.0089    0.0012   -0.0078    0.0157    0.0004    0.0017    0.0040   -0.0017
          19   -0.0218    0.0284    0.0101   -0.0202    0.0398    0.0089   -0.0094    0.0087
          20    0.0229    0.0392    0.0173   -0.0182   -0.0186   -0.0074   -0.0000    0.0035
          21   -0.0086    0.0159    0.0001    0.0000   -0.0011   -0.0045    0.0067   -0.0004
          22    0.0431   -0.0059   -0.0037   -0.0055   -0.0030    0.0169   -0.0226   -0.0119
          23   -0.0279   -0.0185   -0.0214    0.0028    0.0081   -0.0081    0.0166    0.0172
          24    0.0056   -0.0247   -0.0025   -0.0011    0.0099    0.0047   -0.0024    0.0131
          25   -0.0138   -0.0085   -0.0025   -0.0055   -0.0125   -0.0066   -0.0099    0.0019
          26    0.0017   -0.0024   -0.0153    0.0027    0.0046    0.0001    0.0107   -0.0139
          27    0.0063   -0.0055    0.0050   -0.0012    0.0002    0.0007   -0.0009   -0.0124
          28   -0.0160    0.0065   -0.0040    0.0062   -0.0044   -0.0035    0.0037   -0.0023
          29   -0.0110    0.0090   -0.0198   -0.0082   -0.0051   -0.0003   -0.0132    0.0138
          30   -0.0001    0.0176    0.0098    0.0103    0.0082    0.0116   -0.0009   -0.0098
          31    0.0341    0.0045   -0.0090    0.0030    0.0013    0.0065    0.0341    0.0172
          32   -0.0268   -0.0113   -0.0118   -0.0024   -0.0032   -0.0075   -0.0160   -0.0220
          33    0.0044   -0.0188    0.0016   -0.0022    0.0046    0.0029   -0.0084   -0.0027
          34   -0.0089   -0.0057   -0.0163   -0.0045   -0.0113   -0.0129    0.0085   -0.0145
          35   -0.0214    0.0093    0.0579    0.0206    0.0020    0.0036   -0.0041    0.0098
          36    0.0005    0.0303   -0.0377   -0.0008    0.0101    0.0187   -0.0134    0.0065
          37   -0.0146    0.0019   -0.0052    0.0013   -0.0057   -0.0099    0.0122   -0.0144
          38    0.0199   -0.0061    0.0019    0.0098    0.0059    0.0128   -0.0055   -0.0014
          39   -0.0066    0.0289   -0.0066    0.0112   -0.0329   -0.0156    0.0099   -0.0064
          40   -0.0051    0.0048   -0.0073    0.0183   -0.0060   -0.0001    0.0073   -0.0089
          41   -0.0004    0.0094   -0.0138    0.0073    0.0001    0.0040    0.0058   -0.0252
          42    0.0059   -0.0163    0.0216   -0.0248   -0.0091   -0.0170    0.0004    0.0138
          43   -0.0228    0.0157   -0.0090    0.0078   -0.0027   -0.0005   -0.0004    0.0037
          44    0.0004    0.0026   -0.0034   -0.0048   -0.0048   -0.0056    0.0070   -0.0105
          45    0.0071   -0.0070    0.0049   -0.0032   -0.0021   -0.0004   -0.0026   -0.0139
          46    0.0031    0.0037   -0.0156    0.0595   -0.0289    0.0089   -0.0105    0.0165
          47    0.0176    0.0185    0.0102   -0.0114   -0.0030    0.0008   -0.0015   -0.0035
          48   -0.0057   -0.0240   -0.0202    0.0418   -0.0062    0.0073    0.0051   -0.0070
          49   -0.0013    0.0031   -0.0088    0.0365   -0.0162    0.0043   -0.0032    0.0065
          50    0.0326    0.0009   -0.0119    0.0555   -0.0441    0.0096   -0.0126    0.0113
          51   -0.0158    0.0092   -0.0060    0.0090    0.0194    0.0087   -0.0034    0.0052
          52    0.0137   -0.0231    0.0162    0.0095    0.0196    0.0180   -0.0116   -0.0017
          53    0.0189   -0.0282    0.0018    0.0131    0.0348    0.0290   -0.0100   -0.0008
          54   -0.0077   -0.0155   -0.0052    0.0141    0.0192    0.0111    0.0028   -0.0001
          55    0.0073   -0.0172    0.0267   -0.0288   -0.0126   -0.0215    0.0009    0.0155
          56    0.0188   -0.0413    0.0030    0.0132    0.0500    0.0366   -0.0128    0.0029
          57   -0.0073    0.0091   -0.0077    0.0148   -0.0089   -0.0024    0.0078   -0.0077
          58    0.0071   -0.0171    0.0267   -0.0297   -0.0132   -0.0225    0.0013    0.0159
          59    0.0022   -0.0186    0.0076   -0.0322   -0.0066   -0.0247    0.0125    0.0257
          60    0.0059   -0.0114    0.0189   -0.0214   -0.0112   -0.0162    0.0009    0.0089
          61    0.0136   -0.0232    0.0166    0.0087    0.0193    0.0175   -0.0116   -0.0011
          62    0.0015   -0.0105    0.0019   -0.0233   -0.0073   -0.0192    0.0114    0.0118
          63    0.0071   -0.0271    0.0302   -0.0397   -0.0106   -0.0279    0.0033    0.0366
          64   -0.0263    0.0338    0.0147   -0.0349    0.0544    0.0102   -0.0051    0.0018
          65    0.0156    0.0562    0.0327   -0.0721    0.0307   -0.0064    0.0638   -0.0734
          66    0.0000    0.0123   -0.0016    0.0014   -0.0068   -0.0080    0.0489   -0.0458
          67   -0.0238    0.0294    0.0065    0.0019    0.0152    0.0080   -0.0781    0.0914
          68    0.0265    0.0507    0.0206   -0.0151   -0.0414   -0.0157   -0.0232    0.0385
          69   -0.0123    0.0079   -0.0044    0.0097    0.0025    0.0011   -0.0129    0.0181
          70   -0.0285    0.0377    0.0212   -0.0636    0.0853    0.0121    0.0501   -0.0654
          71    0.0274    0.0319    0.0096    0.0101   -0.0468   -0.0090   -0.0355    0.0474
          72   -0.0129    0.0398    0.0125   -0.0237    0.0003   -0.0115   -0.0121    0.0278
          73    0.0958    0.0100   -0.0153    0.0304    0.0572   -0.1163   -0.0798   -0.0325
          74   -0.0074   -0.0123   -0.0257    0.0166    0.0312   -0.0594   -0.0060    0.0087
          75    0.0226   -0.0211   -0.0165    0.0194    0.0433   -0.0482    0.0251    0.0507
          76    0.0431   -0.0078   -0.0026   -0.0075   -0.0049    0.0210   -0.0311   -0.0165
          77   -0.0818   -0.0357   -0.0113   -0.0328   -0.0510    0.1269    0.0811    0.0451
          78   -0.0150   -0.0421    0.0077   -0.0265   -0.0243    0.0814   -0.0238   -0.0018
          79   -0.0004   -0.0275    0.0108   -0.0444   -0.0616    0.1461   -0.0119   -0.0156
          80    0.0029   -0.0140   -0.0348    0.0276    0.0513   -0.0866    0.0074    0.0340
          81    0.0099   -0.0160   -0.0021    0.0044    0.0147   -0.0159   -0.0025    0.0050
          82    0.0706    0.0244   -0.0185    0.0175    0.0180    0.0070    0.1019    0.0425
          83   -0.0526   -0.0142   -0.0021   -0.0114   -0.0188   -0.0112   -0.0560   -0.0497
          84    0.0016   -0.0264    0.0006   -0.0040    0.0056    0.0048   -0.0178    0.0011
          85   -0.0498   -0.0283    0.0079   -0.0177   -0.0267   -0.0107   -0.0694   -0.0170
          86    0.0265    0.0009   -0.0224    0.0109    0.0168    0.0044    0.0467    0.0014
          87    0.0094    0.0019    0.0040   -0.0001    0.0002    0.0003    0.0067   -0.0116
          88   -0.0228    0.0194    0.0086    0.0179    0.0032    0.0060    0.0013    0.0053
          89   -0.0089    0.0135   -0.1009   -0.0396   -0.0142   -0.0026   -0.0379    0.0438
          90   -0.0039    0.0203    0.0580    0.0316    0.0160    0.0166    0.0113   -0.0226
          91   -0.0091   -0.0033   -0.0152   -0.0023   -0.0094   -0.0109    0.0093   -0.0153
          92   -0.0283    0.0140    0.0494    0.0161   -0.0004    0.0049   -0.0191    0.0352
          93   -0.0022    0.0436   -0.0341    0.0093    0.0191    0.0295   -0.0130    0.0093
          94   -0.0028   -0.0186   -0.0280   -0.0157   -0.0191   -0.0228    0.0112   -0.0243
          95   -0.0241    0.0049    0.1337    0.0498    0.0105    0.0058    0.0178   -0.0188
          96    0.0039    0.0285   -0.0827   -0.0203    0.0029    0.0143   -0.0245    0.0189


   Root No.       9        10        11        12        13        14        15        16

                 9 A      10 A      11 A      12 A      13 A      14 A      15 A      16 A   

                 181.2     191.6     227.8     299.9     330.3     337.3     382.8     442.1
  
           1    0.0046   -0.0031   -0.0005   -0.0202   -0.0094   -0.0038   -0.0255   -0.0127
           2    0.0135    0.0102    0.0079   -0.0180    0.0095    0.0048   -0.0245    0.0107
           3   -0.0028    0.0033    0.0040   -0.0083    0.0165    0.0131    0.0153   -0.0110
           4    0.0040   -0.0040    0.0027   -0.0230   -0.0125   -0.0051   -0.0269   -0.0109
           5   -0.0041    0.0030    0.0064   -0.0075    0.0214    0.0148   -0.0168    0.0099
           6   -0.0003   -0.0044   -0.0018   -0.0144    0.0070    0.0087   -0.0085   -0.0216
           7   -0.0046   -0.0008   -0.0130    0.0087    0.0003   -0.0068   -0.0016   -0.0111
           8    0.0093    0.0120    0.0035   -0.0063    0.0112    0.0035   -0.0022    0.0123
           9   -0.0095    0.0215    0.0102    0.0026    0.0070   -0.0043   -0.0007    0.0051
          10   -0.0068   -0.0012    0.0042   -0.0226   -0.0030    0.0057    0.0125    0.0097
          11   -0.0162    0.0021   -0.0254    0.0133   -0.0070   -0.0083   -0.0033    0.0021
          12   -0.0060   -0.0045   -0.0175   -0.0022   -0.0055   -0.0026   -0.0044   -0.0370
          13   -0.0056   -0.0013    0.0055   -0.0223   -0.0033    0.0054    0.0125    0.0104
          14    0.0293   -0.0081    0.0078    0.0194   -0.0153   -0.0158   -0.0284    0.0066
          15    0.0059   -0.0065    0.0037    0.0097    0.0030    0.0037    0.0227   -0.0157
          16    0.0031   -0.0127    0.0284    0.0147   -0.0167   -0.0139    0.0121    0.0102
          17   -0.0055   -0.0066    0.0150    0.0145    0.0241    0.0136   -0.0018   -0.0226
          18   -0.0002   -0.0034    0.0062   -0.0072    0.0033    0.0053    0.0064    0.0202
          19    0.0085    0.0129    0.0187    0.0058    0.0085    0.0023    0.0029   -0.0102
          20   -0.0092   -0.0074   -0.0227    0.0033   -0.0106   -0.0062    0.0001    0.0009
          21   -0.0020   -0.0037   -0.0140   -0.0153   -0.0162   -0.0052    0.0089    0.0418
          22    0.0176   -0.0160   -0.0064   -0.0099    0.0050   -0.0033    0.0170   -0.0034
          23    0.0094   -0.0149   -0.0125   -0.0086    0.0134    0.0127    0.0242   -0.0005
          24    0.0009   -0.0126    0.0020   -0.0003    0.0074   -0.0159   -0.0229    0.0036
          25   -0.0164   -0.0009   -0.0118    0.0263   -0.0016    0.0471   -0.0177    0.0155
          26    0.0117    0.0174    0.0067   -0.0049   -0.0261    0.0014    0.0288   -0.0150
          27   -0.0103    0.0253    0.0135    0.0102   -0.0168    0.0025    0.0019   -0.0030
          28    0.0020   -0.0038   -0.0181    0.0122    0.0046   -0.0095   -0.0010   -0.0108
          29   -0.0291    0.0002    0.0151   -0.0079    0.0078   -0.0186    0.0007    0.0081
          30    0.0159    0.0037   -0.0075    0.0116    0.0162   -0.0123    0.0048    0.0108
          31   -0.0072    0.0154   -0.0008    0.0123   -0.0074    0.0270   -0.0039    0.0057
          32    0.0072    0.0056   -0.0006    0.0033   -0.0232    0.0147    0.0215   -0.0097
          33   -0.0053    0.0054    0.0093    0.0108   -0.0165   -0.0052   -0.0230   -0.0007
          34   -0.0039    0.0174   -0.0139    0.0181    0.0287   -0.0386    0.0066    0.0059
          35   -0.0123   -0.0054    0.0060   -0.0048    0.0001   -0.0107   -0.0015   -0.0023
          36    0.0091   -0.0149   -0.0051    0.0033   -0.0032    0.0123   -0.0019    0.0012
          37    0.0140    0.0021   -0.0016   -0.0415   -0.0150   -0.0071   -0.0509   -0.0163
          38   -0.0089    0.0005    0.0070    0.0017    0.0215    0.0147   -0.0050    0.0131
          39    0.0098   -0.0078    0.0152   -0.0179    0.0162    0.0151   -0.0195   -0.0371
          40    0.0036   -0.0079    0.0015   -0.0305   -0.0090   -0.0020   -0.0449   -0.0222
          41    0.0073    0.0220    0.0057   -0.0241    0.0139    0.0056   -0.0310    0.0158
          42    0.0023   -0.0035    0.0049    0.0033    0.0119    0.0108    0.0320   -0.0098
          43   -0.0065   -0.0063   -0.0192    0.0178    0.0073   -0.0316    0.0092   -0.0109
          44    0.0189    0.0051    0.0011   -0.0177    0.0262    0.0077   -0.0115    0.0142
          45   -0.0151    0.0284    0.0152    0.0064   -0.0082    0.0060   -0.0004    0.0032
          46    0.0020   -0.0282    0.0582    0.0535   -0.0233   -0.0244    0.0527    0.0242
          47   -0.0051    0.0020   -0.0029   -0.0051    0.0258    0.0178   -0.0217   -0.0302
          48   -0.0003   -0.0085    0.0242   -0.0072    0.0121    0.0110    0.0032    0.0265
          49    0.0021   -0.0189    0.0343    0.0207   -0.0200   -0.0168    0.0176    0.0108
          50   -0.0065   -0.0245    0.0524    0.0573    0.0192    0.0037    0.0424   -0.0043
          51    0.0029    0.0046    0.0173    0.0068    0.0127    0.0083    0.0244    0.0334
          52   -0.0393    0.0065   -0.0218   -0.0294    0.0012    0.0105    0.0328    0.0033
          53   -0.0310    0.0056   -0.0375    0.0105   -0.0052   -0.0064    0.0056   -0.0018
          54   -0.0213   -0.0029   -0.0514    0.0103   -0.0307   -0.0237   -0.0018   -0.0621
          55    0.0188   -0.0071    0.0316   -0.0141   -0.0011    0.0074    0.0191    0.0308
          56   -0.0410    0.0063   -0.0612    0.0243   -0.0238   -0.0223    0.0146   -0.0164
          57   -0.0039   -0.0039   -0.0090   -0.0147    0.0047    0.0058   -0.0203   -0.0370
          58    0.0203   -0.0076    0.0333   -0.0138   -0.0036    0.0056    0.0172    0.0286
          59    0.0562   -0.0239    0.0209    0.0482   -0.0351   -0.0330   -0.0412    0.0070
          60    0.0017    0.0010    0.0102   -0.0051    0.0164    0.0154    0.0335   -0.0060
          61   -0.0381    0.0063   -0.0188   -0.0302    0.0025    0.0119    0.0346    0.0075
          62    0.0450   -0.0119    0.0196    0.0237   -0.0184   -0.0193   -0.0391    0.0083
          63    0.0253   -0.0228    0.0147    0.0448   -0.0171   -0.0127    0.0273   -0.0101
          64    0.0055    0.0119    0.0194    0.0055    0.0171    0.0081   -0.0001   -0.0192
          65   -0.0548   -0.0810   -0.0027    0.0161   -0.0077   -0.0024    0.0017    0.0030
          66   -0.0324   -0.0662    0.0020   -0.0024   -0.0417   -0.0206    0.0203    0.0726
          67    0.0587    0.1060   -0.0176   -0.0167    0.0136    0.0040   -0.0044   -0.0215
          68    0.0077    0.0234   -0.0606   -0.0126   -0.0434   -0.0260    0.0032    0.0324
          69    0.0124    0.0234   -0.0058   -0.0157    0.0102    0.0100    0.0028    0.0138
          70   -0.0343   -0.0582    0.0475    0.0219    0.0203    0.0113    0.0036   -0.0176
          71    0.0163    0.0341   -0.0379   -0.0053   -0.0169   -0.0112   -0.0001    0.0047
          72    0.0124    0.0309   -0.0561   -0.0350   -0.0375   -0.0169    0.0071    0.0633
          73    0.0184   -0.0323   -0.0094   -0.0138    0.0063   -0.0106    0.0244   -0.0086
          74    0.0099   -0.0211   -0.0136   -0.0102    0.0136    0.0100    0.0274   -0.0027
          75   -0.0057   -0.0250   -0.0074   -0.0041    0.0409   -0.0071   -0.0305    0.0200
          76    0.0217   -0.0210   -0.0073   -0.0139    0.0070   -0.0096    0.0215   -0.0060
          77    0.0088   -0.0016   -0.0116   -0.0070    0.0198    0.0210    0.0188    0.0071
          78    0.0236   -0.0348   -0.0026   -0.0220    0.0206   -0.0471   -0.0019   -0.0069
          79    0.0350   -0.0239   -0.0077   -0.0242    0.0115   -0.0238    0.0315   -0.0108
          80    0.0110   -0.0380   -0.0227   -0.0191    0.0435    0.0092    0.0280    0.0072
          81   -0.0090    0.0053    0.0087    0.0132   -0.0137   -0.0031   -0.0324    0.0029
          82   -0.0099    0.0448    0.0110    0.0032   -0.0208    0.0077    0.0209   -0.0171
          83    0.0009    0.0083   -0.0019    0.0186   -0.0315    0.0402    0.0139    0.0015
          84   -0.0003   -0.0104    0.0042    0.0061   -0.0045   -0.0108   -0.0299    0.0039
          85   -0.0177   -0.0185   -0.0209    0.0447    0.0085    0.0843   -0.0492    0.0452
          86    0.0148    0.0231    0.0117   -0.0117   -0.0445   -0.0163    0.0456   -0.0360
          87   -0.0109    0.0296    0.0147    0.0048   -0.0103   -0.0055    0.0071   -0.0052
          88    0.0146   -0.0224   -0.0288    0.0160   -0.0032    0.0049   -0.0027   -0.0150
          89   -0.0863   -0.0069    0.0461   -0.0324   -0.0102   -0.0493   -0.0065   -0.0129
          90    0.0513   -0.0001   -0.0281    0.0258    0.0220    0.0108    0.0075    0.0200
          91    0.0033    0.0141   -0.0183    0.0201    0.0270   -0.0280    0.0063    0.0072
          92   -0.0503   -0.0184    0.0273   -0.0278   -0.0303   -0.0246   -0.0133   -0.0417
          93    0.0358   -0.0352   -0.0213    0.0067   -0.0220    0.0660   -0.0074   -0.0040
          94   -0.0161    0.0386   -0.0061    0.0226    0.0557   -0.0798    0.0149    0.0253
          95    0.0407    0.0017   -0.0236    0.0212    0.0213    0.0136    0.0074    0.0246
          96   -0.0236   -0.0120    0.0136   -0.0095   -0.0064   -0.0136   -0.0042   -0.0075


   Root No.      17        18        19        20        21        22        23        24

                17 A      18 A      19 A      20 A      21 A      22 A      23 A      24 A   

                 467.5     543.0     599.8     659.2     758.0     826.1     840.9     857.5
  
           1   -0.0040    0.0068   -0.0025   -0.0019    0.0063    0.0120   -0.0132   -0.0046
           2   -0.0201   -0.0155    0.0175    0.0200   -0.0046    0.0030   -0.0042    0.0044
           3   -0.0146   -0.0175    0.0153    0.0156    0.0259    0.0032   -0.0109   -0.0001
[...]
 TRANSITION DIPOLE   0.0461         C  6 -- H 17         +38.0% ( 63.7%)     96.3%
 TRAVEL (Ang.)       0.2499         C  2 -- H 13         +17.2% ( 42.9%)    100.0%
 REDUCED MASS        0.3659         C  2 -- C  6          +1.0% ( 10.5%)      2.7%
 EFFECTIVE MASS      1.5199
 FORCE CONSTANT      1.8783

 VIBRATION         75   75A           ATOM PAIR      ENERGY CONTRIBUTION    RADIAL
 FREQUENCY          3028.36         C  9 -- H 29         +94.8% ( 98.7%)    100.0%
 TRANSITION DIPOLE   0.2484         C  9 -- C 11          +1.4% ( 12.0%)     40.6%
 TRAVEL (Ang.)       0.1587         C  3 -- C  9          +1.3% ( 11.6%)     14.1%
 REDUCED MASS        0.8843         C 11 -- H 28          +0.4% (  6.3%)     94.7%
 EFFECTIVE MASS      1.5030
 FORCE CONSTANT      4.7780

 VIBRATION         76   76A           ATOM PAIR      ENERGY CONTRIBUTION    RADIAL
 FREQUENCY          3028.69         C  4 -- H 18         +27.1% ( 54.4%)     97.3%
 TRANSITION DIPOLE   0.0247         C  5 -- H 20         +25.8% ( 53.1%)     97.3%
 TRAVEL (Ang.)       0.2960         C  4 -- H 19         +21.4% ( 48.4%)     95.9%
 REDUCED MASS        0.2541         C  5 -- H 21         +20.6% ( 47.5%)     95.9%
 EFFECTIVE MASS      1.5528
 FORCE CONSTANT      1.3733

 VIBRATION         77   77A           ATOM PAIR      ENERGY CONTRIBUTION    RADIAL
 FREQUENCY          3030.15         C  6 -- H 17         +51.2% ( 70.5%)     98.0%
 TRANSITION DIPOLE   0.0203         C  6 -- H 16         +46.3% ( 67.0%)     97.4%
 TRAVEL (Ang.)       0.2168         C  6 -- C  7          +0.6% (  7.8%)     26.0%
 REDUCED MASS        0.4734         C  2 -- C  6          +0.6% (  7.6%)     29.1%
 EFFECTIVE MASS      1.2766
 FORCE CONSTANT      2.5609

 VIBRATION         78   78A           ATOM PAIR      ENERGY CONTRIBUTION    RADIAL
 FREQUENCY          3037.03         C 11 -- H 28         +94.4% ( 98.7%)    100.0%
 TRANSITION DIPOLE   0.2264         C  9 -- C 11          +1.5% ( 12.6%)     39.2%
 TRAVEL (Ang.)       0.1586         C  8 -- C 11          +1.4% ( 12.0%)     11.0%
 REDUCED MASS        0.8828         C  8 -- H 27          +1.4% ( 12.0%)     98.0%
 EFFECTIVE MASS      1.5251
 FORCE CONSTANT      4.7975

 VIBRATION         79   79A           ATOM PAIR      ENERGY CONTRIBUTION    RADIAL
 FREQUENCY          3043.28         C  5 -- H 20         +28.0% ( 54.9%)     97.7%
 TRANSITION DIPOLE   0.1058         C  4 -- H 18         +27.0% ( 53.9%)     97.7%
 TRAVEL (Ang.)       0.2919         C  5 -- H 21         +21.1% ( 47.7%)     96.1%
 REDUCED MASS        0.2601         C  4 -- H 19         +20.1% ( 46.5%)     96.0%
 EFFECTIVE MASS      1.5310
 FORCE CONSTANT      1.4193

 VIBRATION         80   80A           ATOM PAIR      ENERGY CONTRIBUTION    RADIAL
 FREQUENCY          3044.16         C 10 -- H 30         +95.6% ( 99.2%)    100.0%
 TRANSITION DIPOLE   0.2338         C 10 -- C 12          +1.4% ( 12.0%)     29.1%
 TRAVEL (Ang.)       0.1568         C  3 -- C 10          +1.3% ( 11.7%)     14.8%
 REDUCED MASS        0.9005         C 12 -- H 31          +1.0% ( 10.0%)     95.7%
 EFFECTIVE MASS      1.5038
 FORCE CONSTANT      4.9165

 VIBRATION         81   81A           ATOM PAIR      ENERGY CONTRIBUTION    RADIAL
 FREQUENCY          3066.58         C  7 -- H 22         +65.1% ( 83.2%)     98.6%
 TRANSITION DIPOLE   0.0456         C  7 -- H 24         +30.0% ( 56.5%)     93.2%
 TRAVEL (Ang.)       0.2016         C  7 -- H 23          +2.9% ( 17.7%)     38.4%
 REDUCED MASS        0.5409         C  6 -- C  7          +1.0% ( 10.2%)      0.0%
 EFFECTIVE MASS      1.4989
 FORCE CONSTANT      2.9970

 VIBRATION         82   82A           ATOM PAIR      ENERGY CONTRIBUTION    RADIAL
 FREQUENCY          3069.77         C  8 -- H 26         +60.0% ( 79.9%)     98.3%
 TRANSITION DIPOLE   0.0208         C  8 -- H 25         +35.1% ( 61.1%)     94.3%
 TRAVEL (Ang.)       0.2072         C  8 -- H 27          +3.5% ( 19.4%)     42.9%
 REDUCED MASS        0.5115         C  8 -- C 11          +1.0% ( 10.2%)      0.0%
 EFFECTIVE MASS      1.5017
 FORCE CONSTANT      2.8397

 VIBRATION         83   83A           ATOM PAIR      ENERGY CONTRIBUTION    RADIAL
 FREQUENCY          3075.24         C  8 -- H 27         +59.8% ( 79.7%)     98.6%
 TRANSITION DIPOLE   0.0574         C  8 -- H 25         +30.3% ( 56.8%)     92.8%
 TRAVEL (Ang.)       0.2132         C  8 -- H 26          +6.9% ( 27.0%)     63.9%
 REDUCED MASS        0.4823         C 11 -- H 28          +1.9% ( 14.0%)    100.0%
 EFFECTIVE MASS      1.5083
 FORCE CONSTANT      2.6876

 VIBRATION         84   84A           ATOM PAIR      ENERGY CONTRIBUTION    RADIAL
 FREQUENCY          3084.08         C  7 -- H 23         +56.6% ( 77.5%)     98.3%
 TRANSITION DIPOLE   0.0046         C  7 -- H 24         +34.6% ( 60.6%)     93.9%
 TRAVEL (Ang.)       0.2149         C  7 -- H 22          +7.4% ( 28.0%)     65.3%
 REDUCED MASS        0.4735         C  6 -- C  7          +1.0% ( 10.4%)      0.0%
 EFFECTIVE MASS      1.5040
 FORCE CONSTANT      2.6536

 VIBRATION         85   85A           ATOM PAIR      ENERGY CONTRIBUTION    RADIAL
 FREQUENCY          3103.24         C  4 -- H 19         +36.2% ( 59.6%)     98.0%
 TRANSITION DIPOLE   0.0665         C  4 -- H 18         +26.5% ( 51.1%)     96.0%
 TRAVEL (Ang.)       0.2856         C  5 -- H 21         +20.4% ( 44.8%)     98.0%
 REDUCED MASS        0.2664         C  5 -- H 20         +14.9% ( 38.2%)     96.0%
 EFFECTIVE MASS      1.2810
 FORCE CONSTANT      1.5116

 VIBRATION         86   86A           ATOM PAIR      ENERGY CONTRIBUTION    RADIAL
 FREQUENCY          3104.88         C  5 -- H 21         +35.2% ( 58.9%)     97.9%
 TRANSITION DIPOLE   0.0751         C  5 -- H 20         +27.4% ( 51.9%)     96.3%
 TRAVEL (Ang.)       0.2866         C  4 -- H 19         +19.8% ( 44.1%)     97.9%
 REDUCED MASS        0.2644         C  4 -- H 18         +15.4% ( 39.0%)     96.3%
 EFFECTIVE MASS      1.2888
 FORCE CONSTANT      1.5019

 VIBRATION         87   87A           ATOM PAIR      ENERGY CONTRIBUTION    RADIAL
 FREQUENCY          3129.78         C 12 -- H 32         +94.3% ( 98.7%)     99.9%
 TRANSITION DIPOLE   0.1860         C 12 -- H 31          +4.3% ( 21.1%)     60.4%
 TRAVEL (Ang.)       0.1557         C 10 -- C 12          +1.3% ( 11.7%)     27.4%
 REDUCED MASS        0.8889
 EFFECTIVE MASS      1.5259
 FORCE CONSTANT      5.1301

 VIBRATION         88   88A           ATOM PAIR      ENERGY CONTRIBUTION    RADIAL
 FREQUENCY          3146.55         C 12 -- H 31         +94.0% ( 97.8%)     99.8%
 TRANSITION DIPOLE   0.2491         C 12 -- H 32          +3.5% ( 18.9%)     20.6%
 TRAVEL (Ang.)       0.1580         C 10 -- C 12          +1.6% ( 12.6%)     67.4%
 REDUCED MASS        0.8579         C 10 -- H 30          +0.8% (  9.3%)     95.2%
 EFFECTIVE MASS      1.4767
 FORCE CONSTANT      5.0046

 VIBRATION         89   89A           ATOM PAIR      ENERGY CONTRIBUTION    RADIAL
 FREQUENCY          3168.77         C  8 -- H 27         +34.7% ( 56.7%)     97.3%
 TRANSITION DIPOLE   0.0673         C  8 -- H 25         +33.4% ( 55.7%)     97.2%
 TRAVEL (Ang.)       0.2552         C  8 -- H 26         +31.5% ( 54.0%)     96.9%
 REDUCED MASS        0.3268         C  8 -- C 11          +0.3% (  5.4%)     99.9%
 EFFECTIVE MASS      1.1393
 FORCE CONSTANT      1.9332

 VIBRATION         90   90A           ATOM PAIR      ENERGY CONTRIBUTION    RADIAL
 FREQUENCY          3174.45         C  7 -- H 23         +40.2% ( 61.0%)     98.0%
 TRANSITION DIPOLE   0.0279         C  7 -- H 24         +34.6% ( 56.6%)     97.2%
 TRAVEL (Ang.)       0.2514         C  7 -- H 22         +24.8% ( 48.0%)     95.3%
 REDUCED MASS        0.3361         C  6 -- C  7          +0.3% (  5.2%)     97.0%
 EFFECTIVE MASS      1.1395
 FORCE CONSTANT      1.9955

      SYMMETRY NUMBER FOR POINT-GROUP C1  =  1


          SYSTEM IS A GROUND STATE



 InChI=1S/C12H20/c1-4-7-10(5-2)12-9-8-11(12)6-3/h4-5,7,10-12H,2,6,8-9H2,1,3H3


          MOLECULE IS NOT LINEAR

          THERE ARE 90 GENUINE VIBRATIONS IN THIS SYSTEM
          THIS THERMODYNAMICS CALCULATION IS LIMITED TO
          MOLECULES WHICH HAVE NO INTERNAL ROTATIONS




                    CALCULATED THERMODYNAMIC PROPERTIES
                                          *
   TEMP. (K)   PARTITION FUNCTION   H.O.F.    ENTHALPY  HEAT CAPACITY ENTROPY
                                   KCAL/MOL   CAL/MOLE    CAL/K/MOL  CAL/K/MOL


 298.00  VIB.     0.3086D+06                  7193.0069    46.2534    49.2552
         ROT.     0.1447D+07                   888.2803     2.9808    31.1689
         INT.     0.4464D+12                  8081.2872    49.2342    80.4242
         TRA.     0.2036D+28                  1480.4672     4.9680    41.1956
         TOT.                        9.490    9561.7544    54.2022   121.6198

 200.00  VIB.     0.5158D+04                  3437.3634    31.0316    34.1742
         ROT.     0.7954D+06                   596.1613     2.9808    29.9803
         INT.     0.4103D+10                  4033.5246    34.0124    64.1545
         TRA.     0.1119D+28                   993.6021     4.9680    39.2145
         TOT.                        4.955    5027.1268    38.9804   103.3690

 210.00  VIB.     0.7933D+04                  3754.4448    32.3926    35.7210
         ROT.     0.8558D+06                   625.9693     2.9808    30.1257
         INT.     0.6789D+10                  4380.4141    35.3734    65.8467
         TRA.     0.1204D+28                  1043.2822     4.9680    39.4569
         TOT.                        5.352    5423.6964    40.3414   105.3036

 220.00  VIB.     0.1215D+05                  4085.3762    33.8018    37.2602
         ROT.     0.9177D+06                   655.7774     2.9808    30.2644
         INT.     0.1115D+11                  4741.1536    36.7827    67.5246
         TRA.     0.1291D+28                  1092.9623     4.9680    39.6880
         TOT.                        5.762    5834.1159    41.7507   107.2126

 230.00  VIB.     0.1855D+05                  4430.6445    35.2599    38.7948
         ROT.     0.9810D+06                   685.5855     2.9808    30.3969
         INT.     0.1820D+11                  5116.2300    38.2407    69.1916
         TRA.     0.1380D+28                  1142.6424     4.9680    39.9088
         TOT.                        6.187    6258.8724    43.2087   109.1005

 240.00  VIB.     0.2824D+05                  4790.7327    36.7655    40.3271
         ROT.     0.1046D+07                   715.3935     2.9808    30.5237
         INT.     0.2953D+11                  5506.1263    39.7463    70.8508
         TRA.     0.1471D+28                  1192.3226     4.9680    40.1203
         TOT.                        6.626    6698.4488    44.7143   110.9711

 250.00  VIB.     0.4286D+05                  5166.1048    38.3161    41.8592
         ROT.     0.1112D+07                   745.2016     2.9808    30.6454
         INT.     0.4764D+11                  5911.3064    41.2969    72.5046
         TRA.     0.1564D+28                  1242.0027     4.9680    40.3231
         TOT.                        7.081    7153.3091    46.2650   112.8277

 260.00  VIB.     0.6489D+05                  5557.1938    39.9082    43.3929
         ROT.     0.1179D+07                   775.0097     2.9808    30.7623
         INT.     0.7650D+11                  6332.2034    42.8890    74.1552
         TRA.     0.1659D+28                  1291.6828     4.9680    40.5179
         TOT.                        7.552    7623.8862    47.8570   114.6731

 270.00  VIB.     0.9804D+05                  5964.3924    41.5373    44.9295
         ROT.     0.1248D+07                   804.8177     2.9808    30.8748
         INT.     0.1223D+12                  6769.2101    44.5181    75.8043
         TRA.     0.1756D+28                  1341.3629     4.9680    40.7054
         TOT.                        8.038    8110.5730    49.4861   116.5097

 280.00  VIB.     0.1478D+06                  6388.0472    43.1986    46.4700
         ROT.     0.1318D+07                   834.6258     2.9808    30.9832
         INT.     0.1948D+12                  7222.6730    46.1794    77.4532
         TRA.     0.1854D+28                  1391.0430     4.9680    40.8861
         TOT.                        8.542    8613.7159    51.1474   118.3393

 290.00  VIB.     0.2226D+06                  6828.4542    44.8869    48.0153
         ROT.     0.1389D+07                   864.4339     2.9808    31.0878
         INT.     0.3092D+12                  7692.8881    47.8677    79.1031
         TRA.     0.1954D+28                  1440.7231     4.9680    41.0604
         TOT.                        9.061    9133.6112    52.8357   120.1636

 300.00  VIB.     0.3348D+06                  7285.8571    46.5969    49.5658
         ROT.     0.1461D+07                   894.2419     2.9808    31.1889
         INT.     0.4892D+12                  8180.0990    49.5777    80.7547
         TRA.     0.2056D+28                  1490.4032     4.9680    41.2289
         TOT.                        9.598    9670.5022    54.5457   121.9835

 310.00  VIB.     0.5028D+06                  7760.4466    48.3233    51.1218
         ROT.     0.1535D+07                   924.0500     2.9808    31.2866
         INT.     0.7719D+12                  8684.4966    51.3041    82.4084
         TRA.     0.2160D+28                  1540.0833     4.9680    41.3918
         TOT.                       10.152   10224.5799    56.2722   123.8002

 320.00  VIB.     0.7546D+06                  8252.3617    50.0612    52.6834
         ROT.     0.1610D+07                   953.8580     2.9808    31.3813
         INT.     0.1215D+13                  9206.2197    53.0420    84.0647
         TRA.     0.2265D+28                  1589.7634     4.9680    41.5495
         TOT.                       10.724   10795.9832    58.0100   125.6142

 330.00  VIB.     0.1132D+07                  8761.6915    51.8055    54.2506
         ROT.     0.1686D+07                   983.6661     2.9808    31.4730
         INT.     0.1908D+13                  9745.3576    54.7863    85.7236
         TRA.     0.2372D+28                  1639.4435     4.9680    41.7024
         TOT.                       11.313   11384.8011    59.7543   127.4259

 340.00  VIB.     0.1696D+07                  9288.4780    53.5518    55.8231
         ROT.     0.1763D+07                  1013.4742     2.9808    31.5620
         INT.     0.2990D+13                 10301.9522    56.5326    87.3850
         TRA.     0.2481D+28                  1689.1236     4.9680    41.8507
         TOT.                       11.919   11991.0758    61.5006   129.2357

 350.00  VIB.     0.2541D+07                  9832.7195    55.2958    57.4006
         ROT.     0.1841D+07                  1043.2822     2.9808    31.6484
         INT.     0.4678D+13                 10876.0017    58.2766    89.0489
         TRA.     0.2591D+28                  1738.8037     4.9680    41.9947
         TOT.                       12.543   12614.8054    63.2446   131.0436

 360.00  VIB.     0.3804D+07                 10394.3739    57.0338    58.9827
         ROT.     0.1921D+07                  1073.0903     2.9808    31.7323
         INT.     0.7308D+13                 11467.4642    60.0146    90.7150
         TRA.     0.2703D+28                  1788.4838     4.9680    42.1347
         TOT.                       13.184   13255.9480    64.9826   132.8497

 370.00  VIB.     0.5695D+07                 10973.3630    58.7622    60.5689
         ROT.     0.2002D+07                  1102.8984     2.9808    31.8140
         INT.     0.1140D+14                 12076.2614    61.7430    92.3830
         TRA.     0.2817D+28                  1838.1639     4.9680    42.2708
         TOT.                       13.842   13914.4253    66.7110   134.6537

 380.00  VIB.     0.8524D+07                 11569.5759    60.4780    62.1588
         ROT.     0.2083D+07                  1132.7064     2.9808    31.8935
         INT.     0.1776D+14                 12702.2823    63.4589    94.0523
         TRA.     0.2932D+28                  1887.8440     4.9680    42.4033
         TOT.                       14.518   14590.1264    68.4269   136.4556

 390.00  VIB.     0.1276D+08                 12182.8730    62.1786    63.7518
         ROT.     0.2166D+07                  1162.5145     2.9808    31.9709
         INT.     0.2763D+14                 13345.3875    65.1594    95.7227
         TRA.     0.3048D+28                  1937.5242     4.9680    42.5323
         TOT.                       15.211   15282.9116    70.1274   138.2551

 400.00  VIB.     0.1909D+08                 12813.0897    63.8616    65.3473
         ROT.     0.2250D+07                  1192.3226     2.9808    32.0464
         INT.     0.4294D+14                 14005.4123    66.8424    97.3937
         TRA.     0.3166D+28                  1987.2043     4.9680    42.6581
         TOT.                       15.920   15992.6165    71.8104   140.0518

   *: NOTE: HEATS OF FORMATION ARE RELATIVE TO THE
            ELEMENTS IN THEIR STANDARD STATE AT 298K
              (=  Standard Enthalpy of Formation).

            Hvib:  Zero-point energy is not included.
                   frequencies of less than zero cm-1 are not included.
            Hrot = (3/2)RT
            Htra = (3/2)RT + pV = (5/2)RT

            Heat capacity is Cp, not Cv

          For more information, see: HTTP://OpenMOPAC.net/Manual/thermochemistry.html


           FORCE CONSTANT IN CARTESIAN COORDINATES (Millidynes/A)

    ATOM   CHEMICAL       X               Y               Z
   NUMBER   SYMBOL  FORCE CONSTANT  FORCE CONSTANT  FORCE CONSTANT

      1       C        7.830447        8.234644        8.263407
      2       C        7.694884        8.638028        8.241364
      3       C        8.682962        8.161374        8.880786
      4       C        8.128795        8.394856        8.056403
      5       C        8.141694        8.458261        7.956404
      6       C        8.292074        8.364400        8.435769
      7       C        8.201927        8.269287        8.405025
      8       C        8.076204        8.423179        8.946270
      9       C        6.005164       12.013928        9.063242
     10       C       11.402298        5.782893        9.723522
     11       C        5.809247       11.895895        9.436269
     12       C       11.688796        5.335001        9.409925
     13       H        1.358651        4.141565        0.739265
     14       H        1.378771        1.999403        2.868538
     15       H        1.317556        1.828843        2.822643
     16       H        1.674476        3.928689        0.789482
     17       H        4.508802        0.845810        1.018165
     18       H        1.425981        4.469850        0.724840
     19       H        1.500538        1.955557        3.171224
     20       H        1.423413        2.012604        3.176852
     21       H        1.498479        4.426523        0.704032
     22       H        4.764136        0.933714        1.009295
     23       H        1.415792        2.199549        3.170059
     24       H        1.988605        4.025818        0.753154
     25       H        1.305494        4.677663        0.683530
     26       H        5.215364        0.652304        0.782773
     27       H        1.493528        1.818577        3.451509
     28       H        1.077203        1.512079        3.612507
     29       H        1.088785        1.526240        3.587115
     30       H        1.227708        1.306854        3.664265
     31       H        5.236235        0.447018        0.787101
     32       H        1.069112        1.431964        3.950462

 **********************
 *                    *
 * JOB ENDED NORMALLY *
 *                    *
 **********************



 TOTAL JOB TIME:             9.38 SECONDS

 == MOPAC DONE ==
