 *******************************************************************************
 **                                                                           **
 **                              MOPAC v23.1.2                                **
 **                                                                           **
 *******************************************************************************
 **          Digital Object Identifier (DOI): 10.5281/zenodo.6511958          **
 **    Visit the DOI location for information on how to cite this program.    **
 *******************************************************************************

                              PM3 CALCULATION RESULTS

 *******************************************************************************
 *  CALCULATION DONE: (MAX THREADS = 1)              Tue Jun  3 16:34:08 2025  *
 *  PM3        - The PM3 Hamiltonian to be used
 *  PRECISE    - TIGHTER CRITERIA TO BE USED
 *  NOSYM      - POINT-GROUP SYMMETRY SET TO C1
 *  THREADS=1  - MULTI-THREADING NOT USED
 *  T=         - A TIME OF 172800.0 SECONDS REQUESTED
 *  DUMP=N     - RESTART FILE WRITTEN EVERY 7200.0 SECONDS REQUESTED
 *******************************************************************************
pm3  precise nosym THREADS=1
 InChI=1S/C9H10/c1-2-5-9-7-3-6-8(9)4-1/h1,3-6,8H,2,7H2

   ATOM   CHEMICAL          X               Y               Z
  NUMBER   SYMBOL      (ANGSTROMS)     (ANGSTROMS)     (ANGSTROMS)

     1       C         -0.09320000  *   0.95380000  *   0.31130000  *
     2       C         -1.82490000  *  -0.81120000  *   0.33930000  *
     3       C          2.02770000  *  -0.95980000  *   0.19660000  *
     4       C         -0.37220000  *  -0.50800000  *   0.49190000  *
     5       C          0.60870000  *  -1.42410000  *   0.43300000  *
     6       C         -1.40960000  *   1.44840000  *  -0.18480000  *
     7       C          1.03960000  *   1.15290000  *  -0.66840000  *
     8       C         -2.35170000  *   0.50600000  *  -0.13030000  *
     9       C          2.04540000  *   0.25710000  *  -0.70930000  *
    10       H          0.15830000  *   1.42100000  *   1.28740000  *
    11       H         -2.27560000  *  -1.10110000  *   1.31150000  *
    12       H         -1.99590000  *  -1.58750000  *  -0.43700000  *
    13       H          2.48120000  *  -0.68410000  *   1.17210000  *
    14       H          2.62520000  *  -1.77910000  *  -0.25540000  *
    15       H         -3.38590000  *   0.68070000  *  -0.40800000  *
    16       H          1.07380000  *   2.03780000  *  -1.29690000  *
    17       H         -1.60370000  *   2.47150000  *  -0.49030000  *
    18       H          2.87840000  *   0.41010000  *  -1.38830000  *
    19       H          0.37430000  *  -2.48440000  *   0.42570000  *



          CARTESIAN COORDINATES 

    NO.       ATOM           X           Y           Z

     1         C         -0.0932      0.9538      0.3113
     2         C         -1.8249     -0.8112      0.3393
     3         C          2.0277     -0.9598      0.1966
     4         C         -0.3722     -0.5080      0.4919
     5         C          0.6087     -1.4241      0.4330
     6         C         -1.4096      1.4484     -0.1848
     7         C          1.0396      1.1529     -0.6684
     8         C         -2.3517      0.5060     -0.1303
     9         C          2.0454      0.2571     -0.7093
    10         H          0.1583      1.4210      1.2874
    11         H         -2.2756     -1.1011      1.3115
    12         H         -1.9959     -1.5875     -0.4370
    13         H          2.4812     -0.6841      1.1721
    14         H          2.6252     -1.7791     -0.2554
    15         H         -3.3859      0.6807     -0.4080
    16         H          1.0738      2.0378     -1.2969
    17         H         -1.6037      2.4715     -0.4903
    18         H          2.8784      0.4101     -1.3883
    19         H          0.3743     -2.4844      0.4257

  H: (PM3): J. J. P. STEWART, J. COMP. CHEM. 10, 209 (1989).
  C: (PM3): J. J. P. STEWART, J. COMP. CHEM. 10, 209 (1989).

           Empirical Formula: C9 H10  =    19 atoms



      MOLECULAR POINT GROUP   :   C1  


      RHF CALCULATION, NO. OF DOUBLY OCCUPIED LEVELS = 23


          Geometry optimization using EF

          DIAGONAL MATRIX USED AS START HESSIAN

 CYCLE:     1 TIME:   0.004 TIME LEFT:  2.00D  GRAD.:    76.312 HEAT:  44.52852
 CYCLE:     2 TIME:   0.016 TIME LEFT:  2.00D  GRAD.:    70.315 HEAT:  43.48765
 CYCLE:     3 TIME:   0.004 TIME LEFT:  2.00D  GRAD.:    45.786 HEAT:  42.50210
 CYCLE:     4 TIME:   0.012 TIME LEFT:  2.00D  GRAD.:    26.675 HEAT:  41.96614
 CYCLE:     5 TIME:   0.004 TIME LEFT:  2.00D  GRAD.:    33.959 HEAT:  41.70237
 CYCLE:     6 TIME:   0.008 TIME LEFT:  2.00D  GRAD.:    43.631 HEAT:  41.63921
 CYCLE:     7 TIME:   0.008 TIME LEFT:  2.00D  GRAD.:    37.808 HEAT:  41.38260
 CYCLE:     8 TIME:   0.008 TIME LEFT:  2.00D  GRAD.:    29.331 HEAT:  41.23085
 CYCLE:     9 TIME:   0.004 TIME LEFT:  2.00D  GRAD.:    32.768 HEAT:  41.22051
 CYCLE:    10 TIME:   0.008 TIME LEFT:  2.00D  GRAD.:    27.563 HEAT:  41.07099
 CYCLE:    11 TIME:   0.012 TIME LEFT:  2.00D  GRAD.:    17.209 HEAT:  40.93803
 CYCLE:    12 TIME:   0.004 TIME LEFT:  2.00D  GRAD.:    14.188 HEAT:  40.89186
 CYCLE:    13 TIME:   0.008 TIME LEFT:  2.00D  GRAD.:    14.117 HEAT:  40.85323
 CYCLE:    14 TIME:   0.004 TIME LEFT:  2.00D  GRAD.:    11.976 HEAT:  40.80193
 CYCLE:    15 TIME:   0.008 TIME LEFT:  2.00D  GRAD.:    14.893 HEAT:  40.77312
 CYCLE:    16 TIME:   0.004 TIME LEFT:  2.00D  GRAD.:    12.130 HEAT:  40.70247
 CYCLE:    17 TIME:   0.012 TIME LEFT:  2.00D  GRAD.:    16.990 HEAT:  40.69177
 CYCLE:    18 TIME:   0.004 TIME LEFT:  2.00D  GRAD.:     9.945 HEAT:  40.63416
 CYCLE:    19 TIME:   0.008 TIME LEFT:  2.00D  GRAD.:     9.437 HEAT:  40.59548
 CYCLE:    20 TIME:   0.004 TIME LEFT:  2.00D  GRAD.:     8.138 HEAT:  40.54989
 CYCLE:    21 TIME:   0.008 TIME LEFT:  2.00D  GRAD.:     9.773 HEAT:  40.51530
 CYCLE:    22 TIME:   0.004 TIME LEFT:  2.00D  GRAD.:     7.698 HEAT:  40.49246
 CYCLE:    23 TIME:   0.008 TIME LEFT:  2.00D  GRAD.:     4.334 HEAT:  40.46938
 CYCLE:    24 TIME:   0.008 TIME LEFT:  2.00D  GRAD.:     4.783 HEAT:  40.46007
 CYCLE:    25 TIME:   0.004 TIME LEFT:  2.00D  GRAD.:     3.847 HEAT:  40.44785
 CYCLE:    26 TIME:   0.008 TIME LEFT:  2.00D  GRAD.:     2.991 HEAT:  40.43559
 CYCLE:    27 TIME:   0.004 TIME LEFT:  2.00D  GRAD.:     3.786 HEAT:  40.42292
 CYCLE:    28 TIME:   0.008 TIME LEFT:  2.00D  GRAD.:     4.318 HEAT:  40.40285
 CYCLE:    29 TIME:   0.008 TIME LEFT:  2.00D  GRAD.:     2.841 HEAT:  40.38457
 CYCLE:    30 TIME:   0.004 TIME LEFT:  2.00D  GRAD.:     2.117 HEAT:  40.37192
 CYCLE:    31 TIME:   0.008 TIME LEFT:  2.00D  GRAD.:     2.515 HEAT:  40.36528
 CYCLE:    32 TIME:   0.004 TIME LEFT:  2.00D  GRAD.:     2.304 HEAT:  40.35601
 CYCLE:    33 TIME:   0.008 TIME LEFT:  2.00D  GRAD.:     2.211 HEAT:  40.34666
 CYCLE:    34 TIME:   0.004 TIME LEFT:  2.00D  GRAD.:     2.446 HEAT:  40.34232
 CYCLE:    35 TIME:   0.008 TIME LEFT:  2.00D  GRAD.:     1.891 HEAT:  40.33800
 CYCLE:    36 TIME:   0.004 TIME LEFT:  2.00D  GRAD.:     1.356 HEAT:  40.33377
 CYCLE:    37 TIME:   0.008 TIME LEFT:  2.00D  GRAD.:     1.226 HEAT:  40.33055
 CYCLE:    38 TIME:   0.008 TIME LEFT:  2.00D  GRAD.:     1.396 HEAT:  40.32558
 CYCLE:    39 TIME:   0.004 TIME LEFT:  2.00D  GRAD.:     1.500 HEAT:  40.32083
 CYCLE:    40 TIME:   0.008 TIME LEFT:  2.00D  GRAD.:     1.313 HEAT:  40.31609
 CYCLE:    41 TIME:   0.004 TIME LEFT:  2.00D  GRAD.:     1.085 HEAT:  40.31314
 CYCLE:    42 TIME:   0.008 TIME LEFT:  2.00D  GRAD.:     1.006 HEAT:  40.31065
 CYCLE:    43 TIME:   0.008 TIME LEFT:  2.00D  GRAD.:     1.007 HEAT:  40.30857
 CYCLE:    44 TIME:   0.004 TIME LEFT:  2.00D  GRAD.:     0.920 HEAT:  40.30651
 CYCLE:    45 TIME:   0.008 TIME LEFT:  2.00D  GRAD.:     0.755 HEAT:  40.30485
 CYCLE:    46 TIME:   0.008 TIME LEFT:  2.00D  GRAD.:     0.607 HEAT:  40.30356
 CYCLE:    47 TIME:   0.004 TIME LEFT:  2.00D  GRAD.:     0.452 HEAT:  40.30289
 CYCLE:    48 TIME:   0.008 TIME LEFT:  2.00D  GRAD.:     0.351 HEAT:  40.30253
 CYCLE:    49 TIME:   0.004 TIME LEFT:  2.00D  GRAD.:     0.314 HEAT:  40.30227
 CYCLE:    50 TIME:   0.008 TIME LEFT:  2.00D  GRAD.:     0.287 HEAT:  40.30204
 CYCLE:    51 TIME:   0.008 TIME LEFT:  2.00D  GRAD.:     0.218 HEAT:  40.30187
 CYCLE:    52 TIME:   0.004 TIME LEFT:  2.00D  GRAD.:     0.139 HEAT:  40.30178
 CYCLE:    53 TIME:   0.008 TIME LEFT:  2.00D  GRAD.:     0.112 HEAT:  40.30174
 CYCLE:    54 TIME:   0.004 TIME LEFT:  2.00D  GRAD.:     0.128 HEAT:  40.30171
 CYCLE:    55 TIME:   0.008 TIME LEFT:  2.00D  GRAD.:     0.122 HEAT:  40.30169
 CYCLE:    56 TIME:   0.004 TIME LEFT:  2.00D  GRAD.:     0.082 HEAT:  40.30167
 CYCLE:    57 TIME:   0.008 TIME LEFT:  2.00D  GRAD.:     0.111 HEAT:  40.30165
 CYCLE:    58 TIME:   0.004 TIME LEFT:  2.00D  GRAD.:     0.059 HEAT:  40.30164
 CYCLE:    59 TIME:   0.008 TIME LEFT:  2.00D  GRAD.:     0.040 HEAT:  40.30163

     GRADIENT =  0.04001 IS LESS THAN CUTOFF =  0.05000



 -------------------------------------------------------------------------------
 pm3  precise nosym THREADS=1
 InChI=1S/C9H10/c1-2-5-9-7-3-6-8(9)4-1/h1,3-6,8H,2,7H2



     GEOMETRY OPTIMISED USING EIGENVECTOR FOLLOWING (EF).     
     SCF FIELD WAS ACHIEVED                                   


                              PM3 CALCULATION
                                                       MOPAC v23.1.2 MacOS
                                                       Tue Jun  3 16:34:08 2025




          FINAL HEAT OF FORMATION =         40.30163 KCAL/MOL =     168.62201 KJ/MOL


          COSMO AREA              =        159.18 SQUARE ANGSTROMS
          COSMO VOLUME            =        157.94 CUBIC ANGSTROMS

          GRADIENT NORM           =          0.04001          =       0.00918 PER ATOM
          IONIZATION POTENTIAL    =          9.182709 EV
          HOMO LUMO ENERGIES (EV) =         -9.183  0.957
          NO. OF FILLED LEVELS    =         23
          MOLECULAR WEIGHT        =        118.1780         POINT GROUP:  C1  

          MOLECULAR DIMENSIONS (Angstroms)

            Atom       Atom       Distance
            H    15    H    14     6.48703
            H    16    H    11     4.86590
            H    10    H    12     3.19784


          SCF CALCULATIONS        =         66

          WALL-CLOCK TIME         =      0.402 SECONDS
          COMPUTATION TIME        =      0.246 SECONDS




   ATOM   CHEMICAL          X               Y               Z
  NUMBER   SYMBOL      (ANGSTROMS)     (ANGSTROMS)     (ANGSTROMS)

     1       C         -0.11335813  *   0.93558386  *   0.24917481  *
     2       C         -1.84551167  *  -0.77977890  *   0.41142806  *
     3       C          2.02470245  *  -0.97844695  *   0.14666629  *
     4       C         -0.36528052  *  -0.54462548  *   0.41636093  *
     5       C          0.62566398  *  -1.43612155  *   0.38789828  *
     6       C         -1.43649185  *   1.44747418  *  -0.25247519  *
     7       C          1.07687574  *   1.18165794  *  -0.61020146  *
     8       C         -2.39058093  *   0.51339394  *  -0.13047223  *
     9       C          2.07689583  *   0.29556442  *  -0.63092323  *
    10       H          0.09150314  *   1.39925572  *   1.24739060  *
    11       H         -2.23345481  *  -0.98569046  *   1.42673091  *
    12       H         -2.12972582  *  -1.64185273  *  -0.21905392  *
    13       H          2.54465127  *  -0.83539799  *   1.11639402  *
    14       H          2.58652971  *  -1.76794890  *  -0.38928774  *
    15       H         -3.44473238  *   0.62063492  *  -0.38215068  *
    16       H          1.09668231  *   2.10752763  *  -1.19264762  *
    17       H         -1.54849321  *   2.46058479  *  -0.63577391  *
    18       H          2.97874545  *   0.47022632  *  -1.22631191  *
    19       H          0.44668303  *  -2.51010513  *   0.49256217  *

                             CARTESIAN COORDINATES

   1    C       -0.113358127     0.935583858     0.249174813
   2    C       -1.845511673    -0.779778904     0.411428058
   3    C        2.024702449    -0.978446946     0.146666292
   4    C       -0.365280516    -0.544625481     0.416360932
   5    C        0.625663979    -1.436121550     0.387898281
   6    C       -1.436491850     1.447474184    -0.252475189
   7    C        1.076875745     1.181657944    -0.610201464
   8    C       -2.390580930     0.513393939    -0.130472226
   9    C        2.076895833     0.295564420    -0.630923232
  10    H        0.091503141     1.399255722     1.247390602
  11    H       -2.233454811    -0.985690464     1.426730906
  12    H       -2.129725817    -1.641852726    -0.219053919
  13    H        2.544651268    -0.835397992     1.116394022
  14    H        2.586529709    -1.767948895    -0.389287735
  15    H       -3.444732384     0.620634917    -0.382150680
  16    H        1.096682306     2.107527634    -1.192647617
  17    H       -1.548493212     2.460584790    -0.635773910
  18    H        2.978745454     0.470226319    -1.226311907
  19    H        0.446683029    -2.510105130     0.492562166


           Empirical Formula: C9 H10  =    19 atoms



      MOLECULAR POINT GROUP   :   C1  


                  EIGENVALUES  
 -41.43408 -35.13206 -30.82619 -27.22746 -26.06510 -21.84024 -20.05916 -19.25991
 -17.31888 -16.45436 -15.97093 -15.73703 -14.72756 -14.38788 -14.21202 -13.63666
 -13.26528 -12.77403 -12.62217 -11.66035 -10.14777  -9.93393  -9.18271   0.95711
   1.04006   1.19380   3.26488   3.30025   3.44398   3.59836   3.60398   3.78292
   3.94971   4.05722   4.17892   4.40651   4.41287   4.52476   4.63501   4.72399
   5.28408   5.39549   5.49267   5.92501   6.08078   6.17160


              NET ATOMIC CHARGES AND DIPOLE CONTRIBUTIONS

  ATOM NO.   TYPE          CHARGE      No. of ELECS.   s-Pop       p-Pop       
    1          C           0.021833        3.9782     1.14440     2.83377
    2          C          -0.013495        4.0135     1.13757     2.87593
    3          C          -0.018198        4.0182     1.13308     2.88511
    4          C          -0.131197        4.1312     1.20735     2.92384
    5          C          -0.143720        4.1437     1.18843     2.95529
    6          C          -0.143987        4.1440     1.20292     2.94106
    7          C          -0.133839        4.1338     1.19264     2.94120
    8          C          -0.153292        4.1533     1.20424     2.94906
    9          C          -0.150274        4.1503     1.19587     2.95441
   10          H           0.083346        0.9167     0.91665
   11          H           0.064146        0.9359     0.93585
   12          H           0.062518        0.9375     0.93748
   13          H           0.063173        0.9368     0.93683
   14          H           0.055592        0.9444     0.94441
   15          H           0.111713        0.8883     0.88829
   16          H           0.105498        0.8945     0.89450
   17          H           0.114159        0.8858     0.88584
   18          H           0.100189        0.8998     0.89981
   19          H           0.105833        0.8942     0.89417
 DIPOLE           X         Y         Z       TOTAL
 POINT-CHG.    -0.018    -0.045     0.185     0.191
 HYBRID        -0.001     0.005    -0.026     0.027
 SUM           -0.019    -0.040     0.159     0.165


          ATOMIC ORBITAL ELECTRON POPULATIONS

     Atom    s        px        py        pz   
    1  C   1.14440   0.92486   0.92966   0.97926
    2  C   1.13757   0.91652   0.95976   0.99965
    3  C   1.13308   0.94540   0.95247   0.98724
    4  C   1.20735   0.95556   0.95870   1.00959
    5  C   1.18843   0.95132   0.97825   1.02573
    6  C   1.20292   0.95207   0.98357   1.00543
    7  C   1.19264   0.95577   0.98824   0.99719
    8  C   1.20424   0.98224   0.96056   1.00626
    9  C   1.19587   0.98557   0.96460   1.00423
   10  H   0.91665
   11  H   0.93585
   12  H   0.93748
   13  H   0.93683
   14  H   0.94441
   15  H   0.88829
   16  H   0.89450
   17  H   0.88584
   18  H   0.89981
   19  H   0.89417
 *******************************************************************************
 **                                                                           **
 **                              MOPAC v23.1.2                                **
 **                                                                           **
 *******************************************************************************
 **          Digital Object Identifier (DOI): 10.5281/zenodo.6511958          **
 **    Visit the DOI location for information on how to cite this program.    **
 *******************************************************************************

                              PM3 CALCULATION RESULTS

 *******************************************************************************
 *  CALCULATION DONE: (MAX THREADS = 1)              Tue Jun  3 16:34:08 2025  *
 *  PM3        - The PM3 Hamiltonian to be used
 *  OLDGEO     - PREVIOUS GEOMETRY TO BE USED
 *  PRECISE    - TIGHTER CRITERIA TO BE USED
 *  NOSYM      - POINT-GROUP SYMMETRY SET TO C1
 *  THREADS=1  - MULTI-THREADING NOT USED
 *  T=         - A TIME OF 172800.0 SECONDS REQUESTED
 *  DUMP=N     - RESTART FILE WRITTEN EVERY 7200.0 SECONDS REQUESTED
 *  THERMO     - THERMODYNAMIC QUANTITIES TO BE CALCULATED
 *******************************************************************************
oldgeo thermo nosym precise THREADS=1  pm3
 InChI=1S/C9H10/c1-2-5-9-7-3-6-8(9)4-1/h1,3-6,8H,2,7H2

   ATOM   CHEMICAL          X               Y               Z
  NUMBER   SYMBOL      (ANGSTROMS)     (ANGSTROMS)     (ANGSTROMS)

     1       C         -0.11335813  *   0.93558386  *   0.24917481  *
     2       C         -1.84551167  *  -0.77977890  *   0.41142806  *
     3       C          2.02470245  *  -0.97844695  *   0.14666629  *
     4       C         -0.36528052  *  -0.54462548  *   0.41636093  *
     5       C          0.62566398  *  -1.43612155  *   0.38789828  *
     6       C         -1.43649185  *   1.44747418  *  -0.25247519  *
     7       C          1.07687574  *   1.18165794  *  -0.61020146  *
     8       C         -2.39058093  *   0.51339394  *  -0.13047223  *
     9       C          2.07689583  *   0.29556442  *  -0.63092323  *
    10       H          0.09150314  *   1.39925572  *   1.24739060  *
    11       H         -2.23345481  *  -0.98569046  *   1.42673091  *
    12       H         -2.12972582  *  -1.64185273  *  -0.21905392  *
    13       H          2.54465127  *  -0.83539799  *   1.11639402  *
    14       H          2.58652971  *  -1.76794890  *  -0.38928774  *
    15       H         -3.44473238  *   0.62063492  *  -0.38215068  *
    16       H          1.09668231  *   2.10752763  *  -1.19264762  *
    17       H         -1.54849321  *   2.46058479  *  -0.63577391  *
    18       H          2.97874545  *   0.47022632  *  -1.22631191  *
    19       H          0.44668303  *  -2.51010513  *   0.49256217  *



          CARTESIAN COORDINATES 

    NO.       ATOM           X           Y           Z

     1         C         -0.1134      0.9356      0.2492
     2         C         -1.8455     -0.7798      0.4114
     3         C          2.0247     -0.9784      0.1467
     4         C         -0.3653     -0.5446      0.4164
     5         C          0.6257     -1.4361      0.3879
     6         C         -1.4365      1.4475     -0.2525
     7         C          1.0769      1.1817     -0.6102
     8         C         -2.3906      0.5134     -0.1305
     9         C          2.0769      0.2956     -0.6309
    10         H          0.0915      1.3993      1.2474
    11         H         -2.2335     -0.9857      1.4267
    12         H         -2.1297     -1.6419     -0.2191
    13         H          2.5447     -0.8354      1.1164
    14         H          2.5865     -1.7679     -0.3893
    15         H         -3.4447      0.6206     -0.3822
    16         H          1.0967      2.1075     -1.1926
    17         H         -1.5485      2.4606     -0.6358
    18         H          2.9787      0.4702     -1.2263
    19         H          0.4467     -2.5101      0.4926

  H: (PM3): J. J. P. STEWART, J. COMP. CHEM. 10, 209 (1989).
  C: (PM3): J. J. P. STEWART, J. COMP. CHEM. 10, 209 (1989).

           Empirical Formula: C9 H10  =    19 atoms



      MOLECULAR POINT GROUP   :   C1  


      RHF CALCULATION, NO. OF DOUBLY OCCUPIED LEVELS = 23



          HEAT OF FORMATION =      40.301627 KCALS/MOLE


          CARTESIAN COORDINATE DERIVATIVES

   NUMBER  ATOM         X            Y            Z

     1       C     -0.009081     0.001152     0.005669
     2       C      0.008216     0.001614    -0.001819
     3       C     -0.001221    -0.002046    -0.001982
     4       C      0.000996    -0.001394     0.003301
     5       C      0.002497    -0.004065    -0.005526
     6       C      0.001595     0.007370     0.006770
     7       C      0.001242    -0.005317     0.000263
     8       C     -0.002974     0.011178    -0.002530
     9       C     -0.005726     0.002776     0.000333
    10       H      0.002501     0.000628     0.001366
    11       H     -0.008898     0.003952    -0.002010
    12       H      0.005091    -0.003568     0.006744
    13       H      0.004007    -0.006221    -0.003236
    14       H      0.003281    -0.013963     0.002426
    15       H     -0.004543     0.010312    -0.005186
    16       H      0.011242    -0.008641    -0.004323
    17       H     -0.010371     0.001005    -0.000224
    18       H      0.005350     0.005939     0.003559
    19       H     -0.003203    -0.000711    -0.003595



          GRADIENT NORM =   0.04038

          MOLECULAR WEIGHT =  118.18



          ROTATIONAL CONSTANTS IN CM(-1)

          A =    0.11406544   B =    0.05204374   C =    0.03765511



           PRINCIPAL MOMENTS OF INERTIA IN UNITS OF 10**(-40)*GRAM-CM**2

          A =      245.4096   B =      537.8697   C =      743.3985


          ORIENTATION OF MOLECULE IN FORCE CALCULATION

    NO.       ATOM         X         Y         Z

     1          C      -0.5415   -0.6890    0.2633
     2          C       1.9017   -0.6890    0.2633
     3          C      -0.7203    2.1769    0.2633
     4          C       0.6875    0.1823    0.3767
     5          C       0.6090    1.5131    0.3956
     6          C       0.0039   -1.9661   -0.3165
     7          C      -1.6152   -0.0017   -0.5051
     8          C       1.3442   -1.9747   -0.2837
     9          C      -1.7034    1.3314   -0.4777
    10          H      -0.9460   -0.9068    1.2843
    11          H       2.3888   -0.8469    1.2439
    12          H       2.6666   -0.2551   -0.4061
    13          H      -1.1249    2.4093    1.2700
    14          H      -0.5999    3.1500   -0.2513
    15          H       1.9996   -2.7829   -0.6053
    16          H      -2.3179   -0.6283   -1.0622
    17          H      -0.6535   -2.7535   -0.6821
    18          H      -2.5049    1.8589   -1.0046
    19          H       1.4969    2.1485    0.4616


    FIRST DERIVATIVES WILL BE USED IN THE CALCULATION OF SECOND DERIVATIVES

          ESTIMATED TIME TO COMPLETE CALCULATION =        1.78 SECONDS

    FOR POINT-GROUP C1   THERE ARE   1 UNIQUE SYMMETRY FUNCTIONS.

 STEP:   1 TIME =     0.02 SECS, INTEGRAL =      0.02 TIME LEFT: 172799.97
 STEP:   2 TIME =     0.02 SECS, INTEGRAL =      0.04 TIME LEFT: 172799.96
 STEP:   3 TIME =     0.02 SECS, INTEGRAL =      0.05 TIME LEFT: 172799.94
 STEP:   4 TIME =     0.02 SECS, INTEGRAL =      0.07 TIME LEFT: 172799.92
 STEP:   5 TIME =     0.02 SECS, INTEGRAL =      0.09 TIME LEFT: 172799.90
 STEP:   6 TIME =     0.02 SECS, INTEGRAL =      0.11 TIME LEFT: 172799.89
 STEP:   7 TIME =     0.02 SECS, INTEGRAL =      0.12 TIME LEFT: 172799.87
 STEP:   8 TIME =     0.02 SECS, INTEGRAL =      0.14 TIME LEFT: 172799.86
 STEP:   9 TIME =     0.02 SECS, INTEGRAL =      0.16 TIME LEFT: 172799.84
 STEP:  10 TIME =     0.02 SECS, INTEGRAL =      0.17 TIME LEFT: 172799.82
 STEP:  11 TIME =     0.02 SECS, INTEGRAL =      0.19 TIME LEFT: 172799.80
 STEP:  12 TIME =     0.02 SECS, INTEGRAL =      0.21 TIME LEFT: 172799.79
 STEP:  13 TIME =     0.02 SECS, INTEGRAL =      0.22 TIME LEFT: 172799.77
 STEP:  14 TIME =     0.02 SECS, INTEGRAL =      0.24 TIME LEFT: 172799.75
 STEP:  15 TIME =     0.02 SECS, INTEGRAL =      0.26 TIME LEFT: 172799.73
 STEP:  16 TIME =     0.02 SECS, INTEGRAL =      0.28 TIME LEFT: 172799.71
 STEP:  17 TIME =     0.02 SECS, INTEGRAL =      0.30 TIME LEFT: 172799.70
 STEP:  18 TIME =     0.02 SECS, INTEGRAL =      0.32 TIME LEFT: 172799.68
 STEP:  19 TIME =     0.02 SECS, INTEGRAL =      0.33 TIME LEFT: 172799.66
 STEP:  20 TIME =     0.02 SECS, INTEGRAL =      0.35 TIME LEFT: 172799.64
 STEP:  21 TIME =     0.02 SECS, INTEGRAL =      0.37 TIME LEFT: 172799.62
 STEP:  22 TIME =     0.02 SECS, INTEGRAL =      0.39 TIME LEFT: 172799.61
 STEP:  23 TIME =     0.02 SECS, INTEGRAL =      0.40 TIME LEFT: 172799.59
 STEP:  24 TIME =     0.02 SECS, INTEGRAL =      0.42 TIME LEFT: 172799.57
 STEP:  25 TIME =     0.02 SECS, INTEGRAL =      0.43 TIME LEFT: 172799.56
 STEP:  26 TIME =     0.02 SECS, INTEGRAL =      0.45 TIME LEFT: 172799.54
 STEP:  27 TIME =     0.02 SECS, INTEGRAL =      0.47 TIME LEFT: 172799.52
 STEP:  28 TIME =     0.02 SECS, INTEGRAL =      0.49 TIME LEFT: 172799.50
 STEP:  29 TIME =     0.02 SECS, INTEGRAL =      0.51 TIME LEFT: 172799.48
 STEP:  30 TIME =     0.02 SECS, INTEGRAL =      0.53 TIME LEFT: 172799.46
 STEP:  31 TIME =     0.02 SECS, INTEGRAL =      0.55 TIME LEFT: 172799.45
 STEP:  32 TIME =     0.02 SECS, INTEGRAL =      0.57 TIME LEFT: 172799.43
 STEP:  33 TIME =     0.02 SECS, INTEGRAL =      0.58 TIME LEFT: 172799.41
 STEP:  34 TIME =     0.02 SECS, INTEGRAL =      0.60 TIME LEFT: 172799.39
 STEP:  35 TIME =     0.02 SECS, INTEGRAL =      0.61 TIME LEFT: 172799.38
 STEP:  36 TIME =     0.02 SECS, INTEGRAL =      0.63 TIME LEFT: 172799.36
 STEP:  37 TIME =     0.02 SECS, INTEGRAL =      0.64 TIME LEFT: 172799.35
 STEP:  38 TIME =     0.02 SECS, INTEGRAL =      0.66 TIME LEFT: 172799.33
 STEP:  39 TIME =     0.02 SECS, INTEGRAL =      0.68 TIME LEFT: 172799.31
 STEP:  40 TIME =     0.02 SECS, INTEGRAL =      0.70 TIME LEFT: 172799.29
 STEP:  41 TIME =     0.02 SECS, INTEGRAL =      0.71 TIME LEFT: 172799.28
 STEP:  42 TIME =     0.02 SECS, INTEGRAL =      0.73 TIME LEFT: 172799.26
 STEP:  43 TIME =     0.02 SECS, INTEGRAL =      0.75 TIME LEFT: 172799.24
 STEP:  44 TIME =     0.02 SECS, INTEGRAL =      0.77 TIME LEFT: 172799.22
 STEP:  45 TIME =     0.02 SECS, INTEGRAL =      0.79 TIME LEFT: 172799.21
 STEP:  46 TIME =     0.02 SECS, INTEGRAL =      0.80 TIME LEFT: 172799.19
 STEP:  47 TIME =     0.02 SECS, INTEGRAL =      0.82 TIME LEFT: 172799.18
 STEP:  48 TIME =     0.02 SECS, INTEGRAL =      0.83 TIME LEFT: 172799.16
 STEP:  49 TIME =     0.02 SECS, INTEGRAL =      0.85 TIME LEFT: 172799.14
 STEP:  50 TIME =     0.02 SECS, INTEGRAL =      0.86 TIME LEFT: 172799.13
 STEP:  51 TIME =     0.02 SECS, INTEGRAL =      0.88 TIME LEFT: 172799.11
 STEP:  52 TIME =     0.02 SECS, INTEGRAL =      0.90 TIME LEFT: 172799.09
 STEP:  53 TIME =     0.02 SECS, INTEGRAL =      0.92 TIME LEFT: 172799.07
 STEP:  54 TIME =     0.02 SECS, INTEGRAL =      0.94 TIME LEFT: 172799.05
 STEP:  55 TIME =     0.02 SECS, INTEGRAL =      0.96 TIME LEFT: 172799.04
 STEP:  56 TIME =     0.02 SECS, INTEGRAL =      0.97 TIME LEFT: 172799.02
 STEP:  57 TIME =     0.02 SECS, INTEGRAL =      0.99 TIME LEFT: 172799.00

(To convert to Hartree/Bohr^2, multiply by (10^(-21) x N x a0^2)/(4.184 x 627.51) =  0.0642)


           FORCE MATRIX IN MILLIDYNES/ANGSTROM


                  C  1       C  2       C  3       C  4       C  5       C  6
 ------------------------------------------------------------------------------
     C    1  15.514770
     C    2   0.755633  14.903197
     C    3   0.201268   0.127350  14.900425
     C    4   4.138372   4.553420   0.931805  19.197663
     C    5   0.788259   0.648724   4.795969  10.573673  18.195381
     C    6   4.392245   1.158459   0.010382   1.015344   0.051182  18.222658
     C    7   4.862317   0.048451   0.857000   0.737313   0.083925   0.592064
     C    8   1.191259   4.442398   0.010798   1.064890   0.050254  10.423486
     C    9   0.923072   0.006235   4.737995   0.102660   0.749043   0.049919
     H   10   4.107891   0.021235   0.019470   0.414764   0.024774   0.402932
     H   11   0.023543   4.477713   0.016228   0.428096   0.022797   0.035297
     H   12   0.040232   4.522572   0.009583   0.441598   0.016489   0.040321
     H   13   0.020934   0.017897   4.366482   0.026947   0.420147   0.002956
     H   14   0.012862   0.013065   4.473141   0.047772   0.426321   0.001412
     H   15   0.116561   0.409286   0.001995   0.044647   0.006427   0.448505
     H   16   0.438042   0.005550   0.120966   0.039201   0.006232   0.016567
     H   17   0.414227   0.118472   0.001150   0.042010   0.006706   5.038659
     H   18   0.118445   0.002186   0.428998   0.006080   0.040784   0.012669
     H   19   0.113646   0.069007   0.429907   0.462577   4.883207   0.010624


                  C  7       C  8       C  9       H 10       H 11       H 12
 ------------------------------------------------------------------------------
     C    7  18.152263
     C    8   0.045335  18.203768
     C    9  10.545545   0.010914  18.028478
     H   10   0.399726   0.035231   0.030965   4.563436
     H   11   0.003407   0.430339   0.001229   0.001870   5.080537
     H   12   0.004432   0.432890   0.001300   0.001700   0.555055   5.121143
     H   13   0.028000   0.001806   0.420106   0.007892   0.002599   0.001559
     H   14   0.047167   0.001782   0.428888   0.002237   0.001550   0.000964
     H   15   0.015864   5.035715   0.002795   0.015566   0.009965   0.015154
     H   16   4.876665   0.002905   0.447915   0.012791   0.000499   0.000864
     H   17   0.011448   0.448552   0.002641   0.010178   0.016567   0.014961
     H   18   0.445694   0.002152   4.857842   0.015805   0.000186   0.000253
     H   19   0.009040   0.003833   0.040633   0.014675   0.009759   0.008643


                  H 13       H 14       H 15       H 16       H 17       H 18
 ------------------------------------------------------------------------------
     H   13   4.960820
     H   14   0.564661   5.047390
     H   15   0.000266   0.000451   5.429578
     H   16   0.017144   0.012095   0.000810   5.255860
     H   17   0.000406   0.000256   0.049029   0.007645   5.434477
     H   18   0.013309   0.036726   0.000829   0.067289   0.000567   5.231573
     H   19   0.012628   0.035728   0.000863   0.002130   0.001660   0.005391


                  H 19
 ------------------
     H   19   5.260686


          HEAT OF FORMATION =      40.301627 KCALS/MOLE

          ZERO POINT ENERGY     101.316 KCAL/MOL


           NORMAL COORDINATE ANALYSIS (Total motion = 1 Angstrom)


   Root No.       1         2         3         4         5         6         7         8

                 1 A       2 A       3 A       4 A       5 A       6 A       7 A       8 A   

                 110.7     203.1     256.5     378.4     385.1     444.9     513.2     537.8
  
           1    0.0000    0.0075   -0.0007    0.0303    0.0042    0.0053    0.0242    0.0050
           2    0.0091    0.0068   -0.0071    0.0328    0.0049    0.0090   -0.0292    0.0109
           3   -0.0033   -0.0441   -0.0268   -0.0039    0.0020    0.0202    0.0198   -0.0032
           4    0.0033    0.0035    0.0021    0.0131    0.0059    0.0085   -0.0215    0.0451
           5    0.0080   -0.0105    0.0104   -0.0302    0.0011   -0.0061   -0.0165   -0.0323
           6   -0.0415    0.0263   -0.0276    0.0047   -0.0093   -0.0060   -0.0054    0.0007
           7   -0.0165   -0.0045    0.0104   -0.0210   -0.0045   -0.0074   -0.0312   -0.0299
           8   -0.0118   -0.0018    0.0168   -0.0102   -0.0112   -0.0059    0.0601    0.0050
           9    0.0420    0.0227   -0.0205   -0.0105    0.0030   -0.0075    0.0093   -0.0115
          10    0.0046    0.0080   -0.0070    0.0408    0.0067    0.0103   -0.0089    0.0244
          11    0.0052    0.0048   -0.0047    0.0211    0.0037   -0.0037    0.0121   -0.0337
          12   -0.0159   -0.0425   -0.0045   -0.0227   -0.0041    0.0529   -0.0151    0.0320
          13   -0.0038    0.0059   -0.0088   -0.0022    0.0020   -0.0007   -0.0431   -0.0395
          14    0.0047    0.0044   -0.0057    0.0192    0.0032   -0.0023    0.0180   -0.0359
          15    0.0089   -0.0423    0.0464    0.0338    0.0099   -0.0163   -0.0094   -0.0079
          16   -0.0086    0.0119    0.0089   -0.0184   -0.0005   -0.0114    0.0034    0.0260
          17   -0.0128   -0.0025   -0.0141    0.0162    0.0212    0.0289   -0.0307   -0.0007
          18    0.0398   -0.0191   -0.0018    0.0047   -0.0381   -0.0268   -0.0207    0.0217
          19    0.0196   -0.0113   -0.0071    0.0083   -0.0276    0.0302    0.0518   -0.0104
          20    0.0055    0.0131    0.0058   -0.0121   -0.0049   -0.0031    0.0108    0.0535
          21   -0.0358   -0.0107   -0.0045   -0.0032    0.0409   -0.0210    0.0294    0.0159
          22   -0.0083    0.0107    0.0085   -0.0198   -0.0024   -0.0144    0.0011    0.0294
          23   -0.0127   -0.0232   -0.0142   -0.0145   -0.0126   -0.0076   -0.0351   -0.0175
          24    0.0197    0.0482    0.0250   -0.0116    0.0312    0.0178   -0.0022   -0.0158
          25    0.0115   -0.0295   -0.0091   -0.0214    0.0170   -0.0200    0.0225   -0.0460
          26    0.0050    0.0114    0.0057   -0.0166   -0.0012   -0.0097    0.0113    0.0543
          27   -0.0163    0.0412    0.0186   -0.0024   -0.0370    0.0163    0.0044   -0.0323
          28   -0.0145    0.0159   -0.0044    0.0565    0.0423   -0.0291    0.0521   -0.0226
          29    0.0436    0.0065   -0.0134    0.0671   -0.0263   -0.0153   -0.0584    0.0051
          30   -0.0017   -0.0394   -0.0284    0.0147    0.0108    0.0003    0.0237   -0.0149
          31    0.0487   -0.0386    0.0568   -0.0354    0.0477    0.1006   -0.0503    0.0733
          32    0.0421    0.0203    0.0515   -0.0620    0.0428    0.0126   -0.0117   -0.0653
          33   -0.0588    0.0524   -0.0489    0.0244   -0.0245   -0.0509    0.0100   -0.0188
          34   -0.0299    0.0355   -0.0418    0.0612   -0.0242   -0.0567   -0.0002    0.0289
          35   -0.0069   -0.0437    0.0069   -0.0648   -0.0201   -0.0078   -0.0370   -0.0108
          36   -0.0895    0.0418   -0.0814    0.0392   -0.0591   -0.0843    0.0073   -0.0042
          37   -0.0291    0.0391   -0.0005   -0.0399   -0.0365    0.0158   -0.0406   -0.0405
          38   -0.0862   -0.0344    0.1165    0.0204   -0.0725    0.0225    0.0880   -0.0237
          39    0.0542    0.0481   -0.0487   -0.0253    0.0053   -0.0053   -0.0017   -0.0083
          40   -0.0366   -0.0362    0.0577   -0.0163   -0.0112   -0.0154   -0.0272    0.0098
          41    0.0235    0.0140   -0.0299   -0.0263    0.0178   -0.0201    0.0504    0.0234
          42    0.1052    0.0457   -0.1004   -0.0408    0.0583   -0.0371   -0.0104    0.0333
          43   -0.0145    0.0143    0.0139   -0.0431   -0.0077   -0.0294    0.0151    0.0092
          44   -0.0268   -0.0433   -0.0287   -0.0273   -0.0377   -0.0268   -0.0299   -0.0256
          45    0.0424    0.1061    0.0721   -0.0263    0.0833    0.0359    0.0126   -0.0388
          46    0.0477   -0.0177   -0.0236    0.0237   -0.0655    0.0803    0.0803   -0.0336
          47    0.0080    0.0220    0.0155   -0.0392   -0.0168   -0.0156    0.0184    0.0405
          48   -0.0735   -0.0123    0.0054    0.0078    0.1018   -0.0708   -0.0163    0.0592
          49   -0.0144    0.0171    0.0163   -0.0494   -0.0023   -0.0243   -0.0067    0.0250
          50   -0.0275    0.0021   -0.0259    0.0379    0.0494    0.0697   -0.0105   -0.0197
          51    0.0820   -0.0380    0.0104    0.0134   -0.0956   -0.0922   -0.0460    0.0641
          52    0.0316   -0.0576   -0.0330   -0.0389    0.0530   -0.0432    0.0380   -0.0494
          53    0.0131    0.0199    0.0058   -0.0290    0.0012   -0.0213   -0.0351    0.0512
          54   -0.0382    0.0927    0.0540    0.0123   -0.0888    0.0403   -0.0661   -0.0302
          55   -0.0098    0.0036   -0.0076   -0.0334   -0.0045   -0.0018   -0.0401   -0.0483
          56    0.0130    0.0086   -0.0135    0.0543    0.0104    0.0071    0.0173   -0.0198
          57    0.0052   -0.0550    0.1136    0.1129    0.0253   -0.0889   -0.0339   -0.0353


   Root No.       9        10        11        12        13        14        15        16

                 9 A      10 A      11 A      12 A      13 A      14 A      15 A      16 A   

                 658.3     740.2     760.6     776.5     796.8     842.0     889.5     930.2
  
           1    0.0209   -0.0044    0.0142    0.0019   -0.0088   -0.0176   -0.0239   -0.0051
           2    0.0018    0.0090   -0.0145   -0.0034    0.0086   -0.0016   -0.0262   -0.0017
           3   -0.0344   -0.0102   -0.0032   -0.0291    0.0221    0.0057    0.0147    0.0047
           4   -0.0251    0.0067    0.0191    0.0380   -0.0077    0.0183    0.0327    0.0034
           5   -0.0068   -0.0051    0.0300    0.0002   -0.0019   -0.0159    0.0020   -0.0099
           6    0.0021   -0.0106   -0.0004    0.0167   -0.0229    0.0070   -0.0271    0.0172
           7    0.0008   -0.0053    0.0017   -0.0114    0.0010    0.0026    0.0004    0.0038
           8    0.0078    0.0019   -0.0115    0.0254    0.0053    0.0392    0.0121    0.0106
           9   -0.0105    0.0182   -0.0109    0.0218    0.0048   -0.0169   -0.0150   -0.0101
          10    0.0009    0.0047    0.0099    0.0175   -0.0144   -0.0056    0.0140   -0.0028
          11    0.0246    0.0031   -0.0160   -0.0073   -0.0071   -0.0061    0.0111   -0.0000
          12    0.0524    0.0146   -0.0048   -0.0006   -0.0102    0.0020    0.0075   -0.0167
          13    0.0169   -0.0004   -0.0125   -0.0271   -0.0128   -0.0142    0.0171    0.0024
          14    0.0348    0.0037   -0.0243   -0.0083   -0.0105   -0.0002    0.0226    0.0006
          15    0.0016    0.0030   -0.0046   -0.0041    0.0117   -0.0274    0.0179    0.0227
          16    0.0004    0.0055   -0.0344   -0.0215    0.0147    0.0063   -0.0063    0.0022
          17   -0.0263    0.0162   -0.0088   -0.0075    0.0326    0.0266   -0.0240    0.0151
          18   -0.0046   -0.0091   -0.0269    0.0079    0.0062    0.0004    0.0065   -0.0187
          19    0.0016   -0.0259    0.0379   -0.0066    0.0146   -0.0128   -0.0188   -0.0132
          20   -0.0044   -0.0101    0.0110   -0.0168   -0.0051   -0.0180   -0.0001   -0.0043
          21   -0.0033    0.0012    0.0149   -0.0163   -0.0191   -0.0071   -0.0012    0.0103
          22   -0.0029    0.0050   -0.0334   -0.0211    0.0148    0.0059   -0.0065    0.0011
          23   -0.0149   -0.0009    0.0455    0.0214   -0.0125    0.0002    0.0091   -0.0015
          24   -0.0147   -0.0122    0.0009    0.0139   -0.0063   -0.0106    0.0100    0.0040
          25    0.0065    0.0048   -0.0020    0.0390    0.0212    0.0213   -0.0056    0.0059
          26   -0.0043   -0.0090    0.0061   -0.0148   -0.0054   -0.0144    0.0033   -0.0013
          27   -0.0073    0.0096   -0.0063    0.0060   -0.0110    0.0181   -0.0027   -0.0078
          28   -0.0099   -0.0031    0.0350   -0.0222   -0.0473   -0.0343   -0.0638    0.0428
          29   -0.0272   -0.0215   -0.0427    0.0263    0.0221   -0.0067   -0.0688   -0.0363
          30   -0.0513   -0.0162   -0.0002   -0.0319    0.0097   -0.0017   -0.0120    0.0163
          31    0.0122   -0.0295   -0.0206    0.0843   -0.0903    0.0652   -0.0426    0.0406
          32   -0.0489   -0.0582   -0.0087    0.0115   -0.0137   -0.0514   -0.0631    0.0659
          33   -0.0238    0.0005    0.0154   -0.0050    0.0181   -0.0229    0.0035    0.0094
          34   -0.0516    0.0380    0.0565    0.0231    0.0427   -0.0080    0.1239   -0.0219
          35    0.0155    0.0079    0.0394   -0.0280    0.0055    0.0030   -0.0509   -0.0541
          36   -0.0138    0.0359    0.0495   -0.0217    0.0435   -0.0118    0.0447   -0.0426
          37   -0.0178    0.0015   -0.0012   -0.0365   -0.0485    0.0463   -0.0354   -0.0710
          38   -0.0707    0.0878   -0.0464    0.0858    0.0040   -0.0598   -0.0420   -0.0368
          39    0.0023   -0.0010   -0.0032   -0.0028   -0.0146    0.0268   -0.0158   -0.0284
          40   -0.0499    0.0120    0.0161    0.0054    0.0238   -0.0738   -0.0369    0.0113
          41    0.0433   -0.0367    0.0032    0.0029    0.0061    0.0912    0.0381    0.0334
          42    0.0477   -0.0548    0.0229   -0.0215    0.0115    0.0655    0.0262    0.0363
          43    0.0155   -0.0103   -0.0302   -0.0398   -0.0069   -0.0324   -0.0178   -0.0107
          44   -0.0169   -0.0676   -0.0192    0.0501   -0.0611   -0.0537   -0.0070    0.0164
          45    0.0271    0.1240    0.1730   -0.0956    0.0724    0.0468    0.0248   -0.0652
          46   -0.0784    0.0124    0.0280   -0.1088   -0.0670   -0.0050    0.0067    0.0622
          47   -0.0128   -0.0002   -0.0031    0.0018   -0.0190    0.0064    0.0363    0.0042
          48    0.1068   -0.0583    0.0432    0.0911    0.0995   -0.0450   -0.0753   -0.0946
          49   -0.0126   -0.0011   -0.0262   -0.0099   -0.0039    0.0053    0.0510    0.0021
          50   -0.0586   -0.0366   -0.0805    0.0019    0.0552    0.0005   -0.0152   -0.0518
          51    0.0878    0.1163    0.1124   -0.0346   -0.0081    0.0581   -0.1177    0.1256
          52   -0.0564    0.0885   -0.0511    0.0234   -0.0802    0.0085   -0.0292   -0.0544
          53   -0.0143    0.0090   -0.0203   -0.0170   -0.0126   -0.0330    0.0066   -0.0085
          54    0.0785   -0.1002    0.0435    0.0275    0.1369    0.0195    0.0345    0.0768
          55    0.0116    0.0030   -0.0122   -0.0230    0.0090   -0.0223    0.0056    0.0264
          56    0.0467    0.0103   -0.0294   -0.0039   -0.0327   -0.0140    0.0468   -0.0200
          57   -0.0394   -0.1005    0.0357   -0.0968   -0.0740    0.2065   -0.0404   -0.1008


   Root No.      17        18        19        20        21        22        23        24

                17 A      18 A      19 A      20 A      21 A      22 A      23 A      24 A   

                 944.7     968.3     992.7    1020.5    1029.6    1038.3    1048.0    1055.8
  
           1   -0.0219   -0.0016    0.0111    0.0021   -0.0033    0.0035    0.0062   -0.0031
           2   -0.0162    0.0002    0.0037    0.0017    0.0048   -0.0126    0.0086    0.0042
           3    0.0286    0.0104   -0.0153    0.0141    0.0118    0.0079   -0.0096   -0.0137
           4    0.0024   -0.0038   -0.0023    0.0023   -0.0083    0.0140   -0.0011   -0.0060
           5   -0.0135   -0.0080    0.0134    0.0031   -0.0031    0.0097    0.0014   -0.0076
           6    0.0118    0.0206   -0.0165   -0.0177   -0.0111    0.0158    0.0013    0.0033
           7   -0.0129   -0.0030   -0.0017    0.0021    0.0040    0.0038   -0.0004   -0.0007
           8   -0.0249   -0.0023   -0.0240    0.0209   -0.0119   -0.0016    0.0078   -0.0098
           9    0.0228    0.0093    0.0011    0.0223   -0.0216   -0.0079    0.0159   -0.0040
          10    0.0045    0.0039    0.0026    0.0005    0.0081    0.0009    0.0073   -0.0033
          11    0.0122    0.0020    0.0011   -0.0000   -0.0015    0.0029   -0.0016    0.0001
          12   -0.0117   -0.0077    0.0195    0.0177    0.0150    0.0021    0.0176   -0.0175
          13    0.0148   -0.0013   -0.0196   -0.0001   -0.0223   -0.0086    0.0005   -0.0130
          14    0.0193    0.0026   -0.0034   -0.0010   -0.0055    0.0040   -0.0032   -0.0021
          15   -0.0197   -0.0044   -0.0234   -0.0064    0.0047    0.0132   -0.0149    0.0249
          16    0.0046   -0.0010   -0.0008   -0.0012    0.0019   -0.0029   -0.0012    0.0025
          17    0.0058   -0.0225    0.0067   -0.0049   -0.0042   -0.0069   -0.0123    0.0074
          18   -0.0160    0.0060    0.0073   -0.0188   -0.0211    0.0124    0.0049    0.0075
          19    0.0111   -0.0184   -0.0153   -0.0182    0.0004   -0.0063   -0.0131    0.0050
          20    0.0116   -0.0011    0.0036   -0.0115    0.0033    0.0001   -0.0063    0.0057
          21   -0.0097   -0.0016    0.0187   -0.0210   -0.0074   -0.0199    0.0212    0.0278
          22    0.0020    0.0017   -0.0008   -0.0023    0.0018    0.0011    0.0005    0.0004
          23    0.0032    0.0122   -0.0150   -0.0035    0.0024   -0.0116    0.0045    0.0083
          24   -0.0015   -0.0238    0.0150    0.0223    0.0046   -0.0293   -0.0226    0.0034
          25    0.0062    0.0128    0.0352   -0.0135    0.0144   -0.0036    0.0037    0.0177
          26    0.0081    0.0042    0.0025    0.0014   -0.0003    0.0037   -0.0019    0.0012
          27   -0.0135   -0.0133   -0.0053   -0.0323    0.0212   -0.0024   -0.0191   -0.0210
          28   -0.0702    0.0991    0.0521    0.1363    0.0142    0.0960   -0.1211   -0.0794
          29   -0.0901    0.1036   -0.0713   -0.0000    0.1525   -0.0924    0.0553    0.0088
          30   -0.0079    0.0720   -0.0143    0.0669    0.0499    0.0278   -0.0508   -0.0428
          31    0.0426    0.0834   -0.0532   -0.0367   -0.0531    0.0029   -0.0462    0.0272
          32    0.0146   -0.0661   -0.0154   -0.0396    0.0469    0.1618    0.1529   -0.0722
          33   -0.0048   -0.0335    0.0054   -0.0037    0.0197    0.0454    0.0479   -0.0243
          34   -0.0119   -0.0645    0.0223    0.0433    0.0336    0.0082    0.0342   -0.0277
          35   -0.0695    0.0445    0.0549   -0.0174   -0.1020   -0.0063   -0.1209    0.0127
          36   -0.0427   -0.0175    0.0413    0.0173   -0.0264   -0.0023   -0.0379   -0.0084
          37   -0.0128   -0.0446   -0.0355    0.1398    0.0373    0.1147    0.0084    0.2179
          38    0.0738    0.0277   -0.0010    0.0736   -0.0556   -0.0111    0.0433    0.0016
          39   -0.0023   -0.0147   -0.0182    0.0655    0.0028    0.0391    0.0112    0.0809
          40   -0.0046    0.0245    0.0198    0.0209   -0.0383   -0.0452    0.0481   -0.1226
          41   -0.0764   -0.0151   -0.0430    0.0153   -0.0004    0.0038    0.0006   -0.0237
          42   -0.0764   -0.0108   -0.0314    0.0132   -0.0091   -0.0098    0.0122   -0.0575
          43   -0.0010    0.0388   -0.0157    0.0276    0.0620   -0.0616    0.0277   -0.0035
          44    0.0019   -0.0196    0.0075    0.0497    0.0497   -0.0860   -0.0049    0.0058
          45   -0.0066    0.1296   -0.0699   -0.0517    0.0050    0.0310    0.0548    0.0025
          46   -0.0569    0.0092    0.0303    0.0103   -0.0504   -0.0556    0.0769    0.0509
          47    0.0317    0.0219    0.0619   -0.0796    0.0598    0.0345   -0.0604    0.0007
          48    0.0544   -0.0614   -0.1020    0.0163   -0.0040    0.0034   -0.0334   -0.0239
          49    0.0419    0.0262   -0.0487    0.0226    0.0432   -0.0730   -0.0155    0.0324
          50   -0.0661   -0.0023    0.0445   -0.0484   -0.0595    0.0596    0.0133   -0.0056
          51    0.0721   -0.0857    0.0111    0.0328    0.0260   -0.0091   -0.0259   -0.0164
          52   -0.0169   -0.0330   -0.0093   -0.0521    0.0568    0.0189   -0.0462   -0.0535
          53    0.0298    0.0369    0.0491    0.0139    0.0440    0.0474   -0.0261   -0.0530
          54    0.0416    0.0878    0.1092    0.0377    0.0008    0.0046    0.0340    0.0343
          55   -0.0379   -0.0115   -0.0633    0.0253   -0.0649   -0.0271    0.0064   -0.0351
          56    0.0839    0.0182    0.0487   -0.0409    0.0553    0.0352   -0.0181    0.0376
          57    0.0808   -0.0125    0.0558    0.0396   -0.0176   -0.0330    0.0495   -0.0695


   Root No.      25        26        27        28        29        30        31        32

                25 A      26 A      27 A      28 A      29 A      30 A      31 A      32 A   

                1065.4    1088.7    1094.5    1142.8    1175.6    1200.6    1250.2    1294.1
  
           1   -0.0096   -0.0007    0.0010    0.0087   -0.0087   -0.0249    0.0174    0.0170
           2   -0.0046    0.0016    0.0004    0.0102    0.0182   -0.0153   -0.0276    0.0218
           3    0.0127   -0.0170   -0.0032    0.0043    0.0023   -0.0203   -0.0017    0.0297
           4    0.0252   -0.0049   -0.0046    0.0041   -0.0077    0.0102   -0.0208   -0.0191
           5    0.0191   -0.0045    0.0001   -0.0005   -0.0140    0.0032   -0.0044    0.0350
           6    0.0032   -0.0058    0.0032    0.0012   -0.0062   -0.0014   -0.0043    0.0116
           7   -0.0072   -0.0126    0.0157   -0.0027    0.0025    0.0117   -0.0045    0.0198
           8    0.0038   -0.0034   -0.0044   -0.0005    0.0128   -0.0003    0.0171    0.0013
           9    0.0062    0.0050   -0.0035   -0.0069    0.0009    0.0045    0.0022    0.0057
          10    0.0015   -0.0110   -0.0012   -0.0065    0.0264   -0.0324    0.0193    0.0267
          11   -0.0039   -0.0054    0.0095   -0.0026   -0.0185   -0.0119   -0.0177   -0.0006
          12    0.0010    0.0151   -0.0008   -0.0045   -0.0012    0.0063   -0.0021   -0.0064
          13    0.0175    0.0154   -0.0205   -0.0044    0.0124    0.0161    0.0235   -0.0134
          14    0.0064   -0.0036    0.0061   -0.0007   -0.0180   -0.0014   -0.0174   -0.0168
          15    0.0008   -0.0054   -0.0020    0.0022    0.0010   -0.0014    0.0022   -0.0009
          16   -0.0065    0.0045    0.0040   -0.0018   -0.0098    0.0063    0.0107    0.0140
          17   -0.0169    0.0105    0.0043   -0.0072    0.0062   -0.0004    0.0076   -0.0318
          18   -0.0326    0.0120    0.0025   -0.0013    0.0073    0.0008   -0.0001   -0.0151
          19   -0.0030    0.0080    0.0024   -0.0051   -0.0076    0.0044    0.0020   -0.0303
          20    0.0024    0.0085   -0.0067    0.0012    0.0033    0.0107   -0.0143    0.0111
          21    0.0072    0.0066    0.0013   -0.0026   -0.0088    0.0007    0.0048   -0.0218
          22    0.0016   -0.0015   -0.0038   -0.0023   -0.0069    0.0099    0.0050    0.0094
          23   -0.0372    0.0119    0.0008    0.0010   -0.0036    0.0063    0.0280    0.0063
          24    0.0023   -0.0015   -0.0005   -0.0006   -0.0033    0.0024    0.0129    0.0041
          25    0.0014    0.0068   -0.0053    0.0066    0.0061    0.0040   -0.0182    0.0106
          26    0.0012    0.0012   -0.0010    0.0063    0.0026    0.0110   -0.0054    0.0139
          27   -0.0071   -0.0013    0.0032    0.0054    0.0058    0.0056   -0.0147    0.0097
          28   -0.0883    0.0996   -0.0152   -0.0317    0.0279    0.0805   -0.0321   -0.0389
          29    0.1814    0.0258    0.0139   -0.0299   -0.0822    0.0601    0.0469   -0.0441
          30    0.0204    0.0290   -0.0068   -0.0205   -0.0048    0.0392   -0.0059   -0.0090
          31    0.0127   -0.0370   -0.0032    0.0093   -0.0459    0.0232   -0.0749   -0.0372
          32    0.0745    0.0407    0.0043   -0.0009    0.0868   -0.0279   -0.0225   -0.0883
          33    0.0199    0.0168    0.0022   -0.0013    0.0286   -0.0117    0.0157   -0.0034
          34    0.0015    0.0094   -0.0237    0.0057   -0.0503    0.0487   -0.0689   -0.0371
          35    0.1870   -0.0480    0.0299   -0.0012    0.1031   -0.0679    0.0071   -0.0600
          36    0.0834   -0.0159    0.0023    0.0021    0.0217   -0.0047   -0.0451   -0.0643
          37   -0.0106   -0.0395    0.0311   -0.0476   -0.0356   -0.0446   -0.0087   -0.0393
          38    0.0235    0.0120   -0.0178   -0.0116    0.0156    0.0001    0.0724   -0.0351
          39    0.0002   -0.0100    0.0061   -0.0217   -0.0138   -0.0181   -0.0082   -0.0115
          40   -0.0672   -0.1051    0.1619   -0.1748   -0.0635   -0.0358   -0.0498   -0.0584
          41   -0.0072   -0.0234    0.0120   -0.0075    0.0233   -0.0041    0.0514   -0.0181
          42   -0.0293   -0.0523    0.0608   -0.0630    0.0014   -0.0151    0.0448   -0.0447
          43   -0.0645   -0.1136   -0.1564   -0.0065    0.0750   -0.0195   -0.0754   -0.0999
          44   -0.0657   -0.0698   -0.1045   -0.0028    0.0518   -0.0140   -0.0242   -0.0678
          45   -0.0631   -0.0213   -0.0433    0.0003    0.0241   -0.0076   -0.0119   -0.0305
          46    0.0018   -0.0171    0.0508    0.1041    0.0210    0.0817   -0.0335   -0.0011
          47    0.0126    0.0532   -0.0841   -0.1790   -0.0535   -0.1260    0.0529   -0.0409
          48   -0.0103   -0.0101    0.0264    0.0626    0.0174    0.0549   -0.0268   -0.0026
          49   -0.0244    0.1193    0.1485    0.0212    0.0794   -0.0874   -0.0481   -0.0432
          50   -0.0378   -0.0585   -0.0945   -0.0212   -0.0506    0.0656    0.0466    0.0061
          51    0.0382   -0.0415   -0.0420   -0.0130   -0.0288    0.0244    0.0250    0.0045
          52   -0.0246   -0.0268    0.0255    0.1141   -0.0200   -0.0213    0.0232   -0.0419
          53   -0.0252   -0.0586    0.0480    0.2471   -0.0600   -0.0551    0.1000   -0.1137
          54    0.0052   -0.0109    0.0078    0.0793   -0.0162   -0.0205    0.0231   -0.0373
          55    0.0139    0.0624   -0.0739    0.0479   -0.0691   -0.0878   -0.0416   -0.0153
          56    0.0116   -0.0745    0.0844   -0.0774    0.0973    0.1461    0.0756   -0.0170
          57    0.0096    0.0251   -0.0174    0.0072   -0.0039   -0.0079   -0.0019    0.0022


   Root No.      33        34        35        36        37        38        39        40

                33 A      34 A      35 A      36 A      37 A      38 A      39 A      40 A   

                1337.7    1367.8    1376.8    1393.8    1399.5    1461.4    1810.4    1856.9
  
           1    0.0161   -0.0371   -0.0281    0.0147    0.0183    0.1055    0.0204   -0.0184
           2    0.0238   -0.0633    0.0213    0.0220   -0.0476   -0.0546   -0.0085    0.0207
           3    0.0038   -0.0242   -0.0004    0.0025   -0.0009    0.0245    0.0004   -0.0096
           4   -0.0118   -0.0032    0.0126    0.0670   -0.0030    0.0136   -0.0182    0.0029
           5    0.0423    0.0694   -0.0027    0.0043   -0.0271   -0.0027   -0.0026   -0.0037
           6    0.0118    0.0248    0.0008    0.0107   -0.0078    0.0006   -0.0020   -0.0009
           7    0.0135   -0.0121   -0.0299    0.0307    0.0783   -0.0553    0.0039   -0.0143
           8   -0.0037    0.0014   -0.0433    0.0023   -0.0339   -0.0161    0.0008   -0.0200
           9    0.0012   -0.0037   -0.0300    0.0130    0.0137   -0.0243    0.0015   -0.0098
          10   -0.0197    0.0619    0.0047   -0.0497    0.0088   -0.0506    0.0034   -0.0032
          11   -0.0122    0.0064    0.0051   -0.0013    0.0266   -0.0120   -0.0210    0.0350
          12   -0.0044    0.0025    0.0007   -0.0007    0.0030   -0.0052    0.0009    0.0030
          13    0.0108   -0.0010    0.0031   -0.0058   -0.0502    0.0323   -0.0054    0.0062
          14   -0.0184   -0.0018    0.0062    0.0073    0.0217   -0.0010    0.0232   -0.0276
          15    0.0006    0.0005    0.0024   -0.0016   -0.0058    0.0047   -0.0003    0.0005
          16   -0.0072   -0.0127    0.0049   -0.0119   -0.0020   -0.0122   -0.2056   -0.0293
          17    0.0059    0.0473   -0.0204   -0.0028    0.0208    0.0339    0.0209    0.0004
          18    0.0031    0.0188   -0.0069   -0.0006    0.0066    0.0099    0.0036   -0.0025
          19    0.0072    0.0029    0.0030    0.0086   -0.0114   -0.0552   -0.0060    0.0392
          20   -0.0087    0.0050    0.0132   -0.0083    0.0043    0.0210    0.0229   -0.2044
          21    0.0051    0.0024    0.0006    0.0055   -0.0070   -0.0339   -0.0041    0.0140
          22   -0.0080   -0.0117    0.0091   -0.0079   -0.0069   -0.0225    0.2065    0.0286
          23   -0.0292   -0.0540    0.0058   -0.0136    0.0054   -0.0050    0.0183    0.0008
          24   -0.0120   -0.0212    0.0021   -0.0065    0.0026   -0.0015    0.0131    0.0012
          25   -0.0112    0.0033    0.0227   -0.0153   -0.0152    0.0340   -0.0014    0.0107
          26   -0.0101    0.0080    0.0008   -0.0093    0.0137    0.0402   -0.0249    0.2077
          27   -0.0080    0.0023    0.0160   -0.0103   -0.0068    0.0241   -0.0024    0.0208
          28   -0.0107    0.0282    0.0213   -0.0037   -0.0167   -0.0638   -0.0069   -0.0101
          29   -0.0238    0.0485   -0.0203   -0.0117    0.0422    0.0417   -0.0174   -0.0122
          30   -0.0164    0.0261    0.0102   -0.0107    0.0037   -0.0230   -0.0067   -0.0065
          31    0.1038   -0.0810   -0.0595   -0.1888    0.0228   -0.0055   -0.0005    0.0006
          32   -0.0331   -0.1019   -0.0191   -0.0862    0.0453   -0.0060   -0.0274   -0.0022
          33   -0.0515    0.0262    0.0288    0.1029   -0.0061    0.0072   -0.0092    0.0004
          34    0.0966   -0.0639   -0.0461   -0.1322    0.0042    0.0016   -0.0050    0.0005
          35   -0.0831   -0.0504    0.0097    0.0121    0.0417   -0.0001   -0.0384   -0.0007
          36    0.0452   -0.1092   -0.0511   -0.1830    0.0411   -0.0073   -0.0161   -0.0033
          37   -0.0189    0.0068    0.0481   -0.0274   -0.0624    0.0445    0.0026   -0.0123
          38    0.1092   -0.0099    0.2056   -0.0047    0.1255    0.0205    0.0002    0.0009
          39   -0.0291    0.0057   -0.0366   -0.0094   -0.0660    0.0098    0.0011   -0.0085
          40   -0.0681    0.0088   -0.0082   -0.0299   -0.1442    0.0538    0.0077   -0.0329
          41    0.0582   -0.0041    0.0938   -0.0064    0.0384    0.0036    0.0011   -0.0205
          42    0.0812   -0.0077    0.2005   -0.0167    0.0760    0.0354    0.0028   -0.0194
          43    0.0268    0.0777   -0.0196    0.0458    0.0166    0.0323    0.0457    0.0089
          44   -0.0052    0.0073   -0.0151    0.0210    0.0221    0.0348   -0.1345   -0.0205
          45   -0.0036    0.0028   -0.0074    0.0105    0.0121    0.0197   -0.0568   -0.0083
          46   -0.0304    0.0397    0.0265   -0.0235    0.0032    0.0082    0.0089   -0.1003
          47    0.0587   -0.0617   -0.0294    0.0487   -0.0173   -0.0774    0.0026   -0.0321
          48   -0.0212    0.0278    0.0215   -0.0164   -0.0042   -0.0068    0.0055   -0.0705
          49    0.0624    0.0591   -0.0377    0.0269    0.0111    0.0644   -0.0484   -0.0100
          50   -0.0414   -0.0056    0.0098   -0.0303    0.0099   -0.0212   -0.1332   -0.0219
          51   -0.0188    0.0020    0.0007   -0.0139    0.0094   -0.0006   -0.0582   -0.0098
          52    0.0050    0.0022    0.0119   -0.0036   -0.0405   -0.0171    0.0112   -0.1017
          53    0.0265    0.0091   -0.0264    0.0140   -0.0578   -0.0783   -0.0034    0.0165
          54    0.0035    0.0041    0.0107   -0.0053   -0.0412   -0.0193    0.0077   -0.0701
          55   -0.0435    0.0356    0.0375   -0.0268    0.0053    0.0054    0.0133   -0.0106
          56    0.0564   -0.0509   -0.0425    0.0365   -0.0588    0.0383    0.0034   -0.0140
          57   -0.0028   -0.0039   -0.0018    0.0001    0.0042   -0.0005    0.0010   -0.0037


   Root No.      41        42        43        44        45        46        47        48

                41 A      42 A      43 A      44 A      45 A      46 A      47 A      48 A   

                1930.2    2846.1    2939.7    2973.5    3020.2    3046.5    3059.8    3076.2
  
           1   -0.0068    0.0270   -0.0002   -0.0001   -0.0001    0.0005    0.0002    0.0001
           2   -0.0236    0.0140   -0.0002    0.0000   -0.0001   -0.0001   -0.0002    0.0004
           3    0.0002   -0.0661    0.0005   -0.0002    0.0002   -0.0000    0.0002   -0.0000
           4    0.0220   -0.0002   -0.0000    0.0065   -0.0000   -0.0409   -0.0000    0.0001
           5   -0.0252   -0.0001   -0.0001    0.0196   -0.0000   -0.0105   -0.0000   -0.0003
           6   -0.0032    0.0000    0.0001   -0.0572   -0.0000   -0.0053   -0.0000   -0.0002
           7   -0.0119    0.0002    0.0188    0.0000    0.0058   -0.0000   -0.0003   -0.0001
           8    0.0186    0.0001    0.0196    0.0001   -0.0392    0.0001    0.0024   -0.0030
           9   -0.0001   -0.0004   -0.0529   -0.0002   -0.0069    0.0000   -0.0004    0.0005
          10   -0.0264    0.0008    0.0002   -0.0001   -0.0003   -0.0005   -0.0002   -0.0007
          11    0.2488    0.0011    0.0003    0.0004    0.0004    0.0004    0.0002    0.0054
          12    0.0113   -0.0001   -0.0002   -0.0001   -0.0000    0.0000   -0.0001    0.0002
          13    0.0414    0.0002   -0.0006    0.0003    0.0029    0.0001   -0.0016   -0.0468
          14   -0.2078   -0.0006   -0.0012   -0.0002    0.0016   -0.0001   -0.0015   -0.0386
          15   -0.0014   -0.0002   -0.0001   -0.0001    0.0002   -0.0000   -0.0000   -0.0036
          16   -0.0215    0.0009   -0.0000    0.0001   -0.0000    0.0001    0.0002   -0.0000
          17   -0.0042   -0.0008    0.0000    0.0000    0.0000   -0.0003    0.0001   -0.0000
          18   -0.0012   -0.0006   -0.0000   -0.0003   -0.0000   -0.0001    0.0001   -0.0000
          19   -0.0055   -0.0006   -0.0000    0.0000   -0.0000   -0.0001    0.0185   -0.0065
          20    0.0366    0.0011    0.0002   -0.0000    0.0001   -0.0000    0.0151   -0.0069
          21   -0.0024   -0.0006   -0.0003    0.0000   -0.0000   -0.0001    0.0145   -0.0052
          22    0.0203   -0.0007    0.0000   -0.0003   -0.0000    0.0003   -0.0000   -0.0000
          23   -0.0051    0.0002   -0.0000    0.0001   -0.0000   -0.0014    0.0000    0.0000
          24   -0.0009   -0.0003    0.0000   -0.0001   -0.0000   -0.0006   -0.0000    0.0000
          25   -0.0005    0.0000    0.0006    0.0000   -0.0032   -0.0000   -0.0311   -0.0025
          26   -0.0365   -0.0007   -0.0011    0.0000    0.0017    0.0000    0.0215    0.0030
          27   -0.0036   -0.0003    0.0003    0.0000   -0.0021   -0.0000   -0.0204   -0.0017
          28   -0.0109   -0.3276    0.0018   -0.0005    0.0009   -0.0002    0.0008   -0.0003
          29    0.0077   -0.1744    0.0004    0.0000    0.0002   -0.0001    0.0004   -0.0001
          30   -0.0014    0.8151   -0.0044    0.0010   -0.0022    0.0005   -0.0006    0.0008
          31    0.0081   -0.0007   -0.0005    0.2263    0.0002    0.1622    0.0001    0.0012
          32    0.0066    0.0007    0.0002   -0.0691   -0.0001   -0.0709   -0.0000   -0.0004
          33    0.0039   -0.0017   -0.0009    0.4436    0.0006    0.3867    0.0003    0.0021
          34   -0.0040    0.0001    0.0007   -0.3012    0.0005    0.3256    0.0002    0.0000
          35    0.0255    0.0000    0.0004   -0.1668    0.0003    0.1964    0.0001   -0.0005
          36   -0.0003   -0.0001   -0.0006    0.2492   -0.0004   -0.3221   -0.0002   -0.0001
          37   -0.0100   -0.0028   -0.1908   -0.0003   -0.1337    0.0003    0.0042   -0.0046
          38   -0.0020    0.0023    0.1109    0.0002    0.0475   -0.0001   -0.0009   -0.0000
          39   -0.0023    0.0067    0.4744    0.0010    0.3387   -0.0006   -0.0127    0.0106
          40   -0.0296    0.0001   -0.0372   -0.0002    0.0639   -0.0001   -0.0069   -0.0000
          41    0.0176   -0.0013   -0.3385   -0.0008    0.4206   -0.0007   -0.0299    0.0331
          42    0.0013    0.0001    0.1664    0.0004   -0.2529    0.0004    0.0148   -0.0191
          43    0.0148   -0.0023   -0.0000    0.0024   -0.0000   -0.0100    0.0001    0.0011
          44   -0.0198    0.0029   -0.0000   -0.0015    0.0000    0.0098   -0.0001   -0.0013
          45   -0.0076    0.0002   -0.0000   -0.0019    0.0000    0.0037   -0.0001   -0.0005
          46    0.0220    0.0016    0.0008   -0.0001    0.0022    0.0007   -0.2203    0.0789
          47   -0.0012   -0.0000    0.0001   -0.0001    0.0025    0.0006   -0.1910    0.0698
          48    0.0183   -0.0017   -0.0004   -0.0001    0.0017    0.0006   -0.1743    0.0626
          49   -0.0121    0.0017   -0.0000   -0.0000    0.0000    0.0070   -0.0004   -0.0003
          50   -0.0211    0.0016   -0.0000    0.0003    0.0000    0.0079   -0.0011   -0.0001
          51   -0.0093   -0.0011    0.0000   -0.0007    0.0000    0.0036   -0.0003   -0.0001
          52    0.0208    0.0023   -0.0076   -0.0000    0.0327    0.0001    0.3714    0.0339
          53    0.0040   -0.0012    0.0081    0.0000   -0.0241   -0.0001   -0.2395   -0.0227
          54    0.0178    0.0003   -0.0066   -0.0000    0.0207    0.0001    0.2443    0.0222
          55   -0.1325   -0.0014    0.0096   -0.0014   -0.0277   -0.0016    0.0231    0.5618
          56   -0.0357   -0.0011    0.0097   -0.0014   -0.0227   -0.0005    0.0164    0.3984
          57   -0.0051   -0.0012   -0.0007    0.0002   -0.0026    0.0002    0.0017    0.0426


   Root No.      49        50        51

                49 A      50 A      51 A   

                3081.2    3120.8    3139.4
  
           1   -0.0000   -0.0003   -0.0009
           2   -0.0006    0.0003    0.0003
           3    0.0001    0.0002    0.0003
           4    0.0000    0.0001    0.0019
           5    0.0001   -0.0001    0.0006
           6    0.0000   -0.0002    0.0002
           7   -0.0001    0.0000    0.0000
           8    0.0027    0.0000    0.0000
           9   -0.0001   -0.0000   -0.0000
          10    0.0005   -0.0002   -0.0000
          11   -0.0009    0.0001    0.0014
          12    0.0001    0.0000    0.0003
          13    0.0070   -0.0001   -0.0001
          14    0.0057   -0.0001   -0.0003
          15    0.0006   -0.0000   -0.0000
          16   -0.0003    0.0217   -0.0304
          17    0.0000    0.0265   -0.0287
          18   -0.0001    0.0123   -0.0135
          19   -0.0245   -0.0001    0.0001
          20   -0.0273   -0.0001   -0.0001
          21   -0.0198   -0.0001    0.0000
          22   -0.0000    0.0245    0.0282
          23    0.0001   -0.0299   -0.0269
          24    0.0000   -0.0119   -0.0105
          25   -0.0195   -0.0000   -0.0000
          26    0.0179    0.0000    0.0000
          27   -0.0125   -0.0000   -0.0000
          28    0.0000    0.0004    0.0002
          29   -0.0006    0.0008   -0.0001
          30   -0.0008   -0.0002   -0.0020
          31   -0.0004    0.0000   -0.0032
          32    0.0001   -0.0007    0.0010
          33   -0.0008   -0.0011   -0.0087
          34   -0.0005   -0.0028   -0.0092
          35   -0.0002   -0.0033   -0.0067
          36    0.0005    0.0020    0.0083
          37    0.0045    0.0000    0.0000
          38   -0.0007   -0.0000   -0.0000
          39   -0.0120   -0.0000   -0.0000
          40   -0.0046   -0.0000   -0.0000
          41   -0.0269   -0.0000    0.0000
          42    0.0140    0.0000   -0.0000
          43    0.0006   -0.2846   -0.2525
          44   -0.0007    0.3556    0.3119
          45   -0.0003    0.1415    0.1240
          46    0.2939    0.0013   -0.0004
          47    0.2612    0.0018   -0.0011
          48    0.2331    0.0012   -0.0005
          49    0.0007   -0.2596    0.2785
          50    0.0017   -0.3158    0.3348
          51    0.0005   -0.1464    0.1554
          52    0.2258    0.0005    0.0004
          53   -0.1495   -0.0003   -0.0002
          54    0.1483    0.0003    0.0003
          55   -0.0815    0.0005    0.0009
          56   -0.0579    0.0003    0.0006
          57   -0.0062    0.0001    0.0000


           MASS-WEIGHTED COORDINATE ANALYSIS (NORMAL COORDINATES)


   Root No.       1         2         3         4         5         6         7         8

                 1 A       2 A       3 A       4 A       5 A       6 A       7 A       8 A   

                 110.7     203.1     256.5     378.4     385.1     444.9     513.2     537.8
  
           1    0.0000    0.0555   -0.0060    0.2469    0.0359    0.0444    0.1687    0.0315
           2    0.0760    0.0503   -0.0630    0.2678    0.0424    0.0755   -0.2032    0.0690
           3   -0.0271   -0.3285   -0.2377   -0.0320    0.0169    0.1706    0.1378   -0.0200
           4    0.0274    0.0260    0.0186    0.1068    0.0513    0.0715   -0.1493    0.2846
           5    0.0667   -0.0782    0.0923   -0.2462    0.0098   -0.0518   -0.1148   -0.2037
           6   -0.3459    0.1957   -0.2451    0.0385   -0.0805   -0.0508   -0.0374    0.0043
           7   -0.1374   -0.0337    0.0919   -0.1710   -0.0392   -0.0621   -0.2173   -0.1887
           8   -0.0986   -0.0136    0.1493   -0.0834   -0.0963   -0.0496    0.4185    0.0317
           9    0.3499    0.1689   -0.1820   -0.0852    0.0260   -0.0629    0.0650   -0.0726
          10    0.0380    0.0594   -0.0617    0.3327    0.0579    0.0865   -0.0622    0.1536
          11    0.0433    0.0360   -0.0420    0.1722    0.0323   -0.0315    0.0840   -0.2123
          12   -0.1322   -0.3166   -0.0397   -0.1852   -0.0352    0.4461   -0.1049    0.2017
          13   -0.0317    0.0438   -0.0777   -0.0183    0.0175   -0.0060   -0.2996   -0.2488
          14    0.0395    0.0325   -0.0502    0.1568    0.0277   -0.0191    0.1251   -0.2263
          15    0.0742   -0.3146    0.4116    0.2758    0.0857   -0.1378   -0.0657   -0.0499
          16   -0.0716    0.0885    0.0786   -0.1500   -0.0045   -0.0961    0.0234    0.1641
          17   -0.1062   -0.0186   -0.1255    0.1323    0.1830    0.2440   -0.2134   -0.0045
          18    0.3318   -0.1418   -0.0158    0.0383   -0.3284   -0.2263   -0.1440    0.1365
          19    0.1635   -0.0844   -0.0631    0.0675   -0.2382    0.2548    0.3605   -0.0656
          20    0.0457    0.0972    0.0516   -0.0990   -0.0420   -0.0259    0.0750    0.3375
          21   -0.2984   -0.0794   -0.0395   -0.0262    0.3531   -0.1772    0.2045    0.1002
          22   -0.0692    0.0797    0.0752   -0.1615   -0.0206   -0.1218    0.0076    0.1852
          23   -0.1054   -0.1727   -0.1257   -0.1179   -0.1087   -0.0638   -0.2446   -0.1101
          24    0.1645    0.3586    0.2221   -0.0948    0.2696    0.1504   -0.0153   -0.0997
          25    0.0955   -0.2196   -0.0811   -0.1745    0.1463   -0.1689    0.1565   -0.2903
          26    0.0419    0.0845    0.0501   -0.1356   -0.0106   -0.0815    0.0785    0.3425
          27   -0.1358    0.3066    0.1651   -0.0196   -0.3194    0.1376    0.0305   -0.2038
          28   -0.0350    0.0343   -0.0113    0.1334    0.1057   -0.0710    0.1051   -0.0413
          29    0.1051    0.0140   -0.0345    0.1585   -0.0657   -0.0375   -0.1177    0.0093
          30   -0.0041   -0.0849   -0.0730    0.0348    0.0271    0.0009    0.0477   -0.0273
          31    0.1175   -0.0831    0.1461   -0.0835    0.1193    0.2458   -0.1014    0.1339
          32    0.1015    0.0438    0.1325   -0.1464    0.1069    0.0307   -0.0235   -0.1192
          33   -0.1418    0.1130   -0.1258    0.0576   -0.0612   -0.1242    0.0201   -0.0343
          34   -0.0722    0.0766   -0.1075    0.1445   -0.0605   -0.1384   -0.0005    0.0529
          35   -0.0166   -0.0943    0.0176   -0.1530   -0.0503   -0.0190   -0.0746   -0.0198
          36   -0.2160    0.0900   -0.2093    0.0927   -0.1478   -0.2059    0.0148   -0.0077
          37   -0.0703    0.0843   -0.0013   -0.0942   -0.0913    0.0387   -0.0819   -0.0739
          38   -0.2080   -0.0741    0.2995    0.0482   -0.1813    0.0550    0.1774   -0.0432
          39    0.1309    0.1038   -0.1251   -0.0598    0.0132   -0.0130   -0.0034   -0.0153
          40   -0.0883   -0.0781    0.1484   -0.0384   -0.0280   -0.0377   -0.0547    0.0179
          41    0.0567    0.0303   -0.0768   -0.0620    0.0445   -0.0491    0.1015    0.0428
          42    0.2538    0.0986   -0.2581   -0.0963    0.1458   -0.0905   -0.0210    0.0608
          43   -0.0351    0.0308    0.0356   -0.1019   -0.0193   -0.0718    0.0304    0.0168
          44   -0.0646   -0.0933   -0.0738   -0.0644   -0.0942   -0.0655   -0.0602   -0.0467
          45    0.1023    0.2286    0.1854   -0.0621    0.2083    0.0877    0.0254   -0.0708
          46    0.1151   -0.0382   -0.0606    0.0560   -0.1636    0.1963    0.1618   -0.0614
          47    0.0193    0.0475    0.0398   -0.0927   -0.0421   -0.0380    0.0371    0.0741
          48   -0.1773   -0.0265    0.0138    0.0183    0.2543   -0.1729   -0.0329    0.1082
          49   -0.0349    0.0370    0.0419   -0.1167   -0.0056   -0.0594   -0.0134    0.0457
          50   -0.0663    0.0045   -0.0667    0.0895    0.1235    0.1703   -0.0212   -0.0361
          51    0.1977   -0.0820    0.0268    0.0315   -0.2389   -0.2252   -0.0926    0.1171
          52    0.0762   -0.1243   -0.0849   -0.0920    0.1325   -0.1055    0.0766   -0.0903
          53    0.0317    0.0430    0.0148   -0.0685    0.0029   -0.0521   -0.0708    0.0935
          54   -0.0922    0.1998    0.1388    0.0291   -0.2219    0.0984   -0.1333   -0.0552
          55   -0.0237    0.0079   -0.0194   -0.0788   -0.0113   -0.0045   -0.0809   -0.0883
          56    0.0313    0.0184   -0.0348    0.1283    0.0259    0.0174    0.0349   -0.0361
          57    0.0126   -0.1187    0.2921    0.2666    0.0633   -0.2171   -0.0683   -0.0645


   Root No.       9        10        11        12        13        14        15        16

                 9 A      10 A      11 A      12 A      13 A      14 A      15 A      16 A   

                 658.3     740.2     760.6     776.5     796.8     842.0     889.5     930.2
  
           1    0.1758   -0.0446    0.1106    0.0156   -0.0821   -0.1499   -0.2136   -0.0533
           2    0.0147    0.0909   -0.1133   -0.0281    0.0800   -0.0137   -0.2340   -0.0178
           3   -0.2896   -0.1035   -0.0253   -0.2405    0.2060    0.0485    0.1317    0.0487
           4   -0.2114    0.0673    0.1488    0.3143   -0.0718    0.1559    0.2929    0.0354
           5   -0.0576   -0.0515    0.2342    0.0017   -0.0179   -0.1352    0.0180   -0.1027
           6    0.0177   -0.1067   -0.0028    0.1377   -0.2136    0.0600   -0.2427    0.1790
           7    0.0064   -0.0539    0.0130   -0.0938    0.0097    0.0222    0.0039    0.0392
           8    0.0658    0.0196   -0.0902    0.2100    0.0499    0.3339    0.1082    0.1100
           9   -0.0880    0.1840   -0.0848    0.1802    0.0446   -0.1438   -0.1341   -0.1050
          10    0.0073    0.0479    0.0776    0.1442   -0.1344   -0.0477    0.1252   -0.0290
          11    0.2074    0.0311   -0.1250   -0.0601   -0.0664   -0.0519    0.0994   -0.0004
          12    0.4409    0.1473   -0.0378   -0.0049   -0.0949    0.0168    0.0675   -0.1736
          13    0.1420   -0.0041   -0.0976   -0.2238   -0.1199   -0.1208    0.1532    0.0250
          14    0.2925    0.0372   -0.1896   -0.0684   -0.0975   -0.0014    0.2023    0.0060
          15    0.0139    0.0303   -0.0363   -0.0337    0.1095   -0.2330    0.1599    0.2359
          16    0.0031    0.0554   -0.2686   -0.1774    0.1369    0.0532   -0.0568    0.0230
          17   -0.2215    0.1640   -0.0687   -0.0618    0.3039    0.2262   -0.2148    0.1564
          18   -0.0391   -0.0917   -0.2101    0.0651    0.0575    0.0031    0.0584   -0.1942
          19    0.0139   -0.2615    0.2963   -0.0549    0.1358   -0.1086   -0.1679   -0.1372
          20   -0.0372   -0.1016    0.0860   -0.1388   -0.0478   -0.1531   -0.0010   -0.0451
          21   -0.0274    0.0123    0.1163   -0.1350   -0.1785   -0.0601   -0.0106    0.1072
          22   -0.0245    0.0502   -0.2607   -0.1742    0.1383    0.0503   -0.0580    0.0111
          23   -0.1258   -0.0091    0.3553    0.1770   -0.1170    0.0021    0.0817   -0.0161
          24   -0.1241   -0.1236    0.0073    0.1144   -0.0583   -0.0899    0.0894    0.0421
          25    0.0550    0.0489   -0.0157    0.3221    0.1979    0.1814   -0.0500    0.0618
          26   -0.0365   -0.0909    0.0473   -0.1227   -0.0508   -0.1229    0.0296   -0.0138
          27   -0.0611    0.0974   -0.0491    0.0493   -0.1031    0.1543   -0.0238   -0.0813
          28   -0.0241   -0.0091    0.0791   -0.0532   -0.1279   -0.0847   -0.1654    0.1287
          29   -0.0664   -0.0629   -0.0966    0.0630    0.0596   -0.0166   -0.1785   -0.1094
          30   -0.1250   -0.0473   -0.0005   -0.0764    0.0262   -0.0041   -0.0311    0.0492
          31    0.0297   -0.0862   -0.0466    0.2017   -0.2442    0.1609   -0.1104    0.1223
          32   -0.1193   -0.1701   -0.0197    0.0275   -0.0371   -0.1267   -0.1635    0.1985
          33   -0.0581    0.0016    0.0349   -0.0121    0.0488   -0.0566    0.0091    0.0282
          34   -0.1259    0.1112    0.1279    0.0552    0.1154   -0.0196    0.3210   -0.0658
          35    0.0377    0.0232    0.0893   -0.0670    0.0148    0.0075   -0.1320   -0.1629
          36   -0.0336    0.1050    0.1120   -0.0519    0.1175   -0.0292    0.1160   -0.1283
          37   -0.0434    0.0043   -0.0027   -0.0872   -0.1310    0.1141   -0.0917   -0.2137
          38   -0.1724    0.2567   -0.1050    0.2053    0.0109   -0.1474   -0.1088   -0.1108
          39    0.0057   -0.0028   -0.0073   -0.0067   -0.0395    0.0660   -0.0409   -0.0855
          40   -0.1217    0.0351    0.0365    0.0128    0.0643   -0.1820   -0.0957    0.0341
          41    0.1056   -0.1072    0.0073    0.0068    0.0165    0.2249    0.0988    0.1006
          42    0.1163   -0.1602    0.0518   -0.0516    0.0311    0.1615    0.0680    0.1092
          43    0.0378   -0.0301   -0.0683   -0.0953   -0.0186   -0.0798   -0.0461   -0.0322
          44   -0.0413   -0.1977   -0.0434    0.1199   -0.1653   -0.1326   -0.0182    0.0494
          45    0.0661    0.3628    0.3915   -0.2288    0.1957    0.1154    0.0643   -0.1963
          46   -0.1911    0.0364    0.0635   -0.2604   -0.1811   -0.0124    0.0173    0.1874
          47   -0.0313   -0.0005   -0.0070    0.0044   -0.0512    0.0159    0.0942    0.0125
          48    0.2605   -0.1704    0.0977    0.2181    0.2691   -0.1111   -0.1952   -0.2847
          49   -0.0307   -0.0031   -0.0593   -0.0236   -0.0105    0.0130    0.1323    0.0064
          50   -0.1430   -0.1071   -0.1820    0.0046    0.1492    0.0012   -0.0393   -0.1560
          51    0.2140    0.3401    0.2543   -0.0828   -0.0219    0.1433   -0.3051    0.3783
          52   -0.1374    0.2587   -0.1156    0.0560   -0.2168    0.0209   -0.0756   -0.1639
          53   -0.0349    0.0264   -0.0460   -0.0407   -0.0341   -0.0813    0.0172   -0.0256
          54    0.1913   -0.2930    0.0984    0.0657    0.3700    0.0481    0.0895    0.2312
          55    0.0284    0.0087   -0.0276   -0.0550    0.0243   -0.0551    0.0145    0.0795
          56    0.1139    0.0301   -0.0665   -0.0093   -0.0885   -0.0346    0.1212   -0.0603
          57   -0.0960   -0.2939    0.0807   -0.2316   -0.2002    0.5095   -0.1047   -0.3036


   Root No.      17        18        19        20        21        22        23        24

                17 A      18 A      19 A      20 A      21 A      22 A      23 A      24 A   

                 944.7     968.3     992.7    1020.5    1029.6    1038.3    1048.0    1055.8
  
           1   -0.2017   -0.0160    0.1054    0.0192   -0.0337    0.0334    0.0602   -0.0280
           2   -0.1492    0.0019    0.0350    0.0160    0.0481   -0.1210    0.0833    0.0380
           3    0.2630    0.1024   -0.1456    0.1300    0.1186    0.0762   -0.0927   -0.1236
           4    0.0220   -0.0376   -0.0215    0.0212   -0.0840    0.1344   -0.0109   -0.0537
           5   -0.1245   -0.0784    0.1277    0.0287   -0.0314    0.0938    0.0138   -0.0686
           6    0.1088    0.2020   -0.1569   -0.1628   -0.1115    0.1526    0.0130    0.0296
           7   -0.1191   -0.0298   -0.0163    0.0194    0.0407    0.0366   -0.0037   -0.0062
           8   -0.2293   -0.0224   -0.2282    0.1918   -0.1196   -0.0158    0.0762   -0.0883
           9    0.2095    0.0914    0.0107    0.2051   -0.2173   -0.0766    0.1548   -0.0361
          10    0.0412    0.0383    0.0250    0.0047    0.0816    0.0089    0.0707   -0.0298
          11    0.1121    0.0198    0.0106   -0.0004   -0.0147    0.0276   -0.0158    0.0005
          12   -0.1080   -0.0754    0.1861    0.1627    0.1507    0.0203    0.1708   -0.1575
          13    0.1360   -0.0126   -0.1863   -0.0013   -0.2244   -0.0828    0.0045   -0.1167
          14    0.1779    0.0260   -0.0325   -0.0090   -0.0556    0.0386   -0.0307   -0.0188
[...]
 EFFECTIVE MASS      5.6538
 FORCE CONSTANT      0.6151

 VIBRATION         34   34A           ATOM PAIR      ENERGY CONTRIBUTION    RADIAL
 FREQUENCY          1367.78         C  2 -- C  8         +13.5% ( 55.7%)     90.2%
 TRANSITION DIPOLE   0.0405         C  1 -- C  4         +13.4% ( 55.5%)     98.0%
 TRAVEL (Ang.)       0.1717         C  1 -- C  6         +12.0% ( 52.5%)     70.3%
 REDUCED MASS        1.6729         C  2 -- C  4         +10.9% ( 50.0%)     95.2%
 EFFECTIVE MASS      9.9059
 FORCE CONSTANT      1.8439

 VIBRATION         35   35A           ATOM PAIR      ENERGY CONTRIBUTION    RADIAL
 FREQUENCY          1376.76         C  3 -- H 14         +21.1% ( 58.1%)      4.3%
 TRANSITION DIPOLE   0.0716         C  3 -- H 13         +20.3% ( 56.9%)      4.2%
 TRAVEL (Ang.)       0.2414         C  3 -- C  9         +14.8% ( 48.7%)     99.5%
 REDUCED MASS        0.8403         C  3 -- C  5          +9.8% ( 39.6%)      2.3%
 EFFECTIVE MASS      5.3512
 FORCE CONSTANT      0.9384

 VIBRATION         36   36A           ATOM PAIR      ENERGY CONTRIBUTION    RADIAL
 FREQUENCY          1393.81         C  2 -- H 11         +18.7% ( 57.2%)      6.6%
 TRANSITION DIPOLE   0.0576         C  2 -- C  4         +18.2% ( 56.5%)     59.3%
 TRAVEL (Ang.)       0.2203         C  2 -- H 12         +17.8% ( 55.8%)      7.9%
 REDUCED MASS        0.9973         C  2 -- C  8         +11.0% ( 44.0%)     39.1%
 EFFECTIVE MASS      6.4402
 FORCE CONSTANT      1.1415

 VIBRATION         37   37A           ATOM PAIR      ENERGY CONTRIBUTION    RADIAL
 FREQUENCY          1399.54         C  3 -- C  5         +20.4% ( 68.1%)     99.5%
 TRANSITION DIPOLE   0.0625         C  3 -- H 14         +14.0% ( 56.6%)      3.1%
 TRAVEL (Ang.)       0.1612         C  3 -- H 13         +13.3% ( 55.0%)      2.6%
 REDUCED MASS        1.8540         C  3 -- C  9         +11.3% ( 50.7%)     17.6%
 EFFECTIVE MASS      8.8425
 FORCE CONSTANT      2.1396

 VIBRATION         38   38A           ATOM PAIR      ENERGY CONTRIBUTION    RADIAL
 FREQUENCY          1461.36         C  1 -- C  7         +19.7% ( 71.2%)     93.7%
 TRANSITION DIPOLE   0.0583         C  1 -- C  4         +14.8% ( 61.7%)     40.5%
 TRAVEL (Ang.)       0.1324         C  1 -- C  6         +13.8% ( 59.6%)     57.4%
 REDUCED MASS        2.6304         C  1 -- H 10         +12.2% ( 56.1%)      0.1%
 EFFECTIVE MASS     11.0711
 FORCE CONSTANT      3.3096

 VIBRATION         39   39A           ATOM PAIR      ENERGY CONTRIBUTION    RADIAL
 FREQUENCY          1810.45         C  6 -- C  8         +44.5% ( 99.1%)    100.0%
 TRANSITION DIPOLE   0.0593         C  1 -- C  6         +13.6% ( 54.7%)     22.5%
 TRAVEL (Ang.)       0.0854         C  2 -- C  8         +13.6% ( 54.7%)     22.2%
 REDUCED MASS        5.1037         C  8 -- H 15         +12.6% ( 52.7%)     10.2%
 EFFECTIVE MASS     11.8914         C  6 -- H 17         +12.5% ( 52.4%)     10.6%
 FORCE CONSTANT      9.8561

 VIBRATION         40   40A           ATOM PAIR      ENERGY CONTRIBUTION    RADIAL
 FREQUENCY          1856.89         C  7 -- C  9         +42.8% ( 96.7%)    100.0%
 TRANSITION DIPOLE   0.0897         C  1 -- C  7         +13.6% ( 54.5%)     45.6%
 TRAVEL (Ang.)       0.0851         C  3 -- C  9         +13.5% ( 54.4%)     48.2%
 REDUCED MASS        5.0139         C  9 -- H 18         +12.6% ( 52.4%)      5.3%
 EFFECTIVE MASS     11.8848         C  7 -- H 16         +12.5% ( 52.2%)      5.8%
 FORCE CONSTANT     10.1858

 VIBRATION         41   41A           ATOM PAIR      ENERGY CONTRIBUTION    RADIAL
 FREQUENCY          1930.22         C  4 -- C  5         +42.4% ( 96.4%)     99.2%
 TRANSITION DIPOLE   0.1294         C  2 -- C  4         +16.8% ( 60.7%)     51.3%
 TRAVEL (Ang.)       0.0807         C  1 -- C  4         +16.4% ( 59.9%)     27.0%
 REDUCED MASS        5.3630         C  3 -- C  5         +10.6% ( 48.1%)     40.6%
 EFFECTIVE MASS     11.9177
 FORCE CONSTANT     11.7725

 VIBRATION         42   42A           ATOM PAIR      ENERGY CONTRIBUTION    RADIAL
 FREQUENCY          2846.10         C  1 -- H 10         +97.1% (100.0%)    100.0%
 TRANSITION DIPOLE   0.1090         C  1 -- C  7          +1.0% (  9.9%)      7.6%
 TRAVEL (Ang.)       0.1596         C  1 -- C  4          +1.0% (  9.9%)     10.8%
 REDUCED MASS        0.9297         C  1 -- C  6          +1.0% (  9.9%)      9.4%
 EFFECTIVE MASS      1.4278
 FORCE CONSTANT      4.4372

 VIBRATION         43   43A           ATOM PAIR      ENERGY CONTRIBUTION    RADIAL
 FREQUENCY          2939.67         C  3 -- H 13         +62.9% ( 82.2%)     97.8%
 TRANSITION DIPOLE   0.0385         C  3 -- H 14         +34.9% ( 61.2%)     94.6%
 TRAVEL (Ang.)       0.2031         C  3 -- C  5          +1.1% ( 10.8%)      0.3%
 REDUCED MASS        0.5560         C  3 -- C  9          +1.1% ( 10.8%)      0.2%
 EFFECTIVE MASS      1.5323
 FORCE CONSTANT      2.8311

 VIBRATION         44   44A           ATOM PAIR      ENERGY CONTRIBUTION    RADIAL
 FREQUENCY          2973.47         C  2 -- H 11         +56.4% ( 77.8%)     97.4%
 TRANSITION DIPOLE   0.0520         C  2 -- H 12         +41.4% ( 66.7%)     95.8%
 TRAVEL (Ang.)       0.2071         C  2 -- C  8          +1.1% ( 10.8%)      0.1%
 REDUCED MASS        0.5288         C  2 -- C  4          +1.1% ( 10.8%)      0.1%
 EFFECTIVE MASS      1.5342
 FORCE CONSTANT      2.7549

 VIBRATION         45   45A           ATOM PAIR      ENERGY CONTRIBUTION    RADIAL
 FREQUENCY          3020.22         C  3 -- H 14         +63.8% ( 78.9%)     99.0%
 TRANSITION DIPOLE   0.0877         C  3 -- H 13         +33.8% ( 57.5%)     95.0%
 TRAVEL (Ang.)       0.2086         C  3 -- C  9          +0.7% (  8.3%)     21.6%
 REDUCED MASS        0.5132         C  3 -- C  5          +0.7% (  8.2%)     23.4%
 EFFECTIVE MASS      1.2903
 FORCE CONSTANT      2.7583

 VIBRATION         46   46A           ATOM PAIR      ENERGY CONTRIBUTION    RADIAL
 FREQUENCY          3046.46         C  2 -- H 12         +57.4% ( 74.9%)     98.3%
 TRANSITION DIPOLE   0.1190         C  2 -- H 11         +41.1% ( 63.3%)     96.2%
 TRAVEL (Ang.)       0.2115         C  2 -- C  4          +0.7% (  8.4%)     38.1%
 REDUCED MASS        0.4948         C  2 -- C  8          +0.7% (  8.4%)     33.9%
 EFFECTIVE MASS      1.2873
 FORCE CONSTANT      2.7058

 VIBRATION         47   47A           ATOM PAIR      ENERGY CONTRIBUTION    RADIAL
 FREQUENCY          3059.81         C  9 -- H 18         +66.8% ( 83.0%)    100.0%
 TRANSITION DIPOLE   0.2993         C  7 -- H 16         +30.2% ( 55.8%)    100.0%
 TRAVEL (Ang.)       0.2047         C  7 -- C  9          +1.1% ( 10.7%)      2.1%
 REDUCED MASS        0.5258         C  3 -- C  9          +0.9% (  9.7%)     22.1%
 EFFECTIVE MASS      1.4611
 FORCE CONSTANT      2.9007

 VIBRATION         48   48A           ATOM PAIR      ENERGY CONTRIBUTION    RADIAL
 FREQUENCY          3076.18         C  5 -- H 19         +93.2% ( 98.0%)    100.0%
 TRANSITION DIPOLE   0.3586         C  7 -- H 16          +2.9% ( 17.4%)    100.0%
 TRAVEL (Ang.)       0.1596         C  4 -- C  5          +1.6% ( 12.7%)     41.8%
 REDUCED MASS        0.8610         C  3 -- C  5          +1.4% ( 12.1%)     19.7%
 EFFECTIVE MASS      1.5294
 FORCE CONSTANT      4.8005

 VIBRATION         49   49A           ATOM PAIR      ENERGY CONTRIBUTION    RADIAL
 FREQUENCY          3081.18         C  7 -- H 16         +63.8% ( 81.1%)     99.9%
 TRANSITION DIPOLE   0.2729         C  9 -- H 18         +29.1% ( 54.8%)     99.8%
 TRAVEL (Ang.)       0.2104         C  5 -- H 19          +3.1% ( 17.8%)    100.0%
 REDUCED MASS        0.4943         C  7 -- C  9          +2.0% ( 14.3%)     95.1%
 EFFECTIVE MASS      1.5927
 FORCE CONSTANT      2.7648

 VIBRATION         50   50A           ATOM PAIR      ENERGY CONTRIBUTION    RADIAL
 FREQUENCY          3120.78         C  8 -- H 15         +53.3% ( 74.1%)    100.0%
 TRANSITION DIPOLE   0.3818         C  6 -- H 17         +44.1% ( 67.5%)    100.0%
 TRAVEL (Ang.)       0.2146         C  6 -- C  8          +1.1% ( 10.8%)      0.2%
 REDUCED MASS        0.4690         C  2 -- C  8          +0.8% (  9.1%)     26.4%
 EFFECTIVE MASS      1.4644
 FORCE CONSTANT      2.6913

 VIBRATION         51   51A           ATOM PAIR      ENERGY CONTRIBUTION    RADIAL
 FREQUENCY          3139.41         C  6 -- H 17         +52.3% ( 73.7%)     99.9%
 TRANSITION DIPOLE   0.3741         C  8 -- H 15         +43.2% ( 67.0%)     99.9%
 TRAVEL (Ang.)       0.2135         C  6 -- C  8          +2.5% ( 16.0%)     99.8%
 REDUCED MASS        0.4711         C  1 -- C  6          +1.0% ( 10.3%)     19.5%
 EFFECTIVE MASS      1.6504
 FORCE CONSTANT      2.7354

      SYMMETRY NUMBER FOR POINT-GROUP C1  =  1


          SYSTEM IS A GROUND STATE



 InChI=1S/C9H10/c1-2-5-9-7-3-6-8(9)4-1/h1,3-6,8H,2,7H2


          MOLECULE IS NOT LINEAR

          THERE ARE 51 GENUINE VIBRATIONS IN THIS SYSTEM
          THIS THERMODYNAMICS CALCULATION IS LIMITED TO
          MOLECULES WHICH HAVE NO INTERNAL ROTATIONS




                    CALCULATED THERMODYNAMIC PROPERTIES
                                          *
   TEMP. (K)   PARTITION FUNCTION   H.O.F.    ENTHALPY  HEAT CAPACITY ENTROPY
                                   KCAL/MOL   CAL/MOLE    CAL/K/MOL  CAL/K/MOL


 298.00  VIB.     0.1364D+02                  2653.2221    23.1092    14.0957
         ROT.     0.3534D+06                   888.2803     2.9808    28.3679
         INT.     0.4819D+07                  3541.5024    26.0900    42.4636
         TRA.     0.1242D+28                  1480.4672     4.9680    40.2136
         TOT.                       40.302    5021.9695    31.0580    82.6772

 200.00  VIB.     0.3648D+01                   936.4581    12.2363     7.2540
         ROT.     0.1943D+06                   596.1613     2.9808    27.1792
         INT.     0.7088D+06                  1532.6194    15.2171    34.4333
         TRA.     0.6829D+27                   993.6021     4.9680    38.2325
         TOT.                       37.806    2526.2215    20.1851    72.6658

 210.00  VIB.     0.4111D+01                  1063.8099    13.2398     7.8752
         ROT.     0.2090D+06                   625.9693     2.9808    27.3247
         INT.     0.8595D+06                  1689.7793    16.2206    35.1999
         TRA.     0.7347D+27                  1043.2822     4.9680    38.4749
         TOT.                       38.013    2733.0615    21.1886    73.6748

 220.00  VIB.     0.4650D+01                  1201.3645    14.2764     8.5149
         ROT.     0.2242D+06                   655.7774     2.9808    27.4633
         INT.     0.1042D+07                  1857.1419    17.2572    35.9783
         TRA.     0.7878D+27                  1092.9623     4.9680    38.7060
         TOT.                       38.230    2950.1043    22.2252    74.6843

 230.00  VIB.     0.5278D+01                  1349.4382    15.3431     9.1730
         ROT.     0.2396D+06                   685.5855     2.9808    27.5958
         INT.     0.1265D+07                  2035.0237    18.3239    36.7688
         TRA.     0.8422D+27                  1142.6424     4.9680    38.9268
         TOT.                       38.457    3177.6661    23.2919    75.6956

 240.00  VIB.     0.6011D+01                  1508.3154    16.4365     9.8490
         ROT.     0.2554D+06                   715.3935     2.9808    27.7227
         INT.     0.1535D+07                  2223.7089    19.4173    37.5717
         TRA.     0.8977D+27                  1192.3226     4.9680    39.1383
         TOT.                       38.696    3416.0315    24.3853    76.7099

 250.00  VIB.     0.6869D+01                  1678.2446    17.5529    10.5425
         ROT.     0.2715D+06                   745.2016     2.9808    27.8444
         INT.     0.1865D+07                  2423.4462    20.5337    38.3869
         TRA.     0.9544D+27                  1242.0027     4.9680    39.3411
         TOT.                       38.945    3665.4488    25.5017    77.7280

 260.00  VIB.     0.7876D+01                  1859.4362    18.6883    11.2530
         ROT.     0.2880D+06                   775.0097     2.9808    27.9613
         INT.     0.2268D+07                  2634.4458    21.6691    39.2143
         TRA.     0.1012D+28                  1291.6828     4.9680    39.5359
         TOT.                       39.206    3926.1286    26.6371    78.7502

 270.00  VIB.     0.9060D+01                  2052.0615    19.8390    11.9798
         ROT.     0.3048D+06                   804.8177     2.9808    28.0738
         INT.     0.2761D+07                  2856.8792    22.8198    40.0536
         TRA.     0.1071D+28                  1341.3629     4.9680    39.7234
         TOT.                       39.478    4198.2421    27.7878    79.7770

 280.00  VIB.     0.1046D+02                  2256.2530    21.0009    12.7223
         ROT.     0.3218D+06                   834.6258     2.9808    28.1822
         INT.     0.3365D+07                  3090.8788    23.9817    40.9045
         TRA.     0.1131D+28                  1391.0430     4.9680    39.9041
         TOT.                       39.762    4481.9217    28.9497    80.8086

 290.00  VIB.     0.1210D+02                  2472.1049    22.1704    13.4796
         ROT.     0.3392D+06                   864.4339     2.9808    28.2868
         INT.     0.4106D+07                  3336.5387    25.1512    41.7664
         TRA.     0.1192D+28                  1440.7231     4.9680    40.0784
         TOT.                       40.057    4777.2618    30.1193    81.8449

 300.00  VIB.     0.1405D+02                  2699.6752    23.3440    14.2510
         ROT.     0.3569D+06                   894.2419     2.9808    28.3878
         INT.     0.5017D+07                  3593.9172    26.3248    42.6389
         TRA.     0.1255D+28                  1490.4032     4.9680    40.2469
         TOT.                       40.364    5084.3204    31.2929    82.8857

 310.00  VIB.     0.1637D+02                  2938.9881    24.5184    15.0356
         ROT.     0.3749D+06                   924.0500     2.9808    28.4856
         INT.     0.6137D+07                  3863.0380    27.4992    43.5212
         TRA.     0.1318D+28                  1540.0833     4.9680    40.4098
         TOT.                       40.683    5403.1213    32.4672    83.9310

 320.00  VIB.     0.1912D+02                  3190.0356    25.6905    15.8326
         ROT.     0.3932D+06                   953.8580     2.9808    28.5802
         INT.     0.7518D+07                  4143.8936    28.6713    44.4128
         TRA.     0.1382D+28                  1589.7634     4.9680    40.5675
         TOT.                       41.013    5733.6570    33.6393    84.9803

 330.00  VIB.     0.2240D+02                  3452.7813    26.8576    16.6410
         ROT.     0.4118D+06                   983.6661     2.9808    28.6719
         INT.     0.9223D+07                  4436.4474    29.8384    45.3129
         TRA.     0.1447D+28                  1639.4435     4.9680    40.7204
         TOT.                       41.356    6075.8909    34.8064    86.0333

 340.00  VIB.     0.2631D+02                  3727.1625    28.0172    17.4600
         ROT.     0.4307D+06                  1013.4742     2.9808    28.7609
         INT.     0.1133D+08                  4740.6367    30.9980    46.2209
         TRA.     0.1514D+28                  1689.1236     4.9680    40.8687
         TOT.                       41.709    6429.7603    35.9660    87.0896

 350.00  VIB.     0.3098D+02                  4013.0936    29.1672    18.2888
         ROT.     0.4498D+06                  1043.2822     2.9808    28.8473
         INT.     0.1393D+08                  5056.3758    32.1480    47.1361
         TRA.     0.1581D+28                  1738.8037     4.9680    41.0127
         TOT.                       42.075    6795.1795    37.1160    88.1488

 360.00  VIB.     0.3658D+02                  4310.4682    30.3057    19.1264
         ROT.     0.4692D+06                  1073.0903     2.9808    28.9313
         INT.     0.1716D+08                  5383.5585    33.2865    48.0577
         TRA.     0.1649D+28                  1788.4838     4.9680    41.1526
         TOT.                       42.452    7172.0424    38.2545    89.2104

 370.00  VIB.     0.4330D+02                  4619.1626    31.4309    19.9721
         ROT.     0.4889D+06                  1102.8984     2.9808    29.0130
         INT.     0.2117D+08                  5722.0610    34.4117    48.9851
         TRA.     0.1718D+28                  1838.1639     4.9680    41.2888
         TOT.                       42.840    7560.2249    39.3797    90.2739

 380.00  VIB.     0.5137D+02                  4939.0377    32.5416    20.8251
         ROT.     0.5088D+06                  1132.7064     2.9808    29.0925
         INT.     0.2614D+08                  6071.7441    35.5224    49.9176
         TRA.     0.1788D+28                  1887.8440     4.9680    41.4213
         TOT.                       43.239    7959.5881    40.4904    91.3389

 390.00  VIB.     0.6109D+02                  5269.9416    33.6365    21.6846
         ROT.     0.5291D+06                  1162.5145     2.9808    29.1699
         INT.     0.3232D+08                  6432.4561    36.6173    50.8545
         TRA.     0.1860D+28                  1937.5242     4.9680    41.5503
         TOT.                       43.650    8369.9802    41.5853    92.4048

 400.00  VIB.     0.7280D+02                  5611.7119    34.7147    22.5498
         ROT.     0.5495D+06                  1192.3226     2.9808    29.2454
         INT.     0.4001D+08                  6804.0344    37.6955    51.7952
         TRA.     0.1932D+28                  1987.2043     4.9680    41.6761
         TOT.                       44.071    8791.2387    42.6635    93.4713

   *: NOTE: HEATS OF FORMATION ARE RELATIVE TO THE
            ELEMENTS IN THEIR STANDARD STATE AT 298K
              (=  Standard Enthalpy of Formation).

            Hvib:  Zero-point energy is not included.
                   frequencies of less than zero cm-1 are not included.
            Hrot = (3/2)RT
            Htra = (3/2)RT + pV = (5/2)RT

            Heat capacity is Cp, not Cv

          For more information, see: HTTP://OpenMOPAC.net/Manual/thermochemistry.html


           FORCE CONSTANT IN CARTESIAN COORDINATES (Millidynes/A)

    ATOM   CHEMICAL       X               Y               Z
   NUMBER   SYMBOL  FORCE CONSTANT  FORCE CONSTANT  FORCE CONSTANT

      1       C        9.836377        9.131081        7.637672
      2       C        9.714866        8.086123        7.862373
      3       C        8.754625        9.160506        7.824680
      4       C        8.705613       16.751938        2.901668
      5       C        9.550810       15.260326        2.445868
      6       C       14.956666        8.658707        3.598341
      7       C        7.227951       15.129728        4.903100
      8       C       14.947197        8.810595        3.430370
      9       C        7.339347       15.032061        4.661565
     10       H        1.125118        0.757700        3.812580
     11       H        1.425258        0.723768        4.122063
     12       H        2.674080        1.340069        2.334581
     13       H        1.181016        0.779352        4.168938
     14       H        0.770064        3.881662        1.660341
     15       H        2.379743        3.239079        0.807992
     16       H        2.452506        2.178093        1.643147
     17       H        2.385244        3.103079        0.934340
     18       H        3.001887        1.766549        1.502014
     19       H        3.690806        2.223673        0.359912

 **********************
 *                    *
 * JOB ENDED NORMALLY *
 *                    *
 **********************



 TOTAL JOB TIME:             1.92 SECONDS

 == MOPAC DONE ==
