 *******************************************************************************
 **                                                                           **
 **                              MOPAC v23.1.2                                **
 **                                                                           **
 *******************************************************************************
 **          Digital Object Identifier (DOI): 10.5281/zenodo.6511958          **
 **    Visit the DOI location for information on how to cite this program.    **
 *******************************************************************************

                              PM3 CALCULATION RESULTS

 *******************************************************************************
 *  CALCULATION DONE: (MAX THREADS = 1)              Tue Jun  3 16:30:02 2025  *
 *  PM3        - The PM3 Hamiltonian to be used
 *  PRECISE    - TIGHTER CRITERIA TO BE USED
 *  NOSYM      - POINT-GROUP SYMMETRY SET TO C1
 *  THREADS=1  - MULTI-THREADING NOT USED
 *  T=         - A TIME OF 172800.0 SECONDS REQUESTED
 *  DUMP=N     - RESTART FILE WRITTEN EVERY 7200.0 SECONDS REQUESTED
 *******************************************************************************
pm3  precise nosym THREADS=1
 InChI=1S/C9H12/c1-2-6-9-7-4-3-5-8-9/h4-8H,2-3H2,1H3

   ATOM   CHEMICAL          X               Y               Z
  NUMBER   SYMBOL      (ANGSTROMS)     (ANGSTROMS)     (ANGSTROMS)

     1       C         -2.26600000  *  -0.46660000  *  -0.55100000  *
     2       C          2.85340000  *   0.41110000  *   0.45220000  *
     3       C         -2.81310000  *   0.85850000  *  -0.02610000  *
     4       C          0.10090000  *  -0.54020000  *   0.33680000  *
     5       C         -1.16700000  *  -0.99430000  *   0.33270000  *
     6       C          2.33990000  *  -0.71460000  *   1.31400000  *
     7       C          1.83710000  *   0.96550000  *  -0.51440000  *
     8       C          1.07710000  *  -1.14450000  *   1.26570000  *
     9       C          0.57340000  *   0.53660000  *  -0.56420000  *
    10       H         -3.09710000  *  -1.20430000  *  -0.55860000  *
    11       H         -1.91670000  *  -0.36130000  *  -1.59980000  *
    12       H          3.19900000  *   1.23360000  *   1.11280000  *
    13       H          3.72670000  *   0.04310000  *  -0.12600000  *
    14       H         -2.02280000  *   1.63710000  *  -0.00640000  *
    15       H         -3.21560000  *   0.72610000  *   1.00100000  *
    16       H         -3.63490000  *   1.20730000  *  -0.68630000  *
    17       H         -1.43450000  *  -1.80870000  *   0.99700000  *
    18       H          3.02580000  *  -1.18060000  *   2.01050000  *
    19       H          2.14920000  *   1.75450000  *  -1.18740000  *
    20       H          0.77470000  *  -1.95110000  *   1.92360000  *
    21       H         -0.08930000  *   0.99280000  *  -1.28650000  *



          CARTESIAN COORDINATES 

    NO.       ATOM           X           Y           Z

     1         C         -2.2660     -0.4666     -0.5510
     2         C          2.8534      0.4111      0.4522
     3         C         -2.8131      0.8585     -0.0261
     4         C          0.1009     -0.5402      0.3368
     5         C         -1.1670     -0.9943      0.3327
     6         C          2.3399     -0.7146      1.3140
     7         C          1.8371      0.9655     -0.5144
     8         C          1.0771     -1.1445      1.2657
     9         C          0.5734      0.5366     -0.5642
    10         H         -3.0971     -1.2043     -0.5586
    11         H         -1.9167     -0.3613     -1.5998
    12         H          3.1990      1.2336      1.1128
    13         H          3.7267      0.0431     -0.1260
    14         H         -2.0228      1.6371     -0.0064
    15         H         -3.2156      0.7261      1.0010
    16         H         -3.6349      1.2073     -0.6863
    17         H         -1.4345     -1.8087      0.9970
    18         H          3.0258     -1.1806      2.0105
    19         H          2.1492      1.7545     -1.1874
    20         H          0.7747     -1.9511      1.9236
    21         H         -0.0893      0.9928     -1.2865

  H: (PM3): J. J. P. STEWART, J. COMP. CHEM. 10, 209 (1989).
  C: (PM3): J. J. P. STEWART, J. COMP. CHEM. 10, 209 (1989).

           Empirical Formula: C9 H12  =    21 atoms



      MOLECULAR POINT GROUP   :   C1  


      RHF CALCULATION, NO. OF DOUBLY OCCUPIED LEVELS = 24


          Geometry optimization using EF

          DIAGONAL MATRIX USED AS START HESSIAN

 CYCLE:     1 TIME:   0.004 TIME LEFT:  2.00D  GRAD.:    72.063 HEAT:  28.80483
 CYCLE:     2 TIME:   0.016 TIME LEFT:  2.00D  GRAD.:    30.200 HEAT:  27.23567
 CYCLE:     3 TIME:   0.008 TIME LEFT:  2.00D  GRAD.:    42.851 HEAT:  27.01593
 CYCLE:     4 TIME:   0.012 TIME LEFT:  2.00D  GRAD.:    30.846 HEAT:  26.68672
 CYCLE:     5 TIME:   0.004 TIME LEFT:  2.00D  GRAD.:    26.045 HEAT:  26.44407
 CYCLE:     6 TIME:   0.012 TIME LEFT:  2.00D  GRAD.:    20.629 HEAT:  26.31073
 CYCLE:     7 TIME:   0.008 TIME LEFT:  2.00D  GRAD.:    20.699 HEAT:  26.26408
 CYCLE:     8 TIME:   0.004 TIME LEFT:  2.00D  GRAD.:    26.841 HEAT:  26.24817
 CYCLE:     9 TIME:   0.008 TIME LEFT:  2.00D  GRAD.:    23.488 HEAT:  26.20297
 CYCLE:    10 TIME:   0.012 TIME LEFT:  2.00D  GRAD.:     8.978 HEAT:  26.08138
 CYCLE:    11 TIME:   0.008 TIME LEFT:  2.00D  GRAD.:     8.950 HEAT:  26.07102
 CYCLE:    12 TIME:   0.008 TIME LEFT:  2.00D  GRAD.:     7.179 HEAT:  26.05544
 CYCLE:    13 TIME:   0.008 TIME LEFT:  2.00D  GRAD.:     6.391 HEAT:  26.04616
 CYCLE:    14 TIME:   0.008 TIME LEFT:  2.00D  GRAD.:     5.118 HEAT:  26.03912
 CYCLE:    15 TIME:   0.004 TIME LEFT:  2.00D  GRAD.:     6.669 HEAT:  26.03812
 CYCLE:    16 TIME:   0.012 TIME LEFT:  2.00D  GRAD.:     3.989 HEAT:  26.02993
 CYCLE:    17 TIME:   0.004 TIME LEFT:  2.00D  GRAD.:     6.535 HEAT:  26.03402
 CYCLE:    18 TIME:   0.008 TIME LEFT:  2.00D  GRAD.:     2.947 HEAT:  26.02411
 CYCLE:    19 TIME:   0.008 TIME LEFT:  2.00D  GRAD.:     4.084 HEAT:  26.02438
 CYCLE:    20 TIME:   0.008 TIME LEFT:  2.00D  GRAD.:     2.629 HEAT:  26.01966
 CYCLE:    21 TIME:   0.008 TIME LEFT:  2.00D  GRAD.:     7.026 HEAT:  26.02718
 CYCLE:    22 TIME:   0.004 TIME LEFT:  2.00D  GRAD.:     2.150 HEAT:  26.01289
 CYCLE:    23 TIME:   0.008 TIME LEFT:  2.00D  GRAD.:     5.771 HEAT:  26.01428
 CYCLE:    24 TIME:   0.008 TIME LEFT:  2.00D  GRAD.:     1.775 HEAT:  26.00452
 CYCLE:    25 TIME:   0.004 TIME LEFT:  2.00D  GRAD.:     3.530 HEAT:  25.99901
 CYCLE:    26 TIME:   0.008 TIME LEFT:  2.00D  GRAD.:     5.230 HEAT:  25.99108
 CYCLE:    27 TIME:   0.008 TIME LEFT:  2.00D  GRAD.:     3.454 HEAT:  25.98511
 CYCLE:    28 TIME:   0.004 TIME LEFT:  2.00D  GRAD.:     3.776 HEAT:  25.97964
 CYCLE:    29 TIME:   0.008 TIME LEFT:  2.00D  GRAD.:     3.270 HEAT:  25.97334
 CYCLE:    30 TIME:   0.008 TIME LEFT:  2.00D  GRAD.:     2.207 HEAT:  25.96574
 CYCLE:    31 TIME:   0.008 TIME LEFT:  2.00D  GRAD.:     4.361 HEAT:  25.95112
 CYCLE:    32 TIME:   0.004 TIME LEFT:  2.00D  GRAD.:     4.041 HEAT:  25.93648
 CYCLE:    33 TIME:   0.008 TIME LEFT:  2.00D  GRAD.:     4.833 HEAT:  25.89937
 CYCLE:    34 TIME:   0.004 TIME LEFT:  2.00D  GRAD.:     7.732 HEAT:  25.80858
 CYCLE:    35 TIME:   0.008 TIME LEFT:  2.00D  GRAD.:    15.126 HEAT:  25.69647
 CYCLE:    36 TIME:   0.016 TIME LEFT:  2.00D  GRAD.:    12.869 HEAT:  25.68849
 CYCLE:    37 TIME:   0.012 TIME LEFT:  2.00D  GRAD.:    16.134 HEAT:  25.66844
 CYCLE:    38 TIME:   0.004 TIME LEFT:  2.00D  GRAD.:     3.978 HEAT:  25.54564
 CYCLE:    39 TIME:   0.008 TIME LEFT:  2.00D  GRAD.:     5.138 HEAT:  25.48301
 CYCLE:    40 TIME:   0.008 TIME LEFT:  2.00D  GRAD.:     6.491 HEAT:  25.44241
 CYCLE:    41 TIME:   0.008 TIME LEFT:  2.00D  GRAD.:     3.628 HEAT:  25.40372
 CYCLE:    42 TIME:   0.004 TIME LEFT:  2.00D  GRAD.:     6.311 HEAT:  25.39843
 CYCLE:    43 TIME:   0.008 TIME LEFT:  2.00D  GRAD.:     3.662 HEAT:  25.36793
 CYCLE:    44 TIME:   0.008 TIME LEFT:  2.00D  GRAD.:     3.064 HEAT:  25.34628
 CYCLE:    45 TIME:   0.004 TIME LEFT:  2.00D  GRAD.:     3.551 HEAT:  25.32062
 CYCLE:    46 TIME:   0.008 TIME LEFT:  2.00D  GRAD.:     3.744 HEAT:  25.29130
 CYCLE:    47 TIME:   0.008 TIME LEFT:  2.00D  GRAD.:     4.039 HEAT:  25.26503
 CYCLE:    48 TIME:   0.004 TIME LEFT:  2.00D  GRAD.:     4.622 HEAT:  25.22990
 CYCLE:    49 TIME:   0.008 TIME LEFT:  2.00D  GRAD.:     4.097 HEAT:  25.18600
 CYCLE:    50 TIME:   0.004 TIME LEFT:  2.00D  GRAD.:     3.809 HEAT:  25.13041
 CYCLE:    51 TIME:   0.008 TIME LEFT:  2.00D  GRAD.:     3.720 HEAT:  25.09208
 CYCLE:    52 TIME:   0.008 TIME LEFT:  2.00D  GRAD.:     3.645 HEAT:  25.05935
 CYCLE:    53 TIME:   0.008 TIME LEFT:  2.00D  GRAD.:     4.002 HEAT:  25.02606
 CYCLE:    54 TIME:   0.004 TIME LEFT:  2.00D  GRAD.:     4.041 HEAT:  24.99205
 CYCLE:    55 TIME:   0.008 TIME LEFT:  2.00D  GRAD.:     3.259 HEAT:  24.96627
 CYCLE:    56 TIME:   0.012 TIME LEFT:  2.00D  GRAD.:     4.273 HEAT:  24.95217
 CYCLE:    57 TIME:   0.004 TIME LEFT:  2.00D  GRAD.:     3.276 HEAT:  24.93306
 CYCLE:    58 TIME:   0.008 TIME LEFT:  2.00D  GRAD.:     2.640 HEAT:  24.91652
 CYCLE:    59 TIME:   0.008 TIME LEFT:  2.00D  GRAD.:     1.880 HEAT:  24.89302
 CYCLE:    60 TIME:   0.008 TIME LEFT:  2.00D  GRAD.:     1.630 HEAT:  24.88736
 CYCLE:    61 TIME:   0.004 TIME LEFT:  2.00D  GRAD.:     1.615 HEAT:  24.88106
 CYCLE:    62 TIME:   0.008 TIME LEFT:  2.00D  GRAD.:     1.728 HEAT:  24.87509
 CYCLE:    63 TIME:   0.008 TIME LEFT:  2.00D  GRAD.:     2.179 HEAT:  24.86472
 CYCLE:    64 TIME:   0.004 TIME LEFT:  2.00D  GRAD.:     2.477 HEAT:  24.85262
 CYCLE:    65 TIME:   0.008 TIME LEFT:  2.00D  GRAD.:     2.579 HEAT:  24.83988
 CYCLE:    66 TIME:   0.008 TIME LEFT:  2.00D  GRAD.:     2.776 HEAT:  24.82810
 CYCLE:    67 TIME:   0.008 TIME LEFT:  2.00D  GRAD.:     2.362 HEAT:  24.81763
 CYCLE:    68 TIME:   0.004 TIME LEFT:  2.00D  GRAD.:     2.106 HEAT:  24.80639
 CYCLE:    69 TIME:   0.008 TIME LEFT:  2.00D  GRAD.:     2.224 HEAT:  24.79443
 CYCLE:    70 TIME:   0.008 TIME LEFT:  2.00D  GRAD.:     2.777 HEAT:  24.77849
 CYCLE:    71 TIME:   0.004 TIME LEFT:  2.00D  GRAD.:     3.282 HEAT:  24.75739
 CYCLE:    72 TIME:   0.008 TIME LEFT:  2.00D  GRAD.:     3.325 HEAT:  24.73014
 CYCLE:    73 TIME:   0.008 TIME LEFT:  2.00D  GRAD.:     2.600 HEAT:  24.71700
 CYCLE:    74 TIME:   0.008 TIME LEFT:  2.00D  GRAD.:     3.859 HEAT:  24.70717
 CYCLE:    75 TIME:   0.004 TIME LEFT:  2.00D  GRAD.:     1.951 HEAT:  24.69694
 CYCLE:    76 TIME:   0.008 TIME LEFT:  2.00D  GRAD.:     1.768 HEAT:  24.68914
 CYCLE:    77 TIME:   0.004 TIME LEFT:  2.00D  GRAD.:     2.199 HEAT:  24.67916
 CYCLE:    78 TIME:   0.008 TIME LEFT:  2.00D  GRAD.:     2.098 HEAT:  24.67330
 CYCLE:    79 TIME:   0.008 TIME LEFT:  2.00D  GRAD.:     1.821 HEAT:  24.66708
 CYCLE:    80 TIME:   0.008 TIME LEFT:  2.00D  GRAD.:     1.797 HEAT:  24.66146
 CYCLE:    81 TIME:   0.008 TIME LEFT:  2.00D  GRAD.:     2.694 HEAT:  24.64625
 CYCLE:    82 TIME:   0.004 TIME LEFT:  2.00D  GRAD.:     3.306 HEAT:  24.62921
 CYCLE:    83 TIME:   0.008 TIME LEFT:  2.00D  GRAD.:     5.060 HEAT:  24.60282
 CYCLE:    84 TIME:   0.008 TIME LEFT:  2.00D  GRAD.:     5.303 HEAT:  24.58583
 CYCLE:    85 TIME:   0.008 TIME LEFT:  2.00D  GRAD.:     2.730 HEAT:  24.56147
 CYCLE:    86 TIME:   0.004 TIME LEFT:  2.00D  GRAD.:     3.596 HEAT:  24.54149
 CYCLE:    87 TIME:   0.008 TIME LEFT:  2.00D  GRAD.:     3.216 HEAT:  24.52818
 CYCLE:    88 TIME:   0.008 TIME LEFT:  2.00D  GRAD.:     2.531 HEAT:  24.50899
 CYCLE:    89 TIME:   0.008 TIME LEFT:  2.00D  GRAD.:     3.391 HEAT:  24.49616
 CYCLE:    90 TIME:   0.008 TIME LEFT:  2.00D  GRAD.:     1.744 HEAT:  24.48719
 CYCLE:    91 TIME:   0.008 TIME LEFT:  2.00D  GRAD.:     1.755 HEAT:  24.48140
 CYCLE:    92 TIME:   0.008 TIME LEFT:  2.00D  GRAD.:     1.710 HEAT:  24.47577
 CYCLE:    93 TIME:   0.004 TIME LEFT:  2.00D  GRAD.:     1.363 HEAT:  24.47275
 CYCLE:    94 TIME:   0.008 TIME LEFT:  2.00D  GRAD.:     1.451 HEAT:  24.46852
 CYCLE:    95 TIME:   0.008 TIME LEFT:  2.00D  GRAD.:     1.227 HEAT:  24.46706
 CYCLE:    96 TIME:   0.008 TIME LEFT:  2.00D  GRAD.:     0.997 HEAT:  24.46480
 CYCLE:    97 TIME:   0.008 TIME LEFT:  2.00D  GRAD.:     0.758 HEAT:  24.46187
 CYCLE:    98 TIME:   0.008 TIME LEFT:  2.00D  GRAD.:     0.855 HEAT:  24.46028
 CYCLE:    99 TIME:   0.008 TIME LEFT:  2.00D  GRAD.:     0.771 HEAT:  24.45856
 CYCLE:   100 TIME:   0.008 TIME LEFT:  2.00D  GRAD.:     0.791 HEAT:  24.45671
 CYCLE:   101 TIME:   0.008 TIME LEFT:  2.00D  GRAD.:     1.134 HEAT:  24.45497
 CYCLE:   102 TIME:   0.004 TIME LEFT:  2.00D  GRAD.:     1.149 HEAT:  24.45308
 CYCLE:   103 TIME:   0.008 TIME LEFT:  2.00D  GRAD.:     1.111 HEAT:  24.45059
 CYCLE:   104 TIME:   0.008 TIME LEFT:  2.00D  GRAD.:     1.038 HEAT:  24.44730
 CYCLE:   105 TIME:   0.008 TIME LEFT:  2.00D  GRAD.:     1.041 HEAT:  24.44557
 CYCLE:   106 TIME:   0.004 TIME LEFT:  2.00D  GRAD.:     1.101 HEAT:  24.44340
 CYCLE:   107 TIME:   0.008 TIME LEFT:  2.00D  GRAD.:     0.914 HEAT:  24.44126
 CYCLE:   108 TIME:   0.008 TIME LEFT:  2.00D  GRAD.:     0.845 HEAT:  24.43914
 CYCLE:   109 TIME:   0.004 TIME LEFT:  2.00D  GRAD.:     0.672 HEAT:  24.43782
 CYCLE:   110 TIME:   0.008 TIME LEFT:  2.00D  GRAD.:     0.498 HEAT:  24.43698
 CYCLE:   111 TIME:   0.008 TIME LEFT:  2.00D  GRAD.:     0.324 HEAT:  24.43666
 CYCLE:   112 TIME:   0.004 TIME LEFT:  2.00D  GRAD.:     0.278 HEAT:  24.43645
 CYCLE:   113 TIME:   0.008 TIME LEFT:  2.00D  GRAD.:     0.222 HEAT:  24.43634
 CYCLE:   114 TIME:   0.008 TIME LEFT:  2.00D  GRAD.:     0.140 HEAT:  24.43627
 CYCLE:   115 TIME:   0.008 TIME LEFT:  2.00D  GRAD.:     0.135 HEAT:  24.43624
 CYCLE:   116 TIME:   0.004 TIME LEFT:  2.00D  GRAD.:     0.185 HEAT:  24.43623
 CYCLE:   117 TIME:   0.008 TIME LEFT:  2.00D  GRAD.:     0.145 HEAT:  24.43621
 CYCLE:   118 TIME:   0.008 TIME LEFT:  2.00D  GRAD.:     0.160 HEAT:  24.43618
 CYCLE:   119 TIME:   0.004 TIME LEFT:  2.00D  GRAD.:     0.137 HEAT:  24.43614
 CYCLE:   120 TIME:   0.008 TIME LEFT:  2.00D  GRAD.:     0.120 HEAT:  24.43608
 CYCLE:   121 TIME:   0.008 TIME LEFT:  2.00D  GRAD.:     0.157 HEAT:  24.43599
 CYCLE:   122 TIME:   0.004 TIME LEFT:  2.00D  GRAD.:     0.290 HEAT:  24.43597
 CYCLE:   123 TIME:   0.008 TIME LEFT:  2.00D  GRAD.:     0.200 HEAT:  24.43587
 CYCLE:   124 TIME:   0.008 TIME LEFT:  2.00D  GRAD.:     0.091 HEAT:  24.43578
 CYCLE:   125 TIME:   0.004 TIME LEFT:  2.00D  GRAD.:     0.104 HEAT:  24.43571
 CYCLE:   126 TIME:   0.008 TIME LEFT:  2.00D  GRAD.:     0.140 HEAT:  24.43563
 CYCLE:   127 TIME:   0.008 TIME LEFT:  2.00D  GRAD.:     0.100 HEAT:  24.43561
 CYCLE:   128 TIME:   0.004 TIME LEFT:  2.00D  GRAD.:     0.097 HEAT:  24.43560
 CYCLE:   129 TIME:   0.008 TIME LEFT:  2.00D  GRAD.:     0.044 HEAT:  24.43559

     GRADIENT =  0.04375 IS LESS THAN CUTOFF =  0.05000



 -------------------------------------------------------------------------------
 pm3  precise nosym THREADS=1
 InChI=1S/C9H12/c1-2-6-9-7-4-3-5-8-9/h4-8H,2-3H2,1H3



     GEOMETRY OPTIMISED USING EIGENVECTOR FOLLOWING (EF).     
     SCF FIELD WAS ACHIEVED                                   


                              PM3 CALCULATION
                                                       MOPAC v23.1.2 MacOS
                                                       Tue Jun  3 16:30:03 2025




          FINAL HEAT OF FORMATION =         24.43559 KCAL/MOL =     102.23851 KJ/MOL


          COSMO AREA              =        174.14 SQUARE ANGSTROMS
          COSMO VOLUME            =        169.12 CUBIC ANGSTROMS

          GRADIENT NORM           =          0.04375          =       0.00955 PER ATOM
          IONIZATION POTENTIAL    =          8.471690 EV
          HOMO LUMO ENERGIES (EV) =         -8.472 -0.051
          NO. OF FILLED LEVELS    =         24
          MOLECULAR WEIGHT        =        120.1938         POINT GROUP:  C1  

          MOLECULAR DIMENSIONS (Angstroms)

            Atom       Atom       Distance
            H    16    H    13     7.98714
            H    20    H    19     4.86499
            H    10    H    12     3.33183


          SCF CALCULATIONS        =        143

          WALL-CLOCK TIME         =      0.930 SECONDS
          COMPUTATION TIME        =      0.587 SECONDS




   ATOM   CHEMICAL          X               Y               Z
  NUMBER   SYMBOL      (ANGSTROMS)     (ANGSTROMS)     (ANGSTROMS)

     1       C         -2.15214252  *  -0.14450562  *  -0.59443832  *
     2       C          3.01424013  *   0.17775116  *   0.33408739  *
     3       C         -3.35990543  *   0.45170313  *   0.09571958  *
     4       C          0.15060285  *  -0.36784095  *   0.37052996  *
     5       C         -1.16442778  *  -0.65795934  *   0.38953105  *
     6       C          2.36805080  *  -0.69034364  *   1.35101080  *
     7       C          2.06555688  *   0.76614347  *  -0.64518851  *
     8       C          1.05372873  *  -0.93830548  *   1.36690280  *
     9       C          0.75287318  *   0.51330604  *  -0.62447183  *
    10       H         -2.45945298  *  -0.98424628  *  -1.24994333  *
    11       H         -1.68232701  *   0.60677502  *  -1.26885430  *
    12       H          3.56172543  *   0.99526797  *   0.84734291  *
    13       H          3.78312488  *  -0.40889426  *  -0.21025933  *
    14       H         -3.08388840  *   1.30964681  *   0.72221651  *
    15       H         -3.85889149  *  -0.27948584  *   0.74555143  *
    16       H         -4.10026736  *   0.80204284  *  -0.63465356  *
    17       H         -1.56751711  *  -1.31896125  *   1.16819234  *
    18       H          3.03188039  *  -1.12848389  *   2.10453630  *
    19       H          2.49845925  *   1.43140171  *  -1.40034202  *
    20       H          0.61120449  *  -1.58453236  *   2.13424649  *
    21       H          0.06462359  *   0.96290847  *  -1.35717029  *

                             CARTESIAN COORDINATES

   1    C       -2.152142521    -0.144505615    -0.594438323
   2    C        3.014240131     0.177751155     0.334087387
   3    C       -3.359905432     0.451703135     0.095719584
   4    C        0.150602853    -0.367840947     0.370529961
   5    C       -1.164427776    -0.657959343     0.389531048
   6    C        2.368050801    -0.690343636     1.351010799
   7    C        2.065556877     0.766143472    -0.645188511
   8    C        1.053728727    -0.938305481     1.366902804
   9    C        0.752873178     0.513306036    -0.624471834
  10    H       -2.459452976    -0.984246277    -1.249943329
  11    H       -1.682327012     0.606775019    -1.268854298
  12    H        3.561725434     0.995267966     0.847342907
  13    H        3.783124883    -0.408894259    -0.210259333
  14    H       -3.083888396     1.309646806     0.722216510
  15    H       -3.858891485    -0.279485845     0.745551425
  16    H       -4.100267355     0.802042836    -0.634653556
  17    H       -1.567517105    -1.318961248     1.168192339
  18    H        3.031880388    -1.128483891     2.104536301
  19    H        2.498459246     1.431401711    -1.400342024
  20    H        0.611204493    -1.584532358     2.134246493
  21    H        0.064623586     0.962908465    -1.357170293


           Empirical Formula: C9 H12  =    21 atoms



      MOLECULAR POINT GROUP   :   C1  


                  EIGENVALUES  
 -40.05802 -35.87326 -30.49066 -29.89043 -25.31968 -22.55519 -21.00551 -19.31778
 -17.80113 -16.47235 -15.81522 -15.27254 -14.89135 -14.68675 -14.44310 -13.87263
 -13.40403 -13.00634 -12.49941 -12.10223 -11.65136 -11.34627 -10.34439  -8.47169
  -0.05111   1.10276   2.50280   3.21859   3.35191   3.43044   3.58939   3.67467
   3.84362   3.91315   4.05492   4.17943   4.27879   4.34634   4.42635   4.66440
   4.75721   4.86173   5.13921   5.28155   5.48142   5.56454   6.32261   6.34098


              NET ATOMIC CHARGES AND DIPOLE CONTRIBUTIONS

  ATOM NO.   TYPE          CHARGE      No. of ELECS.   s-Pop       p-Pop       
    1          C          -0.068324        4.0683     1.14583     2.92250
    2          C          -0.025705        4.0257     1.13189     2.89381
    3          C          -0.104227        4.1042     1.13734     2.96688
    4          C          -0.053300        4.0533     1.16535     2.88795
    5          C          -0.133547        4.1335     1.19687     2.93667
    6          C          -0.137797        4.1378     1.19489     2.94291
    7          C          -0.132197        4.1322     1.19412     2.93807
    8          C          -0.099432        4.0994     1.17925     2.92018
    9          C          -0.107451        4.1075     1.17896     2.92850
   10          H           0.055386        0.9446     0.94461
   11          H           0.058086        0.9419     0.94191
   12          H           0.063569        0.9364     0.93643
   13          H           0.064048        0.9360     0.93595
   14          H           0.040918        0.9591     0.95908
   15          H           0.037800        0.9622     0.96220
   16          H           0.036520        0.9635     0.96348
   17          H           0.100628        0.8994     0.89937
   18          H           0.097954        0.9020     0.90205
   19          H           0.097751        0.9022     0.90225
   20          H           0.100826        0.8992     0.89917
   21          H           0.108495        0.8915     0.89150
 DIPOLE           X         Y         Z       TOTAL
 POINT-CHG.     0.227     0.140    -0.157     0.309
 HYBRID         0.027    -0.029     0.049     0.063
 SUM            0.254     0.111    -0.108     0.297


          ATOMIC ORBITAL ELECTRON POPULATIONS

     Atom    s        px        py        pz   
    1  C   1.14583   0.95487   1.00025   0.96737
    2  C   1.13189   0.96548   0.97621   0.95212
    3  C   1.13734   0.96705   1.00195   0.99788
    4  C   1.16535   0.94044   0.98410   0.96342
    5  C   1.19687   0.94318   0.99946   0.99402
    6  C   1.19489   0.96405   0.99189   0.98696
    7  C   1.19412   0.95657   0.99475   0.98675
    8  C   1.17925   0.94494   0.99709   0.97815
    9  C   1.17896   0.95622   0.98903   0.98325
   10  H   0.94461
   11  H   0.94191
   12  H   0.93643
   13  H   0.93595
   14  H   0.95908
   15  H   0.96220
   16  H   0.96348
   17  H   0.89937
   18  H   0.90205
   19  H   0.90225
   20  H   0.89917
   21  H   0.89150
 *******************************************************************************
 **                                                                           **
 **                              MOPAC v23.1.2                                **
 **                                                                           **
 *******************************************************************************
 **          Digital Object Identifier (DOI): 10.5281/zenodo.6511958          **
 **    Visit the DOI location for information on how to cite this program.    **
 *******************************************************************************

                              PM3 CALCULATION RESULTS

 *******************************************************************************
 *  CALCULATION DONE: (MAX THREADS = 1)              Tue Jun  3 16:30:03 2025  *
 *  PM3        - The PM3 Hamiltonian to be used
 *  OLDGEO     - PREVIOUS GEOMETRY TO BE USED
 *  PRECISE    - TIGHTER CRITERIA TO BE USED
 *  NOSYM      - POINT-GROUP SYMMETRY SET TO C1
 *  THREADS=1  - MULTI-THREADING NOT USED
 *  T=         - A TIME OF 172800.0 SECONDS REQUESTED
 *  DUMP=N     - RESTART FILE WRITTEN EVERY 7200.0 SECONDS REQUESTED
 *  THERMO     - THERMODYNAMIC QUANTITIES TO BE CALCULATED
 *******************************************************************************
oldgeo thermo nosym precise THREADS=1  pm3
 InChI=1S/C9H12/c1-2-6-9-7-4-3-5-8-9/h4-8H,2-3H2,1H3

   ATOM   CHEMICAL          X               Y               Z
  NUMBER   SYMBOL      (ANGSTROMS)     (ANGSTROMS)     (ANGSTROMS)

     1       C         -2.15214252  *  -0.14450562  *  -0.59443832  *
     2       C          3.01424013  *   0.17775116  *   0.33408739  *
     3       C         -3.35990543  *   0.45170313  *   0.09571958  *
     4       C          0.15060285  *  -0.36784095  *   0.37052996  *
     5       C         -1.16442778  *  -0.65795934  *   0.38953105  *
     6       C          2.36805080  *  -0.69034364  *   1.35101080  *
     7       C          2.06555688  *   0.76614347  *  -0.64518851  *
     8       C          1.05372873  *  -0.93830548  *   1.36690280  *
     9       C          0.75287318  *   0.51330604  *  -0.62447183  *
    10       H         -2.45945298  *  -0.98424628  *  -1.24994333  *
    11       H         -1.68232701  *   0.60677502  *  -1.26885430  *
    12       H          3.56172543  *   0.99526797  *   0.84734291  *
    13       H          3.78312488  *  -0.40889426  *  -0.21025933  *
    14       H         -3.08388840  *   1.30964681  *   0.72221651  *
    15       H         -3.85889149  *  -0.27948584  *   0.74555143  *
    16       H         -4.10026736  *   0.80204284  *  -0.63465356  *
    17       H         -1.56751711  *  -1.31896125  *   1.16819234  *
    18       H          3.03188039  *  -1.12848389  *   2.10453630  *
    19       H          2.49845925  *   1.43140171  *  -1.40034202  *
    20       H          0.61120449  *  -1.58453236  *   2.13424649  *
    21       H          0.06462359  *   0.96290847  *  -1.35717029  *



          CARTESIAN COORDINATES 

    NO.       ATOM           X           Y           Z

     1         C         -2.1521     -0.1445     -0.5944
     2         C          3.0142      0.1778      0.3341
     3         C         -3.3599      0.4517      0.0957
     4         C          0.1506     -0.3678      0.3705
     5         C         -1.1644     -0.6580      0.3895
     6         C          2.3681     -0.6903      1.3510
     7         C          2.0656      0.7661     -0.6452
     8         C          1.0537     -0.9383      1.3669
     9         C          0.7529      0.5133     -0.6245
    10         H         -2.4595     -0.9842     -1.2499
    11         H         -1.6823      0.6068     -1.2689
    12         H          3.5617      0.9953      0.8473
    13         H          3.7831     -0.4089     -0.2103
    14         H         -3.0839      1.3096      0.7222
    15         H         -3.8589     -0.2795      0.7456
    16         H         -4.1003      0.8020     -0.6347
    17         H         -1.5675     -1.3190      1.1682
    18         H          3.0319     -1.1285      2.1045
    19         H          2.4985      1.4314     -1.4003
    20         H          0.6112     -1.5845      2.1342
    21         H          0.0646      0.9629     -1.3572

  H: (PM3): J. J. P. STEWART, J. COMP. CHEM. 10, 209 (1989).
  C: (PM3): J. J. P. STEWART, J. COMP. CHEM. 10, 209 (1989).

           Empirical Formula: C9 H12  =    21 atoms



      MOLECULAR POINT GROUP   :   C1  


      RHF CALCULATION, NO. OF DOUBLY OCCUPIED LEVELS = 24



          HEAT OF FORMATION =      24.435589 KCALS/MOLE


          CARTESIAN COORDINATE DERIVATIVES

   NUMBER  ATOM         X            Y            Z

     1       C     -0.005661    -0.002710     0.006659
     2       C     -0.011325     0.006679    -0.006404
     3       C      0.002086     0.005132     0.003279
     4       C     -0.000950     0.000128    -0.004645
     5       C     -0.009483    -0.000888    -0.000079
     6       C     -0.013317     0.000724     0.008673
     7       C     -0.015342     0.000218     0.000976
     8       C      0.007875    -0.000627    -0.000114
     9       C     -0.000268     0.002243    -0.003087
    10       H      0.008138     0.001713    -0.001712
    11       H      0.004792    -0.000866    -0.002536
    12       H      0.014345     0.004133    -0.003872
    13       H      0.000190    -0.000789    -0.001446
    14       H     -0.002820    -0.002583    -0.002446
    15       H      0.002522    -0.002408    -0.001746
    16       H     -0.004528     0.003621    -0.003397
    17       H      0.003369    -0.001472     0.007809
    18       H      0.004795    -0.003394     0.003489
    19       H      0.001735    -0.005670     0.008382
    20       H      0.004141    -0.000606    -0.003937
    21       H      0.009706    -0.002579    -0.003844



          GRADIENT NORM =   0.04264

          MOLECULAR WEIGHT =  120.19



          ROTATIONAL CONSTANTS IN CM(-1)

          A =    0.14053097   B =    0.02984582   C =    0.02566388



           PRINCIPAL MOMENTS OF INERTIA IN UNITS OF 10**(-40)*GRAM-CM**2

          A =      199.1928   B =      937.9121   C =     1090.7449


          ORIENTATION OF MOLECULE IN FORCE CALCULATION

    NO.       ATOM         X         Y         Z

     1          C      -2.5027   -0.2453   -0.2991
     2          C       2.7563   -0.2453   -0.2991
     3          C      -3.5308    0.8653   -0.2991
     4          C      -0.0838   -0.0306    0.3227
     5          C      -1.3901    0.0463    0.6414
     6          C       2.2479    0.1526    1.0382
     7          C       1.6875   -0.4957   -1.2992
     8          C       0.9443    0.2520    1.3211
     9          C       0.3861   -0.3958   -1.0095
    10          H      -2.9718   -1.2035    0.0028
    11          H      -2.1142   -0.4124   -1.3292
    12          H       3.4349    0.5452   -0.6813
    13          H       3.3796   -1.1577   -0.1953
    14          H      -3.0965    1.8171   -0.6311
    15          H      -3.9511    1.0302    0.7019
    16          H      -4.3656    0.6319   -0.9721
    17          H      -1.6891    0.3369    1.6572
    18          H       3.0062    0.3658    1.7997
    19          H       2.0202   -0.7706   -2.3061
    20          H       0.6055    0.5495    2.3206
    21          H      -0.3918   -0.5814   -1.7665


    FIRST DERIVATIVES WILL BE USED IN THE CALCULATION OF SECOND DERIVATIVES

          ESTIMATED TIME TO COMPLETE CALCULATION =        1.97 SECONDS

    FOR POINT-GROUP C1   THERE ARE   1 UNIQUE SYMMETRY FUNCTIONS.

 STEP:   1 TIME =     0.02 SECS, INTEGRAL =      0.02 TIME LEFT: 172799.97
 STEP:   2 TIME =     0.02 SECS, INTEGRAL =      0.04 TIME LEFT: 172799.95
 STEP:   3 TIME =     0.02 SECS, INTEGRAL =      0.06 TIME LEFT: 172799.93
 STEP:   4 TIME =     0.02 SECS, INTEGRAL =      0.08 TIME LEFT: 172799.91
 STEP:   5 TIME =     0.02 SECS, INTEGRAL =      0.10 TIME LEFT: 172799.89
 STEP:   6 TIME =     0.02 SECS, INTEGRAL =      0.11 TIME LEFT: 172799.88
 STEP:   7 TIME =     0.02 SECS, INTEGRAL =      0.13 TIME LEFT: 172799.86
 STEP:   8 TIME =     0.02 SECS, INTEGRAL =      0.15 TIME LEFT: 172799.84
 STEP:   9 TIME =     0.02 SECS, INTEGRAL =      0.17 TIME LEFT: 172799.82
 STEP:  10 TIME =     0.02 SECS, INTEGRAL =      0.19 TIME LEFT: 172799.80
 STEP:  11 TIME =     0.02 SECS, INTEGRAL =      0.21 TIME LEFT: 172799.79
 STEP:  12 TIME =     0.02 SECS, INTEGRAL =      0.23 TIME LEFT: 172799.77
 STEP:  13 TIME =     0.02 SECS, INTEGRAL =      0.25 TIME LEFT: 172799.75
 STEP:  14 TIME =     0.02 SECS, INTEGRAL =      0.27 TIME LEFT: 172799.73
 STEP:  15 TIME =     0.02 SECS, INTEGRAL =      0.29 TIME LEFT: 172799.71
 STEP:  16 TIME =     0.02 SECS, INTEGRAL =      0.30 TIME LEFT: 172799.69
 STEP:  17 TIME =     0.02 SECS, INTEGRAL =      0.33 TIME LEFT: 172799.66
 STEP:  18 TIME =     0.02 SECS, INTEGRAL =      0.35 TIME LEFT: 172799.64
 STEP:  19 TIME =     0.02 SECS, INTEGRAL =      0.37 TIME LEFT: 172799.62
 STEP:  20 TIME =     0.02 SECS, INTEGRAL =      0.39 TIME LEFT: 172799.61
 STEP:  21 TIME =     0.02 SECS, INTEGRAL =      0.41 TIME LEFT: 172799.59
 STEP:  22 TIME =     0.02 SECS, INTEGRAL =      0.43 TIME LEFT: 172799.57
 STEP:  23 TIME =     0.02 SECS, INTEGRAL =      0.45 TIME LEFT: 172799.54
 STEP:  24 TIME =     0.02 SECS, INTEGRAL =      0.47 TIME LEFT: 172799.52
 STEP:  25 TIME =     0.02 SECS, INTEGRAL =      0.49 TIME LEFT: 172799.50
 STEP:  26 TIME =     0.02 SECS, INTEGRAL =      0.51 TIME LEFT: 172799.48
 STEP:  27 TIME =     0.02 SECS, INTEGRAL =      0.53 TIME LEFT: 172799.46
 STEP:  28 TIME =     0.02 SECS, INTEGRAL =      0.55 TIME LEFT: 172799.45
 STEP:  29 TIME =     0.02 SECS, INTEGRAL =      0.57 TIME LEFT: 172799.43
 STEP:  30 TIME =     0.02 SECS, INTEGRAL =      0.58 TIME LEFT: 172799.41
 STEP:  31 TIME =     0.02 SECS, INTEGRAL =      0.60 TIME LEFT: 172799.39
 STEP:  32 TIME =     0.02 SECS, INTEGRAL =      0.62 TIME LEFT: 172799.37
 STEP:  33 TIME =     0.02 SECS, INTEGRAL =      0.64 TIME LEFT: 172799.36
 STEP:  34 TIME =     0.02 SECS, INTEGRAL =      0.66 TIME LEFT: 172799.34
 STEP:  35 TIME =     0.02 SECS, INTEGRAL =      0.68 TIME LEFT: 172799.32
 STEP:  36 TIME =     0.02 SECS, INTEGRAL =      0.70 TIME LEFT: 172799.30
 STEP:  37 TIME =     0.02 SECS, INTEGRAL =      0.71 TIME LEFT: 172799.28
 STEP:  38 TIME =     0.02 SECS, INTEGRAL =      0.73 TIME LEFT: 172799.26
 STEP:  39 TIME =     0.02 SECS, INTEGRAL =      0.75 TIME LEFT: 172799.24
 STEP:  40 TIME =     0.02 SECS, INTEGRAL =      0.77 TIME LEFT: 172799.22
 STEP:  41 TIME =     0.02 SECS, INTEGRAL =      0.79 TIME LEFT: 172799.20
 STEP:  42 TIME =     0.02 SECS, INTEGRAL =      0.80 TIME LEFT: 172799.19
 STEP:  43 TIME =     0.02 SECS, INTEGRAL =      0.82 TIME LEFT: 172799.17
 STEP:  44 TIME =     0.02 SECS, INTEGRAL =      0.84 TIME LEFT: 172799.15
 STEP:  45 TIME =     0.02 SECS, INTEGRAL =      0.86 TIME LEFT: 172799.13
 STEP:  46 TIME =     0.02 SECS, INTEGRAL =      0.88 TIME LEFT: 172799.12
 STEP:  47 TIME =     0.02 SECS, INTEGRAL =      0.89 TIME LEFT: 172799.10
 STEP:  48 TIME =     0.02 SECS, INTEGRAL =      0.91 TIME LEFT: 172799.08
 STEP:  49 TIME =     0.02 SECS, INTEGRAL =      0.93 TIME LEFT: 172799.06
 STEP:  50 TIME =     0.02 SECS, INTEGRAL =      0.95 TIME LEFT: 172799.04
 STEP:  51 TIME =     0.02 SECS, INTEGRAL =      0.97 TIME LEFT: 172799.02
 STEP:  52 TIME =     0.02 SECS, INTEGRAL =      0.99 TIME LEFT: 172799.00
 STEP:  53 TIME =     0.02 SECS, INTEGRAL =      1.01 TIME LEFT: 172798.98
 STEP:  54 TIME =     0.02 SECS, INTEGRAL =      1.02 TIME LEFT: 172798.97
 STEP:  55 TIME =     0.02 SECS, INTEGRAL =      1.04 TIME LEFT: 172798.95
 STEP:  56 TIME =     0.02 SECS, INTEGRAL =      1.06 TIME LEFT: 172798.93
 STEP:  57 TIME =     0.02 SECS, INTEGRAL =      1.08 TIME LEFT: 172798.91
 STEP:  58 TIME =     0.02 SECS, INTEGRAL =      1.10 TIME LEFT: 172798.89
 STEP:  59 TIME =     0.02 SECS, INTEGRAL =      1.12 TIME LEFT: 172798.87
 STEP:  60 TIME =     0.02 SECS, INTEGRAL =      1.14 TIME LEFT: 172798.85
 STEP:  61 TIME =     0.02 SECS, INTEGRAL =      1.16 TIME LEFT: 172798.83
 STEP:  62 TIME =     0.02 SECS, INTEGRAL =      1.18 TIME LEFT: 172798.81
 STEP:  63 TIME =     0.02 SECS, INTEGRAL =      1.20 TIME LEFT: 172798.79

(To convert to Hartree/Bohr^2, multiply by (10^(-21) x N x a0^2)/(4.184 x 627.51) =  0.0642)


           FORCE MATRIX IN MILLIDYNES/ANGSTROM


                  C  1       C  2       C  3       C  4       C  5       C  6
 ------------------------------------------------------------------------------
     C    1  14.625586
     C    2   0.004407  15.109532
     C    3   4.407243   0.001326  14.350231
     C    4   0.776780   0.205222   0.041731  19.115399
     C    5   4.992817   0.031476   0.720499   9.731179  17.893814
     C    6   0.017519   5.030070   0.003115   1.062928   0.115367  18.110289
     C    7   0.016145   5.029875   0.002939   1.067243   0.119380   0.736330
     C    8   0.134087   0.846061   0.020039   5.354611   1.060675  10.399503
     C    9   0.107256   0.852395   0.011753   5.400502   0.994410   0.062716
     H   10   4.416893   0.001180   0.446263   0.033964   0.409117   0.002264
     H   11   4.269633   0.001590   0.434530   0.040641   0.460475   0.001029
     H   12   0.001277   4.375213   0.000494   0.015891   0.004494   0.419474
     H   13   0.001464   4.371471   0.000214   0.015768   0.004912   0.418924
     H   14   0.460721   0.000387   4.748169   0.002971   0.015885   0.000492
     H   15   0.465067   0.000330   4.725118   0.002310   0.027664   0.000474
     H   16   0.449587   0.000389   4.750133   0.006997   0.052303   0.000808
     H   17   0.431340   0.003890   0.025780   0.451597   4.747746   0.006829
     H   18   0.010309   0.424498   0.001704   0.123943   0.007824   4.829231
     H   19   0.006027   0.424441   0.000811   0.127622   0.009824   0.046990
     H   20   0.002859   0.125309   0.000784   0.442641   0.046570   0.441260
     H   21   0.096909   0.125668   0.003908   0.444717   0.035978   0.003643


                  C  7       C  8       C  9       H 10       H 11       H 12
 ------------------------------------------------------------------------------
     C    7  18.128958
     C    8   0.062222  18.541582
     C    9  10.419699   0.733547  18.557988
     H   10   0.001794   0.020003   0.010851   5.010986
     H   11   0.003435   0.004109   0.121328   0.556661   4.968068
     H   12   0.419121   0.038714   0.039059   0.000297   0.000620   4.963603
     H   13   0.418453   0.038078   0.038493   0.000384   0.000338   0.566684
     H   14   0.000584   0.000916   0.001444   0.048877   0.024183   0.000062
     H   15   0.000781   0.000883   0.001341   0.023441   0.047164   0.000113
     H   16   0.000689   0.003525   0.001399   0.028642   0.029366   0.000070
     H   17   0.009352   0.087077   0.112317   0.018444   0.039907   0.001383
     H   18   0.047025   0.441913   0.006003   0.001687   0.000437   0.028344
     H   19   4.830883   0.006115   0.441155   0.000842   0.000926   0.028228
     H   20   0.003615   4.798905   0.042052   0.000780   0.000684   0.016057
     H   21   0.439631   0.042780   4.633021   0.002737   0.169383   0.016157


                  H 13       H 14       H 15       H 16       H 17       H 18
 ------------------------------------------------------------------------------
     H   13   4.960666
     H   14   0.000062   5.484955
     H   15   0.000069   0.578707   5.469302
     H   16   0.000052   0.573789   0.573284   5.486694
     H   17   0.001387   0.002603   0.019932   0.001958   5.131373
     H   18   0.026729   0.000141   0.000131   0.000327   0.005391   5.204898
     H   19   0.026481   0.000142   0.000132   0.000179   0.009578   0.006806
     H   20   0.016388   0.000233   0.000225   0.000252   0.029837   0.068975
     H   21   0.016324   0.000723   0.001123   0.000728   0.003376   0.001125


                  H 19       H 20       H 21
 ------------------------------------------
     H   19   5.206765
     H   20   0.001200   5.174627
     H   21   0.068774   0.006268   5.083067


          HEAT OF FORMATION =      24.435589 KCALS/MOLE

          ZERO POINT ENERGY     114.581 KCAL/MOL


           NORMAL COORDINATE ANALYSIS (Total motion = 1 Angstrom)


   Root No.       1         2         3         4         5         6         7         8

                 1 A       2 A       3 A       4 A       5 A       6 A       7 A       8 A   

                  40.3      83.3     137.5     171.6     262.9     290.9     367.5     405.4
  
           1   -0.0084   -0.0038    0.0040   -0.0057    0.0194   -0.0217   -0.0223   -0.0303
           2   -0.0115   -0.0299    0.0055    0.0047    0.0231    0.0011    0.0144    0.0124
           3    0.0174    0.0227    0.0128   -0.0137   -0.0236    0.0293    0.0196    0.0026
           4   -0.0054   -0.0059    0.0026    0.0028   -0.0046    0.0111    0.0198    0.0305
           5    0.0412   -0.0373    0.0106   -0.0009   -0.0168   -0.0088    0.0003   -0.0001
           6   -0.0155    0.0058   -0.0091    0.0122   -0.0117    0.0146    0.0008   -0.0066
           7    0.0395    0.0223   -0.0254    0.0029   -0.0105   -0.0174   -0.0332   -0.0364
           8    0.0330   -0.0058   -0.0229    0.0138   -0.0057    0.0067    0.0078    0.0146
           9   -0.0324   -0.0242   -0.0249    0.0269   -0.0227    0.0037   -0.0143   -0.0133
          10   -0.0049   -0.0021    0.0043   -0.0009    0.0008    0.0015   -0.0013   -0.0067
          11   -0.0236    0.0173    0.0154   -0.0124   -0.0289   -0.0336   -0.0013   -0.0036
          12    0.0113    0.0012    0.0047   -0.0110    0.0370   -0.0146   -0.0045    0.0106
          13   -0.0038   -0.0006    0.0046   -0.0011   -0.0036    0.0049   -0.0023   -0.0141
          14   -0.0206   -0.0167    0.0454   -0.0223   -0.0040    0.0232   -0.0163   -0.0374
          15    0.0150    0.0150    0.0001   -0.0119    0.0165   -0.0122    0.0086    0.0095
          16   -0.0023    0.0002    0.0083   -0.0077    0.0134   -0.0036    0.0099    0.0185
          17    0.0084   -0.0077   -0.0355    0.0163    0.0287    0.0148    0.0285   -0.0331
          18   -0.0046   -0.0006    0.0067    0.0030   -0.0177    0.0013   -0.0120   -0.0017
          19   -0.0094   -0.0081   -0.0029    0.0115   -0.0179    0.0216    0.0151    0.0146
          20    0.0077    0.0231    0.0068   -0.0025    0.0208    0.0366   -0.0339    0.0176
          21   -0.0028   -0.0069   -0.0020    0.0025   -0.0045   -0.0105    0.0132    0.0062
          22   -0.0019    0.0017    0.0098   -0.0102    0.0166   -0.0076    0.0067    0.0171
          23   -0.0227    0.0195   -0.0223    0.0036   -0.0126   -0.0167   -0.0352    0.0392
          24    0.0080   -0.0032    0.0099   -0.0059    0.0169   -0.0096   -0.0004   -0.0204
          25   -0.0090   -0.0066   -0.0013    0.0083   -0.0120    0.0147    0.0134    0.0132
          26   -0.0229    0.0467    0.0045   -0.0056   -0.0075   -0.0289    0.0382   -0.0160
          27    0.0097   -0.0085    0.0057   -0.0092    0.0262   -0.0114   -0.0112    0.0205
          28   -0.0512   -0.0258    0.0274   -0.0099    0.0315   -0.0238   -0.0326   -0.0525
          29    0.0199   -0.0077    0.0049    0.0010    0.0014    0.0192    0.0225    0.0160
          30    0.0501    0.0581    0.0488   -0.0323   -0.0724    0.0844    0.0306   -0.0202
          31   -0.0084   -0.0058    0.0010   -0.0107    0.0369   -0.0340   -0.0168   -0.0158
          32   -0.0660   -0.0761   -0.0218    0.0264    0.0690   -0.0498   -0.0007    0.0227
          33    0.0263    0.0295    0.0161   -0.0191   -0.0242    0.0323    0.0235    0.0058
          34   -0.0428    0.0459   -0.0254    0.0145    0.0482    0.0742    0.0065    0.0123
          35    0.0724   -0.0780    0.0407   -0.0115   -0.0699   -0.0551   -0.0040    0.0279
          36   -0.0178    0.0141    0.0028    0.0112   -0.0259    0.0332   -0.0325    0.0170
          37    0.0330   -0.0612    0.0306   -0.0068   -0.0645   -0.0511    0.0354    0.0504
          38    0.0655   -0.0743    0.0262   -0.0056   -0.0562   -0.0498    0.0149    0.0094
          39   -0.0331    0.0144   -0.0413    0.0293    0.0092    0.0366    0.0349   -0.0480
          40    0.0820    0.0425   -0.0731   -0.0404   -0.0454   -0.0047   -0.0401   -0.0423
          41    0.0003   -0.0326   -0.0416   -0.0253    0.0023    0.0055    0.0087    0.0144
          42   -0.0707   -0.0749   -0.1406   -0.1416   -0.0452    0.0173   -0.0198   -0.0208
          43    0.0436    0.0340    0.0315    0.1586   -0.0010   -0.0448   -0.0605   -0.0492
          44    0.0930    0.0540    0.0584    0.1246   -0.0025    0.0066    0.0172    0.0229
          45   -0.0406   -0.0292   -0.0144    0.0744   -0.0194   -0.0079   -0.0278   -0.0205
          46    0.0317    0.0116   -0.0605   -0.1035   -0.0136    0.0006   -0.0136   -0.0279
          47    0.0412   -0.0194   -0.1091   -0.0500   -0.0422    0.0108   -0.0150    0.0005
          48   -0.0254   -0.0064    0.0483    0.1812   -0.0067   -0.0201   -0.0319   -0.0201
          49   -0.0002    0.0024    0.0067    0.0015   -0.0227    0.0277    0.0119   -0.0123
          50   -0.0205   -0.0360    0.0766   -0.0399   -0.0068    0.0837   -0.0679   -0.0731
          51    0.0160    0.0214   -0.0082   -0.0055    0.0109   -0.0221    0.0277    0.0202
          52   -0.0002    0.0034    0.0116   -0.0144    0.0265   -0.0145    0.0043    0.0143
          53    0.0111   -0.0098   -0.0770    0.0370    0.0821    0.0481    0.0759   -0.0729
          54   -0.0075   -0.0032    0.0150    0.0038   -0.0456    0.0027   -0.0196    0.0142
          55   -0.0128   -0.0113   -0.0086    0.0214   -0.0357    0.0371    0.0146    0.0024
          56    0.0090    0.0449    0.0058   -0.0008    0.0630    0.1022   -0.0888    0.0415
          57   -0.0043   -0.0139   -0.0036    0.0053   -0.0218   -0.0233    0.0278   -0.0046
          58    0.0008    0.0059    0.0152   -0.0196    0.0325   -0.0193    0.0087    0.0321
          59   -0.0466    0.0415   -0.0493    0.0115   -0.0089   -0.0159   -0.0811    0.1109
          60    0.0160   -0.0084    0.0197   -0.0114    0.0209   -0.0135    0.0141   -0.0367
          61   -0.0115   -0.0081   -0.0039    0.0105   -0.0116    0.0125    0.0134    0.0125
          62   -0.0484    0.0835   -0.0015   -0.0032    0.0018   -0.0391    0.0867   -0.0439
          63    0.0186   -0.0159    0.0099   -0.0122    0.0241   -0.0073   -0.0237    0.0272


   Root No.       9        10        11        12        13        14        15        16

                 9 A      10 A      11 A      12 A      13 A      14 A      15 A      16 A   

                 471.8     561.7     568.0     605.2     764.3     784.1     802.2     864.6
  
           1    0.0371    0.0170   -0.0044    0.0042    0.0072   -0.0063    0.0195   -0.0034
           2    0.0385   -0.0026    0.0043   -0.0023    0.0061   -0.0057    0.0180   -0.0025
           3    0.0305    0.0052    0.0010   -0.0075   -0.0051    0.0046   -0.0107    0.0190
           4   -0.0239    0.0433   -0.0130    0.0125    0.0053   -0.0044    0.0152    0.0247
           5    0.0040   -0.0003    0.0084    0.0099   -0.0187   -0.0226    0.0024   -0.0059
           6    0.0107   -0.0084    0.0014    0.0378    0.0038    0.0073   -0.0048   -0.0061
           7   -0.0035    0.0213   -0.0095    0.0073    0.0036   -0.0024    0.0068   -0.0035
           8   -0.0041   -0.0093    0.0034   -0.0046   -0.0018    0.0002    0.0018    0.0001
           9   -0.0137    0.0037   -0.0032   -0.0014    0.0003   -0.0001   -0.0007    0.0094
          10    0.0077   -0.0464    0.0139   -0.0156   -0.0002    0.0003    0.0044    0.0222
          11   -0.0187    0.0287    0.0589   -0.0118    0.0217    0.0329   -0.0105    0.0032
          12   -0.0223   -0.0108   -0.0173   -0.0351   -0.0058   -0.0093    0.0023   -0.0069
          13    0.0258   -0.0335    0.0114   -0.0042    0.0023   -0.0012    0.0107    0.0269
          14   -0.0151    0.0193   -0.0187    0.0052    0.0099   -0.0010   -0.0047   -0.0180
          15    0.0448    0.0473   -0.0066    0.0053   -0.0080    0.0030   -0.0140   -0.0293
          16   -0.0211   -0.0235    0.0088    0.0798   -0.0059    0.0041   -0.0161   -0.0247
          17   -0.0057   -0.0041    0.0114    0.0120   -0.0160    0.0147    0.0046   -0.0085
          18    0.0134   -0.0372    0.0095    0.0451   -0.0020    0.0002   -0.0194   -0.0246
          19    0.0005    0.0184   -0.0048   -0.0534   -0.0025    0.0016   -0.0088   -0.0145
          20   -0.0037    0.0112    0.0125    0.0232    0.0112   -0.0208   -0.0015    0.0137
          21   -0.0160    0.0189   -0.0100    0.0846    0.0058   -0.0005    0.0257    0.0370
          22   -0.0201   -0.0252    0.0084    0.0489   -0.0045    0.0032   -0.0112   -0.0138
          23    0.0124   -0.0188   -0.0069   -0.0240   -0.0245    0.0055    0.0123    0.0048
          24   -0.0108   -0.0379    0.0132   -0.0804    0.0060    0.0004   -0.0045    0.0176
          25   -0.0042    0.0108   -0.0041   -0.0832   -0.0034    0.0018   -0.0104   -0.0189
          26   -0.0117   -0.0055   -0.0229   -0.0099   -0.0014   -0.0310   -0.0031    0.0024
          27   -0.0331    0.0157   -0.0012   -0.0434    0.0038    0.0053    0.0094    0.0010
          28    0.0471    0.0290   -0.0140    0.0116    0.0063   -0.0004   -0.0074    0.0505
          29    0.0191   -0.0280    0.0104   -0.0114    0.0247   -0.0208    0.0693   -0.0487
          30   -0.0145   -0.0602    0.0072   -0.0258    0.0577   -0.0381    0.1213   -0.0526
          31    0.0628    0.0694   -0.0146   -0.0007   -0.0145    0.0070   -0.0291   -0.0215
          32    0.0770    0.0485   -0.0040    0.0158   -0.0508    0.0364   -0.1074    0.1055
          33    0.0325    0.0153   -0.0011   -0.0125   -0.0026    0.0017   -0.0054   -0.0087
          34   -0.0382    0.0844    0.0656   -0.0035   -0.0482   -0.0832    0.0252    0.0220
          35    0.0244   -0.0315   -0.0612   -0.0015    0.0403    0.0329   -0.0145   -0.0030
          36    0.0268    0.0023    0.0039   -0.0145    0.0255   -0.0236   -0.0220   -0.0078
          37   -0.0068    0.0108   -0.0989    0.0052    0.0631    0.0776    0.0092    0.0366
          38    0.0158   -0.0213   -0.0500   -0.0005    0.0170    0.0361   -0.0003   -0.0004
          39    0.0055    0.0167    0.0283   -0.0114   -0.0472    0.0086    0.0149   -0.0216
          40   -0.0493    0.0276   -0.0171    0.0107   -0.0181    0.0202   -0.0743    0.0528
          41    0.0091   -0.0134    0.0062   -0.0052    0.0109   -0.0121    0.0435   -0.0400
          42   -0.0345   -0.0013   -0.0043    0.0005    0.0106   -0.0079    0.0199   -0.0383
          43   -0.0426    0.0288   -0.0163    0.0139    0.0122   -0.0086    0.0177   -0.0674
          44    0.0035   -0.0034    0.0023   -0.0068   -0.0263    0.0217   -0.0646    0.0921
          45   -0.0324    0.0061   -0.0062    0.0018    0.0086   -0.0069    0.0165   -0.0361
          46    0.0299    0.0175   -0.0043    0.0029    0.0001    0.0003    0.0052    0.0393
          47   -0.0752   -0.0069   -0.0059    0.0021   -0.0096    0.0099   -0.0434   -0.0209
          48   -0.0324    0.0086   -0.0072    0.0021    0.0075   -0.0069    0.0162   -0.0381
          49    0.0551   -0.0340    0.0143    0.0066   -0.0016    0.0019    0.0052    0.0558
          50   -0.0608    0.0059   -0.1228    0.0147   -0.1145   -0.0311   -0.0676    0.0506
          51    0.0658    0.0504    0.0239    0.0045    0.0264    0.0125    0.0025   -0.0413
          52   -0.0267   -0.0563    0.0171    0.0454   -0.0078    0.0082   -0.0294   -0.0317
          53   -0.0085   -0.0190   -0.0495    0.0245    0.1966    0.0016   -0.0937    0.0182
          54    0.0191   -0.0002    0.0182    0.0747   -0.0598   -0.0000    0.0207   -0.0261
          55    0.0278    0.0005    0.0018   -0.0173   -0.0084    0.0113   -0.0273   -0.0415
          56    0.0041   -0.0107   -0.0468    0.0299    0.0300    0.2527    0.0473   -0.0021
          57   -0.0092    0.0184    0.0085    0.0938   -0.0011   -0.0721    0.0068    0.0335
          58   -0.0421   -0.0051    0.0005    0.0140   -0.0012    0.0016   -0.0096   -0.0111
          59    0.0490   -0.0759   -0.1170   -0.0225    0.1093   -0.1070   -0.0478   -0.0059
          60   -0.0287   -0.0136    0.0431   -0.0920   -0.0327    0.0334    0.0139    0.0220
          61    0.0028    0.0405   -0.0140   -0.0447   -0.0038    0.0034   -0.0082   -0.0241
          62   -0.0094   -0.0669   -0.1629   -0.0117   -0.0672    0.1104    0.0499   -0.0169
          63   -0.0394    0.0006    0.0434   -0.0806    0.0203   -0.0311   -0.0061    0.0107


   Root No.      17        18        19        20        21        22        23        24

                17 A      18 A      19 A      20 A      21 A      22 A      23 A      24 A   

                 889.2     923.4     962.5     975.2    1003.7    1013.5    1017.8    1037.4
  
           1    0.0058    0.0025    0.0059    0.0001    0.0077   -0.0011   -0.0027    0.0176
           2    0.0031   -0.0006    0.0083    0.0001    0.0034    0.0007   -0.0040    0.0108
           3   -0.0043   -0.0001    0.0053   -0.0005   -0.0017   -0.0020    0.0048   -0.0170
           4   -0.0016    0.0021   -0.0182    0.0005   -0.0036    0.0608    0.0032    0.0054
           5   -0.0266    0.0313    0.0005    0.0022    0.0076   -0.0031   -0.0275   -0.0032
           6    0.0077   -0.0096    0.0027   -0.0006   -0.0029   -0.0167    0.0041    0.0090
           7    0.0033    0.0048    0.0188   -0.0012   -0.0244    0.0065   -0.0009   -0.0148
           8    0.0074    0.0067    0.0023   -0.0007   -0.0043   -0.0009    0.0009   -0.0000
           9   -0.0029   -0.0014    0.0232   -0.0018   -0.0190    0.0025   -0.0086    0.0097
          10   -0.0000    0.0013   -0.0080    0.0001    0.0126   -0.0027    0.0060   -0.0061
          11    0.0064    0.0295    0.0017   -0.0018    0.0008   -0.0029    0.0155    0.0136
          12   -0.0017   -0.0087    0.0006    0.0005   -0.0045    0.0023   -0.0078    0.0061
          13    0.0005    0.0018   -0.0073    0.0004    0.0206   -0.0080    0.0084   -0.0077
          14   -0.0315   -0.0267   -0.0093    0.0041   -0.0134    0.0049   -0.0037   -0.0221
          15    0.0121    0.0069   -0.0253    0.0001    0.0078    0.0073    0.0009    0.0131
          16   -0.0000   -0.0015    0.0102   -0.0004   -0.0037    0.0082   -0.0004    0.0008
          17    0.0029   -0.0177    0.0033   -0.0242   -0.0073    0.0081    0.0353    0.0046
          18   -0.0013    0.0037    0.0158    0.0073    0.0092    0.0450   -0.0025   -0.0087
          19    0.0002   -0.0012   -0.0000    0.0005   -0.0060   -0.0123   -0.0030    0.0003
          20    0.0108   -0.0145   -0.0031    0.0210   -0.0107   -0.0154    0.0338    0.0043
          21   -0.0024    0.0065   -0.0141   -0.0056    0.0001   -0.0385   -0.0108   -0.0151
          22    0.0004   -0.0008   -0.0009    0.0003   -0.0065   -0.0105   -0.0044    0.0052
          23    0.0116   -0.0191   -0.0106    0.0328   -0.0031    0.0119   -0.0278   -0.0074
          24   -0.0034    0.0081   -0.0411   -0.0094   -0.0280    0.0248    0.0023    0.0024
          25    0.0000   -0.0019    0.0191   -0.0007    0.0084   -0.0199    0.0017   -0.0093
          26    0.0149   -0.0174    0.0101   -0.0321    0.0145   -0.0006   -0.0247   -0.0119
          27   -0.0052    0.0032    0.0420    0.0082    0.0280   -0.0215    0.0177   -0.0113
          28   -0.0599   -0.0571    0.0305    0.0055    0.0660   -0.0079   -0.0330    0.1296
          29    0.0350    0.0231    0.0028    0.0006   -0.0121    0.0026    0.0004   -0.0023
          30   -0.0011   -0.0156    0.0278    0.0090    0.0350   -0.0043   -0.0293    0.1135
          31    0.0157    0.0131   -0.0383   -0.0029   -0.0009   -0.0251    0.0148   -0.0577
          32   -0.0362   -0.0148    0.0244   -0.0024   -0.0058    0.0028    0.0087   -0.0344
          33    0.0069    0.0067   -0.0152   -0.0010   -0.0020   -0.0109    0.0095   -0.0364
          34   -0.0652    0.0756   -0.0286    0.0249    0.0079    0.0917   -0.0554    0.0100
          35    0.0329   -0.0341    0.0054    0.0201   -0.0079   -0.0339    0.0186    0.0204
          36    0.0134   -0.0096   -0.0014    0.0800   -0.0104   -0.0285   -0.0066    0.0644
          37    0.0646   -0.0747   -0.0272   -0.0251   -0.0258    0.0780    0.0607    0.0338
          38    0.0164   -0.0199   -0.0047   -0.0248   -0.0059    0.0050    0.0087    0.0220
          39   -0.0286    0.0209   -0.0052   -0.0838    0.0032   -0.0356   -0.0370    0.0617
          40   -0.0717   -0.0613   -0.0230    0.0044    0.0617   -0.0102   -0.0167    0.0599
          41    0.0437    0.0366   -0.0007   -0.0014   -0.0255    0.0040    0.0144   -0.0388
          42    0.0091    0.0029   -0.0388    0.0032    0.0269   -0.0043    0.0107   -0.0104
          43    0.0086   -0.0002   -0.0866    0.0072    0.0608   -0.0070    0.0276   -0.0396
          44   -0.0441   -0.0302    0.0614   -0.0043   -0.0184   -0.0016   -0.0320    0.0693
          45    0.0094    0.0036   -0.0339    0.0025    0.0206   -0.0032    0.0098   -0.0136
          46    0.0011    0.0097    0.1014   -0.0075   -0.0941    0.0174   -0.0218   -0.0048
          47   -0.0343   -0.0389   -0.1334    0.0111    0.1430   -0.0269    0.0195    0.0351
          48    0.0128    0.0066   -0.0363    0.0023    0.0208   -0.0029    0.0111   -0.0138
          49   -0.0010    0.0046   -0.0317    0.0005    0.0681   -0.0483    0.0412   -0.0861
          50    0.1727    0.1227   -0.0034   -0.0316    0.0423   -0.0066    0.0165    0.0523
          51   -0.0466   -0.0350   -0.0342    0.0104    0.0055   -0.0003    0.0045   -0.0304
          52    0.0016    0.0001   -0.0238    0.0007   -0.0533   -0.0668   -0.0258   -0.0015
          53    0.0439    0.0579    0.0208    0.1395    0.0482    0.0488   -0.1013   -0.0207
          54   -0.0144   -0.0191    0.0437   -0.0397    0.0412    0.1091    0.0604    0.0019
          55    0.0025   -0.0011   -0.0562   -0.0011   -0.0788   -0.1134   -0.0492    0.0402
          56   -0.0125    0.0392   -0.0103   -0.1325    0.0326   -0.0006   -0.1205   -0.0249
          57    0.0047   -0.0080   -0.0298    0.0358   -0.0344   -0.0770    0.0164    0.0059
          58    0.0002    0.0018   -0.0412   -0.0021   -0.0561   -0.1031   -0.0354    0.0442
          59   -0.1022    0.0959   -0.0225   -0.1589   -0.0290   -0.0137    0.0864    0.0271
          60    0.0304   -0.0252   -0.0521    0.0469   -0.0371    0.0048   -0.0417    0.0047
          61    0.0034    0.0049   -0.0081    0.0022   -0.0151   -0.0558   -0.0031   -0.0256
          62   -0.1025    0.1015    0.0208    0.1681   -0.0124   -0.0143    0.1066    0.0303
          63    0.0206   -0.0328    0.0676   -0.0441    0.0596    0.0147   -0.0093   -0.0066


   Root No.      25        26        27        28        29        30        31        32

                25 A      26 A      27 A      28 A      29 A      30 A      31 A      32 A   

                1056.4    1059.9    1115.7    1138.8    1147.7    1166.4    1196.1    1233.5
  
           1   -0.0097   -0.0045    0.0037   -0.0312   -0.0047   -0.0008   -0.0037   -0.0008
           2   -0.0056   -0.0024   -0.0624    0.0372   -0.0029    0.0067   -0.0138    0.0066
           3    0.0048    0.0020    0.0209    0.0255   -0.0017   -0.0009   -0.0367   -0.0021
           4    0.0053    0.0026    0.0004    0.0039   -0.0018   -0.0016    0.0055    0.0033
           5    0.0052    0.0026    0.0003   -0.0000   -0.0002    0.0008    0.0010   -0.0045
           6    0.0165    0.0083   -0.0001    0.0009   -0.0011    0.0037    0.0040   -0.0159
           7    0.0088    0.0040   -0.0032    0.0318    0.0039   -0.0008    0.0006   -0.0031
           8   -0.0011   -0.0007    0.0693   -0.0236   -0.0010    0.0004    0.0077    0.0018
           9   -0.0063   -0.0027   -0.0211   -0.0241   -0.0031    0.0039    0.0098    0.0054
          10    0.0090    0.0044   -0.0006   -0.0178    0.0098   -0.0166   -0.0110   -0.0109
          11   -0.0013   -0.0001   -0.0026    0.0019    0.0041   -0.0013   -0.0033    0.0035
          12    0.0077    0.0040    0.0030   -0.0060    0.0159   -0.0055   -0.0119    0.0115
          13    0.0086    0.0041   -0.0022   -0.0192    0.0073   -0.0126   -0.0011   -0.0143
          14    0.0090    0.0030    0.0026   -0.0171    0.0031   -0.0074    0.0075   -0.0077
          15   -0.0032   -0.0010   -0.0060   -0.0165    0.0060   -0.0150    0.0282   -0.0212
          16   -0.0049   -0.0019    0.0006    0.0051   -0.0057   -0.0011   -0.0027    0.0100
          17   -0.0155    0.0271   -0.0004    0.0022   -0.0018    0.0025    0.0031    0.0000
          18   -0.0149   -0.0173   -0.0002    0.0070   -0.0059    0.0085    0.0102    0.0008
          19   -0.0107   -0.0057   -0.0005    0.0045    0.0011   -0.0004    0.0055   -0.0174
          20    0.0031   -0.0333   -0.0011   -0.0007   -0.0010   -0.0004   -0.0005   -0.0034
          21   -0.0219   -0.0010   -0.0008   -0.0029   -0.0038   -0.0022   -0.0014   -0.0144
          22    0.0093    0.0046    0.0004   -0.0025    0.0024    0.0017   -0.0090    0.0050
          23    0.0003   -0.0110    0.0003    0.0021   -0.0025    0.0017    0.0008    0.0017
          24   -0.0149   -0.0041   -0.0007    0.0079   -0.0084    0.0055    0.0025    0.0053
          25   -0.0133   -0.0066   -0.0011    0.0009   -0.0038    0.0053    0.0027   -0.0143
          26   -0.0000    0.0110    0.0013   -0.0009   -0.0007   -0.0015    0.0004    0.0044
          27    0.0041   -0.0013   -0.0019   -0.0008   -0.0036   -0.0037    0.0015    0.0167
          28   -0.0604   -0.0277    0.2863    0.1046   -0.0162    0.0434    0.0217    0.0361
          29   -0.0005   -0.0002   -0.1999   -0.0104   -0.0016   -0.0038   -0.0171   -0.0058
          30   -0.0565   -0.0264    0.0197    0.0791   -0.0144    0.0318   -0.0040    0.0150
          31   -0.0236   -0.0127    0.0145   -0.0877   -0.0662    0.0776   -0.1190    0.1211
          32    0.0277    0.0132    0.0318    0.1371    0.0208   -0.0182   -0.0440   -0.0390
          33   -0.0059   -0.0036    0.0091   -0.0113   -0.0284    0.0317   -0.0780    0.0508
          34    0.0225    0.0811    0.0026    0.0055   -0.0249   -0.0144    0.0068    0.0388
          35    0.0228    0.0922    0.0008   -0.0074   -0.0232   -0.0016   -0.0141   -0.0016
          36    0.0847    0.3334    0.0047   -0.0141   -0.0886   -0.0190   -0.0282    0.0470
          37    0.0560   -0.0446    0.0008    0.0069   -0.0232   -0.0136    0.0071    0.0393
          38    0.0652   -0.0513    0.0009   -0.0009   -0.0234   -0.0077   -0.0032    0.0238
          39    0.2359   -0.1841    0.0031   -0.0147   -0.0797   -0.0166   -0.0309    0.0392
          40   -0.0294   -0.0125   -0.2200    0.0228   -0.0096    0.0124   -0.0224    0.0154
          41    0.0187    0.0078    0.1816   -0.0054    0.0059   -0.0073    0.0093   -0.0093
          42    0.0036    0.0013    0.0211    0.0208   -0.0005   -0.0007   -0.0170   -0.0012
          43    0.0202    0.0088    0.0035    0.1164    0.0054   -0.0013   -0.0448   -0.0012
          44   -0.0365   -0.0161   -0.0535   -0.1282   -0.0123    0.0073    0.0353    0.0096
          45    0.0048    0.0020    0.0046    0.0290   -0.0006    0.0019   -0.0160    0.0039
          46    0.0035    0.0018   -0.0238    0.0051    0.0013    0.0094    0.0293    0.0122
          47   -0.0189   -0.0086   -0.0122   -0.0253   -0.0062   -0.0078   -0.0318   -0.0109
          48    0.0053    0.0022    0.0308    0.0140    0.0008   -0.0042   -0.0156   -0.0067
          49    0.0421    0.0194   -0.0384    0.0397   -0.0080    0.1014    0.2408    0.1497
          50   -0.0182    0.0013   -0.0291    0.0263   -0.0004    0.0075    0.0270    0.0076
          51    0.0137    0.0036   -0.0074   -0.0106    0.0026    0.0126    0.0933    0.0214
          52   -0.0402   -0.0229   -0.0003    0.0658   -0.1786   -0.0754    0.0731   -0.0182
          53    0.0250   -0.0480    0.0007   -0.0151    0.0457    0.0232   -0.0179    0.0082
          54    0.0102    0.0253    0.0004   -0.0467    0.1494    0.0776   -0.0580    0.0271
          55   -0.0311   -0.0099    0.0054    0.0370    0.1922   -0.1265    0.0078    0.1592
          56   -0.0202    0.0528    0.0018    0.0023    0.0121   -0.0094   -0.0004    0.0074
          57   -0.0204   -0.0249    0.0003    0.0065    0.0537   -0.0413   -0.0008    0.0393
          58    0.0756    0.0390   -0.0033    0.0204    0.0902    0.2259    0.0259   -0.0979
          59   -0.0096    0.0170   -0.0024    0.0054    0.0049    0.0194    0.0037   -0.0067
          60    0.0090   -0.0015   -0.0012    0.0148    0.0191    0.0754    0.0142   -0.0251
          61   -0.0635   -0.0318    0.0032   -0.0454   -0.0631    0.0829   -0.0685    0.0517
          62    0.0145   -0.0153   -0.0085    0.0097    0.0140   -0.0208    0.0195   -0.0112
          63    0.0506    0.0304   -0.0039    0.0420    0.0543   -0.0789    0.0681   -0.0450


   Root No.      33        34        35        36        37        38        39        40

                33 A      34 A      35 A      36 A      37 A      38 A      39 A      40 A   

                1280.0    1349.7    1356.0    1402.1    1405.2    1406.7    1411.7    1423.7
  
           1    0.0289    0.0127   -0.0277    0.0058   -0.0164    0.0033    0.0026    0.0313
           2   -0.0022   -0.0193    0.0105    0.0099   -0.0147   -0.0014   -0.0012   -0.0271
           3    0.0180   -0.0007   -0.0098    0.0065   -0.0194   -0.0015    0.0018    0.0005
           4    0.0103   -0.0181   -0.0294   -0.0243    0.0155   -0.0067    0.0001   -0.0149
           5    0.0034   -0.0024    0.0035    0.0039    0.0147    0.0034   -0.0069   -0.0030
           6    0.0127   -0.0101    0.0092    0.0110    0.0532    0.0112   -0.0244   -0.0121
           7   -0.0091    0.0096   -0.0048    0.0070   -0.0074    0.0108   -0.0251   -0.0316
           8    0.0008   -0.0123    0.0118   -0.0209   -0.0020    0.0057   -0.0087    0.0329
           9   -0.0010   -0.0038    0.0021    0.0038    0.0023   -0.0260   -0.0152    0.0022
          10   -0.0071   -0.0041    0.0166   -0.0104    0.0151   -0.0029   -0.0002   -0.0133
          11   -0.0020   -0.0004    0.0011   -0.0006    0.0085    0.0007   -0.0031   -0.0038
          12   -0.0054    0.0009    0.0021   -0.0030    0.0306    0.0024   -0.0113   -0.0115
          13   -0.0008    0.0038    0.0143   -0.0201    0.0028   -0.0081    0.0062   -0.0141
          14   -0.0035    0.0023    0.0022   -0.0031    0.0008   -0.0009    0.0012    0.0009
          15   -0.0205    0.0010    0.0141   -0.0084    0.0017   -0.0034    0.0045   -0.0056
          16   -0.0086    0.0007   -0.0067    0.0103   -0.0115    0.0028    0.0007    0.0096
          17    0.0060    0.0019   -0.0002   -0.0063   -0.0049   -0.0031    0.0039   -0.0015
          18    0.0200    0.0068   -0.0011   -0.0211   -0.0173   -0.0105    0.0133   -0.0047
          19   -0.0081   -0.0053   -0.0019    0.0155   -0.0020    0.0057   -0.0032    0.0101
          20   -0.0039    0.0000    0.0006    0.0027   -0.0055    0.0003    0.0016    0.0032
          21   -0.0149    0.0001    0.0019    0.0113   -0.0204    0.0015    0.0057    0.0128
          22   -0.0203   -0.0019   -0.0005    0.0182    0.0033    0.0076   -0.0071    0.0074
          23   -0.0040   -0.0007   -0.0027    0.0042   -0.0041    0.0012    0.0001    0.0034
          24   -0.0141   -0.0025   -0.0093    0.0145   -0.0135    0.0043    0.0002    0.0123
          25   -0.0074    0.0011    0.0029    0.0088   -0.0108    0.0019    0.0021    0.0078
          26    0.0030    0.0029    0.0006   -0.0049   -0.0020   -0.0021    0.0020   -0.0022
          27    0.0103    0.0096    0.0033   -0.0174   -0.0083   -0.0077    0.0074   -0.0092
          28   -0.0343   -0.0644    0.0476    0.0162   -0.0152   -0.0042   -0.0047   -0.0582
          29    0.0110    0.0569   -0.0417   -0.0078    0.0381    0.0096   -0.0087    0.0516
          30   -0.0351    0.0902   -0.0415   -0.0235    0.1146    0.0149   -0.0250    0.0800
          31    0.0697   -0.0773    0.0014    0.0347    0.1018    0.0324   -0.0405    0.0363
          32   -0.0223    0.1449   -0.0721   -0.0401    0.1020    0.0130   -0.0166    0.1046
          33    0.0385   -0.0548    0.0088    0.0252    0.0185    0.0093   -0.0151   -0.0073
          34    0.0518    0.0818    0.1302    0.0430   -0.0205    0.0118   -0.0017    0.0184
          35   -0.0485   -0.0617   -0.1201   -0.0518   -0.0141   -0.0199    0.0179   -0.0131
          36   -0.0357    0.0213   -0.0040   -0.0025   -0.0688   -0.0100    0.0274    0.0196
          37    0.0538    0.0859    0.1374    0.0462   -0.0204    0.0129   -0.0025    0.0195
          38    0.0194    0.0586    0.0919    0.0399   -0.0227    0.0109   -0.0007    0.0202
          39   -0.0546   -0.0132   -0.0644   -0.0288   -0.0648   -0.0186    0.0321    0.0096
          40   -0.0071   -0.0690    0.0640   -0.0886   -0.0132    0.1128    0.0098    0.0965
          41    0.0044    0.0351   -0.0330    0.0391    0.0162    0.0223    0.0632   -0.0523
          42    0.0074    0.0109   -0.0163    0.0143    0.0337    0.1943    0.2056   -0.0431
          43   -0.0080   -0.0344    0.0307    0.0248    0.0674   -0.1263    0.1885    0.0552
          44    0.0231    0.0503   -0.0633    0.0890    0.0498    0.0552    0.1768   -0.0963
          45   -0.0025   -0.0273    0.0238   -0.0038    0.0233   -0.0699    0.0482    0.0479
          46   -0.0277   -0.0357    0.0382    0.0134    0.0522   -0.1293    0.0799    0.0388
          47    0.0447    0.0702   -0.0809    0.0820   -0.0277   -0.1435   -0.1048   -0.0740
          48    0.0066    0.0145   -0.0121   -0.0428   -0.0537    0.2069   -0.0791   -0.0362
          49   -0.0263    0.0100   -0.0401    0.0260    0.0252    0.0228   -0.0238    0.0171
          50   -0.0127   -0.0022    0.0033    0.0018    0.0019    0.0003   -0.0001   -0.0025
          51   -0.0273    0.0041   -0.0014    0.0040    0.0085    0.0051   -0.0037    0.0044
          52    0.0910   -0.0005   -0.0025   -0.0480    0.0145   -0.0165    0.0087   -0.0254
          53   -0.0215    0.0024   -0.0019    0.0097   -0.0130    0.0021    0.0020    0.0087
          54   -0.0693    0.0080   -0.0066    0.0310   -0.0434    0.0064    0.0070    0.0277
          55    0.0655    0.0149   -0.0143   -0.0518   -0.0222   -0.0219    0.0213   -0.0191
          56    0.0007    0.0017   -0.0001   -0.0014   -0.0066   -0.0013    0.0031    0.0016
          57    0.0075    0.0061   -0.0012   -0.0084   -0.0282   -0.0068    0.0137    0.0049
          58    0.1133    0.0136    0.0147   -0.0547   -0.0370   -0.0266    0.0318   -0.0154
          59    0.0065    0.0004   -0.0017   -0.0017   -0.0076   -0.0015    0.0034    0.0020
          60    0.0263    0.0023   -0.0060   -0.0074   -0.0275   -0.0061    0.0125    0.0061
          61   -0.0778    0.0927    0.0354   -0.0881    0.0015   -0.0365    0.0184   -0.0721
          62    0.0224   -0.0255   -0.0059    0.0222   -0.0063    0.0082   -0.0025    0.0175
          63    0.0789   -0.0781   -0.0273    0.0755   -0.0194    0.0292   -0.0081    0.0690


   Root No.      41        42        43        44        45        46        47        48

                41 A      42 A      43 A      44 A      45 A      46 A      47 A      48 A   

                1442.3    1522.3    1856.2    1860.5    1894.4    2922.8    2927.9    3005.0
  
           1   -0.0423    0.0039   -0.0194    0.0087    0.0150    0.0258    0.0000   -0.0050
           2   -0.0041    0.0030   -0.0026    0.0008    0.0018    0.0187    0.0000   -0.0218
           3   -0.0330    0.0069   -0.0111    0.0045    0.0076   -0.0447   -0.0000   -0.0063
           4   -0.0037   -0.0181   -0.0212    0.0039   -0.0163    0.0000   -0.0017   -0.0025
           5   -0.0096   -0.0186   -0.0010   -0.0080    0.0008    0.0000   -0.0585    0.0002
           6   -0.0343   -0.0671   -0.0054   -0.0280    0.0014    0.0000    0.0167    0.0006
           7    0.0165    0.0006   -0.0009    0.0000    0.0010   -0.0008   -0.0000    0.0014
           8   -0.0105   -0.0012    0.0002    0.0001   -0.0002   -0.0009   -0.0000    0.0008
           9    0.0073   -0.0006   -0.0002    0.0001    0.0005    0.0019    0.0000    0.0007
          10    0.0173    0.0246   -0.1145    0.0245    0.1423   -0.0004    0.0000    0.0001
          11   -0.0068    0.0368    0.0032   -0.0105   -0.0093    0.0000    0.0001   -0.0001
          12   -0.0261    0.1326    0.0147   -0.0389   -0.0364   -0.0003   -0.0000    0.0000
          13    0.0132   -0.0120    0.1267   -0.0446   -0.1139   -0.0004   -0.0000   -0.0007
          14    0.0046   -0.0061   -0.0019   -0.0007    0.0019    0.0006   -0.0000    0.0002
          15    0.0198   -0.0220   -0.0091   -0.0017    0.0088    0.0020    0.0000    0.0008
          16   -0.0022   -0.0225    0.0414   -0.1626    0.0645   -0.0000    0.0001    0.0002
          17    0.0049    0.0141   -0.0041    0.0203   -0.0082   -0.0000   -0.0000    0.0001
          18    0.0168    0.0476   -0.0121    0.0623   -0.0252   -0.0000    0.0000    0.0002
          19   -0.0016    0.0490    0.1355    0.0799    0.0919    0.0000    0.0001    0.0003
          20    0.0043    0.0088   -0.0054   -0.0021   -0.0031    0.0000   -0.0001    0.0009
          21    0.0156    0.0357   -0.0114   -0.0029   -0.0057    0.0001   -0.0000    0.0035
          22   -0.0098   -0.0340   -0.0261    0.1737   -0.0860    0.0000   -0.0000    0.0001
          23    0.0001   -0.0169    0.0037   -0.0049    0.0007    0.0001   -0.0003   -0.0001
          24   -0.0001   -0.0594    0.0115   -0.0098   -0.0008    0.0000    0.0001   -0.0002
          25    0.0063    0.0041   -0.1145   -0.0793   -0.0997   -0.0018   -0.0000   -0.0183
          26    0.0007   -0.0202    0.0115    0.0116    0.0144   -0.0004   -0.0003   -0.0039
          27    0.0031   -0.0749    0.0354    0.0383    0.0478   -0.0015    0.0001   -0.0162
          28    0.0236   -0.0016   -0.0022    0.0010    0.0025   -0.1402   -0.0001    0.1307
          29    0.0195   -0.0020   -0.0040    0.0028    0.0031   -0.2993   -0.0002    0.2543
          30    0.1112   -0.0129   -0.0036    0.0019    0.0060    0.0826    0.0000   -0.0966
          31    0.1823    0.0079    0.0436   -0.0025   -0.0212   -0.1793   -0.0001   -0.0780
          32    0.0583   -0.0068    0.0011    0.0005    0.0003    0.0746    0.0000    0.0127
          33    0.0558    0.0110    0.0143    0.0002   -0.0066    0.4568    0.0002    0.1755
          34    0.0053    0.0111   -0.0121   -0.0001   -0.0108   -0.0000    0.2890    0.0170
          35    0.0157    0.0105   -0.0045   -0.0057    0.0009    0.0000    0.3258    0.0229
          36    0.0358    0.0442   -0.0054   -0.0250    0.0001   -0.0000   -0.1598   -0.0101
          37    0.0046    0.0111   -0.0110   -0.0003   -0.0100    0.0003   -0.2685    0.0152
          38    0.0051    0.0136    0.0019   -0.0081   -0.0001   -0.0004    0.3818   -0.0255
          39    0.0381    0.0428   -0.0069   -0.0230    0.0003    0.0001   -0.0416    0.0038
          40   -0.0404   -0.0005   -0.0011    0.0006    0.0005    0.0100    0.0000   -0.0049
          41    0.0138   -0.0004    0.0000   -0.0001    0.0001    0.0128    0.0000   -0.0089
          42   -0.0065    0.0000    0.0002   -0.0001   -0.0003   -0.0053   -0.0000    0.0038
          43   -0.0419   -0.0031   -0.0015    0.0005    0.0007    0.0049    0.0000    0.0014
          44    0.0302   -0.0004    0.0016   -0.0004   -0.0009   -0.0000    0.0000   -0.0001
          45   -0.0202   -0.0021   -0.0010    0.0006    0.0007   -0.0189   -0.0000   -0.0019
          46    0.0007   -0.0054    0.0001   -0.0004    0.0006   -0.0015   -0.0000   -0.0107
          47    0.0144    0.0066   -0.0034    0.0017    0.0023   -0.0013    0.0000   -0.0052
          48    0.0115    0.0035   -0.0019    0.0008    0.0018   -0.0015    0.0000   -0.0101
          49   -0.0548    0.0994   -0.0191    0.0001    0.0125    0.0100   -0.0000    0.0043
          50    0.0009    0.0029   -0.0184    0.0035    0.0159   -0.0053   -0.0000   -0.0042
          51    0.0012    0.0092   -0.0684    0.0131    0.0605   -0.0225    0.0000   -0.0131
          52    0.0074    0.0560    0.0039   -0.0399    0.0094    0.0001   -0.0005   -0.0023
          53    0.0025   -0.0083    0.0095   -0.0252    0.0113   -0.0000   -0.0017   -0.0006
          54    0.0088   -0.0257    0.0326   -0.0876    0.0383    0.0001    0.0001   -0.0020
          55    0.0178   -0.0717   -0.0109    0.0073   -0.0081    0.0006   -0.0004    0.0132
          56    0.0059    0.0006   -0.0210   -0.0104   -0.0132   -0.0005   -0.0014   -0.0127
          57    0.0236   -0.0032   -0.0799   -0.0382   -0.0508   -0.0023    0.0011   -0.0470
          58    0.0492    0.0194   -0.0160    0.0025    0.0338   -0.0001   -0.0000   -0.0014
          59    0.0049   -0.0133    0.0069   -0.0270    0.0134    0.0001   -0.0008    0.0013
          60    0.0181   -0.0445    0.0239   -0.0917    0.0453    0.0002    0.0003    0.0044
          61   -0.0792   -0.0692   -0.0577   -0.0188    0.0039    0.0277   -0.0000    0.2046
          62    0.0252   -0.0006   -0.0123   -0.0095   -0.0187    0.0043   -0.0008    0.0478
          63    0.0907   -0.0072   -0.0492   -0.0365   -0.0711    0.0170    0.0002    0.1946


   Root No.      49        50        51        52        53        54        55        56

                49 A      50 A      51 A      52 A      53 A      54 A      55 A      56 A   

                3007.0    3010.0    3032.3    3041.9    3059.8    3064.2    3081.2    3086.0
  
           1   -0.0007    0.0029    0.0012   -0.0001   -0.0001    0.0000    0.0009   -0.0007
           2   -0.0036    0.0176   -0.0004   -0.0001    0.0002   -0.0000    0.0005   -0.0022
           3   -0.0013    0.0081   -0.0028    0.0001    0.0004   -0.0001   -0.0018   -0.0004
           4    0.0341    0.0021   -0.0003    0.0011    0.0020   -0.0033   -0.0000   -0.0000
           5   -0.0030   -0.0002    0.0000   -0.0000   -0.0001    0.0002   -0.0000    0.0000
           6   -0.0074   -0.0004    0.0001   -0.0001   -0.0005    0.0007    0.0000    0.0000
           7    0.0002   -0.0012    0.0003   -0.0000   -0.0000    0.0000    0.0138   -0.0356
           8    0.0001   -0.0007    0.0003   -0.0000   -0.0000    0.0000    0.0117   -0.0333
           9    0.0001   -0.0008   -0.0003    0.0000   -0.0001    0.0001   -0.0475   -0.0186
          10    0.0003   -0.0004   -0.0046    0.0007   -0.0003    0.0010   -0.0000   -0.0000
          11   -0.0000    0.0001    0.0001   -0.0000    0.0001   -0.0000    0.0000   -0.0000
          12   -0.0001    0.0002    0.0007   -0.0001    0.0003   -0.0001    0.0000    0.0000
          13   -0.0001    0.0005    0.0212   -0.0019    0.0001   -0.0006    0.0001    0.0005
          14   -0.0000   -0.0001   -0.0168    0.0012   -0.0000    0.0002    0.0001   -0.0003
          15   -0.0002   -0.0003   -0.0588    0.0043   -0.0000    0.0006    0.0003   -0.0002
          16   -0.0023   -0.0001    0.0014    0.0166   -0.0100   -0.0280   -0.0000   -0.0000
          17   -0.0008   -0.0000    0.0005    0.0052   -0.0022   -0.0064   -0.0000   -0.0000
          18   -0.0030   -0.0001    0.0017    0.0185   -0.0080   -0.0230   -0.0000   -0.0000
          19   -0.0007    0.0002    0.0002   -0.0003    0.0173   -0.0052   -0.0000   -0.0000
          20    0.0010    0.0014    0.0001    0.0001   -0.0113    0.0034    0.0000    0.0000
          21    0.0036    0.0054    0.0003    0.0003   -0.0411    0.0125    0.0001    0.0000
          22   -0.0002    0.0003    0.0024    0.0139    0.0040    0.0107   -0.0000   -0.0000
          23   -0.0000   -0.0001   -0.0016   -0.0116   -0.0023   -0.0061    0.0000    0.0000
          24   -0.0001   -0.0004   -0.0052   -0.0391   -0.0077   -0.0202   -0.0000    0.0000
          25   -0.0002   -0.0230   -0.0013    0.0010   -0.0099    0.0034    0.0001    0.0001
          26    0.0000   -0.0050   -0.0000    0.0003   -0.0011    0.0004    0.0000    0.0000
          27    0.0001   -0.0204   -0.0001    0.0010   -0.0047    0.0019    0.0001    0.0001
          28    0.0215   -0.1033   -0.0003    0.0007   -0.0008    0.0003   -0.0026    0.0099
          29    0.0418   -0.1998   -0.0009    0.0014   -0.0015    0.0004   -0.0108    0.0266
          30   -0.0160    0.0770   -0.0037   -0.0002    0.0007   -0.0001    0.0016   -0.0097
          31   -0.0136    0.0698   -0.0099    0.0002    0.0011   -0.0002   -0.0097   -0.0068
          32    0.0025   -0.0149    0.0049   -0.0002   -0.0006    0.0001    0.0056    0.0006
          33    0.0323   -0.1749    0.0353   -0.0010   -0.0051    0.0012    0.0177    0.0125
          34   -0.2156   -0.0114    0.0015   -0.0085   -0.0130    0.0187    0.0000    0.0001
          35   -0.2927   -0.0156    0.0021   -0.0111   -0.0168    0.0244    0.0000    0.0001
          36    0.1330    0.0076   -0.0008    0.0069    0.0044   -0.0125   -0.0000   -0.0000
          37   -0.1932   -0.0103    0.0014   -0.0074   -0.0113    0.0163    0.0000    0.0001
          38    0.3283    0.0179   -0.0023    0.0131    0.0167   -0.0276   -0.0000   -0.0001
          39   -0.0448   -0.0020    0.0005   -0.0002   -0.0051    0.0026    0.0000    0.0000
          40   -0.0008    0.0035   -0.0011    0.0001    0.0000   -0.0000   -0.1199    0.1427
          41   -0.0014    0.0067   -0.0031    0.0003    0.0001   -0.0000   -0.2538    0.3116
          42    0.0006   -0.0029    0.0008   -0.0001   -0.0001    0.0000    0.0680   -0.1271
[...]
 FORCE CONSTANT      0.3892

 VIBRATION         40   40A           ATOM PAIR      ENERGY CONTRIBUTION    RADIAL
 FREQUENCY          1423.74         C  1 -- C  3         +16.5% ( 52.6%)     99.6%
 TRANSITION DIPOLE   0.0393         C  3 -- H 15         +11.5% ( 43.9%)      4.5%
 TRAVEL (Ang.)       0.2591         C  3 -- H 14         +11.4% ( 43.7%)      3.1%
 REDUCED MASS        0.7053         C  3 -- H 16          +9.5% ( 39.9%)      3.6%
 EFFECTIVE MASS      5.7943
 FORCE CONSTANT      0.8424

 VIBRATION         41   41A           ATOM PAIR      ENERGY CONTRIBUTION    RADIAL
 FREQUENCY          1442.27         C  1 -- H 11         +20.2% ( 59.7%)      2.0%
 TRANSITION DIPOLE   0.0829         C  1 -- C  5         +12.0% ( 46.1%)     98.9%
 TRAVEL (Ang.)       0.2415         C  1 -- H 10         +11.0% ( 44.0%)      1.9%
 REDUCED MASS        0.8013         C  1 -- C  3          +9.4% ( 40.8%)     38.9%
 EFFECTIVE MASS      6.2237
 FORCE CONSTANT      0.9821

 VIBRATION         42   42A           ATOM PAIR      ENERGY CONTRIBUTION    RADIAL
 FREQUENCY          1522.35         C  4 -- C  9         +22.1% ( 70.6%)     83.2%
 TRANSITION DIPOLE   0.0581         C  4 -- C  8         +20.6% ( 68.2%)     77.4%
 TRAVEL (Ang.)       0.1253         C  4 -- C  5         +13.3% ( 54.7%)      0.0%
 REDUCED MASS        2.8221         C  2 -- C  7          +7.5% ( 41.3%)     94.3%
 EFFECTIVE MASS     11.4586
 FORCE CONSTANT      3.8534

 VIBRATION         43   43A           ATOM PAIR      ENERGY CONTRIBUTION    RADIAL
 FREQUENCY          1856.22         C  7 -- C  9         +23.1% ( 70.8%)     99.9%
 TRANSITION DIPOLE   0.6764         C  4 -- C  5         +20.1% ( 66.0%)     97.9%
 TRAVEL (Ang.)       0.1187         C  4 -- C  9         +10.5% ( 47.7%)     88.4%
 REDUCED MASS        2.5804         C  2 -- C  7          +8.3% ( 42.6%)     47.4%
 EFFECTIVE MASS     11.8702
 FORCE CONSTANT      5.2384

 VIBRATION         44   44A           ATOM PAIR      ENERGY CONTRIBUTION    RADIAL
 FREQUENCY          1860.49         C  6 -- C  8         +34.3% ( 86.9%)    100.0%
 TRANSITION DIPOLE   0.2408         C  2 -- C  6         +11.2% ( 49.6%)     58.1%
 TRAVEL (Ang.)       0.1020         C  4 -- C  8         +11.1% ( 49.4%)     68.6%
 REDUCED MASS        3.4862         C  8 -- H 20         +10.2% ( 47.4%)      4.6%
 EFFECTIVE MASS     11.9195         C  6 -- H 18         +10.2% ( 47.4%)      4.7%
 FORCE CONSTANT      7.1099

 VIBRATION         45   45A           ATOM PAIR      ENERGY CONTRIBUTION    RADIAL
 FREQUENCY          1894.37         C  4 -- C  5         +21.7% ( 69.2%)     99.6%
 TRANSITION DIPOLE   0.3208         C  4 -- C  9         +15.5% ( 58.4%)     39.0%
 TRAVEL (Ang.)       0.1239         C  7 -- C  9         +13.2% ( 53.9%)     99.7%
 REDUCED MASS        2.3184         C  4 -- C  8         +12.9% ( 53.3%)     33.8%
 EFFECTIVE MASS     11.8446
 FORCE CONSTANT      4.9020

 VIBRATION         46   46A           ATOM PAIR      ENERGY CONTRIBUTION    RADIAL
 FREQUENCY          2922.84         C  1 -- H 11         +64.6% ( 83.3%)     97.9%
 TRANSITION DIPOLE   0.0390         C  1 -- H 10         +32.5% ( 59.1%)     93.9%
 TRAVEL (Ang.)       0.2027         C  1 -- C  3          +1.1% ( 11.1%)      0.4%
 REDUCED MASS        0.5615         C  1 -- C  5          +1.1% ( 11.1%)      1.3%
 EFFECTIVE MASS      1.5290
 FORCE CONSTANT      2.8262

 VIBRATION         47   47A           ATOM PAIR      ENERGY CONTRIBUTION    RADIAL
 FREQUENCY          2927.92         C  2 -- H 13         +49.4% ( 72.9%)     96.6%
 TRANSITION DIPOLE   0.0526         C  2 -- H 12         +48.5% ( 72.2%)     96.5%
 TRAVEL (Ang.)       0.2110         C  2 -- C  6          +1.1% ( 10.8%)      0.0%
 REDUCED MASS        0.5173         C  2 -- C  7          +1.1% ( 10.8%)      0.0%
 EFFECTIVE MASS      1.5334
 FORCE CONSTANT      2.6130

 VIBRATION         48   48A           ATOM PAIR      ENERGY CONTRIBUTION    RADIAL
 FREQUENCY          3004.96         C  1 -- H 10         +40.9% ( 63.9%)     99.4%
 TRANSITION DIPOLE   0.2478         C  9 -- H 21         +39.1% ( 62.5%)    100.0%
 TRAVEL (Ang.)       0.2582         C  1 -- H 11         +15.8% ( 39.7%)     93.5%
 REDUCED MASS        0.3365         C  7 -- H 19          +1.2% ( 11.0%)     98.8%
 EFFECTIVE MASS      1.3684
 FORCE CONSTANT      1.7905

 VIBRATION         49   49A           ATOM PAIR      ENERGY CONTRIBUTION    RADIAL
 FREQUENCY          3006.99         C  2 -- H 12         +48.6% ( 68.7%)     97.8%
 TRANSITION DIPOLE   0.1322         C  2 -- H 13         +47.6% ( 68.0%)     97.7%
 TRAVEL (Ang.)       0.2205         C  1 -- H 10          +0.8% (  8.9%)     99.1%
 REDUCED MASS        0.4612         C  2 -- C  6          +0.7% (  8.0%)     21.4%
 EFFECTIVE MASS      1.2820
 FORCE CONSTANT      2.4569

 VIBRATION         50   50A           ATOM PAIR      ENERGY CONTRIBUTION    RADIAL
 FREQUENCY          3010.02         C  9 -- H 21         +56.6% ( 75.5%)    100.0%
 TRANSITION DIPOLE   0.1836         C  1 -- H 10         +23.6% ( 48.7%)     98.7%
 TRAVEL (Ang.)       0.2415         C  1 -- H 11         +14.4% ( 38.1%)     95.8%
 REDUCED MASS        0.3840         C  7 -- H 19          +2.5% ( 16.0%)     99.1%
 EFFECTIVE MASS      1.4154
 FORCE CONSTANT      2.0501

 VIBRATION         51   51A           ATOM PAIR      ENERGY CONTRIBUTION    RADIAL
 FREQUENCY          3032.33         C  5 -- H 17         +96.0% ( 99.3%)    100.0%
 TRANSITION DIPOLE   0.3666         C  4 -- C  5          +1.4% ( 12.1%)     35.7%
 TRAVEL (Ang.)       0.1566         C  1 -- C  5          +1.3% ( 11.6%)     14.8%
 REDUCED MASS        0.9068         C  8 -- H 20          +0.8% (  9.0%)    100.0%
 EFFECTIVE MASS      1.5050
 FORCE CONSTANT      4.9128

 VIBRATION         52   52A           ATOM PAIR      ENERGY CONTRIBUTION    RADIAL
 FREQUENCY          3041.93         C  8 -- H 20         +69.8% ( 84.8%)    100.0%
 TRANSITION DIPOLE   0.2409         C  6 -- H 18         +26.6% ( 52.4%)     99.9%
 TRAVEL (Ang.)       0.2013         C  6 -- C  8          +1.2% ( 11.0%)      3.2%
 REDUCED MASS        0.5472         C  4 -- C  8          +1.0% ( 10.1%)     20.9%
 EFFECTIVE MASS      1.4709
 FORCE CONSTANT      2.9831

 VIBRATION         53   53A           ATOM PAIR      ENERGY CONTRIBUTION    RADIAL
 FREQUENCY          3059.84         C  7 -- H 19         +83.9% ( 92.9%)    100.0%
 TRANSITION DIPOLE   0.3549         C  6 -- H 18          +6.8% ( 26.4%)     99.9%
 TRAVEL (Ang.)       0.1771         C  9 -- H 21          +3.0% ( 17.4%)     98.7%
 REDUCED MASS        0.7027         C  8 -- H 20          +2.9% ( 17.4%)     99.9%
 EFFECTIVE MASS      1.5411
 FORCE CONSTANT      3.8765

 VIBRATION         54   54A           ATOM PAIR      ENERGY CONTRIBUTION    RADIAL
 FREQUENCY          3064.24         C  6 -- H 18         +62.9% ( 80.5%)    100.0%
 TRANSITION DIPOLE   0.2670         C  8 -- H 20         +23.4% ( 49.1%)     99.8%
 TRAVEL (Ang.)       0.2192         C  7 -- H 19          +8.9% ( 30.3%)    100.0%
 REDUCED MASS        0.4582         C  6 -- C  8          +1.8% ( 13.5%)     91.5%
 EFFECTIVE MASS      1.5854
 FORCE CONSTANT      2.5347

 VIBRATION         55   55A           ATOM PAIR      ENERGY CONTRIBUTION    RADIAL
 FREQUENCY          3081.20         C  3 -- H 15         +65.2% ( 83.3%)     98.8%
 TRANSITION DIPOLE   0.0106         C  3 -- H 14         +25.8% ( 52.4%)     91.0%
 TRAVEL (Ang.)       0.2041         C  3 -- H 16          +7.9% ( 28.9%)     68.0%
 REDUCED MASS        0.5254         C  1 -- C  3          +1.0% ( 10.3%)      0.0%
 EFFECTIVE MASS      1.5017
 FORCE CONSTANT      2.9391

 VIBRATION         56   56A           ATOM PAIR      ENERGY CONTRIBUTION    RADIAL
 FREQUENCY          3086.03         C  3 -- H 16         +57.0% ( 77.9%)     98.1%
 TRANSITION DIPOLE   0.0228         C  3 -- H 14         +38.9% ( 64.3%)     95.2%
 TRAVEL (Ang.)       0.2079         C  3 -- H 15          +2.8% ( 17.4%)     34.7%
 REDUCED MASS        0.5054         C  1 -- C  3          +1.0% ( 10.3%)      0.0%
 EFFECTIVE MASS      1.5047
 FORCE CONSTANT      2.8360

 VIBRATION         57   57A           ATOM PAIR      ENERGY CONTRIBUTION    RADIAL
 FREQUENCY          3182.82         C  3 -- H 14         +34.6% ( 56.6%)     97.3%
 TRANSITION DIPOLE   0.0263         C  3 -- H 16         +34.3% ( 56.3%)     97.3%
 TRAVEL (Ang.)       0.2542         C  3 -- H 15         +30.8% ( 53.4%)     96.7%
 REDUCED MASS        0.3278         C  1 -- C  3          +0.3% (  5.1%)     99.7%
 EFFECTIVE MASS      1.1359
 FORCE CONSTANT      1.9563

      SYMMETRY NUMBER FOR POINT-GROUP C1  =  1


          SYSTEM IS A GROUND STATE



 InChI=1S/C9H12/c1-2-6-9-7-4-3-5-8-9/h4-8H,2-3H2,1H3


          MOLECULE IS NOT LINEAR

          THERE ARE 57 GENUINE VIBRATIONS IN THIS SYSTEM
          THIS THERMODYNAMICS CALCULATION IS LIMITED TO
          MOLECULES WHICH HAVE NO INTERNAL ROTATIONS




                    CALCULATED THERMODYNAMIC PROPERTIES
                                          *
   TEMP. (K)   PARTITION FUNCTION   H.O.F.    ENTHALPY  HEAT CAPACITY ENTROPY
                                   KCAL/MOL   CAL/MOLE    CAL/K/MOL  CAL/K/MOL


 298.00  VIB.     0.2670D+03                  3822.1790    27.6728    23.9293
         ROT.     0.5092D+06                   888.2803     2.9808    29.0940
         INT.     0.1360D+09                  4710.4593    30.6537    53.0233
         TRA.     0.1274D+28                  1480.4672     4.9680    40.2640
         TOT.                       24.436    6190.9265    35.6217    93.2874

 200.00  VIB.     0.3358D+02                  1649.2209    16.9770    15.2288
         ROT.     0.2800D+06                   596.1613     2.9808    27.9053
         INT.     0.9401D+07                  2245.3822    19.9578    43.1342
         TRA.     0.7004D+27                   993.6021     4.9680    38.2829
         TOT.                       21.484    3238.9843    24.9258    81.4171

 210.00  VIB.     0.4133D+02                  1823.9349    17.9705    16.0811
         ROT.     0.3012D+06                   625.9693     2.9808    28.0508
         INT.     0.1245D+08                  2449.9042    20.9514    44.1318
         TRA.     0.7536D+27                  1043.2822     4.9680    38.5253
         TOT.                       21.738    3493.1865    25.9194    82.6571

 220.00  VIB.     0.5091D+02                  2008.7247    18.9919    16.9405
         ROT.     0.3230D+06                   655.7774     2.9808    28.1894
         INT.     0.1645D+08                  2664.5021    21.9728    45.1300
         TRA.     0.8081D+27                  1092.9623     4.9680    38.7564
         TOT.                       22.002    3757.4644    26.9408    83.8864

 230.00  VIB.     0.6276D+02                  2203.8620    20.0398    17.8078
         ROT.     0.3453D+06                   685.5855     2.9808    28.3219
         INT.     0.2167D+08                  2889.4475    23.0206    46.1297
         TRA.     0.8638D+27                  1142.6424     4.9680    38.9773
         TOT.                       22.277    4032.0900    27.9886    85.1070

 240.00  VIB.     0.7744D+02                  2409.6018    21.1121    18.6832
         ROT.     0.3681D+06                   715.3935     2.9808    28.4488
         INT.     0.2850D+08                  3124.9954    24.0929    47.1320
         TRA.     0.9207D+27                  1192.3226     4.9680    39.1887
         TOT.                       22.562    4317.3179    29.0609    86.3207

 250.00  VIB.     0.9562D+02                  2626.1765    22.2063    19.5672
         ROT.     0.3913D+06                   745.2016     2.9808    28.5705
         INT.     0.3742D+08                  3371.3781    25.1871    48.1377
         TRA.     0.9789D+27                  1242.0027     4.9680    39.3915
         TOT.                       22.858    4613.3808    30.1551    87.5292

 260.00  VIB.     0.1182D+03                  2853.7924    23.3198    20.4598
         ROT.     0.4150D+06                   775.0097     2.9808    28.6874
         INT.     0.4905D+08                  3628.8021    26.3006    49.1472
         TRA.     0.1038D+28                  1291.6828     4.9680    39.5863
         TOT.                       23.165    4920.4848    31.2686    88.7335

 270.00  VIB.     0.1462D+03                  3092.6269    24.4495    21.3610
         ROT.     0.4392D+06                   804.8177     2.9808    28.7999
         INT.     0.6423D+08                  3897.4447    27.4303    50.1609
         TRA.     0.1099D+28                  1341.3629     4.9680    39.7738
         TOT.                       23.483    5238.8075    32.3984    89.9347

 280.00  VIB.     0.1812D+03                  3342.8271    25.5924    22.2708
         ROT.     0.4638D+06                   834.6258     2.9808    28.9083
         INT.     0.8402D+08                  4177.4529    28.5732    51.1791
         TRA.     0.1160D+28                  1391.0430     4.9680    39.9545
         TOT.                       23.813    5568.4958    33.5412    91.1336

 290.00  VIB.     0.2246D+03                  3604.5087    26.7453    23.1890
         ROT.     0.4889D+06                   864.4339     2.9808    29.0129
         INT.     0.1098D+09                  4468.9426    29.7261    52.2018
         TRA.     0.1223D+28                  1440.7231     4.9680    40.1289
         TOT.                       24.154    5909.6657    34.6942    92.3307

 300.00  VIB.     0.2789D+03                  3877.7571    27.9052    24.1152
         ROT.     0.5144D+06                   894.2419     2.9808    29.1139
         INT.     0.1434D+09                  4771.9990    30.8861    53.2291
         TRA.     0.1287D+28                  1490.4032     4.9680    40.2973
         TOT.                       24.507    6262.4022    35.8541    93.5264

 310.00  VIB.     0.3466D+03                  4162.6272    29.0692    25.0492
         ROT.     0.5403D+06                   924.0500     2.9808    29.2117
         INT.     0.1873D+09                  5086.6772    32.0500    54.2609
         TRA.     0.1352D+28                  1540.0833     4.9680    40.4602
         TOT.                       24.871    6626.7605    37.0180    94.7210

 320.00  VIB.     0.4312D+03                  4459.1458    30.2345    25.9905
         ROT.     0.5667D+06                   953.8580     2.9808    29.3063
         INT.     0.2444D+09                  5413.0038    33.2153    55.2968
         TRA.     0.1418D+28                  1589.7634     4.9680    40.6179
         TOT.                       25.247    7002.7672    38.1833    95.9147

 330.00  VIB.     0.5372D+03                  4767.3123    31.3984    26.9387
         ROT.     0.5934D+06                   983.6661     2.9808    29.3980
         INT.     0.3188D+09                  5750.9784    34.3792    56.3367
         TRA.     0.1485D+28                  1639.4435     4.9680    40.7708
         TOT.                       25.635    7390.4219    39.3472    97.1075

 340.00  VIB.     0.6700D+03                  5087.1016    32.5586    27.8933
         ROT.     0.6206D+06                  1013.4742     2.9808    29.4870
         INT.     0.4158D+09                  6100.5758    35.5394    57.3803
         TRA.     0.1553D+28                  1689.1236     4.9680    40.9191
         TOT.                       26.034    7789.6994    40.5075    98.2994

 350.00  VIB.     0.8365D+03                  5418.4656    33.7130    28.8537
         ROT.     0.6482D+06                  1043.2822     2.9808    29.5734
         INT.     0.5422D+09                  6461.7478    36.6938    58.4272
         TRA.     0.1622D+28                  1738.8037     4.9680    41.0631
         TOT.                       26.445    8200.5515    41.6618    99.4903

 360.00  VIB.     0.1046D+04                  5761.3354    34.8595    29.8195
         ROT.     0.6762D+06                  1073.0903     2.9808    29.6574
         INT.     0.7070D+09                  6834.4257    37.8403    59.4769
         TRA.     0.1692D+28                  1788.4838     4.9680    41.2031
         TOT.                       26.868    8622.9095    42.8083   100.6800

 370.00  VIB.     0.1309D+04                  6115.6240    35.9965    30.7902
         ROT.     0.7045D+06                  1102.8984     2.9808    29.7391
         INT.     0.9219D+09                  7218.5223    38.9773    60.5293
         TRA.     0.1762D+28                  1838.1639     4.9680    41.3392
         TOT.                       27.301    9056.6863    43.9453   101.8684

 380.00  VIB.     0.1639D+04                  6481.2279    37.1224    31.7651
         ROT.     0.7333D+06                  1132.7064     2.9808    29.8186
         INT.     0.1202D+10                  7613.9344    40.1032    61.5837
         TRA.     0.1834D+28                  1887.8440     4.9680    41.4717
         TOT.                       27.746    9501.7784    45.0712   103.0554

 390.00  VIB.     0.2056D+04                  6858.0298    38.2359    32.7438
         ROT.     0.7624D+06                  1162.5145     2.9808    29.8960
         INT.     0.1567D+10                  8020.5443    41.2167    62.6398
         TRA.     0.1907D+28                  1937.5242     4.9680    41.6007
         TOT.                       28.203    9958.0684    46.1847   104.2405

 400.00  VIB.     0.2581D+04                  7245.8999    39.3358    33.7258
         ROT.     0.7919D+06                  1192.3226     2.9808    29.9715
         INT.     0.2044D+10                  8438.2225    42.3166    63.6972
         TRA.     0.1981D+28                  1987.2043     4.9680    41.7265
         TOT.                       28.670   10425.4267    47.2847   105.4237

   *: NOTE: HEATS OF FORMATION ARE RELATIVE TO THE
            ELEMENTS IN THEIR STANDARD STATE AT 298K
              (=  Standard Enthalpy of Formation).

            Hvib:  Zero-point energy is not included.
                   frequencies of less than zero cm-1 are not included.
            Hrot = (3/2)RT
            Htra = (3/2)RT + pV = (5/2)RT

            Heat capacity is Cp, not Cv

          For more information, see: HTTP://OpenMOPAC.net/Manual/thermochemistry.html


           FORCE CONSTANT IN CARTESIAN COORDINATES (Millidynes/A)

    ATOM   CHEMICAL       X               Y               Z
   NUMBER   SYMBOL  FORCE CONSTANT  FORCE CONSTANT  FORCE CONSTANT

      1       C        8.717479        8.081157        8.505848
      2       C        9.042544        7.745776        9.278300
      3       C        8.360591        8.210716        8.281756
      4       C       15.349799        3.033652       10.409814
      5       C       14.795627        2.948085        9.106518
      6       C       14.971244        2.950218        9.220710
      7       C       14.768655        2.890000        9.506422
      8       C       15.090023        2.860700        9.753504
      9       C       15.217803        2.749851        9.699910
     10       H        1.445909        3.787664        1.025680
     11       H        1.460121        0.764350        4.228363
     12       H        2.110232        2.886191        1.165893
     13       H        1.863921        3.591360        0.699073
     14       H        1.517879        4.153996        1.108702
     15       H        1.345501        0.784458        4.650392
     16       H        3.348972        0.963052        2.476072
     17       H        1.111499        0.669704        4.417066
     18       H        2.834711        0.546461        2.868182
     19       H        1.154271        0.650522        4.446350
     20       H        1.186690        0.699758        4.353860
     21       H        2.971127        0.513998        2.803328

 **********************
 *                    *
 * JOB ENDED NORMALLY *
 *                    *
 **********************



 TOTAL JOB TIME:             3.19 SECONDS

 == MOPAC DONE ==
