 *******************************************************************************
 **                                                                           **
 **                              MOPAC v23.1.2                                **
 **                                                                           **
 *******************************************************************************
 **          Digital Object Identifier (DOI): 10.5281/zenodo.6511958          **
 **    Visit the DOI location for information on how to cite this program.    **
 *******************************************************************************

                              PM3 CALCULATION RESULTS

 *******************************************************************************
 *  CALCULATION DONE: (MAX THREADS = 1)              Tue Jun  3 16:31:46 2025  *
 *  PM3        - The PM3 Hamiltonian to be used
 *  PRECISE    - TIGHTER CRITERIA TO BE USED
 *  NOSYM      - POINT-GROUP SYMMETRY SET TO C1
 *  THREADS=1  - MULTI-THREADING NOT USED
 *  T=         - A TIME OF 172800.0 SECONDS REQUESTED
 *  DUMP=N     - RESTART FILE WRITTEN EVERY 7200.0 SECONDS REQUESTED
 *******************************************************************************
pm3  precise nosym THREADS=1
 InChI=1S/C10H10/c1-2-6-10-8-4-3-7-9(10)5-1/h1-3,5-7H,4,8H2

   ATOM   CHEMICAL          X               Y               Z
  NUMBER   SYMBOL      (ANGSTROMS)     (ANGSTROMS)     (ANGSTROMS)

     1       C         -1.05430000  *  -1.39100000  *  -0.16490000  *
     2       C         -2.27430000  *  -0.56590000  *   0.27530000  *
     3       C          0.22470000  *  -0.60840000  *   0.01040000  *
     4       C          0.21190000  *   0.79180000  *  -0.15830000  *
     5       C         -2.22890000  *   0.83530000  *  -0.27660000  *
     6       C         -1.06780000  *   1.48360000  *  -0.41400000  *
     7       C          1.44210000  *  -1.26940000  *   0.23300000  *
     8       C          1.41140000  *   1.51430000  *  -0.08780000  *
     9       C          2.63230000  *  -0.54010000  *   0.31290000  *
    10       C          2.61700000  *   0.84840000  *   0.15250000  *
    11       H         -3.20660000  *  -1.06840000  *  -0.05960000  *
    12       H         -2.29280000  *  -0.50650000  *   1.38510000  *
    13       H         -1.02040000  *  -2.33010000  *   0.42920000  *
    14       H         -1.16050000  *  -1.66180000  *  -1.23760000  *
    15       H         -3.15710000  *   1.35040000  *  -0.48980000  *
    16       H          1.47000000  *  -2.34680000  *   0.33810000  *
    17       H         -1.07010000  *   2.51880000  *  -0.73270000  *
    18       H          3.56890000  *  -1.05280000  *   0.49000000  *
    19       H          1.41330000  *   2.58980000  *  -0.21500000  *
    20       H          3.54130000  *   1.40870000  *   0.20980000  *



          CARTESIAN COORDINATES 

    NO.       ATOM           X           Y           Z

     1         C         -1.0543     -1.3910     -0.1649
     2         C         -2.2743     -0.5659      0.2753
     3         C          0.2247     -0.6084      0.0104
     4         C          0.2119      0.7918     -0.1583
     5         C         -2.2289      0.8353     -0.2766
     6         C         -1.0678      1.4836     -0.4140
     7         C          1.4421     -1.2694      0.2330
     8         C          1.4114      1.5143     -0.0878
     9         C          2.6323     -0.5401      0.3129
    10         C          2.6170      0.8484      0.1525
    11         H         -3.2066     -1.0684     -0.0596
    12         H         -2.2928     -0.5065      1.3851
    13         H         -1.0204     -2.3301      0.4292
    14         H         -1.1605     -1.6618     -1.2376
    15         H         -3.1571      1.3504     -0.4898
    16         H          1.4700     -2.3468      0.3381
    17         H         -1.0701      2.5188     -0.7327
    18         H          3.5689     -1.0528      0.4900
    19         H          1.4133      2.5898     -0.2150
    20         H          3.5413      1.4087      0.2098

  H: (PM3): J. J. P. STEWART, J. COMP. CHEM. 10, 209 (1989).
  C: (PM3): J. J. P. STEWART, J. COMP. CHEM. 10, 209 (1989).

           Empirical Formula: C10 H10  =    20 atoms



      MOLECULAR POINT GROUP   :   C1  


      RHF CALCULATION, NO. OF DOUBLY OCCUPIED LEVELS = 25


          Geometry optimization using EF

          DIAGONAL MATRIX USED AS START HESSIAN

 CYCLE:     1 TIME:   0.008 TIME LEFT:  2.00D  GRAD.:    65.167 HEAT:  30.79877
 CYCLE:     2 TIME:   0.016 TIME LEFT:  2.00D  GRAD.:    30.980 HEAT:  29.72434
 CYCLE:     3 TIME:   0.008 TIME LEFT:  2.00D  GRAD.:    27.750 HEAT:  29.46324
 CYCLE:     4 TIME:   0.012 TIME LEFT:  2.00D  GRAD.:    23.985 HEAT:  29.31927
 CYCLE:     5 TIME:   0.004 TIME LEFT:  2.00D  GRAD.:    20.220 HEAT:  29.21506
 CYCLE:     6 TIME:   0.008 TIME LEFT:  2.00D  GRAD.:    15.716 HEAT:  29.11828
 CYCLE:     7 TIME:   0.008 TIME LEFT:  2.00D  GRAD.:    17.607 HEAT:  29.04599
 CYCLE:     8 TIME:   0.012 TIME LEFT:  2.00D  GRAD.:    11.089 HEAT:  28.96532
 CYCLE:     9 TIME:   0.008 TIME LEFT:  2.00D  GRAD.:     7.547 HEAT:  28.92424
 CYCLE:    10 TIME:   0.008 TIME LEFT:  2.00D  GRAD.:     8.743 HEAT:  28.89764
 CYCLE:    11 TIME:   0.008 TIME LEFT:  2.00D  GRAD.:     8.547 HEAT:  28.85975
 CYCLE:    12 TIME:   0.012 TIME LEFT:  2.00D  GRAD.:     7.913 HEAT:  28.84949
 CYCLE:    13 TIME:   0.008 TIME LEFT:  2.00D  GRAD.:     4.277 HEAT:  28.83324
 CYCLE:    14 TIME:   0.004 TIME LEFT:  2.00D  GRAD.:     5.724 HEAT:  28.82701
 CYCLE:    15 TIME:   0.008 TIME LEFT:  2.00D  GRAD.:     3.089 HEAT:  28.81352
 CYCLE:    16 TIME:   0.008 TIME LEFT:  2.00D  GRAD.:     6.665 HEAT:  28.81189
 CYCLE:    17 TIME:   0.008 TIME LEFT:  2.00D  GRAD.:     5.293 HEAT:  28.80278
 CYCLE:    18 TIME:   0.012 TIME LEFT:  2.00D  GRAD.:     3.868 HEAT:  28.79443
 CYCLE:    19 TIME:   0.008 TIME LEFT:  2.00D  GRAD.:     6.020 HEAT:  28.79379
 CYCLE:    20 TIME:   0.008 TIME LEFT:  2.00D  GRAD.:     3.163 HEAT:  28.78350
 CYCLE:    21 TIME:   0.004 TIME LEFT:  2.00D  GRAD.:     5.921 HEAT:  28.78300
 CYCLE:    22 TIME:   0.012 TIME LEFT:  2.00D  GRAD.:     2.923 HEAT:  28.77656
 CYCLE:    23 TIME:   0.004 TIME LEFT:  2.00D  GRAD.:     2.675 HEAT:  28.77404
 CYCLE:    24 TIME:   0.008 TIME LEFT:  2.00D  GRAD.:     1.567 HEAT:  28.77056
 CYCLE:    25 TIME:   0.004 TIME LEFT:  2.00D  GRAD.:     1.964 HEAT:  28.76823
 CYCLE:    26 TIME:   0.008 TIME LEFT:  2.00D  GRAD.:     1.475 HEAT:  28.76537
 CYCLE:    27 TIME:   0.008 TIME LEFT:  2.00D  GRAD.:     2.287 HEAT:  28.76300
 CYCLE:    28 TIME:   0.008 TIME LEFT:  2.00D  GRAD.:     1.408 HEAT:  28.76057
 CYCLE:    29 TIME:   0.004 TIME LEFT:  2.00D  GRAD.:     1.260 HEAT:  28.75854
 CYCLE:    30 TIME:   0.008 TIME LEFT:  2.00D  GRAD.:     1.241 HEAT:  28.75559
 CYCLE:    31 TIME:   0.004 TIME LEFT:  2.00D  GRAD.:     1.229 HEAT:  28.75291
 CYCLE:    32 TIME:   0.008 TIME LEFT:  2.00D  GRAD.:     1.478 HEAT:  28.75133
 CYCLE:    33 TIME:   0.008 TIME LEFT:  2.00D  GRAD.:     0.923 HEAT:  28.74952
 CYCLE:    34 TIME:   0.004 TIME LEFT:  2.00D  GRAD.:     1.024 HEAT:  28.74699
 CYCLE:    35 TIME:   0.008 TIME LEFT:  2.00D  GRAD.:     1.266 HEAT:  28.74478
 CYCLE:    36 TIME:   0.008 TIME LEFT:  2.00D  GRAD.:     1.066 HEAT:  28.74169
 CYCLE:    37 TIME:   0.008 TIME LEFT:  2.00D  GRAD.:     0.921 HEAT:  28.73999
 CYCLE:    38 TIME:   0.008 TIME LEFT:  2.00D  GRAD.:     0.659 HEAT:  28.73913
 CYCLE:    39 TIME:   0.004 TIME LEFT:  2.00D  GRAD.:     0.538 HEAT:  28.73848
 CYCLE:    40 TIME:   0.008 TIME LEFT:  2.00D  GRAD.:     0.342 HEAT:  28.73810
 CYCLE:    41 TIME:   0.008 TIME LEFT:  2.00D  GRAD.:     0.214 HEAT:  28.73786
 CYCLE:    42 TIME:   0.008 TIME LEFT:  2.00D  GRAD.:     0.202 HEAT:  28.73774
 CYCLE:    43 TIME:   0.004 TIME LEFT:  2.00D  GRAD.:     0.251 HEAT:  28.73761
 CYCLE:    44 TIME:   0.008 TIME LEFT:  2.00D  GRAD.:     0.306 HEAT:  28.73745
 CYCLE:    45 TIME:   0.008 TIME LEFT:  2.00D  GRAD.:     0.337 HEAT:  28.73723
 CYCLE:    46 TIME:   0.004 TIME LEFT:  2.00D  GRAD.:     0.286 HEAT:  28.73701
 CYCLE:    47 TIME:   0.008 TIME LEFT:  2.00D  GRAD.:     0.253 HEAT:  28.73682
 CYCLE:    48 TIME:   0.008 TIME LEFT:  2.00D  GRAD.:     0.234 HEAT:  28.73672
 CYCLE:    49 TIME:   0.004 TIME LEFT:  2.00D  GRAD.:     0.171 HEAT:  28.73660
 CYCLE:    50 TIME:   0.008 TIME LEFT:  2.00D  GRAD.:     0.126 HEAT:  28.73656
 CYCLE:    51 TIME:   0.004 TIME LEFT:  2.00D  GRAD.:     0.070 HEAT:  28.73653
 CYCLE:    52 TIME:   0.008 TIME LEFT:  2.00D  GRAD.:     0.072 HEAT:  28.73652
 CYCLE:    53 TIME:   0.004 TIME LEFT:  2.00D  GRAD.:     0.051 HEAT:  28.73651
 CYCLE:    54 TIME:   0.008 TIME LEFT:  2.00D  GRAD.:     0.037 HEAT:  28.73650

     GRADIENT =  0.03658 IS LESS THAN CUTOFF =  0.05000



 -------------------------------------------------------------------------------
 pm3  precise nosym THREADS=1
 InChI=1S/C10H10/c1-2-6-10-8-4-3-7-9(10)5-1/h1-3,5-7H,4,8H2



     GEOMETRY OPTIMISED USING EIGENVECTOR FOLLOWING (EF).     
     SCF FIELD WAS ACHIEVED                                   


                              PM3 CALCULATION
                                                       MOPAC v23.1.2 MacOS
                                                       Tue Jun  3 16:31:47 2025




          FINAL HEAT OF FORMATION =         28.73650 KCAL/MOL =     120.23354 KJ/MOL


          COSMO AREA              =        169.93 SQUARE ANGSTROMS
          COSMO VOLUME            =        170.46 CUBIC ANGSTROMS

          GRADIENT NORM           =          0.03658          =       0.00818 PER ATOM
          IONIZATION POTENTIAL    =          8.836782 EV
          HOMO LUMO ENERGIES (EV) =         -8.837 -0.078
          NO. OF FILLED LEVELS    =         25
          MOLECULAR WEIGHT        =        130.1890         POINT GROUP:  C1  

          MOLECULAR DIMENSIONS (Angstroms)

            Atom       Atom       Distance
            H    18    H    15     7.20330
            H    19    H    13     5.47293
            H    14    H    12     2.77635


          SCF CALCULATIONS        =         63

          WALL-CLOCK TIME         =      0.410 SECONDS
          COMPUTATION TIME        =      0.262 SECONDS




   ATOM   CHEMICAL          X               Y               Z
  NUMBER   SYMBOL      (ANGSTROMS)     (ANGSTROMS)     (ANGSTROMS)

     1       C         -1.04324604  *  -1.37745904  *  -0.14114461  *
     2       C         -2.27766134  *  -0.57112281  *   0.23831647  *
     3       C          0.22614339  *  -0.60197947  *  -0.01099973  *
     4       C          0.21512410  *   0.79098843  *  -0.17508657  *
     5       C         -2.21502288  *   0.84059139  *  -0.22350288  *
     6       C         -1.05082139  *   1.47295710  *  -0.41078950  *
     7       C          1.43244754  *  -1.25753412  *   0.23389690  *
     8       C          1.41076223  *   1.50957157  *  -0.10022229  *
     9       C          2.61724726  *  -0.53508400  *   0.31172578  *
    10       C          2.60676019  *   0.84630610  *   0.14285907  *
    11       H         -3.18092679  *  -1.06426894  *  -0.17097363  *
    12       H         -2.41303809  *  -0.56221846  *   1.33933207  *
    13       H         -0.99656498  *  -2.29932505  *   0.47182465  *
    14       H         -1.12035081  *  -1.71944489  *  -1.19370520  *
    15       H         -3.16969920  *   1.35400820  *  -0.37867181  *
    16       H          1.44446728  *  -2.34537777  *   0.36490006  *
    17       H         -1.00850946  *   2.51968513  *  -0.73184941  *
    18       H          3.56102874  *  -1.05485423  *   0.50572448  *
    19       H          1.40083729  *   2.59730523  *  -0.23169663  *
    20       H          3.54240608  *   1.41146081  *   0.20284512  *

                             CARTESIAN COORDINATES

   1    C       -1.043246036    -1.377459040    -0.141144609
   2    C       -2.277661341    -0.571122812     0.238316467
   3    C        0.226143387    -0.601979475    -0.010999730
   4    C        0.215124101     0.790988432    -0.175086571
   5    C       -2.215022883     0.840591386    -0.223502876
   6    C       -1.050821391     1.472957098    -0.410789503
   7    C        1.432447538    -1.257534121     0.233896899
   8    C        1.410762232     1.509571566    -0.100222294
   9    C        2.617247259    -0.535083997     0.311725782
  10    C        2.606760193     0.846306095     0.142859070
  11    H       -3.180926786    -1.064268942    -0.170973630
  12    H       -2.413038085    -0.562218460     1.339332065
  13    H       -0.996564982    -2.299325047     0.471824650
  14    H       -1.120350808    -1.719444890    -1.193705204
  15    H       -3.169699200     1.354008196    -0.378671806
  16    H        1.444467283    -2.345377765     0.364900063
  17    H       -1.008509461     2.519685131    -0.731849411
  18    H        3.561028743    -1.054854230     0.505724479
  19    H        1.400837288     2.597305226    -0.231696626
  20    H        3.542406079     1.411460811     0.202845122


           Empirical Formula: C10 H10  =    20 atoms



      MOLECULAR POINT GROUP   :   C1  


                  EIGENVALUES  
 -41.26287 -35.97920 -31.77105 -28.71029 -27.51387 -22.80725 -21.54470 -21.30003
 -17.98059 -17.49120 -17.01683 -15.84148 -15.48786 -14.99096 -14.69104 -14.14443
 -13.63985 -13.24637 -12.96922 -12.63792 -12.12004 -11.81223 -10.83482  -9.53949
  -8.83678  -0.07830   0.42140   1.51322   2.96526   3.14169   3.27342   3.40324
   3.48390   3.59109   3.70195   3.83572   3.89607   3.95931   4.13208   4.39095
   4.55787   4.68029   4.93227   5.02460   5.19157   5.34349   5.64794   5.80229
   6.29418   6.46497


              NET ATOMIC CHARGES AND DIPOLE CONTRIBUTIONS

  ATOM NO.   TYPE          CHARGE      No. of ELECS.   s-Pop       p-Pop       
    1          C          -0.047097        4.0471     1.14495     2.90214
    2          C          -0.059331        4.0593     1.14582     2.91351
    3          C          -0.063573        4.0636     1.18073     2.88285
    4          C          -0.041219        4.0412     1.16294     2.87828
    5          C          -0.132561        4.1326     1.19589     2.93667
    6          C          -0.102114        4.1021     1.17745     2.92467
    7          C          -0.104454        4.1045     1.17764     2.92681
    8          C          -0.086259        4.0863     1.17741     2.90885
    9          C          -0.097945        4.0979     1.17847     2.91948
   10          C          -0.108909        4.1089     1.17868     2.93023
   11          H           0.053936        0.9461     0.94606
   12          H           0.058554        0.9414     0.94145
   13          H           0.055921        0.9441     0.94408
   14          H           0.057842        0.9422     0.94216
   15          H           0.099509        0.9005     0.90049
   16          H           0.104636        0.8954     0.89536
   17          H           0.104322        0.8957     0.89568
   18          H           0.101678        0.8983     0.89832
   19          H           0.104573        0.8954     0.89543
   20          H           0.102491        0.8975     0.89751
 DIPOLE           X         Y         Z       TOTAL
 POINT-CHG.    -0.388    -0.256     0.042     0.467
 HYBRID         0.009     0.010    -0.000     0.013
 SUM           -0.380    -0.245     0.042     0.454


          ATOMIC ORBITAL ELECTRON POPULATIONS

     Atom    s        px        py        pz   
    1  C   1.14495   0.92397   0.96613   1.01204
    2  C   1.14582   0.97019   0.93885   1.00447
    3  C   1.18073   0.95044   0.94265   0.98975
    4  C   1.16294   0.93933   0.93500   1.00396
    5  C   1.19589   0.97468   0.96588   0.99611
    6  C   1.17745   0.92926   0.98080   1.01461
    7  C   1.17764   0.93427   0.98154   1.01101
    8  C   1.17741   0.93220   0.97987   0.99678
    9  C   1.17847   0.97064   0.94991   0.99893
   10  C   1.17868   0.97150   0.95241   1.00632
   11  H   0.94606
   12  H   0.94145
   13  H   0.94408
   14  H   0.94216
   15  H   0.90049
   16  H   0.89536
   17  H   0.89568
   18  H   0.89832
   19  H   0.89543
   20  H   0.89751
 *******************************************************************************
 **                                                                           **
 **                              MOPAC v23.1.2                                **
 **                                                                           **
 *******************************************************************************
 **          Digital Object Identifier (DOI): 10.5281/zenodo.6511958          **
 **    Visit the DOI location for information on how to cite this program.    **
 *******************************************************************************

                              PM3 CALCULATION RESULTS

 *******************************************************************************
 *  CALCULATION DONE: (MAX THREADS = 1)              Tue Jun  3 16:31:47 2025  *
 *  PM3        - The PM3 Hamiltonian to be used
 *  OLDGEO     - PREVIOUS GEOMETRY TO BE USED
 *  PRECISE    - TIGHTER CRITERIA TO BE USED
 *  NOSYM      - POINT-GROUP SYMMETRY SET TO C1
 *  THREADS=1  - MULTI-THREADING NOT USED
 *  T=         - A TIME OF 172800.0 SECONDS REQUESTED
 *  DUMP=N     - RESTART FILE WRITTEN EVERY 7200.0 SECONDS REQUESTED
 *  THERMO     - THERMODYNAMIC QUANTITIES TO BE CALCULATED
 *******************************************************************************
oldgeo thermo nosym precise THREADS=1  pm3
 InChI=1S/C10H10/c1-2-6-10-8-4-3-7-9(10)5-1/h1-3,5-7H,4,8H2

   ATOM   CHEMICAL          X               Y               Z
  NUMBER   SYMBOL      (ANGSTROMS)     (ANGSTROMS)     (ANGSTROMS)

     1       C         -1.04324604  *  -1.37745904  *  -0.14114461  *
     2       C         -2.27766134  *  -0.57112281  *   0.23831647  *
     3       C          0.22614339  *  -0.60197947  *  -0.01099973  *
     4       C          0.21512410  *   0.79098843  *  -0.17508657  *
     5       C         -2.21502288  *   0.84059139  *  -0.22350288  *
     6       C         -1.05082139  *   1.47295710  *  -0.41078950  *
     7       C          1.43244754  *  -1.25753412  *   0.23389690  *
     8       C          1.41076223  *   1.50957157  *  -0.10022229  *
     9       C          2.61724726  *  -0.53508400  *   0.31172578  *
    10       C          2.60676019  *   0.84630610  *   0.14285907  *
    11       H         -3.18092679  *  -1.06426894  *  -0.17097363  *
    12       H         -2.41303809  *  -0.56221846  *   1.33933207  *
    13       H         -0.99656498  *  -2.29932505  *   0.47182465  *
    14       H         -1.12035081  *  -1.71944489  *  -1.19370520  *
    15       H         -3.16969920  *   1.35400820  *  -0.37867181  *
    16       H          1.44446728  *  -2.34537777  *   0.36490006  *
    17       H         -1.00850946  *   2.51968513  *  -0.73184941  *
    18       H          3.56102874  *  -1.05485423  *   0.50572448  *
    19       H          1.40083729  *   2.59730523  *  -0.23169663  *
    20       H          3.54240608  *   1.41146081  *   0.20284512  *



          CARTESIAN COORDINATES 

    NO.       ATOM           X           Y           Z

     1         C         -1.0432     -1.3775     -0.1411
     2         C         -2.2777     -0.5711      0.2383
     3         C          0.2261     -0.6020     -0.0110
     4         C          0.2151      0.7910     -0.1751
     5         C         -2.2150      0.8406     -0.2235
     6         C         -1.0508      1.4730     -0.4108
     7         C          1.4324     -1.2575      0.2339
     8         C          1.4108      1.5096     -0.1002
     9         C          2.6172     -0.5351      0.3117
    10         C          2.6068      0.8463      0.1429
    11         H         -3.1809     -1.0643     -0.1710
    12         H         -2.4130     -0.5622      1.3393
    13         H         -0.9966     -2.2993      0.4718
    14         H         -1.1204     -1.7194     -1.1937
    15         H         -3.1697      1.3540     -0.3787
    16         H          1.4445     -2.3454      0.3649
    17         H         -1.0085      2.5197     -0.7318
    18         H          3.5610     -1.0549      0.5057
    19         H          1.4008      2.5973     -0.2317
    20         H          3.5424      1.4115      0.2028

  H: (PM3): J. J. P. STEWART, J. COMP. CHEM. 10, 209 (1989).
  C: (PM3): J. J. P. STEWART, J. COMP. CHEM. 10, 209 (1989).

           Empirical Formula: C10 H10  =    20 atoms



      MOLECULAR POINT GROUP   :   C1  


      RHF CALCULATION, NO. OF DOUBLY OCCUPIED LEVELS = 25



          HEAT OF FORMATION =      28.736505 KCALS/MOLE


          CARTESIAN COORDINATE DERIVATIVES

   NUMBER  ATOM         X            Y            Z

     1       C      0.002835    -0.002232    -0.000640
     2       C      0.001005    -0.001371     0.000591
     3       C      0.013653     0.002695     0.006096
     4       C      0.003594    -0.006997     0.001958
     5       C     -0.004049     0.001904    -0.000502
     6       C      0.002933    -0.003902     0.005623
     7       C      0.002011     0.006120    -0.003993
     8       C     -0.010974     0.010215    -0.003290
     9       C      0.006182    -0.008260    -0.004678
    10       C      0.004572     0.007575     0.005199
    11       H     -0.006266     0.003125    -0.004125
    12       H      0.000701     0.000449     0.004837
    13       H     -0.013379     0.002820    -0.003872
    14       H     -0.002893     0.002529    -0.001574
    15       H      0.001541    -0.002882    -0.003417
    16       H      0.003250    -0.008365     0.005168
    17       H      0.008360    -0.006148    -0.001710
    18       H     -0.001144    -0.005283    -0.001645
    19       H     -0.015412     0.011615    -0.001408
    20       H      0.003481    -0.003606     0.001382



          GRADIENT NORM =   0.04357

          MOLECULAR WEIGHT =  130.19



          ROTATIONAL CONSTANTS IN CM(-1)

          A =    0.09752233   B =    0.03966008   C =    0.02882402



           PRINCIPAL MOMENTS OF INERTIA IN UNITS OF 10**(-40)*GRAM-CM**2

          A =      287.0394   B =      705.8168   C =      971.1606


          ORIENTATION OF MOLECULE IN FORCE CALCULATION

    NO.       ATOM         X         Y         Z

     1          C       0.1657   -1.8868   -0.2197
     2          C       1.6881   -1.8868   -0.2197
     3          C      -0.4204   -0.5134   -0.2197
     4          C       0.2854    0.5486    0.3647
     5          C       2.2699   -0.8272    0.6458
     6          C       1.6142    0.3083    0.9121
     7          C      -1.6846   -0.2849   -0.7623
     8          C      -0.2848    1.8232    0.4062
     9          C      -2.2432    0.9872   -0.7214
    10          C      -1.5452    2.0393   -0.1361
    11          H       2.0573   -2.8813    0.0983
    12          H       2.0770   -1.7366   -1.2477
    13          H      -0.2077   -2.4654   -1.0878
    14          H      -0.2153   -2.4134    0.6794
    15          H       3.2772   -1.0046    1.0370
    16          H      -2.2379   -1.1117   -1.2217
    17          H       2.0543    1.0958    1.5340
    18          H      -3.2354    1.1610   -1.1503
    19          H       0.2666    2.6511    0.8658
    20          H      -1.9896    3.0393   -0.1040


    FIRST DERIVATIVES WILL BE USED IN THE CALCULATION OF SECOND DERIVATIVES

          ESTIMATED TIME TO COMPLETE CALCULATION =        1.88 SECONDS

    FOR POINT-GROUP C1   THERE ARE   1 UNIQUE SYMMETRY FUNCTIONS.

 STEP:   1 TIME =     0.02 SECS, INTEGRAL =      0.02 TIME LEFT: 172799.97
 STEP:   2 TIME =     0.02 SECS, INTEGRAL =      0.04 TIME LEFT: 172799.95
 STEP:   3 TIME =     0.02 SECS, INTEGRAL =      0.06 TIME LEFT: 172799.93
 STEP:   4 TIME =     0.02 SECS, INTEGRAL =      0.08 TIME LEFT: 172799.91
 STEP:   5 TIME =     0.02 SECS, INTEGRAL =      0.10 TIME LEFT: 172799.89
 STEP:   6 TIME =     0.02 SECS, INTEGRAL =      0.12 TIME LEFT: 172799.87
 STEP:   7 TIME =     0.02 SECS, INTEGRAL =      0.14 TIME LEFT: 172799.85
 STEP:   8 TIME =     0.02 SECS, INTEGRAL =      0.16 TIME LEFT: 172799.83
 STEP:   9 TIME =     0.02 SECS, INTEGRAL =      0.18 TIME LEFT: 172799.81
 STEP:  10 TIME =     0.02 SECS, INTEGRAL =      0.20 TIME LEFT: 172799.79
 STEP:  11 TIME =     0.02 SECS, INTEGRAL =      0.23 TIME LEFT: 172799.77
 STEP:  12 TIME =     0.02 SECS, INTEGRAL =      0.25 TIME LEFT: 172799.74
 STEP:  13 TIME =     0.02 SECS, INTEGRAL =      0.27 TIME LEFT: 172799.72
 STEP:  14 TIME =     0.02 SECS, INTEGRAL =      0.29 TIME LEFT: 172799.70
 STEP:  15 TIME =     0.02 SECS, INTEGRAL =      0.31 TIME LEFT: 172799.68
 STEP:  16 TIME =     0.02 SECS, INTEGRAL =      0.34 TIME LEFT: 172799.66
 STEP:  17 TIME =     0.02 SECS, INTEGRAL =      0.36 TIME LEFT: 172799.64
 STEP:  18 TIME =     0.02 SECS, INTEGRAL =      0.38 TIME LEFT: 172799.61
 STEP:  19 TIME =     0.02 SECS, INTEGRAL =      0.40 TIME LEFT: 172799.59
 STEP:  20 TIME =     0.02 SECS, INTEGRAL =      0.43 TIME LEFT: 172799.57
 STEP:  21 TIME =     0.02 SECS, INTEGRAL =      0.45 TIME LEFT: 172799.55
 STEP:  22 TIME =     0.02 SECS, INTEGRAL =      0.46 TIME LEFT: 172799.53
 STEP:  23 TIME =     0.02 SECS, INTEGRAL =      0.49 TIME LEFT: 172799.50
 STEP:  24 TIME =     0.02 SECS, INTEGRAL =      0.51 TIME LEFT: 172799.48
 STEP:  25 TIME =     0.02 SECS, INTEGRAL =      0.53 TIME LEFT: 172799.46
 STEP:  26 TIME =     0.02 SECS, INTEGRAL =      0.55 TIME LEFT: 172799.44
 STEP:  27 TIME =     0.02 SECS, INTEGRAL =      0.58 TIME LEFT: 172799.41
 STEP:  28 TIME =     0.02 SECS, INTEGRAL =      0.60 TIME LEFT: 172799.39
 STEP:  29 TIME =     0.02 SECS, INTEGRAL =      0.62 TIME LEFT: 172799.37
 STEP:  30 TIME =     0.02 SECS, INTEGRAL =      0.65 TIME LEFT: 172799.34
 STEP:  31 TIME =     0.02 SECS, INTEGRAL =      0.67 TIME LEFT: 172799.32
 STEP:  32 TIME =     0.02 SECS, INTEGRAL =      0.69 TIME LEFT: 172799.30
 STEP:  33 TIME =     0.02 SECS, INTEGRAL =      0.71 TIME LEFT: 172799.29
 STEP:  34 TIME =     0.02 SECS, INTEGRAL =      0.73 TIME LEFT: 172799.27
 STEP:  35 TIME =     0.02 SECS, INTEGRAL =      0.75 TIME LEFT: 172799.25
 STEP:  36 TIME =     0.02 SECS, INTEGRAL =      0.77 TIME LEFT: 172799.23
 STEP:  37 TIME =     0.02 SECS, INTEGRAL =      0.79 TIME LEFT: 172799.21
 STEP:  38 TIME =     0.02 SECS, INTEGRAL =      0.80 TIME LEFT: 172799.19
 STEP:  39 TIME =     0.02 SECS, INTEGRAL =      0.82 TIME LEFT: 172799.17
 STEP:  40 TIME =     0.02 SECS, INTEGRAL =      0.84 TIME LEFT: 172799.15
 STEP:  41 TIME =     0.02 SECS, INTEGRAL =      0.86 TIME LEFT: 172799.13
 STEP:  42 TIME =     0.02 SECS, INTEGRAL =      0.88 TIME LEFT: 172799.11
 STEP:  43 TIME =     0.02 SECS, INTEGRAL =      0.90 TIME LEFT: 172799.09
 STEP:  44 TIME =     0.02 SECS, INTEGRAL =      0.92 TIME LEFT: 172799.07
 STEP:  45 TIME =     0.02 SECS, INTEGRAL =      0.94 TIME LEFT: 172799.05
 STEP:  46 TIME =     0.02 SECS, INTEGRAL =      0.96 TIME LEFT: 172799.04
 STEP:  47 TIME =     0.02 SECS, INTEGRAL =      0.98 TIME LEFT: 172799.02
 STEP:  48 TIME =     0.02 SECS, INTEGRAL =      1.00 TIME LEFT: 172799.00
 STEP:  49 TIME =     0.02 SECS, INTEGRAL =      1.02 TIME LEFT: 172798.97
 STEP:  50 TIME =     0.02 SECS, INTEGRAL =      1.04 TIME LEFT: 172798.95
 STEP:  51 TIME =     0.02 SECS, INTEGRAL =      1.06 TIME LEFT: 172798.93
 STEP:  52 TIME =     0.02 SECS, INTEGRAL =      1.08 TIME LEFT: 172798.91
 STEP:  53 TIME =     0.02 SECS, INTEGRAL =      1.11 TIME LEFT: 172798.89
 STEP:  54 TIME =     0.02 SECS, INTEGRAL =      1.12 TIME LEFT: 172798.87
 STEP:  55 TIME =     0.02 SECS, INTEGRAL =      1.14 TIME LEFT: 172798.85
 STEP:  56 TIME =     0.02 SECS, INTEGRAL =      1.16 TIME LEFT: 172798.83
 STEP:  57 TIME =     0.02 SECS, INTEGRAL =      1.18 TIME LEFT: 172798.81
 STEP:  58 TIME =     0.02 SECS, INTEGRAL =      1.20 TIME LEFT: 172798.79
 STEP:  59 TIME =     0.02 SECS, INTEGRAL =      1.22 TIME LEFT: 172798.77
 STEP:  60 TIME =     0.02 SECS, INTEGRAL =      1.25 TIME LEFT: 172798.75

(To convert to Hartree/Bohr^2, multiply by (10^(-21) x N x a0^2)/(4.184 x 627.51) =  0.0642)


           FORCE MATRIX IN MILLIDYNES/ANGSTROM


                  C  1       C  2       C  3       C  4       C  5       C  6
 ------------------------------------------------------------------------------
     C    1  14.686526
     C    2   4.128536  14.690186
     C    3   4.755413   0.651287  17.697376
     C    4   0.707792   0.111684   6.473058  18.263617
     C    5   0.669217   4.982675   0.095700   1.099771  18.047854
     C    6   0.068442   0.862277   0.845899   5.448861  10.369970  18.523389
     C    7   0.710028   0.046532   6.751427   2.359874   0.016141   0.097301
     C    8   0.091097   0.009168   2.334100   6.669988   0.089926   0.906635
     C    9   0.097824   0.013075   2.506260   1.816532   0.016581   0.041376
     C   10   0.014444   0.008090   1.816117   2.460710   0.037079   0.134100
     H   11   0.429278   4.473083   0.048055   0.008747   0.437939   0.048033
     H   12   0.444283   4.402625   0.009133   0.018447   0.405971   0.031675
     H   13   4.457752   0.431523   0.448802   0.042506   0.050210   0.004951
     H   14   4.406301   0.443407   0.409324   0.021849   0.008555   0.008516
     H   15   0.041602   0.427258   0.007994   0.126516   4.850815   0.441214
     H   16   0.046581   0.003085   0.448670   0.085475   0.001571   0.008601
     H   17   0.006340   0.121823   0.042129   0.442688   0.444188   4.825461
     H   18   0.008030   0.001731   0.090628   0.009474   0.001368   0.009623
     H   19   0.007983   0.002240   0.085229   0.447259   0.004650   0.050066
     H   20   0.008792   0.000543   0.008628   0.090863   0.001688   0.008432


                  C  7       C  8       C  9       C 10       H 11       H 12
 ------------------------------------------------------------------------------
     C    7  17.313972
     C    8   1.820073  17.317772
     C    9   7.009528   2.542771  17.215267
     C   10   2.526127   7.039774   6.952937  17.244669
     H   11   0.009846   0.001642   0.002481   0.001668   5.066942
     H   12   0.004046   0.004195   0.002501   0.002757   0.571272   4.997312
     H   13   0.047279   0.010524   0.005075   0.002528   0.023425   0.034818
     H   14   0.029573   0.012984   0.015060   0.006927   0.035530   0.045870
     H   15   0.007708   0.008031   0.003349   0.007421   0.035805   0.015732
     H   16   4.829105   0.010652   0.438697   0.089987   0.000613   0.000389
     H   17   0.008734   0.036027   0.001448   0.003145   0.012268   0.017011
     H   18   0.438121   0.087901   4.863167   0.439550   0.000443   0.000368
     H   19   0.011061   4.832455   0.090586   0.438195   0.000297   0.000526
     H   20   0.087911   0.438831   0.439558   4.864260   0.000145   0.000167


                  H 13       H 14       H 15       H 16       H 17       H 18
 ------------------------------------------------------------------------------
     H   13   5.059646
     H   14   0.567667   4.992429
     H   15   0.007171   0.002927   5.222631
     H   16   0.028443   0.005273   0.000535   5.203093
     H   17   0.001073   0.000633   0.066713   0.001353   5.200476
     H   18   0.000554   0.000818   0.000871   0.042118   0.000478   5.229068
     H   19   0.001289   0.000947   0.002565   0.007716   0.026700   0.007073
     H   20   0.000596   0.001373   0.000593   0.006913   0.000650   0.041097


                  H 19       H 20
 ------------------------------
     H   19   5.206432
     H   20   0.042265   5.231176


          HEAT OF FORMATION =      28.736505 KCALS/MOLE

          ZERO POINT ENERGY     105.673 KCAL/MOL


           NORMAL COORDINATE ANALYSIS (Total motion = 1 Angstrom)


   Root No.       1         2         3         4         5         6         7         8

                 1 A       2 A       3 A       4 A       5 A       6 A       7 A       8 A   

                 110.6     134.2     229.4     346.4     382.5     417.3     484.7     505.1
  
           1    0.0021   -0.0116    0.0029    0.0038   -0.0136   -0.0171    0.0340   -0.0156
           2    0.0057   -0.0040   -0.0017   -0.0044    0.0196   -0.0190   -0.0060    0.0348
           3   -0.0374    0.0375   -0.0335    0.0066   -0.0095   -0.0102    0.0078   -0.0001
           4    0.0020   -0.0120    0.0045    0.0077   -0.0217   -0.0177    0.0403   -0.0110
           5   -0.0327   -0.0161   -0.0082   -0.0034   -0.0198    0.0213   -0.0319    0.0233
           6    0.0528    0.0138    0.0121    0.0118   -0.0139    0.0030   -0.0116    0.0128
           7    0.0113    0.0010   -0.0127   -0.0082    0.0269   -0.0181   -0.0090   -0.0209
           8    0.0093    0.0011   -0.0085   -0.0088    0.0320   -0.0205   -0.0111    0.0207
           9   -0.0277    0.0007    0.0284   -0.0120    0.0267    0.0444    0.0358   -0.0003
          10    0.0097   -0.0046   -0.0167   -0.0177    0.0147   -0.0047   -0.0138    0.0335
          11    0.0087   -0.0010   -0.0106   -0.0179    0.0351   -0.0122    0.0145   -0.0096
          12   -0.0263    0.0119    0.0345    0.0143    0.0354    0.0158   -0.0106   -0.0147
          13   -0.0016    0.0120    0.0110    0.0152   -0.0101   -0.0092   -0.0002    0.0460
          14   -0.0031    0.0111    0.0191    0.0273   -0.0188    0.0095   -0.0171    0.0025
          15    0.0167   -0.0358   -0.0278   -0.0315   -0.0215    0.0127   -0.0068   -0.0005
          16    0.0108    0.0125   -0.0015   -0.0277    0.0139    0.0120   -0.0213    0.0252
          17    0.0142    0.0092    0.0043   -0.0147   -0.0118    0.0258   -0.0260   -0.0171
          18   -0.0289   -0.0255    0.0011    0.0363    0.0246   -0.0133   -0.0096    0.0295
          19    0.0009    0.0186   -0.0144    0.0035    0.0364    0.0134    0.0001   -0.0343
          20    0.0061    0.0083   -0.0051    0.0110   -0.0070   -0.0006    0.0143   -0.0008
          21   -0.0072   -0.0365    0.0311   -0.0331   -0.0032   -0.0196    0.0203    0.0089
          22   -0.0024   -0.0189   -0.0084    0.0218   -0.0088    0.0212   -0.0109    0.0129
          23    0.0032   -0.0084   -0.0057    0.0000    0.0296   -0.0008    0.0227   -0.0225
          24   -0.0021    0.0395    0.0207   -0.0322   -0.0138   -0.0251   -0.0276   -0.0195
          25   -0.0142    0.0150    0.0101   -0.0119   -0.0082    0.0129    0.0090   -0.0190
          26   -0.0020    0.0068    0.0067    0.0039   -0.0320   -0.0022    0.0237    0.0049
          27    0.0240   -0.0311   -0.0180    0.0315    0.0018   -0.0041   -0.0269   -0.0425
          28   -0.0157   -0.0114    0.0171    0.0076   -0.0212   -0.0004   -0.0369   -0.0093
          29   -0.0028   -0.0057    0.0095    0.0053   -0.0148   -0.0104    0.0233   -0.0361
          30    0.0278    0.0225   -0.0306    0.0057   -0.0134    0.0262    0.0289    0.0201
          31   -0.0451   -0.0155   -0.0150    0.0004   -0.0452    0.0082    0.0330   -0.0435
          32   -0.0250   -0.0064    0.0035    0.0137   -0.0226    0.0186   -0.0281    0.0157
          33    0.1329    0.0487    0.0735    0.0765    0.0061   -0.0382    0.0119    0.0273
          34    0.0657   -0.0266    0.0354    0.0139   -0.0151   -0.0281    0.0535   -0.0108
          35   -0.1070   -0.0612   -0.0673   -0.0704   -0.0496    0.0713   -0.0590   -0.0038
          36    0.0658    0.0017    0.0152    0.0051   -0.0156    0.0053   -0.0097    0.0093
          37    0.0430   -0.0314    0.0343    0.0071   -0.0318    0.0135    0.0204    0.0017
          38    0.0393   -0.0349    0.0551   -0.0223    0.0577    0.0373    0.0104    0.0439
          39   -0.0778    0.0668   -0.0857    0.0177   -0.0284   -0.0625    0.0034   -0.0141
          40   -0.0626   -0.0015   -0.0272    0.0060   -0.0326   -0.0297    0.0599   -0.0327
          41   -0.0163    0.0348   -0.0650    0.0106    0.0029   -0.0936   -0.0285    0.0253
          42   -0.0775    0.0647   -0.0837    0.0166   -0.0273   -0.0606    0.0055   -0.0132
          43   -0.0047    0.0313    0.0344    0.0462   -0.0030   -0.0102   -0.0124    0.0567
          44    0.0035    0.0298    0.0472    0.0702   -0.0349   -0.0013   -0.0014   -0.0100
          45    0.0286   -0.0768   -0.0742   -0.0917   -0.0455    0.0098    0.0330   -0.0340
          46    0.0025    0.0334   -0.0254    0.0154    0.0786    0.0405   -0.0040   -0.0412
          47    0.0071    0.0152   -0.0087    0.0302   -0.0242    0.0186    0.0198   -0.0215
          48   -0.0109   -0.0667    0.0506   -0.0816   -0.0241   -0.0868    0.0154    0.0544
          49    0.0221    0.0321    0.0082   -0.0547    0.0396    0.0312   -0.0325   -0.0095
          50    0.0323    0.0207    0.0113   -0.0285   -0.0425    0.0536   -0.0486   -0.0334
          51   -0.0596   -0.0538   -0.0144    0.0729    0.0444   -0.0622    0.0273    0.0744
          52   -0.0247    0.0299    0.0246   -0.0348   -0.0181    0.0244    0.0412    0.0092
          53   -0.0073    0.0136    0.0150    0.0022   -0.0653    0.0070    0.0237    0.0372
          54    0.0462   -0.0629   -0.0482    0.0836    0.0117   -0.0269   -0.1022   -0.0941
          55   -0.0025   -0.0341   -0.0118    0.0570   -0.0243    0.0576    0.0146    0.0042
          56    0.0030   -0.0148   -0.0097    0.0044    0.0598    0.0135    0.0297   -0.0107
          57   -0.0014    0.0692    0.0321   -0.0822   -0.0505   -0.0942   -0.0709   -0.0307
          58   -0.0276   -0.0229    0.0405    0.0145   -0.0453   -0.0153   -0.0710   -0.0221
          59   -0.0088   -0.0116    0.0214    0.0081   -0.0248   -0.0183    0.0063   -0.0439
          60    0.0537    0.0451   -0.0776    0.0132   -0.0295    0.0619    0.0902    0.0954


   Root No.       9        10        11        12        13        14        15        16

                 9 A      10 A      11 A      12 A      13 A      14 A      15 A      16 A   

                 507.0     604.9     688.3     709.2     771.9     805.7     825.6     877.3
  
           1   -0.0179    0.0161    0.0067    0.0043    0.0087   -0.0110   -0.0012    0.0130
           2   -0.0233    0.0541    0.0003    0.0019    0.0018    0.0054    0.0187    0.0525
           3   -0.0070   -0.0007   -0.0194   -0.0062    0.0054   -0.0055   -0.0187    0.0274
           4   -0.0241    0.0130   -0.0003    0.0050    0.0095   -0.0110   -0.0106   -0.0067
           5    0.0038   -0.0024   -0.0075   -0.0011   -0.0100    0.0222    0.0180    0.0038
           6   -0.0024   -0.0085   -0.0094   -0.0242   -0.0080   -0.0027   -0.0095    0.0014
           7    0.0226   -0.0348    0.0215   -0.0082   -0.0091    0.0003   -0.0072    0.0152
           8   -0.0087    0.0205    0.0047   -0.0052    0.0014   -0.0066   -0.0097    0.0058
           9   -0.0154    0.0050   -0.0361    0.0219    0.0172   -0.0064    0.0160    0.0114
          10    0.0087   -0.0283   -0.0111    0.0181    0.0030   -0.0190    0.0055   -0.0007
          11    0.0167    0.0105   -0.0176   -0.0067    0.0002   -0.0127   -0.0070   -0.0214
          12   -0.0400    0.0134    0.0475   -0.0064    0.0051    0.0256   -0.0179   -0.0148
          13   -0.0342   -0.0129   -0.0284   -0.0250   -0.0214    0.0320    0.0011   -0.0243
          14    0.0302   -0.0080   -0.0002    0.0137   -0.0009    0.0027   -0.0082    0.0003
          15   -0.0234    0.0040    0.0073   -0.0110    0.0004   -0.0037    0.0170   -0.0082
          16   -0.0297   -0.0232    0.0067    0.0165   -0.0027    0.0124   -0.0026   -0.0348
          17    0.0187   -0.0087    0.0190    0.0320    0.0071   -0.0039   -0.0092   -0.0102
          18    0.0237   -0.0278    0.0142    0.0035    0.0101   -0.0215    0.0134   -0.0194
          19    0.0104   -0.0343   -0.0006    0.0002    0.0003    0.0092    0.0041    0.0377
          20   -0.0275   -0.0456    0.0059    0.0119    0.0092   -0.0114   -0.0130    0.0177
          21    0.0232   -0.0229    0.0179    0.0023   -0.0134   -0.0102    0.0113    0.0069
          22    0.0192    0.0372    0.0037    0.0019    0.0139   -0.0139   -0.0098   -0.0100
          23    0.0173    0.0341   -0.0134   -0.0243    0.0007   -0.0035   -0.0123   -0.0505
          24    0.0044    0.0221   -0.0147    0.0025   -0.0110   -0.0058   -0.0196   -0.0041
          25    0.0481    0.0237   -0.0014   -0.0193   -0.0067    0.0336    0.0243    0.0087
          26   -0.0124   -0.0268    0.0079    0.0049    0.0074   -0.0018   -0.0063   -0.0007
          27   -0.0085    0.0025   -0.0140    0.0006   -0.0231   -0.0030    0.0168   -0.0016
          28    0.0108    0.0349   -0.0074    0.0067    0.0168   -0.0097   -0.0085    0.0012
          29   -0.0058   -0.0324   -0.0064   -0.0141   -0.0097    0.0277    0.0263   -0.0057
          30    0.0257    0.0147    0.0130   -0.0025   -0.0202   -0.0056   -0.0057    0.0089
          31   -0.0051   -0.0385   -0.0098   -0.0285    0.0135   -0.0524   -0.0788   -0.0320
          32    0.0250   -0.0119   -0.0070    0.0204   -0.0074    0.0235    0.0081   -0.0110
          33    0.0430    0.0250    0.0054    0.0910   -0.0023    0.0515    0.0431   -0.0193
          34   -0.0278    0.0536    0.0332    0.0506    0.0240   -0.0044    0.0544   -0.0210
          35   -0.0337   -0.0437   -0.0119   -0.1199   -0.0134   -0.0437   -0.0321    0.0126
          36   -0.0087    0.0018    0.0029   -0.0213   -0.0031   -0.0080    0.0095   -0.0036
          37   -0.0175   -0.0068   -0.0334   -0.0385   -0.0012   -0.0112   -0.0450    0.0296
          38   -0.0192    0.0333   -0.0734   -0.0198    0.0244   -0.0131   -0.0239    0.1397
          39   -0.0107    0.0243    0.0495    0.0283   -0.0050    0.0068    0.0302   -0.0384
          40   -0.0313    0.0394    0.0340    0.0552    0.0308   -0.0130    0.0488   -0.0409
          41   -0.0233    0.0847    0.0912    0.0213   -0.0267    0.0233    0.0673    0.0116
          42   -0.0128    0.0284    0.0478    0.0284   -0.0023    0.0051    0.0335   -0.0217
          43   -0.0318   -0.0278   -0.0068   -0.0899   -0.0053   -0.0374    0.0430   -0.0194
          44    0.0317    0.0014    0.0137   -0.0665    0.0214   -0.0866    0.0163    0.0440
          45   -0.0291    0.0457   -0.0416    0.1200   -0.0307    0.1349   -0.0797   -0.0064
          46   -0.0266   -0.0186   -0.0327    0.0337   -0.0382   -0.0505    0.0398    0.0301
          47   -0.0405   -0.0415   -0.0130    0.0250   -0.0166   -0.0270    0.0169   -0.0199
          48    0.0914   -0.0486    0.0907   -0.0616    0.0796    0.0896   -0.0858    0.0860
          49   -0.0658   -0.0090    0.0722   -0.0227    0.0383   -0.0393    0.0306   -0.0559
          50   -0.0155    0.0020    0.0651   -0.0134    0.0320   -0.0392    0.0402    0.0107
          51    0.0921   -0.0505   -0.0904    0.0888   -0.0501    0.0596   -0.0730   -0.0326
          52    0.0635    0.0391    0.0174   -0.0084   -0.0921   -0.0195    0.0373   -0.0089
          53   -0.0068    0.0281    0.0133    0.0174   -0.0216   -0.0509   -0.0263   -0.0475
          54   -0.0413   -0.0113   -0.0552   -0.0194    0.1628    0.1008   -0.0201    0.0234
          55    0.0112    0.0585    0.0510   -0.0007   -0.0560    0.0168   -0.0378    0.0558
          56    0.0037    0.0446    0.0120   -0.0238   -0.0272   -0.0057   -0.0484   -0.0665
          57    0.0383   -0.0232   -0.1172    0.0048    0.1234   -0.0392    0.0783   -0.0570
          58   -0.0346    0.0133    0.0005    0.0482   -0.0609   -0.0611   -0.0328    0.0730
          59   -0.0278   -0.0412   -0.0037    0.0048   -0.0505    0.0029    0.0145    0.0258
          60    0.0728   -0.0119    0.0338   -0.0252    0.1762    0.0609    0.0268   -0.0248


   Root No.      17        18        19        20        21        22        23        24

                17 A      18 A      19 A      20 A      21 A      22 A      23 A      24 A   

                 896.6     908.9     938.1     968.2     993.1    1006.1    1031.6    1071.5
  
           1   -0.0001    0.0172    0.0013   -0.0033   -0.0200   -0.0199   -0.0152   -0.0032
           2    0.0074    0.0206    0.0063    0.0030    0.0023   -0.0006   -0.0043    0.0019
           3   -0.0004    0.0265   -0.0205   -0.0158   -0.0180   -0.0026    0.0203   -0.0139
           4   -0.0022    0.0080    0.0000    0.0008    0.0154    0.0139    0.0113    0.0132
           5   -0.0050   -0.0309   -0.0189   -0.0106   -0.0319   -0.0197   -0.0013    0.0075
           6    0.0124    0.0024    0.0152    0.0084   -0.0005   -0.0141   -0.0309   -0.0053
           7    0.0157   -0.0112   -0.0058   -0.0066   -0.0033   -0.0019    0.0135   -0.0112
           8    0.0056    0.0059   -0.0012   -0.0024    0.0038    0.0037    0.0078    0.0034
           9   -0.0146   -0.0164    0.0108    0.0148    0.0102    0.0078   -0.0219    0.0166
          10   -0.0150    0.0075    0.0049   -0.0063    0.0038    0.0053   -0.0085    0.0054
          11   -0.0093   -0.0079    0.0005   -0.0038   -0.0017   -0.0003   -0.0067    0.0026
          12    0.0239    0.0074   -0.0055    0.0131   -0.0049   -0.0097    0.0164   -0.0001
          13    0.0045   -0.0220   -0.0093   -0.0011    0.0257    0.0157    0.0036   -0.0132
          14    0.0071    0.0020   -0.0015   -0.0001    0.0214    0.0083   -0.0089   -0.0124
          15   -0.0126   -0.0176    0.0060    0.0053   -0.0072    0.0155    0.0413    0.0150
          16   -0.0109    0.0314    0.0113    0.0074   -0.0113   -0.0025    0.0092    0.0037
          17   -0.0022    0.0287    0.0173    0.0117    0.0002    0.0067    0.0141   -0.0053
          18   -0.0203    0.0273   -0.0153   -0.0183    0.0224    0.0063   -0.0190   -0.0086
          19    0.0013   -0.0306   -0.0059    0.0151   -0.0026    0.0082   -0.0102    0.0021
          20    0.0046   -0.0323   -0.0048    0.0072   -0.0015    0.0041   -0.0038   -0.0025
          21    0.0338   -0.0189    0.0119   -0.0266    0.0078   -0.0204    0.0150   -0.0084
          22    0.0128   -0.0138   -0.0103    0.0130    0.0020   -0.0130    0.0038   -0.0004
          23   -0.0017   -0.0172   -0.0097    0.0043   -0.0011   -0.0080    0.0028   -0.0043
          24   -0.0205   -0.0196    0.0163   -0.0288   -0.0105    0.0215   -0.0135   -0.0007
          25   -0.0115    0.0252    0.0112   -0.0057    0.0143   -0.0102    0.0085   -0.0009
          26   -0.0028   -0.0028    0.0031   -0.0044    0.0013   -0.0102    0.0011   -0.0008
          27    0.0091    0.0193   -0.0143    0.0159   -0.0168    0.0322   -0.0126    0.0029
          28    0.0133   -0.0119    0.0034   -0.0070   -0.0080    0.0163   -0.0039   -0.0018
          29   -0.0050    0.0335    0.0037   -0.0043   -0.0039    0.0082   -0.0038    0.0063
          30   -0.0184    0.0012   -0.0078    0.0158    0.0198   -0.0313    0.0125   -0.0009
          31    0.0188    0.0466    0.0014   -0.0156    0.0346    0.0053    0.0002    0.1769
          32   -0.0100   -0.0387   -0.0435   -0.0321   -0.0461   -0.0292    0.0115    0.0982
          33   -0.0333   -0.0667   -0.0665   -0.0412   -0.0722   -0.0343    0.0251    0.0824
          34   -0.0421   -0.0504    0.0184    0.0341   -0.0459   -0.0089   -0.0215   -0.1323
          35    0.0390    0.0137    0.0752    0.0487    0.0022   -0.0372   -0.1054   -0.0657
          36    0.0027   -0.0159    0.0346    0.0295   -0.0194   -0.0249   -0.0575   -0.0718
          37    0.0199    0.0603   -0.0244   -0.0393   -0.0839   -0.1015   -0.0754    0.0606
          38   -0.0020    0.0868   -0.0373   -0.0203   -0.0011    0.0461    0.0891   -0.0676
          39   -0.0029   -0.0374    0.0212    0.0166    0.0118    0.0008   -0.0180    0.0053
          40   -0.0557   -0.0429    0.0067    0.0233   -0.0563   -0.0066   -0.0032   -0.1341
          41    0.0443   -0.0276    0.0742    0.0393    0.0715   -0.0083   -0.0811    0.1169
          42   -0.0029   -0.0302    0.0227    0.0179    0.0070   -0.0016   -0.0206   -0.0042
          43   -0.0314   -0.0347    0.0319    0.0180   -0.0222    0.0211    0.0595    0.0147
          44   -0.0043   -0.0468    0.0483    0.0316    0.0353    0.0673    0.0895    0.0576
          45    0.0729   -0.0061   -0.0781   -0.0299    0.1217    0.0281   -0.0574   -0.0232
          46    0.0836   -0.0598    0.0278   -0.0535    0.0132   -0.0362    0.0080    0.0204
          47    0.0271   -0.0015    0.0131   -0.0312    0.0061   -0.0121    0.0242   -0.0368
          48   -0.1046   -0.0416   -0.0609    0.1252   -0.0251    0.0616   -0.0580    0.0310
          49   -0.0422    0.0623   -0.0623   -0.0523   -0.0124   -0.0497   -0.0857    0.0361
          50   -0.0194   -0.0017   -0.0510   -0.0379    0.0828    0.0524    0.0086   -0.0397
          51    0.0234    0.0450    0.1236    0.0871   -0.0786   -0.0155    0.0571    0.0111
          52    0.0318    0.0482   -0.0357    0.0338   -0.0297    0.0570   -0.0152    0.0022
          53    0.0074    0.0316   -0.0223    0.0119   -0.0259    0.0250   -0.0007   -0.0125
          54   -0.0863   -0.0197    0.0846   -0.0688    0.0749   -0.1086    0.0418   -0.0085
          55   -0.0369   -0.0133    0.0409   -0.0571   -0.0202    0.0321   -0.0251    0.0162
          56   -0.0335   -0.0418    0.0107   -0.0347   -0.0086    0.0188   -0.0043   -0.0197
          57    0.0960    0.0229   -0.0825    0.1254    0.0295   -0.0808    0.0338    0.0070
          58   -0.0389   -0.0174   -0.0147    0.0355    0.0327   -0.0557    0.0130    0.0131
          59   -0.0334    0.0317   -0.0059    0.0172    0.0171   -0.0284    0.0052    0.0127
          60    0.1255    0.0102    0.0396   -0.0692   -0.0768    0.1132   -0.0362    0.0115


   Root No.      25        26        27        28        29        30        31        32

                25 A      26 A      27 A      28 A      29 A      30 A      31 A      32 A   

                1089.4    1106.5    1111.3    1119.9    1155.3    1157.5    1186.9    1229.5
  
           1   -0.0321   -0.0008    0.0233   -0.0016   -0.0000    0.0060    0.0088    0.0033
           2   -0.0050   -0.0064    0.0128   -0.0074   -0.0003    0.0005   -0.0044    0.0029
           3    0.0035    0.0010   -0.0289   -0.0014   -0.0012   -0.0036   -0.0014    0.0013
           4    0.0181   -0.0017   -0.0258   -0.0039   -0.0020   -0.0102    0.0058    0.0129
           5    0.0081   -0.0064   -0.0063    0.0026   -0.0001    0.0040    0.0046    0.0029
           6    0.0074   -0.0052    0.0345   -0.0021    0.0001   -0.0002    0.0008    0.0046
           7    0.0020   -0.0038    0.0042    0.0079    0.0082   -0.0013    0.0167   -0.0108
           8    0.0174    0.0077    0.0063    0.0095    0.0046   -0.0046   -0.0176   -0.0237
           9   -0.0063   -0.0033   -0.0018    0.0055    0.0043   -0.0021    0.0066   -0.0107
          10    0.0069   -0.0081   -0.0018    0.0061   -0.0012    0.0063   -0.0179   -0.0169
          11    0.0033    0.0034    0.0008    0.0103   -0.0083    0.0104    0.0117   -0.0153
          12    0.0053   -0.0023    0.0003    0.0060   -0.0028    0.0031   -0.0066   -0.0131
          13   -0.0107    0.0085    0.0033    0.0028    0.0000   -0.0006    0.0080    0.0014
          14   -0.0015    0.0043    0.0001   -0.0014    0.0015    0.0046    0.0066    0.0110
          15   -0.0147    0.0061    0.0002   -0.0009    0.0006    0.0035    0.0080    0.0079
          16   -0.0028    0.0035   -0.0036   -0.0066   -0.0003   -0.0022   -0.0059   -0.0041
          17   -0.0143    0.0079   -0.0055   -0.0060    0.0002   -0.0036    0.0055    0.0099
          18   -0.0074    0.0056   -0.0030   -0.0048   -0.0001   -0.0032    0.0009    0.0015
          19   -0.0054   -0.0079   -0.0009   -0.0020   -0.0001    0.0023    0.0095    0.0006
          20   -0.0081   -0.0157   -0.0032   -0.0220    0.0034   -0.0037   -0.0071    0.0095
          21    0.0002   -0.0059   -0.0008   -0.0058    0.0010    0.0002    0.0020    0.0027
          22   -0.0031    0.0099   -0.0023   -0.0199   -0.0037    0.0003   -0.0090    0.0077
          23   -0.0106    0.0123   -0.0029   -0.0111   -0.0016   -0.0052    0.0117    0.0009
          24   -0.0042    0.0074   -0.0023   -0.0123   -0.0021   -0.0007   -0.0012    0.0043
          25    0.0049   -0.0254   -0.0000    0.0042   -0.0024    0.0012   -0.0099    0.0003
          26   -0.0031   -0.0014   -0.0009    0.0028    0.0014    0.0024   -0.0092    0.0119
          27   -0.0001   -0.0132   -0.0009    0.0025   -0.0009    0.0012   -0.0068    0.0029
          28   -0.0036   -0.0054    0.0000    0.0022   -0.0025   -0.0047   -0.0046    0.0098
          29    0.0067    0.0276    0.0004    0.0009    0.0018   -0.0039   -0.0095    0.0008
          30    0.0005    0.0046    0.0004    0.0013   -0.0008   -0.0033   -0.0045    0.0047
          31    0.1183   -0.0503    0.1204   -0.0240   -0.0105   -0.1233   -0.0272   -0.0270
          32    0.0644   -0.0343    0.0468   -0.0040   -0.0041   -0.0504   -0.0100   -0.0217
          33    0.0595   -0.0315    0.0298    0.0006   -0.0032   -0.0411   -0.0079   -0.0251
          34    0.1411   -0.0030   -0.2190    0.0163   -0.0069   -0.0763   -0.0155   -0.0304
          35    0.0867   -0.0229   -0.0150    0.0039   -0.0020   -0.0380   -0.0087   -0.0217
          36    0.0678   -0.0085   -0.0395    0.0059   -0.0019   -0.0313   -0.0089   -0.0155
          37   -0.1280    0.0207   -0.1289    0.0229   -0.0040    0.0509   -0.0829   -0.0863
          38    0.0553   -0.0245    0.0537   -0.0345   -0.0024   -0.0412    0.0597    0.0766
          39    0.0063    0.0018    0.0095    0.0050    0.0013    0.0030   -0.0044   -0.0094
          40    0.0257    0.0254    0.2611    0.0017    0.0122    0.0503   -0.0696   -0.0282
          41   -0.0436   -0.0378   -0.0758   -0.0129   -0.0063   -0.0335    0.0590    0.0305
          42    0.0052   -0.0055    0.0205   -0.0024    0.0007   -0.0032    0.0022    0.0031
          43   -0.0208    0.0095   -0.0033    0.0011   -0.0010   -0.0039    0.0121    0.0052
          44    0.0599   -0.0085   -0.0445    0.0229    0.0245    0.2435   -0.0829   -0.0537
          45    0.0411   -0.0017   -0.0026    0.0136    0.0129    0.1153   -0.0394   -0.0283
          46    0.0134    0.1513   -0.0034    0.0903    0.1211   -0.0519   -0.0872    0.1218
          47   -0.0139   -0.1457   -0.0004   -0.0974   -0.0942    0.0410    0.0707   -0.0897
          48   -0.0139    0.0303   -0.0037    0.0176    0.0330   -0.0145   -0.0215    0.0341
          49    0.0982    0.0009   -0.0140   -0.0326    0.0193    0.1618    0.0777    0.1396
          50   -0.0817    0.0119    0.0026    0.0129   -0.0126   -0.1177   -0.0496   -0.0932
          51    0.0039    0.0047   -0.0068   -0.0111    0.0026    0.0249    0.0110    0.0280
          52    0.0026   -0.0333    0.0004    0.0180    0.0124    0.0009   -0.0045   -0.0023
          53   -0.0203   -0.1044    0.0113    0.2161    0.2655   -0.0040    0.0947   -0.0381
          54   -0.0007   -0.0393    0.0032    0.0609    0.0700   -0.0008    0.0208   -0.0099
          55    0.0332    0.1542    0.0041   -0.1335    0.1268    0.0102    0.0903   -0.1125
          56   -0.0398   -0.1028   -0.0087    0.0803   -0.1095   -0.0128   -0.0686    0.0994
          57    0.0036    0.0481    0.0001   -0.0433    0.0335   -0.0003    0.0258   -0.0308
          58    0.0229    0.0960    0.0259    0.1690   -0.2211    0.0154    0.0874   -0.0321
          59    0.0180    0.0721    0.0115    0.0733   -0.0905    0.0043    0.0291   -0.0168
          60    0.0144    0.0617    0.0147    0.0971   -0.1257    0.0082    0.0482   -0.0191


   Root No.      33        34        35        36        37        38        39        40

                33 A      34 A      35 A      36 A      37 A      38 A      39 A      40 A   

                1270.5    1339.5    1356.6    1381.2    1393.7    1405.9    1434.1    1575.8
  
           1    0.0345   -0.0260    0.0042    0.0060    0.0021   -0.0636    0.0149   -0.0286
           2   -0.0096    0.0215    0.0003    0.0251    0.0467    0.0174   -0.0227    0.0251
           3    0.0028    0.0049    0.0007    0.0025   -0.0008   -0.0044   -0.0008   -0.0042
           4   -0.0235   -0.0339    0.0188    0.0090   -0.0055    0.0723    0.0128    0.0100
           5    0.0045   -0.0228    0.0077   -0.0302    0.0151    0.0192    0.0326    0.0082
           6   -0.0038   -0.0163    0.0079   -0.0231    0.0156    0.0224    0.0248    0.0067
           7    0.0166   -0.0123   -0.0561   -0.0138    0.0065    0.0093   -0.0284    0.0673
           8   -0.0278   -0.0317   -0.0298   -0.0077   -0.0255   -0.0218    0.0029   -0.0434
           9    0.0036   -0.0138   -0.0335   -0.0079   -0.0021   -0.0029   -0.0133    0.0215
          10    0.0097   -0.0287    0.0165   -0.0247   -0.0053    0.0049   -0.0231   -0.0433
          11   -0.0185   -0.0009    0.0712    0.0021   -0.0195   -0.0248    0.0160    0.0626
          12   -0.0001   -0.0136    0.0256   -0.0110   -0.0074   -0.0032   -0.0063   -0.0042
          13   -0.0081    0.0176   -0.0066    0.0073   -0.0089   -0.0275   -0.0146    0.0054
          14   -0.0146   -0.0037   -0.0039   -0.0070   -0.0093   -0.0153   -0.0301   -0.0265
          15   -0.0135    0.0058   -0.0049    0.0007   -0.0094   -0.0187   -0.0231   -0.0112
          16    0.0206    0.0179   -0.0017    0.0150    0.0137    0.0153    0.0376    0.0137
          17   -0.0090    0.0098   -0.0079    0.0088   -0.0027   -0.0049   -0.0074    0.0033
          18    0.0057    0.0139   -0.0043    0.0119    0.0051    0.0037    0.0155    0.0109
          19   -0.0101    0.0243    0.0590    0.0078    0.0123    0.0123   -0.0060   -0.0192
          20   -0.0118    0.0032   -0.0671    0.0141   -0.0049   -0.0036    0.0323   -0.0458
          21   -0.0084    0.0126    0.0128    0.0070    0.0045    0.0053    0.0049   -0.0200
          22    0.0100    0.0029    0.0740   -0.0093    0.0084    0.0072   -0.0279   -0.0422
          23    0.0201    0.0148   -0.0469    0.0073    0.0155    0.0212    0.0125   -0.0255
          24    0.0096    0.0051    0.0232   -0.0025    0.0078    0.0087   -0.0101   -0.0261
          25   -0.0234    0.0013   -0.0083    0.0119   -0.0128   -0.0129    0.0324   -0.0259
          26   -0.0009    0.0017    0.0818   -0.0009   -0.0088   -0.0194    0.0013    0.0755
          27   -0.0114    0.0010    0.0154    0.0054   -0.0082   -0.0106    0.0157    0.0059
          28   -0.0014   -0.0107   -0.0726   -0.0000   -0.0058   -0.0080   -0.0004    0.0718
          29    0.0227   -0.0129   -0.0141   -0.0171    0.0108    0.0155   -0.0367   -0.0125
          30    0.0049   -0.0082   -0.0375   -0.0042   -0.0001   -0.0001   -0.0091    0.0308
          31   -0.0234    0.1346   -0.0367   -0.0678    0.0812   -0.1000   -0.0172    0.0081
          32    0.0351    0.0360   -0.0105    0.0288   -0.0026   -0.0342   -0.0143    0.0054
          33    0.0730   -0.0132    0.0092    0.1942   -0.1091    0.0332   -0.0683   -0.0015
          34   -0.0011    0.0873   -0.0314   -0.0732    0.0570   -0.1127   -0.0023   -0.0028
          35    0.0744   -0.0202    0.0136    0.1956   -0.1025    0.0359   -0.0695   -0.0037
          36    0.0194    0.0256   -0.0080   -0.0029    0.0107   -0.0383   -0.0024   -0.0005
          37   -0.0787    0.1303   -0.0863   -0.0328   -0.0781    0.0764   -0.0589    0.0247
          38    0.1133    0.0622    0.0425   -0.0791   -0.1195    0.0198    0.0432   -0.0225
          39   -0.0270   -0.0779    0.0071    0.0760    0.1259   -0.0561   -0.0113    0.0036
          40   -0.0516    0.0966   -0.0422   -0.0398   -0.0699    0.1015   -0.0216    0.0211
          41    0.0902    0.0580   -0.0021   -0.0932   -0.1267    0.0214    0.0268   -0.0058
          42    0.0217    0.0669   -0.0189   -0.0743   -0.1132    0.0587    0.0105    0.0007
          43   -0.0152    0.0171   -0.0049    0.0090   -0.0112   -0.0271   -0.0175    0.0072
          44    0.1221    0.0426   -0.0170    0.0154    0.0293   -0.0045    0.0630    0.0178
          45    0.0614    0.0335   -0.0163    0.0113    0.0114   -0.0187    0.0243    0.0115
          46   -0.0047    0.0221   -0.0036    0.0300   -0.0119   -0.0171    0.0659   -0.0266
          47   -0.0210    0.0079   -0.0165   -0.0015    0.0144    0.0213   -0.0223   -0.0522
          48   -0.0054    0.0114   -0.0087    0.0138   -0.0013   -0.0042    0.0251   -0.0245
          49   -0.0640    0.0261   -0.0847    0.0100   -0.0105   -0.0348   -0.0537   -0.0202
          50    0.0484    0.0061    0.0538    0.0150    0.0128    0.0286    0.0585    0.0330
          51   -0.0062    0.0167   -0.0207    0.0112    0.0024   -0.0044   -0.0001    0.0020
          52   -0.0260    0.0044   -0.0133    0.0143   -0.0119   -0.0106    0.0367   -0.0414
          53    0.0086    0.0401    0.0342    0.0024    0.0367    0.0492   -0.0234   -0.0926
          54   -0.0097    0.0115    0.0018    0.0073    0.0034    0.0068    0.0115   -0.0416
          55   -0.0161    0.0103    0.0156    0.0125   -0.0079    0.0006    0.0445   -0.0207
          56    0.0447    0.0102    0.0023   -0.0111    0.0318    0.0308   -0.0490   -0.0546
          57    0.0036    0.0070    0.0095    0.0030    0.0038    0.0075    0.0095   -0.0227
          58   -0.0162    0.0391   -0.0373    0.0302    0.0059    0.0127    0.0549   -0.0579
          59    0.0197    0.0077    0.0035   -0.0066    0.0183    0.0276   -0.0193   -0.0755
          60   -0.0028    0.0201   -0.0172    0.0126    0.0071    0.0124    0.0213   -0.0454


   Root No.      41        42        43        44        45        46        47        48

                41 A      42 A      43 A      44 A      45 A      46 A      47 A      48 A   

                1636.6    1782.4    1800.9    1862.5    2937.9    2950.0    3022.3    3029.3
  
           1   -0.0127    0.0040   -0.0109   -0.0028   -0.0017    0.0011   -0.0150   -0.0082
           2    0.0344    0.0093    0.0099    0.0063   -0.0012    0.0004   -0.0218   -0.0128
           3    0.0026    0.0035   -0.0024    0.0016    0.0328   -0.0283   -0.0031   -0.0028
           4   -0.0030   -0.0010    0.0010   -0.0050    0.0018    0.0017   -0.0094    0.0140
           5   -0.0096   -0.0013    0.0053   -0.0270    0.0167    0.0198    0.0113   -0.0192
           6   -0.0057    0.0002    0.0029   -0.0162   -0.0228   -0.0260    0.0069   -0.0097
           7    0.0222   -0.0836    0.0903    0.0068    0.0003    0.0000    0.0003   -0.0001
           8   -0.0907   -0.0827   -0.0332   -0.0149   -0.0003    0.0001   -0.0005   -0.0002
           9   -0.0102   -0.0584    0.0347   -0.0009    0.0001   -0.0001   -0.0000   -0.0001
          10    0.0997    0.0477   -0.0603   -0.0432    0.0001   -0.0000   -0.0000    0.0001
          11   -0.0009    0.1165    0.0737    0.0417   -0.0001    0.0000    0.0003    0.0002
          12    0.0460    0.0506   -0.0098   -0.0077    0.0001   -0.0000    0.0001    0.0001
          13   -0.0042    0.0104    0.0109   -0.0812    0.0004    0.0006    0.0016   -0.0038
          14    0.0260   -0.0150   -0.0264    0.1954   -0.0004   -0.0003   -0.0000    0.0006
          15    0.0114   -0.0032   -0.0084    0.0619    0.0000    0.0000    0.0007   -0.0015
          16   -0.0342   -0.0206   -0.0013    0.1412   -0.0001   -0.0001    0.0000    0.0000
          17   -0.0106    0.0090    0.0147   -0.1788    0.0001    0.0001   -0.0000    0.0001
          18   -0.0219   -0.0040    0.0079   -0.0210   -0.0001   -0.0001   -0.0000    0.0001
          19   -0.0576    0.0185   -0.1038   -0.0074   -0.0001    0.0001   -0.0003   -0.0003
          20    0.0298    0.0451    0.0820    0.0118    0.0003   -0.0002   -0.0005   -0.0005
          21   -0.0203    0.0194   -0.0295   -0.0007    0.0001   -0.0001   -0.0003   -0.0002
          22   -0.0349   -0.0213    0.1064    0.0006   -0.0000   -0.0000    0.0000   -0.0000
          23    0.0505   -0.0406   -0.0826   -0.0164    0.0000    0.0000   -0.0000   -0.0000
          24   -0.0043   -0.0200    0.0302   -0.0037    0.0000   -0.0000    0.0000   -0.0000
          25    0.0337   -0.0271    0.0350   -0.0017   -0.0000    0.0000    0.0001    0.0001
          26    0.0321   -0.1136   -0.0632   -0.0168   -0.0001    0.0000   -0.0000   -0.0000
          27    0.0238   -0.0402    0.0014   -0.0049    0.0000   -0.0000    0.0000    0.0000
          28   -0.0288    0.0800   -0.0749    0.0113    0.0000    0.0000    0.0000    0.0000
          29   -0.0429    0.0644    0.0124    0.0079   -0.0000    0.0000   -0.0000   -0.0000
          30   -0.0241    0.0533   -0.0324    0.0071   -0.0000    0.0000    0.0000    0.0000
          31    0.0151    0.0105    0.0032   -0.0159    0.0626    0.0777    0.0555   -0.0980
          32    0.0011    0.0037    0.0062   -0.0305   -0.1644   -0.2001   -0.1680    0.2791
          33    0.0024    0.0046    0.0015   -0.0245    0.0484    0.0587    0.0647   -0.1076
          34    0.0019    0.0018    0.0014   -0.0049   -0.0847   -0.0996    0.0507   -0.0770
          35    0.0068    0.0024   -0.0010    0.0017   -0.0332   -0.0363    0.0325   -0.0507
          36   -0.0008    0.0013    0.0015   -0.0053    0.2291    0.2542   -0.1490    0.2247
          37    0.0062   -0.0214    0.0167    0.0156   -0.0744    0.0690    0.0960    0.0616
          38    0.0089    0.0300   -0.0158   -0.0039   -0.1163    0.1059    0.1525    0.0925
          39    0.0095   -0.0022    0.0027   -0.0007   -0.1663    0.1511    0.2598    0.1577
          40    0.0054   -0.0074    0.0084    0.0020    0.0960   -0.0838    0.0811    0.0455
          41   -0.0065   -0.0004   -0.0002   -0.0028    0.1346   -0.1109    0.1101    0.0605
          42   -0.0094   -0.0049    0.0028   -0.0015   -0.2290    0.1876   -0.2233   -0.1247
          43   -0.0058    0.0135    0.0149   -0.1071   -0.0058   -0.0056   -0.0154    0.0438
          44   -0.0320   -0.0057    0.0075   -0.0224    0.0020    0.0025    0.0036   -0.0088
          45   -0.0192    0.0022    0.0104   -0.0686   -0.0026   -0.0026   -0.0051    0.0159
          46    0.0613    0.0392    0.0396    0.0073   -0.0014    0.0012    0.0041    0.0038
          47   -0.0740    0.0375   -0.0369    0.0006   -0.0012    0.0009    0.0046    0.0047
          48    0.0117    0.0274    0.0105    0.0041   -0.0010    0.0008    0.0028    0.0028
          49   -0.0233   -0.0261   -0.0009   -0.0940    0.0001    0.0004   -0.0004   -0.0003
          50   -0.0222    0.0198    0.0221   -0.0502   -0.0001    0.0004   -0.0011    0.0002
          51   -0.0219   -0.0052    0.0070   -0.0767   -0.0005   -0.0001   -0.0007   -0.0002
          52    0.0349   -0.0211    0.0465   -0.0009    0.0000   -0.0002   -0.0009   -0.0013
          53   -0.0454    0.0510    0.0132    0.0035    0.0000    0.0000    0.0001    0.0002
          54    0.0057    0.0024    0.0253    0.0005   -0.0000   -0.0000   -0.0004   -0.0006
          55    0.0838   -0.0238   -0.0408   -0.0174    0.0001    0.0000    0.0000    0.0003
          56   -0.0399   -0.0475    0.0389   -0.0083    0.0001    0.0001    0.0001    0.0005
          57    0.0302   -0.0223   -0.0098   -0.0092    0.0001    0.0001    0.0000    0.0003
          58    0.0544   -0.0491    0.0018   -0.0068   -0.0000   -0.0000   -0.0003   -0.0002
          59   -0.0131    0.0149    0.0531   -0.0000    0.0001   -0.0000    0.0007    0.0004
          60    0.0227   -0.0194    0.0138   -0.0031   -0.0000    0.0000    0.0000    0.0000


   Root No.      49        50        51        52        53        54

                49 A      50 A      51 A      52 A      53 A      54 A   

                3049.7    3052.4    3054.8    3064.5    3070.5    3077.6
  
           1   -0.0004    0.0001   -0.0000    0.0001    0.0005    0.0001
           2   -0.0005    0.0004   -0.0003    0.0003    0.0007   -0.0001
           3   -0.0002    0.0002   -0.0001    0.0001    0.0004   -0.0001
           4    0.0011   -0.0002   -0.0001   -0.0001   -0.0019   -0.0000
           5   -0.0017    0.0003    0.0001    0.0002    0.0032   -0.0000
           6   -0.0003    0.0001    0.0000    0.0000    0.0008    0.0000
           7    0.0003    0.0007   -0.0008    0.0008    0.0003   -0.0007
           8    0.0002   -0.0000    0.0005   -0.0002   -0.0000    0.0006
           9    0.0002    0.0003   -0.0003    0.0004    0.0001   -0.0002
          10    0.0000    0.0000   -0.0007   -0.0004    0.0007   -0.0007
          11    0.0001    0.0005    0.0009    0.0008   -0.0007    0.0006
          12    0.0000    0.0001   -0.0001    0.0000    0.0001   -0.0002
          13    0.0230   -0.0021   -0.0027   -0.0016   -0.0385   -0.0000
          14   -0.0033    0.0003    0.0005    0.0004    0.0108   -0.0000
          15    0.0093   -0.0008   -0.0010   -0.0005   -0.0129   -0.0000
          16   -0.0147    0.0012    0.0013    0.0001   -0.0087    0.0002
          17   -0.0271    0.0020    0.0018   -0.0004   -0.0243    0.0002
          18   -0.0212    0.0016    0.0016   -0.0001   -0.0168    0.0003
          19   -0.0005   -0.0128    0.0113   -0.0085    0.0003    0.0055
          20   -0.0007   -0.0183    0.0162   -0.0140    0.0005    0.0103
          21   -0.0004   -0.0105    0.0092   -0.0073    0.0002    0.0051
          22   -0.0031   -0.0074   -0.0142   -0.0097    0.0007   -0.0078
          23   -0.0045   -0.0118   -0.0222   -0.0133    0.0015   -0.0096
          24   -0.0026   -0.0063   -0.0120   -0.0078    0.0007   -0.0060
          25    0.0011    0.0166   -0.0066   -0.0199    0.0011    0.0256
          26   -0.0002   -0.0024    0.0000    0.0050   -0.0002   -0.0038
          27    0.0005    0.0073   -0.0031   -0.0082    0.0005    0.0112
          28   -0.0010   -0.0058   -0.0049    0.0095   -0.0002    0.0115
          29    0.0026    0.0130    0.0137   -0.0179    0.0003   -0.0272
          30    0.0002    0.0004    0.0010    0.0002   -0.0000   -0.0011
          31   -0.0079    0.0012    0.0006    0.0007    0.0124   -0.0000
          32    0.0272   -0.0039   -0.0023   -0.0023   -0.0418    0.0000
          33   -0.0085    0.0013    0.0007    0.0008    0.0131   -0.0000
          34   -0.0041    0.0008    0.0003    0.0004    0.0067    0.0001
          35   -0.0033    0.0006    0.0003    0.0003    0.0056    0.0000
          36    0.0145   -0.0024   -0.0013   -0.0013   -0.0227   -0.0002
          37    0.0019   -0.0027    0.0019   -0.0017   -0.0027    0.0007
          38    0.0030   -0.0028    0.0018   -0.0017   -0.0041    0.0004
          39    0.0052   -0.0054    0.0036   -0.0032   -0.0070    0.0010
          40    0.0015   -0.0009    0.0006   -0.0006   -0.0015   -0.0000
          41    0.0018   -0.0012    0.0006   -0.0007   -0.0018   -0.0001
          42   -0.0038    0.0027   -0.0016    0.0016    0.0040   -0.0000
          43   -0.2794    0.0258    0.0320    0.0177    0.4256    0.0007
          44    0.0458   -0.0042   -0.0053   -0.0030   -0.0745   -0.0001
          45   -0.1106    0.0102    0.0126    0.0069    0.1658    0.0003
          46    0.0054    0.1443   -0.1272    0.1001   -0.0036   -0.0663
          47    0.0079    0.2120   -0.1880    0.1512   -0.0055   -0.1013
          48    0.0045    0.1189   -0.1051    0.0834   -0.0030   -0.0555
          49    0.1788   -0.0137   -0.0127    0.0012    0.1301   -0.0015
          50    0.3118   -0.0247   -0.0237    0.0014    0.2348   -0.0033
          51    0.2489   -0.0194   -0.0183    0.0014    0.1852   -0.0024
          52   -0.0126   -0.1954    0.0784    0.2282   -0.0126   -0.2780
          53    0.0023    0.0335   -0.0113   -0.0423    0.0022    0.0476
          54   -0.0054   -0.0845    0.0344    0.0979   -0.0054   -0.1203
          55    0.0333    0.0872    0.1658    0.1028   -0.0109    0.0739
          56    0.0527    0.1336    0.2523    0.1530   -0.0149    0.1086
          57    0.0284    0.0734    0.1390    0.0853   -0.0087    0.0610
          58    0.0133    0.0681    0.0681   -0.0958    0.0016   -0.1299
          59   -0.0306   -0.1528   -0.1587    0.2103   -0.0032    0.2946
          60   -0.0011   -0.0047   -0.0062    0.0055    0.0000    0.0098


           MASS-WEIGHTED COORDINATE ANALYSIS (NORMAL COORDINATES)


   Root No.       1         2         3         4         5         6         7         8

                 1 A       2 A       3 A       4 A       5 A       6 A       7 A       8 A   

                 110.6     134.2     229.4     346.4     382.5     417.3     484.7     505.1
  
           1    0.0162   -0.0961    0.0246    0.0313   -0.1049   -0.1451    0.2534   -0.1144
           2    0.0442   -0.0328   -0.0146   -0.0355    0.1510   -0.1616   -0.0447    0.2547
           3   -0.2903    0.3096   -0.2849    0.0542   -0.0729   -0.0867    0.0585   -0.0009
           4    0.0158   -0.0994    0.0378    0.0630   -0.1669   -0.1507    0.3004   -0.0805
           5   -0.2539   -0.1331   -0.0701   -0.0275   -0.1523    0.1808   -0.2374    0.1702
           6    0.4094    0.1136    0.1030    0.0963   -0.1070    0.0255   -0.0861    0.0940
           7    0.0875    0.0084   -0.1083   -0.0671    0.2068   -0.1537   -0.0669   -0.1531
           8    0.0720    0.0093   -0.0722   -0.0721    0.2462   -0.1739   -0.0826    0.1514
           9   -0.2149    0.0057    0.2409   -0.0980    0.2060    0.3771    0.2666   -0.0023
          10    0.0751   -0.0380   -0.1418   -0.1445    0.1131   -0.0398   -0.1026    0.2451
          11    0.0672   -0.0086   -0.0899   -0.1459    0.2706   -0.1040    0.1080   -0.0705
          12   -0.2044    0.0980    0.2929    0.1163    0.2726    0.1341   -0.0791   -0.1077
          13   -0.0125    0.0987    0.0933    0.1236   -0.0780   -0.0782   -0.0012    0.3364
          14   -0.0239    0.0919    0.1619    0.2230   -0.1451    0.0811   -0.1275    0.0182
          15    0.1299   -0.2955   -0.2366   -0.2570   -0.1656    0.1080   -0.0510   -0.0035
          16    0.0835    0.1029   -0.0125   -0.2261    0.1072    0.1018   -0.1587    0.1842
          17    0.1101    0.0757    0.0367   -0.1202   -0.0912    0.2198   -0.1938   -0.1249
          18   -0.2246   -0.2103    0.0091    0.2962    0.1896   -0.1133   -0.0719    0.2161
          19    0.0070    0.1537   -0.1224    0.0283    0.2804    0.1143    0.0009   -0.2512
          20    0.0476    0.0688   -0.0436    0.0901   -0.0539   -0.0048    0.1064   -0.0058
          21   -0.0557   -0.3013    0.2642   -0.2697   -0.0245   -0.1669    0.1509    0.0653
          22   -0.0183   -0.1563   -0.0712    0.1780   -0.0678    0.1802   -0.0815    0.0944
          23    0.0251   -0.0694   -0.0484    0.0004    0.2281   -0.0065    0.1691   -0.1646
          24   -0.0161    0.3260    0.1756   -0.2627   -0.1063   -0.2130   -0.2052   -0.1430
          25   -0.1101    0.1235    0.0859   -0.0971   -0.0635    0.1096    0.0669   -0.1387
          26   -0.0154    0.0558    0.0572    0.0320   -0.2464   -0.0183    0.1765    0.0360
          27    0.1862   -0.2567   -0.1526    0.2568    0.0142   -0.0349   -0.2001   -0.3110
          28   -0.1222   -0.0937    0.1449    0.0621   -0.1635   -0.0038   -0.2750   -0.0682
          29   -0.0214   -0.0473    0.0810    0.0433   -0.1142   -0.0887    0.1732   -0.2638
          30    0.2154    0.1859   -0.2601    0.0468   -0.1034    0.2231    0.2149    0.1470
          31   -0.1014   -0.0370   -0.0370    0.0008   -0.1008    0.0202    0.0712   -0.0922
          32   -0.0563   -0.0153    0.0086    0.0325   -0.0504    0.0457   -0.0606    0.0332
          33    0.2989    0.1164    0.1810    0.1807    0.0137   -0.0941    0.0257    0.0578
          34    0.1477   -0.0636    0.0872    0.0329   -0.0337   -0.0693    0.1155   -0.0228
          35   -0.2406   -0.1463   -0.1658   -0.1663   -0.1107    0.1756   -0.1273   -0.0081
          36    0.1480    0.0042    0.0373    0.0121   -0.0348    0.0130   -0.0210    0.0197
          37    0.0966   -0.0750    0.0844    0.0167   -0.0709    0.0331    0.0440    0.0036
          38    0.0884   -0.0835    0.1356   -0.0528    0.1288    0.0920    0.0225    0.0930
          39   -0.1750    0.1596   -0.2109    0.0419   -0.0634   -0.1539    0.0074   -0.0298
          40   -0.1407   -0.0036   -0.0670    0.0141   -0.0728   -0.0731    0.1293   -0.0692
          41   -0.0367    0.0831   -0.1599    0.0252    0.0064   -0.2305   -0.0615    0.0536
          42   -0.1743    0.1548   -0.2061    0.0391   -0.0610   -0.1493    0.0118   -0.0279
          43   -0.0106    0.0749    0.0846    0.1093   -0.0067   -0.0252   -0.0268    0.1202
          44    0.0079    0.0712    0.1162    0.1658   -0.0778   -0.0032   -0.0030   -0.0211
          45    0.0644   -0.1836   -0.1827   -0.2166   -0.1014    0.0242    0.0711   -0.0721
          46    0.0056    0.0799   -0.0625    0.0365    0.1754    0.0996   -0.0086   -0.0874
          47    0.0160    0.0363   -0.0213    0.0713   -0.0540    0.0457    0.0427   -0.0456
          48   -0.0245   -0.1593    0.1245   -0.1928   -0.0538   -0.2139    0.0332    0.1153
          49    0.0498    0.0767    0.0201   -0.1293    0.0885    0.0769   -0.0702   -0.0201
          50    0.0727    0.0494    0.0278   -0.0672   -0.0949    0.1320   -0.1048   -0.0709
          51   -0.1340   -0.1287   -0.0355    0.1722    0.0992   -0.1533    0.0589    0.1576
          52   -0.0555    0.0715    0.0605   -0.0821   -0.0403    0.0600    0.0888    0.0194
          53   -0.0164    0.0324    0.0369    0.0052   -0.1457    0.0173    0.0512    0.0789
          54    0.1038   -0.1505   -0.1186    0.1975    0.0261   -0.0663   -0.2204   -0.1993
          55   -0.0055   -0.0816   -0.0291    0.1347   -0.0542    0.1418    0.0316    0.0089
          56    0.0067   -0.0353   -0.0238    0.0104    0.1333    0.0333    0.0641   -0.0226
          57   -0.0031    0.1655    0.0790   -0.1942   -0.1128   -0.2319   -0.1530   -0.0650
          58   -0.0621   -0.0548    0.0997    0.0343   -0.1011   -0.0377   -0.1532   -0.0468
          59   -0.0199   -0.0276    0.0526    0.0190   -0.0554   -0.0451    0.0135   -0.0930
          60    0.1207    0.1079   -0.1911    0.0312   -0.0658    0.1524    0.1947    0.2021


   Root No.       9        10        11        12        13        14        15        16

                 9 A      10 A      11 A      12 A      13 A      14 A      15 A      16 A   

                 507.0     604.9     688.3     709.2     771.9     805.7     825.6     877.3
  
           1   -0.1328    0.1093    0.0569    0.0394    0.0775   -0.0976   -0.0115    0.1001
           2   -0.1727    0.3676    0.0025    0.0170    0.0159    0.0476    0.1812    0.4024
           3   -0.0519   -0.0049   -0.1645   -0.0571    0.0484   -0.0484   -0.1815    0.2101
           4   -0.1786    0.0887   -0.0029    0.0455    0.0844   -0.0973   -0.1030   -0.0516
           5    0.0279   -0.0163   -0.0634   -0.0097   -0.0893    0.1962    0.1745    0.0293
           6   -0.0178   -0.0577   -0.0798   -0.2210   -0.0713   -0.0235   -0.0919    0.0109
           7    0.1678   -0.2365    0.1826   -0.0754   -0.0812    0.0024   -0.0697    0.1166
           8   -0.0641    0.1391    0.0403   -0.0479    0.0121   -0.0583   -0.0935    0.0444
           9   -0.1143    0.0341   -0.3063    0.2001    0.1528   -0.0569    0.1552    0.0876
          10    0.0645   -0.1921   -0.0939    0.1653    0.0268   -0.1687    0.0535   -0.0054
          11    0.1237    0.0713   -0.1492   -0.0612    0.0020   -0.1123   -0.0681   -0.1638
          12   -0.2965    0.0910    0.4032   -0.0589    0.0450    0.2266   -0.1729   -0.1135
          13   -0.2537   -0.0878   -0.2412   -0.2292   -0.1903    0.2838    0.0105   -0.1865
          14    0.2240   -0.0542   -0.0013    0.1253   -0.0080    0.0239   -0.0797    0.0023
          15   -0.1732    0.0271    0.0618   -0.1009    0.0035   -0.0331    0.1644   -0.0627
          16   -0.2199   -0.1578    0.0572    0.1513   -0.0244    0.1100   -0.0256   -0.2673
          17    0.1384   -0.0590    0.1610    0.2927    0.0633   -0.0346   -0.0892   -0.0785
          18    0.1758   -0.1893    0.1209    0.0321    0.0902   -0.1901    0.1298   -0.1490
          19    0.0771   -0.2335   -0.0047    0.0016    0.0029    0.0812    0.0392    0.2891
          20   -0.2038   -0.3102    0.0499    0.1090    0.0821   -0.1006   -0.1264    0.1359
          21    0.1719   -0.1554    0.1516    0.0210   -0.1197   -0.0900    0.1093    0.0526
          22    0.1421    0.2526    0.0310    0.0177    0.1238   -0.1230   -0.0945   -0.0769
[...]
 EFFECTIVE MASS      4.4519
 FORCE CONSTANT      0.3939

 VIBRATION         37   37A           ATOM PAIR      ENERGY CONTRIBUTION    RADIAL
 FREQUENCY          1393.72         C  1 -- H 13         +17.2% ( 49.7%)      5.4%
 TRANSITION DIPOLE   0.0194         C  1 -- H 14         +16.6% ( 48.9%)      5.4%
 TRAVEL (Ang.)       0.3235         C  1 -- C  3         +13.3% ( 43.8%)     88.7%
 REDUCED MASS        0.4622         C  1 -- C  2          +7.9% ( 33.6%)      4.3%
 EFFECTIVE MASS      5.0169
 FORCE CONSTANT      0.5290

 VIBRATION         38   38A           ATOM PAIR      ENERGY CONTRIBUTION    RADIAL
 FREQUENCY          1405.88         C  1 -- C  2         +19.2% ( 66.3%)     96.2%
 TRANSITION DIPOLE   0.1961         C  2 -- C  5         +13.1% ( 54.7%)     59.8%
 TRAVEL (Ang.)       0.1632         C  2 -- H 12         +11.3% ( 50.8%)      0.4%
 REDUCED MASS        1.7999         C  2 -- H 11         +10.7% ( 49.6%)      1.1%
 EFFECTIVE MASS      9.1992
 FORCE CONSTANT      2.0960

 VIBRATION         39   39A           ATOM PAIR      ENERGY CONTRIBUTION    RADIAL
 FREQUENCY          1434.11         C  2 -- C  5          +9.8% ( 46.5%)     99.4%
 TRANSITION DIPOLE   0.3074         C  9 -- C 10          +8.3% ( 42.8%)     98.6%
 TRAVEL (Ang.)       0.2444         C  4 -- C  6          +8.0% ( 41.9%)     96.5%
 REDUCED MASS        0.7870         C  7 -- C  9          +6.8% ( 38.6%)     74.1%
 EFFECTIVE MASS      9.6694
 FORCE CONSTANT      0.9536

 VIBRATION         40   40A           ATOM PAIR      ENERGY CONTRIBUTION    RADIAL
 FREQUENCY          1575.78         C  3 -- C  4         +12.7% ( 53.4%)      0.8%
 TRANSITION DIPOLE   0.4846         C  8 -- C 10         +11.3% ( 50.3%)     93.2%
 TRAVEL (Ang.)       0.1640         C  9 -- C 10         +10.8% ( 49.2%)      0.3%
 REDUCED MASS        1.5911         C  7 -- C  9         +10.6% ( 48.8%)     84.9%
 EFFECTIVE MASS     11.3877
 FORCE CONSTANT      2.3278

 VIBRATION         41   41A           ATOM PAIR      ENERGY CONTRIBUTION    RADIAL
 FREQUENCY          1636.65         C  3 -- C  4         +17.9% ( 62.3%)     98.7%
 TRANSITION DIPOLE   0.4814         C  4 -- C  8         +14.1% ( 55.3%)     43.2%
 TRAVEL (Ang.)       0.1456         C  4 -- C  6         +12.7% ( 52.4%)     94.2%
 REDUCED MASS        1.9432         C  3 -- C  7         +11.7% ( 50.5%)     43.9%
 EFFECTIVE MASS     11.3589
 FORCE CONSTANT      3.0668

 VIBRATION         42   42A           ATOM PAIR      ENERGY CONTRIBUTION    RADIAL
 FREQUENCY          1782.44         C  3 -- C  4         +20.3% ( 62.6%)    100.0%
 TRANSITION DIPOLE   0.2342         C  9 -- C 10         +15.7% ( 55.0%)     99.8%
 TRAVEL (Ang.)       0.1238         C  4 -- C  8          +9.9% ( 43.7%)     40.0%
 REDUCED MASS        2.4701         C  3 -- C  7          +9.2% ( 42.2%)     31.6%
 EFFECTIVE MASS     11.8834
 FORCE CONSTANT      4.6237

 VIBRATION         43   43A           ATOM PAIR      ENERGY CONTRIBUTION    RADIAL
 FREQUENCY          1800.93         C  3 -- C  7         +15.6% ( 55.2%)     87.7%
 TRANSITION DIPOLE   0.1089         C  4 -- C  8         +15.2% ( 54.3%)     81.5%
 TRAVEL (Ang.)       0.1286         C  8 -- C 10         +13.6% ( 51.4%)     90.6%
 REDUCED MASS        2.2646         C  7 -- C  9         +12.1% ( 48.6%)     85.3%
 EFFECTIVE MASS     11.8613
 FORCE CONSTANT      4.3274

 VIBRATION         44   44A           ATOM PAIR      ENERGY CONTRIBUTION    RADIAL
 FREQUENCY          1862.54         C  5 -- C  6         +42.5% ( 96.3%)    100.0%
 TRANSITION DIPOLE   0.3435         C  4 -- C  6         +15.6% ( 58.4%)     48.1%
 TRAVEL (Ang.)       0.0845         C  6 -- H 17         +13.3% ( 53.8%)      4.5%
 REDUCED MASS        5.0746         C  2 -- C  5         +13.2% ( 53.6%)     49.4%
 EFFECTIVE MASS     11.8797         C  5 -- H 15         +12.1% ( 51.4%)      4.9%
 FORCE CONSTANT     10.3721

 VIBRATION         45   45A           ATOM PAIR      ENERGY CONTRIBUTION    RADIAL
 FREQUENCY          2937.93         C  1 -- H 14         +34.7% ( 61.3%)     97.5%
 TRANSITION DIPOLE   0.0310         C  2 -- H 12         +26.4% ( 53.5%)     97.5%
 TRAVEL (Ang.)       0.2863         C  1 -- H 13         +21.3% ( 48.0%)     94.7%
 REDUCED MASS        0.2800         C  2 -- H 11         +15.2% ( 40.6%)     94.5%
 EFFECTIVE MASS      1.5462
 FORCE CONSTANT      1.4241

 VIBRATION         46   46A           ATOM PAIR      ENERGY CONTRIBUTION    RADIAL
 FREQUENCY          2949.97         C  2 -- H 12         +33.4% ( 59.8%)     97.5%
 TRANSITION DIPOLE   0.0544         C  1 -- H 14         +24.1% ( 50.8%)     97.3%
 TRAVEL (Ang.)       0.2897         C  2 -- H 11         +22.7% ( 49.3%)     95.4%
 REDUCED MASS        0.2725         C  1 -- H 13         +17.7% ( 43.5%)     95.6%
 EFFECTIVE MASS      1.5301
 FORCE CONSTANT      1.3969

 VIBRATION         47   47A           ATOM PAIR      ENERGY CONTRIBUTION    RADIAL
 FREQUENCY          3022.34         C  1 -- H 13         +43.3% ( 64.9%)     98.7%
 TRANSITION DIPOLE   0.0567         C  1 -- H 14         +28.9% ( 53.1%)     96.2%
 TRAVEL (Ang.)       0.2713         C  2 -- H 11         +15.4% ( 38.7%)     98.6%
 REDUCED MASS        0.3032         C  2 -- H 12         +10.9% ( 32.6%)     96.4%
 EFFECTIVE MASS      1.2826
 FORCE CONSTANT      1.6318

 VIBRATION         48   48A           ATOM PAIR      ENERGY CONTRIBUTION    RADIAL
 FREQUENCY          3029.31         C  2 -- H 11         +45.2% ( 66.3%)     98.9%
 TRANSITION DIPOLE   0.1053         C  2 -- H 12         +26.1% ( 50.3%)     95.6%
 TRAVEL (Ang.)       0.2702         C  1 -- H 13         +16.9% ( 40.5%)     98.9%
 REDUCED MASS        0.3049         C  1 -- H 14          +9.4% ( 30.2%)     95.5%
 EFFECTIVE MASS      1.2816
 FORCE CONSTANT      1.6486

 VIBRATION         49   49A           ATOM PAIR      ENERGY CONTRIBUTION    RADIAL
 FREQUENCY          3049.70         C  6 -- H 17         +64.1% ( 81.3%)    100.0%
 TRANSITION DIPOLE   0.3200         C  5 -- H 15         +30.9% ( 56.5%)    100.0%
 TRAVEL (Ang.)       0.2110         C  8 -- H 19          +1.6% ( 12.8%)    100.0%
 REDUCED MASS        0.4967         C  5 -- C  6          +1.1% ( 10.8%)      2.1%
 EFFECTIVE MASS      1.4688
 FORCE CONSTANT      2.7219

 VIBRATION         50   50A           ATOM PAIR      ENERGY CONTRIBUTION    RADIAL
 FREQUENCY          3052.36         C  7 -- H 16         +41.5% ( 65.5%)    100.0%
 TRANSITION DIPOLE   0.1841         C  9 -- H 18         +24.1% ( 49.9%)    100.0%
 TRAVEL (Ang.)       0.2845         C  8 -- H 19         +16.0% ( 40.7%)    100.0%
 REDUCED MASS        0.2730         C 10 -- H 20         +14.6% ( 38.8%)    100.0%
 EFFECTIVE MASS      1.4976
 FORCE CONSTANT      1.4987

 VIBRATION         51   51A           ATOM PAIR      ENERGY CONTRIBUTION    RADIAL
 FREQUENCY          3054.82         C  8 -- H 19         +50.4% ( 72.2%)    100.0%
 TRANSITION DIPOLE   0.1681         C  7 -- H 16         +28.6% ( 54.3%)    100.0%
 TRAVEL (Ang.)       0.2506         C 10 -- H 20         +13.6% ( 37.5%)     99.9%
 REDUCED MASS        0.3515         C  9 -- H 18          +3.4% ( 18.7%)     99.7%
 EFFECTIVE MASS      1.5017
 FORCE CONSTANT      1.9325

 VIBRATION         52   52A           ATOM PAIR      ENERGY CONTRIBUTION    RADIAL
 FREQUENCY          3064.51         C  9 -- H 18         +31.0% ( 56.5%)     99.9%
 TRANSITION DIPOLE   0.4932         C 10 -- H 20         +26.1% ( 51.9%)     99.9%
 TRAVEL (Ang.)       0.3026         C  8 -- H 19         +20.1% ( 45.5%)    100.0%
 REDUCED MASS        0.2403         C  7 -- H 16         +19.4% ( 44.7%)    100.0%
 EFFECTIVE MASS      1.5293
 FORCE CONSTANT      1.3298

 VIBRATION         53   53A           ATOM PAIR      ENERGY CONTRIBUTION    RADIAL
 FREQUENCY          3070.53         C  5 -- H 15         +63.7% ( 81.0%)     99.9%
 TRANSITION DIPOLE   0.3310         C  6 -- H 17         +31.7% ( 57.1%)     99.9%
 TRAVEL (Ang.)       0.2081         C  5 -- C  6          +2.0% ( 14.4%)     95.6%
 REDUCED MASS        0.5072         C  2 -- C  5          +1.0% ( 10.3%)     18.0%
 EFFECTIVE MASS      1.5877
 FORCE CONSTANT      2.8176

 VIBRATION         54   54A           ATOM PAIR      ENERGY CONTRIBUTION    RADIAL
 FREQUENCY          3077.56         C 10 -- H 20         +42.3% ( 65.9%)    100.0%
 TRANSITION DIPOLE   0.4432         C  9 -- H 18         +38.3% ( 62.8%)    100.0%
 TRAVEL (Ang.)       0.2544         C  8 -- H 19          +8.6% ( 29.7%)     99.9%
 REDUCED MASS        0.3387         C  7 -- H 16          +7.2% ( 27.3%)     99.9%
 EFFECTIVE MASS      1.5895
 FORCE CONSTANT      1.8899

      SYMMETRY NUMBER FOR POINT-GROUP C1  =  1


          SYSTEM IS A GROUND STATE



 InChI=1S/C10H10/c1-2-6-10-8-4-3-7-9(10)5-1/h1-3,5-7H,4,8H2


          MOLECULE IS NOT LINEAR

          THERE ARE 54 GENUINE VIBRATIONS IN THIS SYSTEM
          THIS THERMODYNAMICS CALCULATION IS LIMITED TO
          MOLECULES WHICH HAVE NO INTERNAL ROTATIONS




                    CALCULATED THERMODYNAMIC PROPERTIES
                                          *
   TEMP. (K)   PARTITION FUNCTION   H.O.F.    ENTHALPY  HEAT CAPACITY ENTROPY
                                   KCAL/MOL   CAL/MOLE    CAL/K/MOL  CAL/K/MOL


 298.00  VIB.     0.2338D+02                  3014.1906    25.3241    16.3780
         ROT.     0.5004D+06                   888.2803     2.9808    29.0591
         INT.     0.1170D+08                  3902.4709    28.3049    45.4372
         TRA.     0.1436D+28                  1480.4672     4.9680    40.5022
         TOT.                       28.737    5382.9380    33.2729    85.9393

 200.00  VIB.     0.5094D+01                  1105.2871    13.8970     8.7619
         ROT.     0.2751D+06                   596.1613     2.9808    27.8705
         INT.     0.1402D+07                  1701.4483    16.8778    36.6323
         TRA.     0.7896D+27                   993.6021     4.9680    38.5210
         TOT.                       26.049    2695.0505    21.8458    75.1534

 210.00  VIB.     0.5865D+01                  1249.6068    14.9720     9.4658
         ROT.     0.2960D+06                   625.9693     2.9808    28.0159
         INT.     0.1736D+07                  1875.5762    17.9528    37.4817
         TRA.     0.8496D+27                  1043.2822     4.9680    38.7634
         TOT.                       26.272    2918.8584    22.9208    76.2451

 220.00  VIB.     0.6775D+01                  1404.8225    16.0757    10.1876
         ROT.     0.3174D+06                   655.7774     2.9808    28.1546
         INT.     0.2151D+07                  2060.5999    19.0565    38.3422
         TRA.     0.9110D+27                  1092.9623     4.9680    38.9945
         TOT.                       26.507    3153.5622    24.0245    77.3367

 230.00  VIB.     0.7854D+01                  1571.2078    17.2054    10.9271
         ROT.     0.3393D+06                   685.5855     2.9808    28.2871
         INT.     0.2665D+07                  2256.7933    20.1862    39.2141
         TRA.     0.9738D+27                  1142.6424     4.9680    39.2154
         TOT.                       26.753    3399.4358    25.1543    78.4295

 240.00  VIB.     0.9136D+01                  1749.0077    18.3581    11.6836
         ROT.     0.3617D+06                   715.3935     2.9808    28.4139
         INT.     0.3304D+07                  2464.4012    21.3389    40.0975
         TRA.     0.1038D+28                  1192.3226     4.9680    39.4268
         TOT.                       27.010    3656.7238    26.3069    79.5244

 250.00  VIB.     0.1066D+02                  1938.4352    19.5304    12.4567
         ROT.     0.3845D+06                   745.2016     2.9808    28.5356
         INT.     0.4099D+07                  2683.6368    22.5112    40.9923
         TRA.     0.1103D+28                  1242.0027     4.9680    39.6296
         TOT.                       27.279    3925.6394    27.4792    80.6220

 260.00  VIB.     0.1248D+02                  2139.6699    20.7190    13.2458
         ROT.     0.4078D+06                   775.0097     2.9808    28.6525
         INT.     0.5090D+07                  2914.6796    23.6998    41.8984
         TRA.     0.1170D+28                  1291.6828     4.9680    39.8245
         TOT.                       27.560    4206.3624    28.6678    81.7228

 270.00  VIB.     0.1466D+02                  2352.8574    21.9204    14.0503
         ROT.     0.4315D+06                   804.8177     2.9808    28.7650
         INT.     0.6327D+07                  3157.6751    24.9012    42.8153
         TRA.     0.1239D+28                  1341.3629     4.9680    40.0120
         TOT.                       27.853    4499.0380    29.8692    82.8272

 280.00  VIB.     0.1727D+02                  2578.1089    23.1312    14.8693
         ROT.     0.4557D+06                   834.6258     2.9808    28.8734
         INT.     0.7872D+07                  3412.7347    26.1120    43.7427
         TRA.     0.1308D+28                  1391.0430     4.9680    40.1926
         TOT.                       28.157    4803.7777    31.0800    83.9354

 290.00  VIB.     0.2041D+02                  2815.5022    24.3482    15.7022
         ROT.     0.4804D+06                   864.4339     2.9808    28.9780
         INT.     0.9805D+07                  3679.9360    27.3290    44.6803
         TRA.     0.1379D+28                  1440.7231     4.9680    40.3670
         TOT.                       28.474    5120.6591    32.2970    85.0472

 300.00  VIB.     0.2419D+02                  3065.0828    25.5682    16.5482
         ROT.     0.5054D+06                   894.2419     2.9808    29.0791
         INT.     0.1223D+08                  3959.3247    28.5490    45.6273
         TRA.     0.1451D+28                  1490.4032     4.9680    40.5354
         TOT.                       28.803    5449.7279    33.5170    86.1627

 310.00  VIB.     0.2876D+02                  3326.8659    26.7882    17.4065
         ROT.     0.5309D+06                   924.0500     2.9808    29.1768
         INT.     0.1527D+08                  4250.9159    29.7690    46.5833
         TRA.     0.1524D+28                  1540.0833     4.9680    40.6983
         TOT.                       29.145    5790.9992    34.7370    87.2816

 320.00  VIB.     0.3428D+02                  3600.8381    28.0056    18.2762
         ROT.     0.5568D+06                   953.8580     2.9808    29.2715
         INT.     0.1908D+08                  4554.6961    30.9864    47.5477
         TRA.     0.1598D+28                  1589.7634     4.9680    40.8560
         TOT.                       29.498    6144.4596    35.9544    88.4037

 330.00  VIB.     0.4096D+02                  3886.9596    29.2177    19.1566
         ROT.     0.5831D+06                   983.6661     2.9808    29.3632
         INT.     0.2389D+08                  4870.6257    32.1985    48.5198
         TRA.     0.1674D+28                  1639.4435     4.9680    41.0089
         TOT.                       29.864    6510.0692    37.1665    89.5287

 340.00  VIB.     0.4909D+02                  4185.1666    30.4223    20.0467
         ROT.     0.6098D+06                  1013.4742     2.9808    29.4522
         INT.     0.2993D+08                  5198.6408    33.4031    49.4989
         TRA.     0.1750D+28                  1689.1236     4.9680    41.1572
         TOT.                       30.241    6887.7644    38.3711    90.6561

 350.00  VIB.     0.5897D+02                  4495.3741    31.6174    20.9459
         ROT.     0.6369D+06                  1043.2822     2.9808    29.5386
         INT.     0.3756D+08                  5538.6563    34.5982    50.4844
         TRA.     0.1828D+28                  1738.8037     4.9680    41.3012
         TOT.                       30.631    7277.4601    39.5662    91.7857

 360.00  VIB.     0.7102D+02                  4817.4775    32.8012    21.8532
         ROT.     0.6644D+06                  1073.0903     2.9808    29.6226
         INT.     0.4718D+08                  5890.5678    35.7820    51.4757
         TRA.     0.1907D+28                  1788.4838     4.9680    41.4412
         TOT.                       31.033    7679.0516    40.7500    92.9169

 370.00  VIB.     0.8572D+02                  5151.3555    33.9721    22.7679
         ROT.     0.6923D+06                  1102.8984     2.9808    29.7042
         INT.     0.5934D+08                  6254.2538    36.9529    52.4721
         TRA.     0.1987D+28                  1838.1639     4.9680    41.5773
         TOT.                       31.446    8092.4178    41.9209    94.0494

 380.00  VIB.     0.1037D+03                  5496.8720    35.1287    23.6893
         ROT.     0.7205D+06                  1132.7064     2.9808    29.7837
         INT.     0.7473D+08                  6629.5784    38.1095    53.4730
         TRA.     0.2068D+28                  1887.8440     4.9680    41.7098
         TOT.                       31.871    8517.4225    43.0775    95.1828

 390.00  VIB.     0.1257D+03                  5853.8785    36.2699    24.6165
         ROT.     0.7492D+06                  1162.5145     2.9808    29.8611
         INT.     0.9420D+08                  7016.3930    39.2507    54.4777
         TRA.     0.2150D+28                  1937.5242     4.9680    41.8388
         TOT.                       32.307    8953.9172    44.2187    96.3165

 400.00  VIB.     0.1528D+03                  6222.2159    37.3948    25.5490
         ROT.     0.7782D+06                  1192.3226     2.9808    29.9366
         INT.     0.1189D+09                  7414.5385    40.3756    55.4856
         TRA.     0.2233D+28                  1987.2043     4.9680    41.9646
         TOT.                       32.755    9401.7428    45.3436    97.4502

   *: NOTE: HEATS OF FORMATION ARE RELATIVE TO THE
            ELEMENTS IN THEIR STANDARD STATE AT 298K
              (=  Standard Enthalpy of Formation).

            Hvib:  Zero-point energy is not included.
                   frequencies of less than zero cm-1 are not included.
            Hrot = (3/2)RT
            Htra = (3/2)RT + pV = (5/2)RT

            Heat capacity is Cp, not Cv

          For more information, see: HTTP://OpenMOPAC.net/Manual/thermochemistry.html


           FORCE CONSTANT IN CARTESIAN COORDINATES (Millidynes/A)

    ATOM   CHEMICAL       X               Y               Z
   NUMBER   SYMBOL  FORCE CONSTANT  FORCE CONSTANT  FORCE CONSTANT

      1       C        8.450254        8.856041        8.094254
      2       C        8.314697        9.000125        8.078615
      3       C       10.998229       11.659712        4.795993
      4       C       11.218804       12.222297        4.692144
      5       C       10.078326       12.050891        4.933019
      6       C       10.048711       12.595796        5.107266
      7       C       10.285236       11.857919        4.428288
      8       C       10.623313       11.465628        4.490254
      9       C       10.374770       11.598831        4.465551
     10       C       10.394300       11.639948        4.439820
     11       H        1.175123        4.112785        1.072794
     12       H        1.179235        0.750248        4.306189
     13       H        1.191672        1.780752        3.409790
     14       H        1.165142        1.526336        3.545482
     15       H        4.411537        0.802008        1.048463
     16       H        1.825012        3.225876        1.210546
     17       H        1.417397        2.934164        1.901945
     18       H        4.306310        0.851489        1.116691
     19       H        1.796222        3.259282        1.209167
     20       H        1.412844        4.417719        0.444967

 **********************
 *                    *
 * JOB ENDED NORMALLY *
 *                    *
 **********************



 TOTAL JOB TIME:             2.20 SECONDS

 == MOPAC DONE ==
