 *******************************************************************************
 **                                                                           **
 **                              MOPAC v23.1.2                                **
 **                                                                           **
 *******************************************************************************
 **          Digital Object Identifier (DOI): 10.5281/zenodo.6511958          **
 **    Visit the DOI location for information on how to cite this program.    **
 *******************************************************************************

                              PM3 CALCULATION RESULTS

 *******************************************************************************
 *  CALCULATION DONE: (MAX THREADS = 1)              Tue Jun  3 16:42:55 2025  *
 *  PM3        - The PM3 Hamiltonian to be used
 *  PRECISE    - TIGHTER CRITERIA TO BE USED
 *  NOSYM      - POINT-GROUP SYMMETRY SET TO C1
 *  THREADS=1  - MULTI-THREADING NOT USED
 *  T=         - A TIME OF 172800.0 SECONDS REQUESTED
 *  DUMP=N     - RESTART FILE WRITTEN EVERY 7200.0 SECONDS REQUESTED
 *******************************************************************************
pm3  precise nosym THREADS=1
 InChI=1S/C12H22/c1-3-9-5-11(6-9)12-7-10(4-2)8-12/h9-12H,3-8H2,1-2H3

   ATOM   CHEMICAL          X               Y               Z
  NUMBER   SYMBOL      (ANGSTROMS)     (ANGSTROMS)     (ANGSTROMS)

     1       C         -0.36440000  *  -0.24570000  *  -0.71510000  *
     2       C          0.33920000  *   0.64610000  *   0.32880000  *
     3       C         -2.50790000  *  -0.49360000  *  -0.85370000  *
     4       C          2.48290000  *   0.89310000  *   0.46810000  *
     5       C         -1.48940000  *   0.47090000  *  -1.46160000  *
     6       C          1.35900000  *   1.60510000  *  -0.28510000  *
     7       C         -1.38240000  *  -1.20620000  *  -0.10110000  *
     8       C          1.46270000  *  -0.07100000  *   1.07700000  *
     9       C         -3.53450000  *   0.20250000  *   0.05690000  *
    10       C          3.50780000  *   0.22250000  *  -0.46320000  *
    11       C         -4.48670000  *  -0.80620000  *   0.69330000  *
    12       C          4.57070000  *  -0.53120000  *   0.33140000  *
    13       H         -2.98030000  *  -1.13950000  *  -1.62770000  *
    14       H          0.33800000  *  -0.76300000  *  -1.40770000  *
    15       H          2.95430000  *   1.55370000  *   1.23020000  *
    16       H         -0.36320000  *   1.16450000  *   1.02050000  *
    17       H         -4.13030000  *   0.91540000  *  -0.55290000  *
    18       H         -3.02230000  *   0.78060000  *   0.85760000  *
    19       H         -1.63030000  *   1.53170000  *  -1.15440000  *
    20       H         -1.40260000  *   0.34790000  *  -2.56330000  *
    21       H          3.00340000  *  -0.48080000  *  -1.16210000  *
    22       H          4.00960000  *   1.00730000  *  -1.06940000  *
    23       H          1.21440000  *   2.64930000  *   0.06860000  *
    24       H          1.43800000  *   1.53050000  *  -1.39320000  *
    25       H         -1.45750000  *  -1.13220000  *   1.00690000  *
    26       H          1.59980000  *  -1.13210000  *   0.77050000  *
    27       H         -1.23860000  *  -2.24990000  *  -0.45640000  *
    28       H          1.37660000  *   0.05370000  *   2.17840000  *
    29       H         -3.92700000  *  -1.51960000  *   1.33420000  *
    30       H         -5.22750000  *  -0.27080000  *   1.32370000  *
    31       H         -5.03180000  *  -1.37060000  *  -0.09310000  *
    32       H          4.10680000  *  -1.34370000  *   0.92940000  *
    33       H          5.10760000  *   0.16350000  *   1.01200000  *
    34       H          5.30610000  *  -0.98230000  *  -0.36750000  *



          CARTESIAN COORDINATES 

    NO.       ATOM           X           Y           Z

     1         C         -0.3644     -0.2457     -0.7151
     2         C          0.3392      0.6461      0.3288
     3         C         -2.5079     -0.4936     -0.8537
     4         C          2.4829      0.8931      0.4681
     5         C         -1.4894      0.4709     -1.4616
     6         C          1.3590      1.6051     -0.2851
     7         C         -1.3824     -1.2062     -0.1011
     8         C          1.4627     -0.0710      1.0770
     9         C         -3.5345      0.2025      0.0569
    10         C          3.5078      0.2225     -0.4632
    11         C         -4.4867     -0.8062      0.6933
    12         C          4.5707     -0.5312      0.3314
    13         H         -2.9803     -1.1395     -1.6277
    14         H          0.3380     -0.7630     -1.4077
    15         H          2.9543      1.5537      1.2302
    16         H         -0.3632      1.1645      1.0205
    17         H         -4.1303      0.9154     -0.5529
    18         H         -3.0223      0.7806      0.8576
    19         H         -1.6303      1.5317     -1.1544
    20         H         -1.4026      0.3479     -2.5633
    21         H          3.0034     -0.4808     -1.1621
    22         H          4.0096      1.0073     -1.0694
    23         H          1.2144      2.6493      0.0686
    24         H          1.4380      1.5305     -1.3932
    25         H         -1.4575     -1.1322      1.0069
    26         H          1.5998     -1.1321      0.7705
    27         H         -1.2386     -2.2499     -0.4564
    28         H          1.3766      0.0537      2.1784
    29         H         -3.9270     -1.5196      1.3342
    30         H         -5.2275     -0.2708      1.3237
    31         H         -5.0318     -1.3706     -0.0931
    32         H          4.1068     -1.3437      0.9294
    33         H          5.1076      0.1635      1.0120
    34         H          5.3061     -0.9823     -0.3675

  H: (PM3): J. J. P. STEWART, J. COMP. CHEM. 10, 209 (1989).
  C: (PM3): J. J. P. STEWART, J. COMP. CHEM. 10, 209 (1989).

           Empirical Formula: C12 H22  =    34 atoms



      MOLECULAR POINT GROUP   :   C1  


      RHF CALCULATION, NO. OF DOUBLY OCCUPIED LEVELS = 35


          Geometry optimization using L-BFGS
 CYCLE:     1 TIME:   0.012 TIME LEFT:  2.00D  GRAD.:    99.925 HEAT: -19.21925
 CYCLE:     2 TIME:   0.008 TIME LEFT:  2.00D  GRAD.:    98.278 HEAT: -19.31827
 CYCLE:     3 TIME:   0.012 TIME LEFT:  2.00D  GRAD.:    38.371 HEAT: -23.19233
 CYCLE:     4 TIME:   0.012 TIME LEFT:  2.00D  GRAD.:    98.287 HEAT: -19.31835
 CYCLE:     5 TIME:   0.008 TIME LEFT:  2.00D  GRAD.:    38.377 HEAT: -23.19230
 CYCLE:     6 TIME:   0.012 TIME LEFT:  2.00D  GRAD.:    34.703 HEAT: -23.95067
 CYCLE:     7 TIME:   0.008 TIME LEFT:  2.00D  GRAD.:    36.821 HEAT: -25.64341
 CYCLE:     8 TIME:   0.012 TIME LEFT:  2.00D  GRAD.:    63.968 HEAT: -25.30832
 CYCLE:     9 TIME:   0.012 TIME LEFT:  2.00D  GRAD.:    10.552 HEAT: -26.31945
 CYCLE:    10 TIME:   0.008 TIME LEFT:  2.00D  GRAD.:     5.706 HEAT: -26.37409
 CYCLE:    11 TIME:   0.008 TIME LEFT:  2.00D  GRAD.:     3.231 HEAT: -26.41164
 CYCLE:    12 TIME:   0.012 TIME LEFT:  2.00D  GRAD.:     3.858 HEAT: -26.42384
 CYCLE:    13 TIME:   0.012 TIME LEFT:  2.00D  GRAD.:     2.508 HEAT: -26.43723
 CYCLE:    14 TIME:   0.012 TIME LEFT:  2.00D  GRAD.:     2.017 HEAT: -26.44786
 CYCLE:    15 TIME:   0.012 TIME LEFT:  2.00D  GRAD.:     5.464 HEAT: -26.44659
 CYCLE:    16 TIME:   0.012 TIME LEFT:  2.00D  GRAD.:     1.612 HEAT: -26.45436
 CYCLE:    17 TIME:   0.008 TIME LEFT:  2.00D  GRAD.:     1.207 HEAT: -26.45646
 CYCLE:    18 TIME:   0.012 TIME LEFT:  2.00D  GRAD.:     1.549 HEAT: -26.46141
 CYCLE:    19 TIME:   0.008 TIME LEFT:  2.00D  GRAD.:     1.651 HEAT: -26.46521
 CYCLE:    20 TIME:   0.012 TIME LEFT:  2.00D  GRAD.:     5.311 HEAT: -26.46344
 CYCLE:    21 TIME:   0.012 TIME LEFT:  2.00D  GRAD.:     1.016 HEAT: -26.47044
 CYCLE:    22 TIME:   0.008 TIME LEFT:  2.00D  GRAD.:     0.888 HEAT: -26.47156
 CYCLE:    23 TIME:   0.012 TIME LEFT:  2.00D  GRAD.:     0.876 HEAT: -26.47412
 CYCLE:    24 TIME:   0.012 TIME LEFT:  2.00D  GRAD.:     2.367 HEAT: -26.47466
 CYCLE:    25 TIME:   0.008 TIME LEFT:  2.00D  GRAD.:     0.849 HEAT: -26.47623
 CYCLE:    26 TIME:   0.012 TIME LEFT:  2.00D  GRAD.:     0.650 HEAT: -26.47697
 CYCLE:    27 TIME:   0.012 TIME LEFT:  2.00D  GRAD.:     0.929 HEAT: -26.47787
 CYCLE:    28 TIME:   0.012 TIME LEFT:  2.00D  GRAD.:     1.260 HEAT: -26.47979
 CYCLE:    29 TIME:   0.008 TIME LEFT:  2.00D  GRAD.:     2.355 HEAT: -26.48208
 CYCLE:    30 TIME:   0.012 TIME LEFT:  2.00D  GRAD.:     1.557 HEAT: -26.48552
 CYCLE:    31 TIME:   0.012 TIME LEFT:  2.00D  GRAD.:     1.400 HEAT: -26.48856
 CYCLE:    32 TIME:   0.008 TIME LEFT:  2.00D  GRAD.:     2.322 HEAT: -26.49070
 CYCLE:    33 TIME:   0.012 TIME LEFT:  2.00D  GRAD.:     1.249 HEAT: -26.49274
 CYCLE:    34 TIME:   0.012 TIME LEFT:  2.00D  GRAD.:     1.097 HEAT: -26.49387
 CYCLE:    35 TIME:   0.012 TIME LEFT:  2.00D  GRAD.:     1.526 HEAT: -26.49815
 CYCLE:    36 TIME:   0.012 TIME LEFT:  2.00D  GRAD.:     2.260 HEAT: -26.50145
 CYCLE:    37 TIME:   0.008 TIME LEFT:  2.00D  GRAD.:     1.583 HEAT: -26.50488
 CYCLE:    38 TIME:   0.012 TIME LEFT:  2.00D  GRAD.:     1.273 HEAT: -26.50711
 CYCLE:    39 TIME:   0.012 TIME LEFT:  2.00D  GRAD.:     1.477 HEAT: -26.50781
 CYCLE:    40 TIME:   0.012 TIME LEFT:  2.00D  GRAD.:     0.636 HEAT: -26.50853
 CYCLE:    41 TIME:   0.008 TIME LEFT:  2.00D  GRAD.:     0.527 HEAT: -26.50885
 CYCLE:    42 TIME:   0.012 TIME LEFT:  2.00D  GRAD.:     0.742 HEAT: -26.50954
 CYCLE:    43 TIME:   0.012 TIME LEFT:  2.00D  GRAD.:     0.965 HEAT: -26.51045
 CYCLE:    44 TIME:   0.008 TIME LEFT:  2.00D  GRAD.:     1.557 HEAT: -26.51132
 CYCLE:    45 TIME:   0.012 TIME LEFT:  2.00D  GRAD.:     0.926 HEAT: -26.51252
 CYCLE:    46 TIME:   0.012 TIME LEFT:  2.00D  GRAD.:     1.000 HEAT: -26.51421
 CYCLE:    47 TIME:   0.012 TIME LEFT:  2.00D  GRAD.:     1.146 HEAT: -26.51531
 CYCLE:    48 TIME:   0.008 TIME LEFT:  2.00D  GRAD.:     2.753 HEAT: -26.51563
 CYCLE:    49 TIME:   0.012 TIME LEFT:  2.00D  GRAD.:     0.667 HEAT: -26.51771
 CYCLE:    50 TIME:   0.012 TIME LEFT:  2.00D  GRAD.:     0.552 HEAT: -26.51824
 CYCLE:    51 TIME:   0.012 TIME LEFT:  2.00D  GRAD.:     0.671 HEAT: -26.51897
 CYCLE:    52 TIME:   0.012 TIME LEFT:  2.00D  GRAD.:     1.336 HEAT: -26.51930
 CYCLE:    53 TIME:   0.012 TIME LEFT:  2.00D  GRAD.:     0.530 HEAT: -26.51982
 CYCLE:    54 TIME:   0.012 TIME LEFT:  2.00D  GRAD.:     0.330 HEAT: -26.52007
 CYCLE:    55 TIME:   0.012 TIME LEFT:  2.00D  GRAD.:     0.412 HEAT: -26.52024
 CYCLE:    56 TIME:   0.008 TIME LEFT:  2.00D  GRAD.:     0.640 HEAT: -26.52061
 CYCLE:    57 TIME:   0.012 TIME LEFT:  2.00D  GRAD.:     0.799 HEAT: -26.52105
 CYCLE:    58 TIME:   0.012 TIME LEFT:  2.00D  GRAD.:     0.497 HEAT: -26.52150
 CYCLE:    59 TIME:   0.008 TIME LEFT:  2.00D  GRAD.:     0.564 HEAT: -26.52189
 CYCLE:    60 TIME:   0.012 TIME LEFT:  2.00D  GRAD.:     0.681 HEAT: -26.52234
 CYCLE:    61 TIME:   0.012 TIME LEFT:  2.00D  GRAD.:     0.831 HEAT: -26.52284
 CYCLE:    62 TIME:   0.012 TIME LEFT:  2.00D  GRAD.:     0.523 HEAT: -26.52331
 CYCLE:    63 TIME:   0.012 TIME LEFT:  2.00D  GRAD.:     0.485 HEAT: -26.52375
 CYCLE:    64 TIME:   0.008 TIME LEFT:  2.00D  GRAD.:     0.654 HEAT: -26.52407
 CYCLE:    65 TIME:   0.012 TIME LEFT:  2.00D  GRAD.:     0.444 HEAT: -26.52433
 CYCLE:    66 TIME:   0.012 TIME LEFT:  2.00D  GRAD.:     0.343 HEAT: -26.52449
 CYCLE:    67 TIME:   0.012 TIME LEFT:  2.00D  GRAD.:     0.367 HEAT: -26.52469
 CYCLE:    68 TIME:   0.008 TIME LEFT:  2.00D  GRAD.:     0.496 HEAT: -26.52490
 CYCLE:    69 TIME:   0.012 TIME LEFT:  2.00D  GRAD.:     0.393 HEAT: -26.52508
 CYCLE:    70 TIME:   0.012 TIME LEFT:  2.00D  GRAD.:     0.231 HEAT: -26.52517
 CYCLE:    71 TIME:   0.008 TIME LEFT:  2.00D  GRAD.:     0.230 HEAT: -26.52524
 CYCLE:    72 TIME:   0.012 TIME LEFT:  2.00D  GRAD.:     0.309 HEAT: -26.52533
 CYCLE:    73 TIME:   0.012 TIME LEFT:  2.00D  GRAD.:     0.447 HEAT: -26.52541
 CYCLE:    74 TIME:   0.008 TIME LEFT:  2.00D  GRAD.:     0.190 HEAT: -26.52549

 -------------------------------------------------------------------------------
 pm3  precise nosym THREADS=1
 InChI=1S/C12H22/c1-3-9-5-11(6-9)12-7-10(4-2)8-12/h9-12H,3-8H2,1-2H3



     HERBERTS TEST WAS SATISFIED IN BFGS                      
     SCF FIELD WAS ACHIEVED                                   


                              PM3 CALCULATION
                                                       MOPAC v23.1.2 MacOS
                                                       Tue Jun  3 16:42:56 2025




          FINAL HEAT OF FORMATION =        -26.52549 KCAL/MOL =    -110.98267 KJ/MOL


          COSMO AREA              =        236.20 SQUARE ANGSTROMS
          COSMO VOLUME            =        253.73 CUBIC ANGSTROMS

          GRADIENT NORM           =          0.18994          =       0.03258 PER ATOM
          IONIZATION POTENTIAL    =         10.848755 EV
          HOMO LUMO ENERGIES (EV) =        -10.849  3.090
          NO. OF FILLED LEVELS    =         35
          MOLECULAR WEIGHT        =        166.3058         POINT GROUP:  C1  

          MOLECULAR DIMENSIONS (Angstroms)

            Atom       Atom       Distance
            H    34    H    30    10.80253
            H    23    H    27     5.08538
            H    20    H    28     5.07740


          SCF CALCULATIONS        =         75

          WALL-CLOCK TIME         =      0.805 SECONDS
          COMPUTATION TIME        =      0.558 SECONDS




   ATOM   CHEMICAL          X               Y               Z
  NUMBER   SYMBOL      (ANGSTROMS)     (ANGSTROMS)     (ANGSTROMS)

     1       C         -0.38319514  *  -0.22606151  *  -0.69343913  *
     2       C          0.35780256  *   0.63035731  *   0.30401081  *
     3       C         -2.56008197  *  -0.47713609  *  -0.82985091  *
     4       C          2.53499026  *   0.87710742  *   0.44391477  *
     5       C         -1.52742080  *   0.49925113  *  -1.44292041  *
     6       C          1.39587221  *   1.59543230  *  -0.31901519  *
     7       C         -1.41746881  *  -1.19536126  *  -0.07137810  *
     8       C          1.49854027  *  -0.09518248  *   1.05806364  *
     9       C         -3.60265807  *   0.18660028  *   0.04559205  *
    10       C          3.57614877  *   0.23549814  *  -0.44950331  *
    11       C         -4.54175384  *  -0.82180480  *   0.66816818  *
    12       C          4.62513991  *  -0.50564153  *   0.34844625  *
    13       H         -3.05541946  *  -1.12303852  *  -1.58499466  *
    14       H          0.33796159  *  -0.72964065  *  -1.37271658  *
    15       H          3.03044498  *   1.52101499  *   1.20067006  *
    16       H         -0.36353982  *   1.13713656  *   0.98068403  *
    17       H         -4.17431580  *   0.91493161  *  -0.56303494  *
    18       H         -3.10643186  *   0.78373256  *   0.83783002  *
    19       H         -1.66725497  *   1.55489243  *  -1.16078636  *
    20       H         -1.45347086  *   0.46159185  *  -2.53944555  *
    21       H          3.08575631  *  -0.45457579  *  -1.16627542  *
    22       H          4.05276184  *   1.02040039  *  -1.06955074  *
    23       H          1.25787946  *   2.65281048  *  -0.05044814  *
    24       H          1.47260851  *   1.54428479  *  -1.41674056  *
    25       H         -1.49314980  *  -1.14934909  *   1.02691414  *
    26       H          1.63772928  *  -1.15247110  *   0.78088074  *
    27       H         -1.27746822  *  -2.25130272  *  -0.34487935  *
    28       H          1.42218710  *  -0.05253208  *   2.15429898  *
    29       H         -3.99885072  *  -1.54102881  *   1.29643039  *
    30       H         -5.29053462  *  -0.33031493  *   1.30217135  *
    31       H         -5.08303827  *  -1.39805538  *  -0.09393183  *
    32       H          4.17765937  *  -1.30569668  *   0.95376652  *
    33       H          5.16065137  *   0.16263713  *   1.03581618  *
    34       H          5.37211925  *  -0.96858596  *  -0.30874694  *

                             CARTESIAN COORDINATES

   1    C       -0.383195144    -0.226061513    -0.693439130
   2    C        0.357802556     0.630357314     0.304010815
   3    C       -2.560081975    -0.477136091    -0.829850907
   4    C        2.534990255     0.877107424     0.443914767
   5    C       -1.527420802     0.499251132    -1.442920411
   6    C        1.395872213     1.595432301    -0.319015192
   7    C       -1.417468811    -1.195361260    -0.071378098
   8    C        1.498540271    -0.095182485     1.058063642
   9    C       -3.602658069     0.186600282     0.045592053
  10    C        3.576148772     0.235498136    -0.449503305
  11    C       -4.541753842    -0.821804804     0.668168184
  12    C        4.625139913    -0.505641529     0.348446247
  13    H       -3.055419458    -1.123038517    -1.584994656
  14    H        0.337961591    -0.729640648    -1.372716583
  15    H        3.030444983     1.521014990     1.200670058
  16    H       -0.363539824     1.137136556     0.980684031
  17    H       -4.174315799     0.914931609    -0.563034940
  18    H       -3.106431857     0.783732563     0.837830023
  19    H       -1.667254966     1.554892435    -1.160786356
  20    H       -1.453470857     0.461591854    -2.539445553
  21    H        3.085756308    -0.454575788    -1.166275417
  22    H        4.052761839     1.020400390    -1.069550742
  23    H        1.257879460     2.652810483    -0.050448145
  24    H        1.472608505     1.544284790    -1.416740556
  25    H       -1.493149803    -1.149349095     1.026914137
  26    H        1.637729282    -1.152471096     0.780880745
  27    H       -1.277468215    -2.251302724    -0.344879349
  28    H        1.422187096    -0.052532077     2.154298976
  29    H       -3.998850723    -1.541028815     1.296430393
  30    H       -5.290534624    -0.330314930     1.302171350
  31    H       -5.083038275    -1.398055381    -0.093931833
  32    H        4.177659375    -1.305696680     0.953766517
  33    H        5.160651373     0.162637133     1.035816181
  34    H        5.372119251    -0.968585960    -0.308746944


           Empirical Formula: C12 H22  =    34 atoms



      MOLECULAR POINT GROUP   :   C1  


                  EIGENVALUES  
 -42.70048 -39.14431 -33.92585 -31.92812 -26.58066 -25.77928 -24.96317 -23.57901
 -21.93145 -19.87229 -19.01061 -18.52783 -17.14782 -16.69066 -16.41899 -15.43926
 -15.26234 -14.86216 -14.31709 -14.27469 -13.83553 -13.54360 -13.14556 -12.92863
 -12.85215 -12.59200 -12.39623 -12.19804 -12.08835 -11.55924 -11.55142 -11.42981
 -11.20597 -11.13487 -10.84875   3.08993   3.30680   3.40544   3.45695   3.51561
   3.67960   3.76427   3.79541   3.85863   3.96061   3.99732   4.01304   4.04132
   4.07300   4.07557   4.22187   4.28008   4.37749   4.38489   4.52907   4.53506
   4.55481   4.56351   4.61442   4.66902   4.71835   4.84781   4.96331   5.00015
   5.01735   5.07458   5.38797   5.48716   5.70355   5.76188


              NET ATOMIC CHARGES AND DIPOLE CONTRIBUTIONS

  ATOM NO.   TYPE          CHARGE      No. of ELECS.   s-Pop       p-Pop       
    1          C          -0.084276        4.0843     1.18881     2.89547
    2          C          -0.084277        4.0843     1.18881     2.89546
    3          C          -0.093449        4.0934     1.19052     2.90293
    4          C          -0.093449        4.0934     1.19052     2.90293
    5          C          -0.110531        4.1105     1.17754     2.93299
    6          C          -0.110529        4.1105     1.17754     2.93298
    7          C          -0.110335        4.1103     1.17730     2.93303
    8          C          -0.110334        4.1103     1.17731     2.93303
    9          C          -0.089504        4.0895     1.15741     2.93209
   10          C          -0.089504        4.0895     1.15741     2.93209
   11          C          -0.109541        4.1095     1.13797     2.97157
   12          C          -0.109541        4.1095     1.13797     2.97157
   13          H           0.071312        0.9287     0.92869
   14          H           0.074308        0.9257     0.92569
   15          H           0.071311        0.9287     0.92869
   16          H           0.074307        0.9257     0.92569
   17          H           0.049231        0.9508     0.95077
   18          H           0.051633        0.9484     0.94837
   19          H           0.062701        0.9373     0.93730
   20          H           0.055099        0.9449     0.94490
   21          H           0.051634        0.9484     0.94837
   22          H           0.049231        0.9508     0.95077
   23          H           0.055099        0.9449     0.94490
   24          H           0.062700        0.9373     0.93730
   25          H           0.064436        0.9356     0.93556
   26          H           0.064436        0.9356     0.93556
   27          H           0.055069        0.9449     0.94493
   28          H           0.055068        0.9449     0.94493
   29          H           0.039227        0.9608     0.96077
   30          H           0.036840        0.9632     0.96316
   31          H           0.037780        0.9622     0.96222
   32          H           0.039227        0.9608     0.96077
   33          H           0.037780        0.9622     0.96222
   34          H           0.036840        0.9632     0.96316
 DIPOLE           X         Y         Z       TOTAL
 POINT-CHG.    -0.001     0.012    -0.010     0.016
 HYBRID         0.001    -0.017     0.014     0.022
 SUM            0.000    -0.005     0.004     0.006


          ATOMIC ORBITAL ELECTRON POPULATIONS

     Atom    s        px        py        pz   
    1  C   1.18881   0.95488   0.96802   0.97257
    2  C   1.18881   0.95498   0.96805   0.97243
    3  C   1.19052   0.94563   0.97711   0.98019
    4  C   1.19052   0.94542   0.97670   0.98081
    5  C   1.17754   0.95853   0.98328   0.99118
    6  C   1.17754   0.95841   0.97737   0.99720
    7  C   1.17730   0.95730   0.97686   0.99887
    8  C   1.17731   0.95726   0.98499   0.99078
    9  C   1.15741   0.96984   0.97343   0.98882
   10  C   1.15741   0.96551   0.99434   0.97224
   11  C   1.13797   0.98493   0.98692   0.99972
   12  C   1.13797   0.97943   0.99698   0.99517
   13  H   0.92869
   14  H   0.92569
   15  H   0.92869
   16  H   0.92569
   17  H   0.95077
   18  H   0.94837
   19  H   0.93730
   20  H   0.94490
   21  H   0.94837
   22  H   0.95077
   23  H   0.94490
   24  H   0.93730
   25  H   0.93556
   26  H   0.93556
   27  H   0.94493
   28  H   0.94493
   29  H   0.96077
   30  H   0.96316
   31  H   0.96222
   32  H   0.96077
   33  H   0.96222
   34  H   0.96316
 *******************************************************************************
 **                                                                           **
 **                              MOPAC v23.1.2                                **
 **                                                                           **
 *******************************************************************************
 **          Digital Object Identifier (DOI): 10.5281/zenodo.6511958          **
 **    Visit the DOI location for information on how to cite this program.    **
 *******************************************************************************

                              PM3 CALCULATION RESULTS

 *******************************************************************************
 *  CALCULATION DONE: (MAX THREADS = 1)              Tue Jun  3 16:42:56 2025  *
 *  PM3        - The PM3 Hamiltonian to be used
 *  OLDGEO     - PREVIOUS GEOMETRY TO BE USED
 *  PRECISE    - TIGHTER CRITERIA TO BE USED
 *  NOSYM      - POINT-GROUP SYMMETRY SET TO C1
 *  THREADS=1  - MULTI-THREADING NOT USED
 *  T=         - A TIME OF 172800.0 SECONDS REQUESTED
 *  DUMP=N     - RESTART FILE WRITTEN EVERY 7200.0 SECONDS REQUESTED
 *  THERMO     - THERMODYNAMIC QUANTITIES TO BE CALCULATED
 *******************************************************************************
oldgeo thermo nosym precise THREADS=1  pm3
 InChI=1S/C12H22/c1-3-9-5-11(6-9)12-7-10(4-2)8-12/h9-12H,3-8H2,1-2H3

   ATOM   CHEMICAL          X               Y               Z
  NUMBER   SYMBOL      (ANGSTROMS)     (ANGSTROMS)     (ANGSTROMS)

     1       C         -0.38319514  *  -0.22606151  *  -0.69343913  *
     2       C          0.35780256  *   0.63035731  *   0.30401081  *
     3       C         -2.56008197  *  -0.47713609  *  -0.82985091  *
     4       C          2.53499026  *   0.87710742  *   0.44391477  *
     5       C         -1.52742080  *   0.49925113  *  -1.44292041  *
     6       C          1.39587221  *   1.59543230  *  -0.31901519  *
     7       C         -1.41746881  *  -1.19536126  *  -0.07137810  *
     8       C          1.49854027  *  -0.09518248  *   1.05806364  *
     9       C         -3.60265807  *   0.18660028  *   0.04559205  *
    10       C          3.57614877  *   0.23549814  *  -0.44950331  *
    11       C         -4.54175384  *  -0.82180480  *   0.66816818  *
    12       C          4.62513991  *  -0.50564153  *   0.34844625  *
    13       H         -3.05541946  *  -1.12303852  *  -1.58499466  *
    14       H          0.33796159  *  -0.72964065  *  -1.37271658  *
    15       H          3.03044498  *   1.52101499  *   1.20067006  *
    16       H         -0.36353982  *   1.13713656  *   0.98068403  *
    17       H         -4.17431580  *   0.91493161  *  -0.56303494  *
    18       H         -3.10643186  *   0.78373256  *   0.83783002  *
    19       H         -1.66725497  *   1.55489243  *  -1.16078636  *
    20       H         -1.45347086  *   0.46159185  *  -2.53944555  *
    21       H          3.08575631  *  -0.45457579  *  -1.16627542  *
    22       H          4.05276184  *   1.02040039  *  -1.06955074  *
    23       H          1.25787946  *   2.65281048  *  -0.05044814  *
    24       H          1.47260851  *   1.54428479  *  -1.41674056  *
    25       H         -1.49314980  *  -1.14934909  *   1.02691414  *
    26       H          1.63772928  *  -1.15247110  *   0.78088074  *
    27       H         -1.27746822  *  -2.25130272  *  -0.34487935  *
    28       H          1.42218710  *  -0.05253208  *   2.15429898  *
    29       H         -3.99885072  *  -1.54102881  *   1.29643039  *
    30       H         -5.29053462  *  -0.33031493  *   1.30217135  *
    31       H         -5.08303827  *  -1.39805538  *  -0.09393183  *
    32       H          4.17765937  *  -1.30569668  *   0.95376652  *
    33       H          5.16065137  *   0.16263713  *   1.03581618  *
    34       H          5.37211925  *  -0.96858596  *  -0.30874694  *



          CARTESIAN COORDINATES 

    NO.       ATOM           X           Y           Z

     1         C         -0.3832     -0.2261     -0.6934
     2         C          0.3578      0.6304      0.3040
     3         C         -2.5601     -0.4771     -0.8299
     4         C          2.5350      0.8771      0.4439
     5         C         -1.5274      0.4993     -1.4429
     6         C          1.3959      1.5954     -0.3190
     7         C         -1.4175     -1.1954     -0.0714
     8         C          1.4985     -0.0952      1.0581
     9         C         -3.6027      0.1866      0.0456
    10         C          3.5761      0.2355     -0.4495
    11         C         -4.5418     -0.8218      0.6682
    12         C          4.6251     -0.5056      0.3484
    13         H         -3.0554     -1.1230     -1.5850
    14         H          0.3380     -0.7296     -1.3727
    15         H          3.0304      1.5210      1.2007
    16         H         -0.3635      1.1371      0.9807
    17         H         -4.1743      0.9149     -0.5630
    18         H         -3.1064      0.7837      0.8378
    19         H         -1.6673      1.5549     -1.1608
    20         H         -1.4535      0.4616     -2.5394
    21         H          3.0858     -0.4546     -1.1663
    22         H          4.0528      1.0204     -1.0696
    23         H          1.2579      2.6528     -0.0504
    24         H          1.4726      1.5443     -1.4167
    25         H         -1.4931     -1.1493      1.0269
    26         H          1.6377     -1.1525      0.7809
    27         H         -1.2775     -2.2513     -0.3449
    28         H          1.4222     -0.0525      2.1543
    29         H         -3.9989     -1.5410      1.2964
    30         H         -5.2905     -0.3303      1.3022
    31         H         -5.0830     -1.3981     -0.0939
    32         H          4.1777     -1.3057      0.9538
    33         H          5.1607      0.1626      1.0358
    34         H          5.3721     -0.9686     -0.3087

  H: (PM3): J. J. P. STEWART, J. COMP. CHEM. 10, 209 (1989).
  C: (PM3): J. J. P. STEWART, J. COMP. CHEM. 10, 209 (1989).

           Empirical Formula: C12 H22  =    34 atoms



      MOLECULAR POINT GROUP   :   C1  


      RHF CALCULATION, NO. OF DOUBLY OCCUPIED LEVELS = 35



          HEAT OF FORMATION =     -26.525495 KCALS/MOLE


          CARTESIAN COORDINATE DERIVATIVES

   NUMBER  ATOM         X            Y            Z

     1       C      0.017154     0.043644     0.023792
     2       C     -0.027748    -0.017762     0.023765
     3       C      0.009778    -0.010461     0.011416
     4       C      0.006785    -0.016251     0.011918
     5       C      0.016800    -0.013592    -0.011416
     6       C     -0.013605     0.014572    -0.047146
     7       C     -0.004523    -0.015126     0.002815
     8       C      0.006876     0.015711     0.036621
     9       C     -0.017829    -0.007361     0.033126
    10       C      0.017643     0.017980     0.033332
    11       C      0.008056     0.023171    -0.007201
    12       C     -0.005357    -0.023416    -0.005545
    13       H      0.010309    -0.023232    -0.039115
    14       H     -0.023101    -0.012341     0.006372
    15       H     -0.016063     0.023792    -0.039172
    16       H      0.020104     0.004552     0.006343
    17       H      0.011459    -0.003711    -0.007524
    18       H     -0.027273     0.005015    -0.015902
    19       H     -0.002949    -0.021398     0.011809
    20       H      0.029115     0.007493    -0.025823
    21       H      0.027146    -0.005872    -0.016032
    22       H     -0.011026     0.003615    -0.008509
    23       H     -0.035923    -0.012174    -0.018703
    24       H      0.007615     0.024837     0.016920
    25       H     -0.000172     0.022070    -0.009814
    26       H      0.005458    -0.018189    -0.014815
    27       H     -0.037242    -0.016195    -0.014718
    28       H      0.030141     0.011252    -0.021497
    29       H      0.018601    -0.014878    -0.001600
    30       H      0.009703     0.004316     0.015071
    31       H     -0.003424     0.008167     0.029093
    32       H     -0.018704     0.015279    -0.001988
    33       H      0.002379    -0.007841     0.029130
    34       H     -0.010185    -0.005666     0.014998



          GRADIENT NORM =   0.19007

          MOLECULAR WEIGHT =  166.31



          ROTATIONAL CONSTANTS IN CM(-1)

          A =    0.08398189   B =    0.01202076   C =    0.01168470



           PRINCIPAL MOMENTS OF INERTIA IN UNITS OF 10**(-40)*GRAM-CM**2

          A =      333.3189   B =     2328.7016   C =     2395.6765


          ORIENTATION OF MOLECULE IN FORCE CALCULATION

    NO.       ATOM         X         Y         Z

     1          C      -0.7546   -0.0003   -0.2007
     2          C       0.7546   -0.0003   -0.2007
     3          C      -2.0561    1.7679   -0.2007
     4          C       2.0561   -1.7685   -0.1951
     5          C      -1.4001    0.8880   -1.2921
     6          C       1.4002   -0.8921   -1.2893
     7          C      -1.4013    0.8866    0.8908
     8          C       1.4013   -0.8838    0.8936
     9          C      -1.6127    3.2160   -0.2173
    10          C       1.6127   -3.2167   -0.2071
    11          C      -2.2346    4.0096    0.9096
    12          C       2.2346   -4.0067    0.9223
    13          H      -3.1650    1.7115   -0.1993
    14          H      -1.1352   -1.0444   -0.2011
    15          H       3.1650   -1.7121   -0.1939
    16          H       1.1352    1.0438   -0.2044
    17          H      -1.8823    3.6649   -1.1937
    18          H      -0.5066    3.2734   -0.1574
    19          H      -0.6833    1.4162   -1.9407
    20          H      -2.1100    0.3644   -1.9488
    21          H       0.5065   -3.2739   -0.1471
    22          H       1.8823   -3.6686   -1.1822
    23          H       2.1100   -0.3706   -1.9477
    24          H       0.6833   -1.4223   -1.9362
    25          H      -0.6865    1.4147    1.5420
    26          H       0.6865   -1.4098    1.5465
    27          H      -2.1126    0.3617    1.5450
    28          H       2.1126   -0.3569    1.5461
    29          H      -1.9609    3.5963    1.8900
    30          H      -1.9043    5.0558    0.8896
    31          H      -3.3311    4.0095    0.8503
    32          H       1.9609   -3.5903    1.9013
    33          H       3.3311   -4.0068    0.8629
    34          H       1.9043   -5.0530    0.9055


    FIRST DERIVATIVES WILL BE USED IN THE CALCULATION OF SECOND DERIVATIVES

          ESTIMATED TIME TO COMPLETE CALCULATION =        6.38 SECONDS

    FOR POINT-GROUP C1   THERE ARE   1 UNIQUE SYMMETRY FUNCTIONS.

 STEP:   1 TIME =     0.04 SECS, INTEGRAL =      0.04 TIME LEFT: 172799.95
 STEP:   2 TIME =     0.04 SECS, INTEGRAL =      0.08 TIME LEFT: 172799.91
 STEP:   3 TIME =     0.04 SECS, INTEGRAL =      0.12 TIME LEFT: 172799.87
 STEP:   4 TIME =     0.04 SECS, INTEGRAL =      0.16 TIME LEFT: 172799.83
 STEP:   5 TIME =     0.04 SECS, INTEGRAL =      0.20 TIME LEFT: 172799.79
 STEP:   6 TIME =     0.04 SECS, INTEGRAL =      0.24 TIME LEFT: 172799.75
 STEP:   7 TIME =     0.04 SECS, INTEGRAL =      0.28 TIME LEFT: 172799.71
 STEP:   8 TIME =     0.04 SECS, INTEGRAL =      0.32 TIME LEFT: 172799.67
 STEP:   9 TIME =     0.04 SECS, INTEGRAL =      0.36 TIME LEFT: 172799.63
 STEP:  10 TIME =     0.04 SECS, INTEGRAL =      0.39 TIME LEFT: 172799.59
 STEP:  11 TIME =     0.04 SECS, INTEGRAL =      0.43 TIME LEFT: 172799.55
 STEP:  12 TIME =     0.04 SECS, INTEGRAL =      0.48 TIME LEFT: 172799.51
 STEP:  13 TIME =     0.04 SECS, INTEGRAL =      0.52 TIME LEFT: 172799.47
 STEP:  14 TIME =     0.04 SECS, INTEGRAL =      0.55 TIME LEFT: 172799.43
 STEP:  15 TIME =     0.04 SECS, INTEGRAL =      0.59 TIME LEFT: 172799.39
 STEP:  16 TIME =     0.04 SECS, INTEGRAL =      0.63 TIME LEFT: 172799.35
 STEP:  17 TIME =     0.04 SECS, INTEGRAL =      0.68 TIME LEFT: 172799.31
 STEP:  18 TIME =     0.04 SECS, INTEGRAL =      0.71 TIME LEFT: 172799.27
 STEP:  19 TIME =     0.04 SECS, INTEGRAL =      0.76 TIME LEFT: 172799.23
 STEP:  20 TIME =     0.04 SECS, INTEGRAL =      0.80 TIME LEFT: 172799.19
 STEP:  21 TIME =     0.04 SECS, INTEGRAL =      0.84 TIME LEFT: 172799.15
 STEP:  22 TIME =     0.04 SECS, INTEGRAL =      0.88 TIME LEFT: 172799.11
 STEP:  23 TIME =     0.04 SECS, INTEGRAL =      0.91 TIME LEFT: 172799.07
 STEP:  24 TIME =     0.04 SECS, INTEGRAL =      0.95 TIME LEFT: 172799.03
 STEP:  25 TIME =     0.04 SECS, INTEGRAL =      0.99 TIME LEFT: 172798.99
 STEP:  26 TIME =     0.04 SECS, INTEGRAL =      1.03 TIME LEFT: 172798.95
 STEP:  27 TIME =     0.04 SECS, INTEGRAL =      1.07 TIME LEFT: 172798.91
 STEP:  28 TIME =     0.04 SECS, INTEGRAL =      1.11 TIME LEFT: 172798.88
 STEP:  29 TIME =     0.04 SECS, INTEGRAL =      1.15 TIME LEFT: 172798.84
 STEP:  30 TIME =     0.04 SECS, INTEGRAL =      1.19 TIME LEFT: 172798.80
 STEP:  31 TIME =     0.04 SECS, INTEGRAL =      1.23 TIME LEFT: 172798.75
 STEP:  32 TIME =     0.04 SECS, INTEGRAL =      1.27 TIME LEFT: 172798.71
 STEP:  33 TIME =     0.04 SECS, INTEGRAL =      1.31 TIME LEFT: 172798.67
 STEP:  34 TIME =     0.04 SECS, INTEGRAL =      1.36 TIME LEFT: 172798.63
 STEP:  35 TIME =     0.04 SECS, INTEGRAL =      1.40 TIME LEFT: 172798.59
 STEP:  36 TIME =     0.04 SECS, INTEGRAL =      1.44 TIME LEFT: 172798.55
 STEP:  37 TIME =     0.04 SECS, INTEGRAL =      1.48 TIME LEFT: 172798.51
 STEP:  38 TIME =     0.05 SECS, INTEGRAL =      1.52 TIME LEFT: 172798.46
 STEP:  39 TIME =     0.05 SECS, INTEGRAL =      1.57 TIME LEFT: 172798.41
 STEP:  40 TIME =     0.04 SECS, INTEGRAL =      1.61 TIME LEFT: 172798.37
 STEP:  41 TIME =     0.04 SECS, INTEGRAL =      1.65 TIME LEFT: 172798.34
 STEP:  42 TIME =     0.04 SECS, INTEGRAL =      1.69 TIME LEFT: 172798.29
 STEP:  43 TIME =     0.04 SECS, INTEGRAL =      1.73 TIME LEFT: 172798.25
 STEP:  44 TIME =     0.04 SECS, INTEGRAL =      1.77 TIME LEFT: 172798.21
 STEP:  45 TIME =     0.04 SECS, INTEGRAL =      1.82 TIME LEFT: 172798.17
 STEP:  46 TIME =     0.04 SECS, INTEGRAL =      1.86 TIME LEFT: 172798.13
 STEP:  47 TIME =     0.04 SECS, INTEGRAL =      1.89 TIME LEFT: 172798.09
 STEP:  48 TIME =     0.05 SECS, INTEGRAL =      1.94 TIME LEFT: 172798.04
 STEP:  49 TIME =     0.04 SECS, INTEGRAL =      1.98 TIME LEFT: 172798.00
 STEP:  50 TIME =     0.04 SECS, INTEGRAL =      2.03 TIME LEFT: 172797.96
 STEP:  51 TIME =     0.04 SECS, INTEGRAL =      2.07 TIME LEFT: 172797.92
 STEP:  52 TIME =     0.04 SECS, INTEGRAL =      2.10 TIME LEFT: 172797.88
 STEP:  53 TIME =     0.05 SECS, INTEGRAL =      2.15 TIME LEFT: 172797.84
 STEP:  54 TIME =     0.05 SECS, INTEGRAL =      2.20 TIME LEFT: 172797.79
 STEP:  55 TIME =     0.04 SECS, INTEGRAL =      2.24 TIME LEFT: 172797.75
 STEP:  56 TIME =     0.04 SECS, INTEGRAL =      2.28 TIME LEFT: 172797.70
 STEP:  57 TIME =     0.04 SECS, INTEGRAL =      2.32 TIME LEFT: 172797.66
 STEP:  58 TIME =     0.04 SECS, INTEGRAL =      2.36 TIME LEFT: 172797.62
 STEP:  59 TIME =     0.04 SECS, INTEGRAL =      2.40 TIME LEFT: 172797.59
 STEP:  60 TIME =     0.04 SECS, INTEGRAL =      2.44 TIME LEFT: 172797.55
 STEP:  61 TIME =     0.04 SECS, INTEGRAL =      2.47 TIME LEFT: 172797.51
 STEP:  62 TIME =     0.04 SECS, INTEGRAL =      2.52 TIME LEFT: 172797.47
 STEP:  63 TIME =     0.04 SECS, INTEGRAL =      2.56 TIME LEFT: 172797.43
 STEP:  64 TIME =     0.04 SECS, INTEGRAL =      2.60 TIME LEFT: 172797.39
 STEP:  65 TIME =     0.04 SECS, INTEGRAL =      2.64 TIME LEFT: 172797.35
 STEP:  66 TIME =     0.04 SECS, INTEGRAL =      2.68 TIME LEFT: 172797.31
 STEP:  67 TIME =     0.04 SECS, INTEGRAL =      2.72 TIME LEFT: 172797.27
 STEP:  68 TIME =     0.04 SECS, INTEGRAL =      2.76 TIME LEFT: 172797.22
 STEP:  69 TIME =     0.04 SECS, INTEGRAL =      2.80 TIME LEFT: 172797.18
 STEP:  70 TIME =     0.04 SECS, INTEGRAL =      2.84 TIME LEFT: 172797.14
 STEP:  71 TIME =     0.04 SECS, INTEGRAL =      2.88 TIME LEFT: 172797.10
 STEP:  72 TIME =     0.04 SECS, INTEGRAL =      2.92 TIME LEFT: 172797.06
 STEP:  73 TIME =     0.04 SECS, INTEGRAL =      2.96 TIME LEFT: 172797.02
 STEP:  74 TIME =     0.04 SECS, INTEGRAL =      3.00 TIME LEFT: 172796.98
 STEP:  75 TIME =     0.04 SECS, INTEGRAL =      3.04 TIME LEFT: 172796.94
 STEP:  76 TIME =     0.04 SECS, INTEGRAL =      3.09 TIME LEFT: 172796.90
 STEP:  77 TIME =     0.04 SECS, INTEGRAL =      3.13 TIME LEFT: 172796.86
 STEP:  78 TIME =     0.04 SECS, INTEGRAL =      3.17 TIME LEFT: 172796.82
 STEP:  79 TIME =     0.04 SECS, INTEGRAL =      3.21 TIME LEFT: 172796.78
 STEP:  80 TIME =     0.04 SECS, INTEGRAL =      3.25 TIME LEFT: 172796.73
 STEP:  81 TIME =     0.04 SECS, INTEGRAL =      3.29 TIME LEFT: 172796.69
 STEP:  82 TIME =     0.04 SECS, INTEGRAL =      3.34 TIME LEFT: 172796.65
 STEP:  83 TIME =     0.04 SECS, INTEGRAL =      3.38 TIME LEFT: 172796.61
 STEP:  84 TIME =     0.04 SECS, INTEGRAL =      3.42 TIME LEFT: 172796.56
 STEP:  85 TIME =     0.04 SECS, INTEGRAL =      3.46 TIME LEFT: 172796.52
 STEP:  86 TIME =     0.04 SECS, INTEGRAL =      3.50 TIME LEFT: 172796.48
 STEP:  87 TIME =     0.04 SECS, INTEGRAL =      3.54 TIME LEFT: 172796.45
 STEP:  88 TIME =     0.04 SECS, INTEGRAL =      3.58 TIME LEFT: 172796.41
 STEP:  89 TIME =     0.04 SECS, INTEGRAL =      3.62 TIME LEFT: 172796.37
 STEP:  90 TIME =     0.05 SECS, INTEGRAL =      3.66 TIME LEFT: 172796.32
 STEP:  91 TIME =     0.04 SECS, INTEGRAL =      3.70 TIME LEFT: 172796.28
 STEP:  92 TIME =     0.05 SECS, INTEGRAL =      3.75 TIME LEFT: 172796.23
 STEP:  93 TIME =     0.05 SECS, INTEGRAL =      3.80 TIME LEFT: 172796.19
 STEP:  94 TIME =     0.04 SECS, INTEGRAL =      3.84 TIME LEFT: 172796.14
 STEP:  95 TIME =     0.04 SECS, INTEGRAL =      3.88 TIME LEFT: 172796.11
 STEP:  96 TIME =     0.04 SECS, INTEGRAL =      3.91 TIME LEFT: 172796.07
 STEP:  97 TIME =     0.04 SECS, INTEGRAL =      3.95 TIME LEFT: 172796.03
 STEP:  98 TIME =     0.04 SECS, INTEGRAL =      4.00 TIME LEFT: 172795.99
 STEP:  99 TIME =     0.05 SECS, INTEGRAL =      4.04 TIME LEFT: 172795.94
 STEP: 100 TIME =     0.04 SECS, INTEGRAL =      4.08 TIME LEFT: 172795.90
 STEP: 101 TIME =     0.04 SECS, INTEGRAL =      4.12 TIME LEFT: 172795.86
 STEP: 102 TIME =     0.05 SECS, INTEGRAL =      4.17 TIME LEFT: 172795.82

(To convert to Hartree/Bohr^2, multiply by (10^(-21) x N x a0^2)/(4.184 x 627.51) =  0.0642)


           FORCE MATRIX IN MILLIDYNES/ANGSTROM


                  C  1       C  2       C  3       C  4       C  5       C  6
 ------------------------------------------------------------------------------
     C    1  14.681618
     C    2   4.445254  14.681144
     C    3   1.804307   0.040471  14.544944
     C    4   0.040467   1.804193   0.000342  14.544545
     C    5   3.462329   0.551578   3.478391   0.004128  14.340404
     C    6   0.551551   3.461770   0.004129   3.477810   0.024597  14.340127
     C    7   3.468692   0.550655   3.462230   0.004013   1.828899   0.047255
     C    8   0.550640   3.468148   0.004014   3.461698   0.047254   1.828774
     C    9   0.040086   0.005948   4.310089   0.000145   0.551039   0.001135
     C   10   0.005947   0.040086   0.000145   4.310455   0.001135   0.551034
     C   11   0.005046   0.001082   0.658647   0.000089   0.051291   0.000421
     C   12   0.001083   0.005047   0.000089   0.658665   0.000421   0.051291
     H   13   0.028429   0.001985   4.427893   0.000162   0.428090   0.000731
     H   14   4.399427   0.436184   0.028303   0.002726   0.427797   0.024485
     H   15   0.001985   0.028429   0.000162   4.428112   0.000731   0.428087
     H   16   0.436181   4.399757   0.002726   0.028303   0.024487   0.427792
     H   17   0.003396   0.000810   0.434095   0.000037   0.018950   0.000395
     H   18   0.002711   0.004483   0.450240   0.000045   0.021676   0.000378
     H   19   0.453093   0.029166   0.453050   0.000637   4.651623   0.004005
     H   20   0.442529   0.034695   0.442473   0.000315   4.717067   0.001599
     H   21   0.004484   0.002711   0.000045   0.450241   0.000380   0.021676
     H   22   0.000810   0.003396   0.000037   0.434097   0.000395   0.018949
     H   23   0.034696   0.442531   0.000315   0.442470   0.001600   4.717494
     H   24   0.029165   0.453091   0.000637   0.453043   0.004005   4.651937
     H   25   0.452811   0.028495   0.453408   0.000620   0.028238   0.002919
     H   26   0.028494   0.452810   0.000620   0.453402   0.002920   0.028238
     H   27   0.442911   0.034730   0.441633   0.000296   0.031397   0.005571
     H   28   0.034731   0.442912   0.000296   0.441631   0.005570   0.031396
     H   29   0.000497   0.000382   0.019995   0.000034   0.001866   0.000179
     H   30   0.000635   0.000251   0.052490   0.000032   0.008768   0.000114
     H   31   0.000322   0.000236   0.023579   0.000022   0.001615   0.000147
     H   32   0.000382   0.000497   0.000034   0.019997   0.000179   0.001865
     H   33   0.000235   0.000322   0.000022   0.023581   0.000147   0.001616
     H   34   0.000251   0.000636   0.000032   0.052490   0.000114   0.008767


                  C  7       C  8       C  9       C 10       C 11       C 12
 ------------------------------------------------------------------------------
     C    7  14.328684
     C    8   0.024872  14.328424
     C    9   0.542227   0.000965  14.487356
     C   10   0.000964   0.542222   0.000161  14.487412
     C   11   0.032893   0.000621   4.470741   0.000062  14.369554
     C   12   0.000621   0.032892   0.000062   4.470638   0.000063  14.369697
     H   13   0.429490   0.000690   0.431386   0.000117   0.030444   0.000044
     H   14   0.427671   0.023823   0.002154   0.004664   0.000592   0.000660
     H   15   0.000690   0.429488   0.000117   0.431394   0.000044   0.030443
     H   16   0.023824   0.427666   0.004663   0.002154   0.000660   0.000593
     H   17   0.047771   0.000210   4.456967   0.000049   0.440161   0.000016
     H   18   0.023578   0.000398   4.420696   0.000103   0.437870   0.000064
     H   19   0.028292   0.002896   0.031437   0.000380   0.003021   0.000200
     H   20   0.031424   0.005579   0.034163   0.000246   0.006460   0.000117
     H   21   0.000398   0.023579   0.000103   4.420685   0.000064   0.437846
     H   22   0.000210   0.047772   0.000049   4.456903   0.000016   0.440157
     H   23   0.005579   0.031423   0.000246   0.034163   0.000117   0.006461
     H   24   0.002896   0.028291   0.000380   0.031437   0.000200   0.003021
     H   25   4.644037   0.004009   0.026013   0.000423   0.009200   0.000121
     H   26   0.004009   4.644356   0.000423   0.026013   0.000121   0.009200
     H   27   4.714893   0.001630   0.034483   0.000232   0.001759   0.000203
     H   28   0.001630   4.715308   0.000232   0.034482   0.000203   0.001759
     H   29   0.007529   0.000099   0.464104   0.000047   4.711871   0.000019
     H   30   0.002242   0.000160   0.451279   0.000023   4.752381   0.000025
     H   31   0.002105   0.000120   0.464240   0.000018   4.725902   0.000024
     H   32   0.000099   0.007530   0.000047   0.464113   0.000019   4.711883
     H   33   0.000120   0.002104   0.000018   0.464243   0.000024   4.726052
     H   34   0.000160   0.002242   0.000023   0.451269   0.000025   4.752367


                  H 13       H 14       H 15       H 16       H 17       H 18
 ------------------------------------------------------------------------------
     H   13   4.928610
     H   14   0.002613   4.895447
     H   15   0.000071   0.000575   4.928812
     H   16   0.000575   0.041628   0.002613   4.895778
     H   17   0.025220   0.000671   0.000035   0.000381   5.066230
     H   18   0.043842   0.000524   0.000050   0.010339   0.569320   5.033483
     H   19   0.030952   0.030543   0.000239   0.021256   0.011502   0.017298
     H   20   0.026525   0.026665   0.000180   0.001441   0.001920   0.001331
     H   21   0.000050   0.010339   0.043840   0.000524   0.000033   0.000033
     H   22   0.000035   0.000381   0.025219   0.000671   0.000015   0.000033
     H   23   0.000180   0.001441   0.026525   0.026669   0.000114   0.000130
     H   24   0.000239   0.021256   0.030952   0.030541   0.000086   0.000142
     H   25   0.030769   0.030486   0.000255   0.020351   0.003513   0.022921
     H   26   0.000255   0.020351   0.030770   0.030485   0.000128   0.000138
     H   27   0.026900   0.026822   0.000162   0.001427   0.005975   0.001776
     H   28   0.000162   0.001427   0.026900   0.026825   0.000060   0.000118
     H   29   0.001902   0.000305   0.000025   0.000185   0.048953   0.024429
     H   30   0.001927   0.000136   0.000015   0.000152   0.028994   0.030335
     H   31   0.021286   0.000114   0.000009   0.000214   0.024507   0.048098
     H   32   0.000025   0.000185   0.001903   0.000306   0.000018   0.000022
     H   33   0.000009   0.000214   0.021286   0.000114   0.000005   0.000013
     H   34   0.000015   0.000152   0.001928   0.000136   0.000005   0.000024


                  H 19       H 20       H 21       H 22       H 23       H 24
 ------------------------------------------------------------------------------
     H   19   5.285932
     H   20   0.553190   5.335793
     H   21   0.000142   0.000131   5.033495
     H   22   0.000086   0.000114   0.569312   5.066165
     H   23   0.000970   0.000267   0.001331   0.001921   5.336215
     H   24   0.001289   0.000970   0.017297   0.011502   0.553204   5.286245
     H   25   0.002850   0.001047   0.000138   0.000128   0.000544   0.000546
     H   26   0.000546   0.000544   0.022920   0.003514   0.001047   0.002850
     H   27   0.001007   0.003390   0.000118   0.000061   0.000894   0.000540
     H   28   0.000540   0.000894   0.001777   0.005977   0.003390   0.001007
     H   29   0.000430   0.000417   0.000022   0.000018   0.000069   0.000044
     H   30   0.000714   0.001250   0.000024   0.000005   0.000034   0.000056
     H   31   0.000450   0.000335   0.000013   0.000005   0.000032   0.000036
     H   32   0.000044   0.000069   0.024433   0.048953   0.000417   0.000430
     H   33   0.000036   0.000032   0.048090   0.024513   0.000334   0.000450
     H   34   0.000056   0.000034   0.030336   0.028993   0.001250   0.000714


                  H 25       H 26       H 27       H 28       H 29       H 30
 ------------------------------------------------------------------------------
     H   25   5.278602
     H   26   0.001334   5.278936
     H   27   0.552424   0.000973   5.333306
     H   28   0.000973   0.552452   0.000271   5.333728
     H   29   0.014251   0.000062   0.000812   0.000057   5.451716
     H   30   0.000620   0.000038   0.000326   0.000065   0.571955   5.488890
     H   31   0.000461   0.000045   0.000346   0.000035   0.576964   0.573845
     H   32   0.000062   0.014250   0.000057   0.000811   0.000011   0.000008
     H   33   0.000045   0.000461   0.000035   0.000345   0.000006   0.000007
     H   34   0.000038   0.000620   0.000065   0.000326   0.000008   0.000009


                  H 31       H 32       H 33       H 34
 ------------------------------------------------------
     H   31   5.468149
     H   32   0.000006   5.451706
     H   33   0.000006   0.577000   5.468236
     H   34   0.000007   0.571942   0.573758   5.488864


          HEAT OF FORMATION =     -26.525495 KCALS/MOLE

          ZERO POINT ENERGY     196.521 KCAL/MOL


           NORMAL COORDINATE ANALYSIS (Total motion = 1 Angstrom)


   Root No.       1         2         3         4         5         6         7         8

                 1 A       2 A       3 A       4 A       5 A       6 A       7 A       8 A   

                  29.4      34.8      56.2      88.0      92.0     174.7     179.6     186.6
  
           1   -0.0000   -0.0221    0.0001    0.0030   -0.0002   -0.0001    0.0029    0.0001
           2    0.0002   -0.0063    0.0122    0.0057   -0.0059   -0.0017    0.0039   -0.0014
           3   -0.0290   -0.0045   -0.0043   -0.0036   -0.0048   -0.0159    0.0019    0.0076
           4   -0.0000   -0.0221   -0.0003    0.0030    0.0001    0.0001    0.0029   -0.0001
           5   -0.0004   -0.0062   -0.0123    0.0061    0.0056    0.0016    0.0039    0.0016
           6   -0.0290    0.0046   -0.0042    0.0033   -0.0050   -0.0158   -0.0025    0.0076
           7    0.0008   -0.0043    0.0054   -0.0063    0.0051   -0.0018   -0.0025    0.0051
           8    0.0009    0.0072    0.0163   -0.0013   -0.0022   -0.0023   -0.0001    0.0011
           9   -0.0016   -0.0061    0.0006   -0.0141    0.0042    0.0169   -0.0043   -0.0086
          10   -0.0008   -0.0042   -0.0054   -0.0066   -0.0048    0.0019   -0.0023   -0.0052
          11   -0.0009    0.0073   -0.0162   -0.0010    0.0023    0.0023   -0.0000   -0.0011
          12   -0.0016    0.0061    0.0008    0.0143    0.0035    0.0168    0.0049   -0.0084
          13   -0.0007   -0.0125    0.0124    0.0050   -0.0013   -0.0201   -0.0029    0.0166
          14    0.0166   -0.0001    0.0246    0.0007   -0.0011    0.0030   -0.0039    0.0009
          15   -0.0154   -0.0053   -0.0017   -0.0090   -0.0003    0.0007   -0.0013   -0.0007
          16    0.0007   -0.0124   -0.0125    0.0051    0.0011    0.0202   -0.0020   -0.0167
          17   -0.0166    0.0001   -0.0246    0.0009    0.0011   -0.0029   -0.0040   -0.0010
          18   -0.0153    0.0053   -0.0016    0.0090   -0.0007    0.0007    0.0014   -0.0007
          19    0.0014   -0.0255    0.0101   -0.0026   -0.0077    0.0152    0.0056   -0.0151
          20   -0.0155   -0.0076    0.0167    0.0078   -0.0172   -0.0090    0.0092   -0.0040
          21   -0.0154   -0.0053   -0.0019   -0.0091   -0.0001    0.0005   -0.0013   -0.0004
          22   -0.0015   -0.0254   -0.0102   -0.0021    0.0079   -0.0153    0.0048    0.0152
          23    0.0155   -0.0075   -0.0167    0.0089    0.0168    0.0089    0.0093    0.0042
          24   -0.0154    0.0054   -0.0017    0.0090   -0.0006    0.0005    0.0013   -0.0004
          25    0.0016    0.0236   -0.0103   -0.0202    0.0256   -0.0002   -0.0065    0.0105
          26    0.0009   -0.0011    0.0209    0.0028   -0.0081   -0.0027    0.0010   -0.0005
          27    0.0202    0.0012    0.0073   -0.0164    0.0169    0.0062   -0.0066    0.0035
          28   -0.0015    0.0235    0.0104   -0.0217   -0.0246    0.0003   -0.0062   -0.0106
          29   -0.0008   -0.0009   -0.0209    0.0034    0.0080    0.0027    0.0010    0.0005
          30    0.0202   -0.0012    0.0074    0.0173    0.0160    0.0061    0.0066    0.0037
          31    0.0071    0.0361   -0.0355    0.0197   -0.0137   -0.0008    0.0027   -0.0032
          32   -0.0174    0.0069    0.0127   -0.0153    0.0049    0.0161   -0.0085   -0.0053
          33    0.0362    0.0024   -0.0006    0.0185   -0.0140   -0.0078    0.0055   -0.0006
          34   -0.0070    0.0359    0.0358    0.0203    0.0126    0.0008    0.0027    0.0033
          35    0.0176    0.0069   -0.0127   -0.0155   -0.0042   -0.0160   -0.0091    0.0050
          36    0.0361   -0.0025   -0.0006   -0.0191   -0.0130   -0.0076   -0.0056   -0.0008
          37    0.0008   -0.0052    0.0057   -0.0058    0.0045   -0.0019   -0.0022    0.0048
          38    0.0015    0.0278    0.0055   -0.0114    0.0122   -0.0014   -0.0032    0.0052
          39   -0.0014   -0.0128   -0.0012   -0.0170   -0.0004    0.0363   -0.0001   -0.0263
          40   -0.0005   -0.0234   -0.0162    0.0039    0.0073    0.0024    0.0036    0.0013
          41    0.0004   -0.0056    0.0182    0.0052   -0.0086   -0.0026    0.0036   -0.0019
          42   -0.0434   -0.0104   -0.0080   -0.0015   -0.0123   -0.0197    0.0097    0.0037
          43   -0.0008   -0.0052   -0.0058   -0.0060   -0.0042    0.0019   -0.0020   -0.0048
          44   -0.0014    0.0278   -0.0053   -0.0120   -0.0116    0.0016   -0.0030   -0.0052
          45   -0.0013    0.0127   -0.0010    0.0170   -0.0013    0.0363    0.0017   -0.0262
          46    0.0004   -0.0235    0.0161    0.0035   -0.0074   -0.0025    0.0036   -0.0013
          47   -0.0006   -0.0054   -0.0182    0.0058    0.0083    0.0025    0.0035    0.0019
          48   -0.0434    0.0106   -0.0079    0.0008   -0.0124   -0.0195   -0.0103    0.0035
          49   -0.0025    0.0352   -0.0023   -0.0641    0.0742    0.0024   -0.0160    0.0232
          50    0.0172    0.0080    0.0186    0.0109   -0.0083   -0.0149    0.0063    0.0040
          51    0.0288    0.0021    0.0040   -0.0005    0.0034   -0.0004   -0.0013    0.0021
          52    0.0019    0.0246   -0.0119   -0.0183    0.0239   -0.0003   -0.0059    0.0098
          53   -0.0007   -0.0230    0.0338    0.0121   -0.0231   -0.0030    0.0017   -0.0023
          54    0.0162    0.0046    0.0223   -0.0604    0.0643    0.0078   -0.0166    0.0176
          55   -0.0015   -0.0073    0.0205    0.0065   -0.0027   -0.0330   -0.0064    0.0268
          56    0.0260   -0.0082    0.0294    0.0037   -0.0018    0.0066   -0.0052   -0.0004
          57   -0.0086   -0.0061    0.0111   -0.0050   -0.0023   -0.0103   -0.0062    0.0092
          58   -0.0018   -0.0181    0.0175    0.0122   -0.0058   -0.0323   -0.0031    0.0244
          59    0.0266    0.0065    0.0336   -0.0040    0.0024    0.0053   -0.0099    0.0035
          60   -0.0222   -0.0045   -0.0143   -0.0130    0.0017    0.0119    0.0038   -0.0111
          61   -0.0018    0.0245    0.0120   -0.0197   -0.0229    0.0004   -0.0056   -0.0098
          62    0.0007   -0.0227   -0.0338    0.0137    0.0226    0.0030    0.0017    0.0024
          63    0.0162   -0.0046    0.0226    0.0638    0.0611    0.0076    0.0163    0.0180
          64    0.0027    0.0351    0.0023   -0.0681   -0.0709   -0.0021   -0.0154   -0.0235
          65   -0.0170    0.0082   -0.0185    0.0114    0.0077    0.0149    0.0068   -0.0038
          66    0.0289   -0.0023    0.0040    0.0006    0.0033   -0.0004    0.0012    0.0021
          67    0.0017   -0.0180   -0.0176    0.0125    0.0052    0.0324   -0.0018   -0.0245
          68   -0.0266    0.0068   -0.0336   -0.0039   -0.0022   -0.0051   -0.0100   -0.0038
          69   -0.0221    0.0047   -0.0141    0.0131    0.0011    0.0120   -0.0032   -0.0112
          70    0.0015   -0.0072   -0.0205    0.0067    0.0024    0.0330   -0.0050   -0.0270
          71   -0.0261   -0.0079   -0.0294    0.0039    0.0016   -0.0065   -0.0054    0.0003
          72   -0.0085    0.0060    0.0112    0.0048   -0.0026   -0.0104    0.0058    0.0094
          73    0.0027   -0.0280    0.0166   -0.0051   -0.0132    0.0244    0.0080   -0.0254
          74   -0.0258   -0.0202    0.0167    0.0150   -0.0279   -0.0125    0.0155   -0.0083
          75   -0.0085    0.0076   -0.0091   -0.0120    0.0144   -0.0068   -0.0088    0.0140
          76   -0.0028   -0.0278   -0.0168   -0.0043    0.0135   -0.0246    0.0067    0.0255
          77    0.0257   -0.0202   -0.0169    0.0166    0.0271    0.0122    0.0156    0.0087
          78   -0.0086   -0.0075   -0.0091    0.0128    0.0137   -0.0070    0.0082    0.0142
          79    0.0019   -0.0389    0.0137   -0.0001   -0.0162    0.0260    0.0108   -0.0282
          80   -0.0248   -0.0056    0.0208    0.0080   -0.0239   -0.0143    0.0120   -0.0049
          81   -0.0223   -0.0181    0.0053   -0.0062   -0.0145    0.0080    0.0066   -0.0152
          82   -0.0021   -0.0388   -0.0140    0.0009    0.0162   -0.0262    0.0094    0.0284
          83    0.0247   -0.0054   -0.0208    0.0094    0.0234    0.0142    0.0122    0.0052
          84   -0.0223    0.0181    0.0056    0.0053   -0.0149    0.0081   -0.0060   -0.0154
          85    0.0126    0.0264   -0.0475    0.0755   -0.0753    0.0444   -0.0830    0.0539
          86   -0.0328   -0.0012    0.0122   -0.0150   -0.0044    0.0667   -0.0865    0.0417
          87    0.0282    0.0017    0.0025    0.0031   -0.0008    0.0008   -0.0033    0.0032
          88    0.0062    0.0556   -0.0443   -0.0012    0.0132   -0.0441    0.0921   -0.0696
          89   -0.0169    0.0008    0.0156   -0.0089   -0.0032    0.0288   -0.0353    0.0148
          90    0.0510    0.0063    0.0076    0.0080    0.0057   -0.0596    0.0813   -0.0429
          91    0.0067    0.0362   -0.0345    0.0168   -0.0106   -0.0026    0.0059   -0.0052
          92   -0.0173    0.0274    0.0034   -0.0360    0.0323   -0.0307    0.0869   -0.0756
          93    0.0421    0.0001   -0.0182    0.0723   -0.0717    0.0239   -0.0516    0.0347
          94   -0.0126    0.0264    0.0482    0.0796    0.0715   -0.0428   -0.0821   -0.0556
          95    0.0328   -0.0010   -0.0121   -0.0145    0.0053   -0.0652   -0.0867   -0.0436
          96    0.0281   -0.0019    0.0025   -0.0031   -0.0006    0.0009    0.0035    0.0034
          97   -0.0066    0.0360    0.0348    0.0173    0.0097    0.0025    0.0059    0.0054
          98    0.0176    0.0271   -0.0036   -0.0382   -0.0308    0.0291    0.0852    0.0776
          99    0.0421   -0.0005   -0.0186   -0.0761   -0.0679    0.0228    0.0507    0.0355
         100   -0.0059    0.0551    0.0444   -0.0022   -0.0133    0.0425    0.0909    0.0716
         101    0.0170    0.0009   -0.0156   -0.0086    0.0037   -0.0284   -0.0358   -0.0157
         102    0.0509   -0.0064    0.0077   -0.0074    0.0062   -0.0581   -0.0812   -0.0447


   Root No.       9        10        11        12        13        14        15        16

                 9 A      10 A      11 A      12 A      13 A      14 A      15 A      16 A   

                 254.2     254.6     337.4     343.4     427.7     429.3     448.0     455.2
  
           1   -0.0004    0.0099    0.0286    0.0035    0.0001    0.0075    0.0155   -0.0013
           2    0.0028    0.0021    0.0347   -0.0067    0.0132   -0.0062    0.0013   -0.0043
           3   -0.0015   -0.0049    0.0012   -0.0027    0.0012   -0.0163    0.0077    0.0236
           4    0.0016    0.0098    0.0286   -0.0035   -0.0001    0.0075    0.0155   -0.0013
           5   -0.0025    0.0024    0.0347    0.0066   -0.0132   -0.0061    0.0013   -0.0043
           6   -0.0010    0.0050   -0.0013   -0.0027    0.0013    0.0163   -0.0077   -0.0236
           7   -0.0165   -0.0088   -0.0207    0.0136   -0.0277   -0.0008    0.0161   -0.0072
           8   -0.0028   -0.0108   -0.0067   -0.0161   -0.0100   -0.0045    0.0080   -0.0055
           9    0.0048    0.0117   -0.0025    0.0124   -0.0066   -0.0138   -0.0004   -0.0128
          10    0.0154   -0.0105   -0.0207   -0.0136    0.0277   -0.0009    0.0160   -0.0072
          11    0.0016   -0.0111   -0.0067    0.0162    0.0099   -0.0044    0.0080   -0.0054
          12    0.0034   -0.0121    0.0025    0.0124   -0.0066    0.0138    0.0003    0.0128
          13    0.0080    0.0106   -0.0120    0.0293    0.0001   -0.0105   -0.0005    0.0205
          14    0.0160    0.0115   -0.0003    0.0108    0.0078   -0.0160   -0.0159   -0.0160
          15    0.0027    0.0039   -0.0015    0.0024   -0.0047   -0.0199    0.0074    0.0087
          16   -0.0067    0.0113   -0.0120   -0.0293   -0.0002   -0.0105   -0.0005    0.0205
          17   -0.0146    0.0130   -0.0003   -0.0108   -0.0079   -0.0160   -0.0159   -0.0160
          18    0.0023   -0.0042    0.0015    0.0024   -0.0046    0.0199   -0.0074   -0.0086
          19   -0.0248   -0.0035   -0.0085    0.0230    0.0025    0.0139   -0.0132   -0.0130
          20   -0.0156   -0.0175    0.0061   -0.0133    0.0202   -0.0021   -0.0121    0.0160
          21    0.0004    0.0036   -0.0000    0.0095   -0.0026   -0.0232    0.0033    0.0078
          22    0.0243   -0.0061   -0.0085   -0.0230   -0.0025    0.0139   -0.0132   -0.0130
          23    0.0135   -0.0190    0.0061    0.0134   -0.0203   -0.0020   -0.0121    0.0160
          24   -0.0001   -0.0036    0.0000    0.0094   -0.0025    0.0232   -0.0033   -0.0079
          25   -0.0198   -0.0173    0.0089   -0.0010    0.0026   -0.0091   -0.0031   -0.0047
          26   -0.0009   -0.0082   -0.0167   -0.0149   -0.0208    0.0014    0.0164   -0.0049
          27    0.0012   -0.0008    0.0052   -0.0068    0.0120    0.0191   -0.0049    0.0124
          28    0.0177   -0.0193    0.0089    0.0010   -0.0026   -0.0091   -0.0031   -0.0047
          29   -0.0000   -0.0082   -0.0167    0.0149    0.0208    0.0013    0.0164   -0.0050
          30    0.0013    0.0007   -0.0051   -0.0068    0.0119   -0.0191    0.0048   -0.0123
          31    0.0085    0.0092    0.0038    0.0046    0.0055   -0.0019   -0.0045    0.0009
          32    0.0259    0.0191   -0.0108   -0.0097   -0.0030    0.0238    0.0070    0.0108
          33   -0.0031   -0.0070   -0.0034   -0.0109   -0.0010    0.0127    0.0043    0.0070
          34   -0.0074    0.0101    0.0038   -0.0046   -0.0055   -0.0019   -0.0045    0.0009
          35   -0.0236    0.0217   -0.0108    0.0096    0.0031    0.0237    0.0070    0.0107
          36   -0.0022    0.0072    0.0034   -0.0109   -0.0010   -0.0128   -0.0043   -0.0070
          37   -0.0160   -0.0079   -0.0203    0.0148   -0.0260   -0.0004    0.0146   -0.0064
          38   -0.0073   -0.0211    0.0012   -0.0344   -0.0158   -0.0084    0.0173   -0.0116
          39   -0.0076    0.0100   -0.0032    0.0151   -0.0105   -0.0075   -0.0068   -0.0401
          40    0.0008    0.0134    0.0507   -0.0021   -0.0147    0.0117    0.0311   -0.0046
          41    0.0022    0.0005    0.0250   -0.0045    0.0183   -0.0081   -0.0056   -0.0028
          42   -0.0187   -0.0224    0.0054   -0.0153    0.0081   -0.0116    0.0116    0.0476
          43    0.0150   -0.0095   -0.0203   -0.0148    0.0260   -0.0004    0.0146   -0.0064
          44    0.0048   -0.0217    0.0013    0.0345    0.0158   -0.0084    0.0173   -0.0114
          45   -0.0087   -0.0091    0.0032    0.0150   -0.0105    0.0076    0.0068    0.0401
          46    0.0007    0.0134    0.0507    0.0020    0.0147    0.0117    0.0311   -0.0046
          47   -0.0022    0.0008    0.0250    0.0044   -0.0183   -0.0080   -0.0056   -0.0030
          48   -0.0160    0.0242   -0.0055   -0.0153    0.0082    0.0116   -0.0115   -0.0475
          49   -0.0316   -0.0335    0.0398   -0.0179    0.0460    0.0034   -0.0288    0.0156
          50   -0.0092   -0.0222   -0.0074   -0.0307   -0.0066    0.0112    0.0110    0.0065
          51    0.0002   -0.0032    0.0011   -0.0097    0.0069    0.0202   -0.0005    0.0123
          52   -0.0184   -0.0161    0.0094   -0.0007    0.0039   -0.0091   -0.0042   -0.0043
          53   -0.0054   -0.0078   -0.0417   -0.0031   -0.0561   -0.0044    0.0379   -0.0184
          54   -0.0152   -0.0201    0.0279   -0.0212    0.0430    0.0300   -0.0225    0.0284
          55    0.0149    0.0122   -0.0422    0.0479    0.0025   -0.0265   -0.0161    0.0394
          56    0.0324    0.0300    0.0117    0.0276    0.0285   -0.0242   -0.0359   -0.0187
          57    0.0231    0.0202   -0.0244    0.0345    0.0140   -0.0421   -0.0245    0.0262
          58    0.0240    0.0241   -0.0079    0.0476    0.0242   -0.0244   -0.0203    0.0419
          59    0.0214    0.0148   -0.0360    0.0308   -0.0000   -0.0299   -0.0323   -0.0207
          60   -0.0186   -0.0131    0.0219   -0.0323   -0.0237    0.0055    0.0408   -0.0102
          61    0.0164   -0.0179    0.0094    0.0007   -0.0039   -0.0091   -0.0042   -0.0043
          62    0.0045   -0.0083   -0.0417    0.0031    0.0563   -0.0046    0.0379   -0.0185
          63   -0.0128    0.0217   -0.0278   -0.0212    0.0428   -0.0301    0.0224   -0.0283
          64    0.0276   -0.0366    0.0398    0.0178   -0.0460    0.0035   -0.0288    0.0156
          65    0.0066   -0.0230   -0.0074    0.0307    0.0066    0.0111    0.0110    0.0065
          66    0.0006    0.0033   -0.0011   -0.0098    0.0069   -0.0203    0.0005   -0.0123
          67   -0.0211    0.0264   -0.0079   -0.0476   -0.0242   -0.0243   -0.0203    0.0419
          68   -0.0196    0.0170   -0.0361   -0.0308   -0.0001   -0.0299   -0.0324   -0.0206
          69   -0.0169    0.0149   -0.0219   -0.0322   -0.0237   -0.0053   -0.0407    0.0102
          70   -0.0134    0.0136   -0.0422   -0.0478   -0.0025   -0.0265   -0.0161    0.0394
          71   -0.0287    0.0331    0.0117   -0.0275   -0.0285   -0.0240   -0.0358   -0.0187
          72    0.0208   -0.0226    0.0244    0.0346    0.0141    0.0421    0.0246   -0.0262
          73   -0.0405   -0.0126   -0.0358    0.0354    0.0082    0.0218   -0.0400   -0.0199
          74   -0.0201   -0.0177    0.0222   -0.0140    0.0505    0.0052   -0.0308    0.0332
          75    0.0204    0.0133    0.0165   -0.0030   -0.0316   -0.0366    0.0453    0.0015
          76    0.0389   -0.0167   -0.0358   -0.0354   -0.0082    0.0219   -0.0400   -0.0200
          77    0.0180   -0.0197    0.0221    0.0140   -0.0506    0.0054   -0.0310    0.0332
          78    0.0187   -0.0152   -0.0166   -0.0030   -0.0314    0.0367   -0.0452   -0.0016
          79   -0.0325   -0.0008   -0.0012    0.0337    0.0309    0.0262   -0.0439   -0.0152
          80   -0.0325   -0.0344   -0.0247   -0.0112    0.0221    0.0008   -0.0289    0.0268
          81   -0.0213   -0.0069   -0.0165    0.0224    0.0287   -0.0080   -0.0420    0.0138
          82    0.0322   -0.0042   -0.0013   -0.0337   -0.0309    0.0262   -0.0439   -0.0152
          83    0.0283   -0.0376   -0.0246    0.0112   -0.0220    0.0009   -0.0288    0.0267
          84   -0.0204    0.0092    0.0166    0.0224    0.0288    0.0079    0.0421   -0.0139
          85    0.0037   -0.0005    0.0054   -0.0001    0.0044   -0.0037   -0.0033   -0.0002
          86    0.0300    0.0211    0.0010   -0.0112    0.0157    0.0421   -0.0030    0.0250
          87   -0.0003   -0.0037    0.0012   -0.0103    0.0072    0.0205   -0.0003    0.0131
          88    0.0393    0.0428   -0.0034    0.0132    0.0101    0.0124   -0.0065    0.0108
          89    0.0163    0.0086   -0.0088   -0.0124   -0.0047    0.0195    0.0079    0.0077
          90   -0.0181   -0.0194   -0.0135   -0.0120   -0.0219   -0.0103    0.0156   -0.0104
          91    0.0084    0.0093    0.0038    0.0047    0.0057   -0.0018   -0.0046    0.0010
          92    0.0573    0.0534   -0.0192   -0.0013    0.0000    0.0384    0.0063    0.0204
          93    0.0042   -0.0040   -0.0047   -0.0131   -0.0010    0.0165    0.0055    0.0098
          94   -0.0037   -0.0002    0.0054    0.0001   -0.0044   -0.0037   -0.0033   -0.0002
          95   -0.0273    0.0239    0.0010    0.0112   -0.0156    0.0420   -0.0030    0.0249
          96    0.0002    0.0036   -0.0012   -0.0103    0.0072   -0.0206    0.0003   -0.0132
          97   -0.0073    0.0101    0.0038   -0.0047   -0.0057   -0.0017   -0.0046    0.0010
          98   -0.0510    0.0592   -0.0192    0.0013    0.0000    0.0384    0.0062    0.0203
          99    0.0047    0.0035    0.0047   -0.0131   -0.0010   -0.0166   -0.0055   -0.0099
         100   -0.0343    0.0468   -0.0035   -0.0132   -0.0101    0.0124   -0.0065    0.0108
         101   -0.0152    0.0103   -0.0087    0.0124    0.0047    0.0195    0.0078    0.0078
         102   -0.0156    0.0210    0.0135   -0.0120   -0.0219    0.0103   -0.0156    0.0103


   Root No.      17        18        19        20        21        22        23        24

                17 A      18 A      19 A      20 A      21 A      22 A      23 A      24 A   

                 459.9     735.5     754.1     820.3     832.6     873.7     892.3     895.3
  
           1   -0.0017   -0.0094   -0.0126   -0.0060   -0.0047   -0.0113    0.0003    0.0009
           2    0.0148   -0.0271    0.0161   -0.0063    0.0042   -0.0103   -0.0002   -0.0018
           3   -0.0017    0.0000   -0.0002   -0.0004    0.0006    0.0000   -0.0004   -0.0044
           4    0.0017    0.0094   -0.0126    0.0060   -0.0048    0.0113   -0.0003    0.0009
           5   -0.0149    0.0271    0.0161    0.0063    0.0042    0.0103    0.0002   -0.0018
           6   -0.0017   -0.0001    0.0002   -0.0004   -0.0006    0.0000   -0.0004    0.0044
           7   -0.0108   -0.0164    0.0240    0.0019    0.0076    0.0153   -0.0003    0.0005
           8    0.0100    0.0064   -0.0083   -0.0008   -0.0005    0.0023    0.0006    0.0017
           9    0.0151    0.0002    0.0003    0.0018   -0.0018   -0.0001   -0.0033   -0.0018
          10    0.0108    0.0164    0.0240   -0.0019    0.0076   -0.0153    0.0003    0.0005
          11   -0.0099   -0.0064   -0.0083    0.0008   -0.0005   -0.0023   -0.0007    0.0017
          12    0.0151    0.0002   -0.0003    0.0018    0.0018   -0.0001   -0.0033    0.0018
          13   -0.0143   -0.0054    0.0022   -0.0050    0.0012   -0.0079    0.0140    0.0148
          14    0.0254   -0.0039    0.0033    0.0018    0.0019    0.0083    0.0120    0.0106
          15    0.0107    0.0155   -0.0218   -0.0023   -0.0056   -0.0043    0.0073    0.0113
          16    0.0143    0.0054    0.0022    0.0050    0.0012    0.0079   -0.0143    0.0146
          17   -0.0254    0.0039    0.0034   -0.0018    0.0019   -0.0083   -0.0121    0.0104
          18    0.0108    0.0155    0.0217   -0.0023    0.0056   -0.0043    0.0075   -0.0112
          19   -0.0113   -0.0027   -0.0025   -0.0104    0.0062   -0.0077   -0.0128   -0.0139
          20    0.0008   -0.0072    0.0085    0.0050   -0.0007    0.0089   -0.0121   -0.0075
          21    0.0096   -0.0110    0.0156   -0.0036    0.0095    0.0038    0.0059    0.0064
          22    0.0113    0.0027   -0.0025    0.0104    0.0062    0.0077    0.0130   -0.0137
          23   -0.0007    0.0071    0.0084   -0.0050   -0.0007   -0.0089    0.0122   -0.0073
          24    0.0096   -0.0110   -0.0157   -0.0036   -0.0095    0.0038    0.0059   -0.0063
          25    0.0108    0.0026   -0.0010    0.0117   -0.0146   -0.0103   -0.0014   -0.0023
          26    0.0008    0.0128   -0.0167   -0.0076    0.0015   -0.0101    0.0007   -0.0009
          27   -0.0190   -0.0074    0.0111    0.0114   -0.0087    0.0016   -0.0002    0.0003
          28   -0.0108   -0.0026   -0.0010   -0.0117   -0.0146    0.0103    0.0014   -0.0023
          29   -0.0009   -0.0128   -0.0168    0.0076    0.0015    0.0101   -0.0007   -0.0009
          30   -0.0190   -0.0074   -0.0111    0.0113    0.0087    0.0016   -0.0002   -0.0003
          31    0.0019    0.0002   -0.0003    0.0027   -0.0038   -0.0038    0.0002   -0.0001
          32   -0.0237    0.0028   -0.0038   -0.0030    0.0004   -0.0074   -0.0002   -0.0016
          33   -0.0127   -0.0001    0.0005    0.0022   -0.0030   -0.0031   -0.0019   -0.0022
          34   -0.0019   -0.0002   -0.0003   -0.0027   -0.0038    0.0038   -0.0002   -0.0001
          35    0.0237   -0.0028   -0.0038    0.0030    0.0004    0.0074    0.0002   -0.0016
          36   -0.0128   -0.0001   -0.0005    0.0022    0.0030   -0.0032   -0.0019    0.0021
          37   -0.0116   -0.0163    0.0236    0.0005    0.0086    0.0140   -0.0004    0.0002
          38    0.0228    0.0175   -0.0197    0.0160   -0.0211   -0.0013    0.0001    0.0020
          39    0.0255    0.0039   -0.0058   -0.0054    0.0046    0.0002   -0.0545   -0.0552
          40   -0.0111    0.0145   -0.0261   -0.0029   -0.0127   -0.0098    0.0007    0.0001
          41    0.0181   -0.0347    0.0214   -0.0065    0.0071   -0.0090   -0.0003   -0.0015
          42   -0.0154   -0.0021    0.0036    0.0014   -0.0006    0.0011   -0.0565   -0.0536
          43    0.0116    0.0163    0.0236   -0.0005    0.0086   -0.0140    0.0004    0.0002
          44   -0.0227   -0.0175   -0.0197   -0.0160   -0.0211    0.0013   -0.0003    0.0021
          45    0.0256    0.0039    0.0059   -0.0054   -0.0046    0.0002   -0.0553    0.0544
          46    0.0111   -0.0145   -0.0261    0.0029   -0.0127    0.0098   -0.0007    0.0001
          47   -0.0182    0.0347    0.0214    0.0066    0.0071    0.0090    0.0002   -0.0013
          48   -0.0154   -0.0022   -0.0036    0.0014    0.0006    0.0011   -0.0573    0.0528
          49    0.0068    0.0293   -0.0500   -0.0786    0.0732    0.0174    0.0034    0.0033
          50   -0.0054    0.0242   -0.0349   -0.0183    0.0050   -0.0219   -0.0010   -0.0048
          51   -0.0207   -0.0089    0.0152    0.0291   -0.0292   -0.0109   -0.0026   -0.0032
          52    0.0110    0.0027   -0.0011    0.0126   -0.0158   -0.0113   -0.0013   -0.0023
          53   -0.0022   -0.0037    0.0131    0.0260   -0.0245   -0.0054    0.0005   -0.0005
          54   -0.0246    0.0130   -0.0275   -0.0734    0.0780    0.0375    0.0023    0.0046
          55   -0.0222    0.0324   -0.0061    0.0072   -0.0009    0.0140   -0.0323   -0.0271
          56    0.0392    0.0092   -0.0185    0.0021   -0.0107   -0.0172   -0.0187   -0.0252
          57    0.0127    0.0652   -0.0479    0.0107   -0.0178   -0.0012   -0.0646   -0.0598
          58   -0.0142    0.0171   -0.0215   -0.0077   -0.0102   -0.0436   -0.0302   -0.0345
          59    0.0289    0.0290    0.0069    0.0228    0.0041    0.0624   -0.0224   -0.0183
          60    0.0078   -0.0321   -0.0009   -0.0154    0.0040   -0.0089    0.0780    0.0831
          61   -0.0110   -0.0028   -0.0011   -0.0126   -0.0157    0.0113    0.0013   -0.0023
          62    0.0021    0.0038    0.0132   -0.0263   -0.0247    0.0056   -0.0005   -0.0005
          63   -0.0247    0.0130    0.0275   -0.0733   -0.0778    0.0374    0.0023   -0.0046
          64   -0.0067   -0.0294   -0.0500    0.0786    0.0732   -0.0174   -0.0034    0.0033
          65    0.0054   -0.0242   -0.0349    0.0184    0.0051    0.0219    0.0010   -0.0048
          66   -0.0208   -0.0088   -0.0150    0.0291    0.0292   -0.0109   -0.0026    0.0032
          67    0.0142   -0.0171   -0.0215    0.0077   -0.0102    0.0436    0.0307   -0.0341
          68   -0.0289   -0.0291    0.0069   -0.0229    0.0041   -0.0625    0.0229   -0.0183
          69    0.0079   -0.0320    0.0009   -0.0154   -0.0040   -0.0087    0.0791   -0.0819
          70    0.0222   -0.0324   -0.0061   -0.0072   -0.0009   -0.0140    0.0327   -0.0267
          71   -0.0391   -0.0090   -0.0183   -0.0021   -0.0107    0.0172    0.0188   -0.0248
          72    0.0128    0.0653    0.0479    0.0107    0.0178   -0.0013   -0.0655    0.0589
          73   -0.0203    0.0350   -0.0109    0.0032    0.0027    0.0143    0.0329    0.0266
          74   -0.0066    0.0001   -0.0039    0.0188   -0.0256   -0.0180    0.0165    0.0214
          75    0.0243   -0.0561    0.0347   -0.0284    0.0326    0.0018   -0.0634   -0.0577
          76    0.0203   -0.0350   -0.0109   -0.0032    0.0027   -0.0143   -0.0332    0.0262
          77    0.0067   -0.0003   -0.0040   -0.0189   -0.0257    0.0180   -0.0170    0.0213
          78    0.0243   -0.0561   -0.0347   -0.0283   -0.0325    0.0018   -0.0642    0.0567
          79   -0.0157    0.0173   -0.0225   -0.0057   -0.0122   -0.0440    0.0300    0.0235
          80   -0.0144    0.0226    0.0166    0.0305   -0.0022    0.0633    0.0200    0.0258
          81   -0.0068    0.0319    0.0020    0.0207   -0.0103    0.0081    0.0735    0.0693
          82    0.0157   -0.0173   -0.0225    0.0057   -0.0122    0.0440   -0.0303    0.0231
          83    0.0144   -0.0225    0.0166   -0.0304   -0.0021   -0.0633   -0.0201    0.0253
          84   -0.0069    0.0319   -0.0020    0.0209    0.0102    0.0083    0.0746   -0.0683
          85    0.0050    0.0091   -0.0171   -0.0424    0.0450    0.0217    0.0055    0.0064
          86   -0.0434   -0.0182    0.0280    0.0366   -0.0318   -0.0007   -0.0061   -0.0046
          87   -0.0214   -0.0109    0.0176    0.0296   -0.0283   -0.0070   -0.0057   -0.0051
          88   -0.0167   -0.0122    0.0141   -0.0127    0.0248    0.0364    0.0020    0.0064
          89   -0.0182    0.0068   -0.0085    0.0015   -0.0083   -0.0199   -0.0008   -0.0037
          90    0.0127    0.0245   -0.0346   -0.0224    0.0072   -0.0337    0.0015   -0.0041
          91    0.0017   -0.0001    0.0003    0.0043   -0.0055   -0.0047    0.0001   -0.0003
          92   -0.0428   -0.0092    0.0101   -0.0175    0.0276    0.0309    0.0005    0.0035
          93   -0.0168    0.0058   -0.0139   -0.0539    0.0613    0.0374    0.0036    0.0062
          94   -0.0050   -0.0091   -0.0171    0.0424    0.0449   -0.0217   -0.0056    0.0064
          95    0.0434    0.0182    0.0279   -0.0365   -0.0317    0.0007    0.0061   -0.0045
          96   -0.0216   -0.0110   -0.0177    0.0298    0.0284   -0.0070   -0.0058    0.0050
          97   -0.0017    0.0001    0.0003   -0.0043   -0.0055    0.0047   -0.0001   -0.0003
          98    0.0427    0.0092    0.0101    0.0174    0.0274   -0.0308   -0.0005    0.0035
          99   -0.0169    0.0057    0.0139   -0.0540   -0.0613    0.0375    0.0037   -0.0061
         100    0.0168    0.0122    0.0141    0.0127    0.0248   -0.0364   -0.0021    0.0063
         101    0.0182   -0.0067   -0.0084   -0.0016   -0.0083    0.0198    0.0008   -0.0037
         102    0.0127    0.0245    0.0346   -0.0224   -0.0072   -0.0338    0.0014    0.0042


   Root No.      25        26        27        28        29        30        31        32

                25 A      26 A      27 A      28 A      29 A      30 A      31 A      32 A   

                 903.9     931.9     975.7     987.3     995.4    1003.6    1011.3    1012.7
  
           1   -0.0081    0.0103   -0.0048   -0.0049   -0.0002   -0.0004   -0.0001    0.0010
[...]
 REDUCED MASS        0.3435         C 10 -- H 22          +9.4% ( 31.4%)     96.0%
 EFFECTIVE MASS      1.4693
 FORCE CONSTANT      1.7678

 VIBRATION         81   81A           ATOM PAIR      ENERGY CONTRIBUTION    RADIAL
 FREQUENCY          3028.18         C 10 -- H 22         +33.4% ( 57.0%)     98.4%
 TRANSITION DIPOLE   0.0299         C 10 -- H 21         +24.9% ( 49.2%)     96.7%
 TRAVEL (Ang.)       0.3012         C  9 -- H 17         +21.7% ( 46.0%)     98.4%
 REDUCED MASS        0.2455         C  9 -- H 18         +16.2% ( 39.7%)     96.7%
 EFFECTIVE MASS      1.2801
 FORCE CONSTANT      1.3265

 VIBRATION         82   82A           ATOM PAIR      ENERGY CONTRIBUTION    RADIAL
 FREQUENCY          3028.21         C  9 -- H 17         +33.5% ( 57.1%)     98.4%
 TRANSITION DIPOLE   0.0120         C  9 -- H 18         +24.9% ( 49.3%)     96.7%
 TRAVEL (Ang.)       0.2999         C 10 -- H 22         +21.9% ( 46.1%)     98.4%
 REDUCED MASS        0.2476         C 10 -- H 21         +16.3% ( 39.8%)     96.7%
 EFFECTIVE MASS      1.2789
 FORCE CONSTANT      1.3377

 VIBRATION         83   83A           ATOM PAIR      ENERGY CONTRIBUTION    RADIAL
 FREQUENCY          3033.05         C  7 -- H 25         +43.5% ( 68.6%)     98.1%
 TRANSITION DIPOLE   0.0432         C  7 -- H 27         +25.6% ( 52.7%)     95.0%
 TRAVEL (Ang.)       0.2676         C  5 -- H 19         +13.9% ( 38.8%)     98.0%
 REDUCED MASS        0.3105         C  5 -- H 20          +8.5% ( 30.4%)     95.2%
 EFFECTIVE MASS      1.5328
 FORCE CONSTANT      1.6831

 VIBRATION         84   84A           ATOM PAIR      ENERGY CONTRIBUTION    RADIAL
 FREQUENCY          3033.17         C  8 -- H 26         +43.7% ( 68.8%)     98.1%
 TRANSITION DIPOLE   0.0414         C  8 -- H 28         +25.7% ( 52.8%)     95.0%
 TRAVEL (Ang.)       0.2669         C  6 -- H 24         +13.8% ( 38.6%)     98.0%
 REDUCED MASS        0.3120         C  6 -- H 23          +8.4% ( 30.2%)     95.2%
 EFFECTIVE MASS      1.5332
 FORCE CONSTANT      1.6914

 VIBRATION         85   85A           ATOM PAIR      ENERGY CONTRIBUTION    RADIAL
 FREQUENCY          3036.15         C  5 -- H 19         +34.0% ( 60.7%)     98.0%
 TRANSITION DIPOLE   0.1356         C  5 -- H 20         +20.7% ( 47.3%)     95.1%
 TRAVEL (Ang.)       0.3228         C  6 -- H 24         +11.6% ( 35.5%)     98.1%
 REDUCED MASS        0.2131         C  7 -- H 25         +10.5% ( 33.7%)     98.1%
 EFFECTIVE MASS      1.5401
 FORCE CONSTANT      1.1576

 VIBRATION         86   86A           ATOM PAIR      ENERGY CONTRIBUTION    RADIAL
 FREQUENCY          3036.38         C  6 -- H 24         +33.6% ( 60.3%)     98.0%
 TRANSITION DIPOLE   0.0363         C  6 -- H 23         +20.6% ( 47.2%)     95.1%
 TRAVEL (Ang.)       0.3251         C  5 -- H 19         +11.2% ( 34.8%)     98.0%
 REDUCED MASS        0.2101         C  8 -- H 26         +10.9% ( 34.3%)     98.1%
 EFFECTIVE MASS      1.5409
 FORCE CONSTANT      1.1411

 VIBRATION         87   87A           ATOM PAIR      ENERGY CONTRIBUTION    RADIAL
 FREQUENCY          3076.59         C 11 -- H 29         +58.7% ( 79.0%)     98.2%
 TRANSITION DIPOLE   0.0067         C 11 -- H 31         +37.6% ( 63.3%)     95.1%
 TRAVEL (Ang.)       0.2064         C 11 -- H 30          +2.2% ( 15.5%)     27.5%
 REDUCED MASS        0.5145         C  9 -- C 11          +1.0% ( 10.2%)      0.0%
 EFFECTIVE MASS      1.5010
 FORCE CONSTANT      2.8693

 VIBRATION         88   88A           ATOM PAIR      ENERGY CONTRIBUTION    RADIAL
 FREQUENCY          3076.60         C 12 -- H 32         +58.8% ( 79.1%)     98.2%
 TRANSITION DIPOLE   0.0068         C 12 -- H 33         +37.5% ( 63.2%)     95.0%
 TRAVEL (Ang.)       0.2064         C 12 -- H 34          +2.3% ( 15.5%)     27.9%
 REDUCED MASS        0.5146         C 10 -- C 12          +1.0% ( 10.2%)      0.0%
 EFFECTIVE MASS      1.5010
 FORCE CONSTANT      2.8700

 VIBRATION         89   89A           ATOM PAIR      ENERGY CONTRIBUTION    RADIAL
 FREQUENCY          3084.21         C 11 -- H 30         +59.8% ( 79.8%)     98.6%
 TRANSITION DIPOLE   0.0030         C 11 -- H 31         +28.7% ( 55.2%)     91.9%
 TRAVEL (Ang.)       0.2138         C 11 -- H 29         +10.1% ( 32.7%)     73.5%
 REDUCED MASS        0.4785         C  9 -- C 11          +1.0% ( 10.3%)      0.0%
 EFFECTIVE MASS      1.5036
 FORCE CONSTANT      2.6815

 VIBRATION         90   90A           ATOM PAIR      ENERGY CONTRIBUTION    RADIAL
 FREQUENCY          3084.21         C 12 -- H 34         +59.8% ( 79.7%)     98.6%
 TRANSITION DIPOLE   0.0030         C 12 -- H 33         +28.7% ( 55.3%)     92.0%
 TRAVEL (Ang.)       0.2137         C 12 -- H 32         +10.0% ( 32.6%)     73.3%
 REDUCED MASS        0.4787         C 10 -- C 12          +1.0% ( 10.3%)      0.0%
 EFFECTIVE MASS      1.5036
 FORCE CONSTANT      2.6827

 VIBRATION         91   91A           ATOM PAIR      ENERGY CONTRIBUTION    RADIAL
 FREQUENCY          3100.66         C  7 -- H 27         +44.1% ( 65.9%)     98.6%
 TRANSITION DIPOLE   0.1152         C  7 -- H 25         +24.8% ( 49.4%)     94.8%
 TRAVEL (Ang.)       0.2711         C  5 -- H 20         +17.4% ( 41.4%)     98.6%
 REDUCED MASS        0.2959         C  5 -- H 19         +10.3% ( 31.8%)     95.2%
 EFFECTIVE MASS      1.2678
 FORCE CONSTANT      1.6762

 VIBRATION         92   92A           ATOM PAIR      ENERGY CONTRIBUTION    RADIAL
 FREQUENCY          3100.79         C  8 -- H 28         +44.1% ( 65.9%)     98.6%
 TRANSITION DIPOLE   0.0906         C  8 -- H 26         +24.8% ( 49.3%)     94.8%
 TRAVEL (Ang.)       0.2711         C  6 -- H 23         +17.5% ( 41.4%)     98.6%
 REDUCED MASS        0.2958         C  6 -- H 24         +10.3% ( 31.8%)     95.2%
 EFFECTIVE MASS      1.2678
 FORCE CONSTANT      1.6759

 VIBRATION         93   93A           ATOM PAIR      ENERGY CONTRIBUTION    RADIAL
 FREQUENCY          3103.74         C  5 -- H 20         +43.5% ( 65.5%)     98.4%
 TRANSITION DIPOLE   0.0230         C  5 -- H 19         +25.5% ( 50.2%)     94.7%
 TRAVEL (Ang.)       0.2701         C  7 -- H 27         +17.7% ( 41.8%)     98.4%
 REDUCED MASS        0.2978         C  7 -- H 25          +9.9% ( 31.3%)     94.2%
 EFFECTIVE MASS      1.3057
 FORCE CONSTANT      1.6903

 VIBRATION         94   94A           ATOM PAIR      ENERGY CONTRIBUTION    RADIAL
 FREQUENCY          3103.86         C  6 -- H 23         +43.5% ( 65.5%)     98.4%
 TRANSITION DIPOLE   0.0256         C  6 -- H 24         +25.5% ( 50.2%)     94.7%
 TRAVEL (Ang.)       0.2702         C  8 -- H 28         +17.8% ( 41.9%)     98.4%
 REDUCED MASS        0.2975         C  8 -- H 26         +10.0% ( 31.4%)     94.2%
 EFFECTIVE MASS      1.3057
 FORCE CONSTANT      1.6886

 VIBRATION         95   95A           ATOM PAIR      ENERGY CONTRIBUTION    RADIAL
 FREQUENCY          3179.54         C 11 -- H 30         +37.0% ( 58.6%)     97.7%
 TRANSITION DIPOLE   0.0125         C 11 -- H 31         +32.4% ( 54.8%)     97.0%
 TRAVEL (Ang.)       0.2558         C 11 -- H 29         +29.4% ( 52.2%)     96.4%
 REDUCED MASS        0.3240         C 12 -- H 34          +0.3% (  5.3%)     97.7%
 EFFECTIVE MASS      1.1369
 FORCE CONSTANT      1.9298

 VIBRATION         96   96A           ATOM PAIR      ENERGY CONTRIBUTION    RADIAL
 FREQUENCY          3179.54         C 12 -- H 34         +37.0% ( 58.5%)     97.7%
 TRANSITION DIPOLE   0.0118         C 12 -- H 33         +32.4% ( 54.8%)     97.0%
 TRAVEL (Ang.)       0.2559         C 12 -- H 32         +29.4% ( 52.2%)     96.4%
 REDUCED MASS        0.3240         C 11 -- H 30          +0.3% (  5.3%)     97.7%
 EFFECTIVE MASS      1.1369
 FORCE CONSTANT      1.9297

      SYMMETRY NUMBER FOR POINT-GROUP C1  =  1


          SYSTEM IS A GROUND STATE



 InChI=1S/C12H22/c1-3-9-5-11(6-9)12-7-10(4-2)8-12/h9-12H,3-8H2,1-2H3


          MOLECULE IS NOT LINEAR

          THERE ARE 96 GENUINE VIBRATIONS IN THIS SYSTEM
          THIS THERMODYNAMICS CALCULATION IS LIMITED TO
          MOLECULES WHICH HAVE NO INTERNAL ROTATIONS




                    CALCULATED THERMODYNAMIC PROPERTIES
                                          *
   TEMP. (K)   PARTITION FUNCTION   H.O.F.    ENTHALPY  HEAT CAPACITY ENTROPY
                                   KCAL/MOL   CAL/MOLE    CAL/K/MOL  CAL/K/MOL


 298.00  VIB.     0.6739D+05                  6513.6605    44.4187    43.9521
         ROT.     0.1538D+07                   888.2803     2.9808    31.2909
         INT.     0.1037D+12                  7401.9408    47.3995    75.2430
         TRA.     0.2073D+28                  1480.4672     4.9680    41.2320
         TOT.                      -26.525    8882.4080    52.3675   116.4750

 200.00  VIB.     0.1776D+04                  3002.0811    28.0799    29.8789
         ROT.     0.8458D+06                   596.1613     2.9808    30.1022
         INT.     0.1502D+10                  3598.2424    31.0607    59.9811
         TRA.     0.1140D+28                   993.6021     4.9680    39.2509
         TOT.                      -30.816    4591.8445    36.0287    99.2319

 210.00  VIB.     0.2588D+04                  3289.9220    29.4984    31.2830
         ROT.     0.9100D+06                   625.9693     2.9808    30.2477
         INT.     0.2355D+10                  3915.8914    32.4793    61.5306
         TRA.     0.1227D+28                  1043.2822     4.9680    39.4932
         TOT.                      -30.449    4959.1736    37.4473   101.0239

 220.00  VIB.     0.3763D+04                  3592.2565    30.9789    32.6892
         ROT.     0.9758D+06                   655.7774     2.9808    30.3863
         INT.     0.3672D+10                  4248.0339    33.9597    63.0755
         TRA.     0.1315D+28                  1092.9623     4.9680    39.7244
         TOT.                      -30.067    5340.9962    38.9277   102.7998

 230.00  VIB.     0.5463D+04                  3909.7078    32.5217    34.1000
         ROT.     0.1043D+07                   685.5855     2.9808    30.5188
         INT.     0.5698D+10                  4595.2932    35.5026    64.6189
         TRA.     0.1406D+28                  1142.6424     4.9680    39.9452
         TOT.                      -29.670    5737.9357    40.4706   104.5641

 240.00  VIB.     0.7919D+04                  4242.8953    34.1257    35.5178
         ROT.     0.1112D+07                   715.3935     2.9808    30.6457
         INT.     0.8804D+10                  4958.2888    37.1066    66.1635
         TRA.     0.1499D+28                  1192.3226     4.9680    40.1566
         TOT.                      -29.257    6150.6114    42.0746   106.3201

 250.00  VIB.     0.1147D+05                  4592.4167    35.7879    36.9444
         ROT.     0.1182D+07                   745.2016     2.9808    30.7674
         INT.     0.1355D+11                  5337.6183    38.7687    67.7118
         TRA.     0.1593D+28                  1242.0027     4.9680    40.3594
         TOT.                      -28.828    6579.6210    43.7367   108.0712

 260.00  VIB.     0.1659D+05                  4958.8334    37.5040    38.3813
         ROT.     0.1254D+07                   775.0097     2.9808    30.8843
         INT.     0.2080D+11                  5733.8430    40.4848    69.2656
         TRA.     0.1690D+28                  1291.6828     4.9680    40.5543
         TOT.                      -28.382    7025.5258    45.4528   109.8199

 270.00  VIB.     0.2399D+05                  5342.6593    39.2688    39.8297
         ROT.     0.1327D+07                   804.8177     2.9808    30.9968
         INT.     0.3183D+11                  6147.4770    42.2496    70.8264
         TRA.     0.1788D+28                  1341.3629     4.9680    40.7418
         TOT.                      -27.919    7488.8399    47.2177   111.5682

 280.00  VIB.     0.3469D+05                  5744.3532    41.0766    41.2903
         ROT.     0.1401D+07                   834.6258     2.9808    31.1052
         INT.     0.4861D+11                  6578.9790    44.0574    72.3955
         TRA.     0.1888D+28                  1391.0430     4.9680    40.9225
         TOT.                      -27.438    7970.0220    49.0254   113.3180

 290.00  VIB.     0.5016D+05                  6164.3134    42.9210    42.7638
         ROT.     0.1477D+07                   864.4339     2.9808    31.2098
         INT.     0.7408D+11                  7028.7472    45.9018    73.9736
         TRA.     0.1990D+28                  1440.7231     4.9680    41.0968
         TOT.                      -26.938    8469.4703    50.8698   115.0704

 300.00  VIB.     0.7255D+05                  6602.8748    44.7958    44.2505
         ROT.     0.1554D+07                   894.2419     2.9808    31.3108
         INT.     0.1127D+12                  7497.1167    47.7766    75.5613
         TRA.     0.2094D+28                  1490.4032     4.9680    41.2652
         TOT.                      -26.420    8987.5199    52.7446   116.8265

 310.00  VIB.     0.1050D+06                  7060.3086    46.6944    45.7502
         ROT.     0.1632D+07                   924.0500     2.9808    31.4086
         INT.     0.1713D+12                  7984.3585    49.6753    77.1588
         TRA.     0.2200D+28                  1540.0833     4.9680    41.4281
         TOT.                      -25.883    9524.4418    54.6433   118.5869

 320.00  VIB.     0.1520D+06                  7536.8227    48.6108    47.2629
         ROT.     0.1712D+07                   953.8580     2.9808    31.5032
         INT.     0.2602D+12                  8490.6808    51.5916    78.7661
         TRA.     0.2307D+28                  1589.7634     4.9680    41.5859
         TOT.                      -25.327   10080.4442    56.5597   120.3520

 330.00  VIB.     0.2202D+06                  8032.5645    50.5390    48.7882
         ROT.     0.1793D+07                   983.6661     2.9808    31.5949
         INT.     0.3947D+12                  9016.2306    53.5198    80.3832
         TRA.     0.2416D+28                  1639.4435     4.9680    41.7387
         TOT.                      -24.752   10655.6741    58.4878   122.1219

 340.00  VIB.     0.3193D+06                  8547.6234    52.4734    50.3257
         ROT.     0.1875D+07                  1013.4742     2.9808    31.6839
         INT.     0.5986D+12                  9561.0976    55.4542    82.0096
         TRA.     0.2527D+28                  1689.1236     4.9680    41.8870
         TOT.                      -24.158   11250.2212    60.4222   123.8967

 350.00  VIB.     0.4635D+06                  9082.0351    54.4087    51.8747
         ROT.     0.1958D+07                  1043.2822     2.9808    31.7703
         INT.     0.9075D+12                 10125.3173    57.3895    83.6450
         TRA.     0.2639D+28                  1738.8037     4.9680    42.0310
         TOT.                      -23.544   11864.1211    62.3575   125.6761

 360.00  VIB.     0.6734D+06                  9635.7856    56.3404    53.4345
         ROT.     0.2043D+07                  1073.0903     2.9808    31.8543
         INT.     0.1375D+13                 10708.8759    59.3212    85.2888
         TRA.     0.2753D+28                  1788.4838     4.9680    42.1710
         TOT.                      -22.911   12497.3597    64.2892   127.4598

 370.00  VIB.     0.9795D+06                 10208.8158    58.2640    55.0044
         ROT.     0.2128D+07                  1102.8984     2.9808    31.9360
         INT.     0.2085D+13                 11311.7142    61.2448    86.9404
         TRA.     0.2869D+28                  1838.1639     4.9680    42.3071
         TOT.                      -22.258   13149.8781    66.2128   129.2475

 380.00  VIB.     0.1426D+07                 10801.0262    60.1758    56.5837
         ROT.     0.2215D+07                  1132.7064     2.9808    32.0155
         INT.     0.3159D+13                 11933.7326    63.1566    88.5991
         TRA.     0.2986D+28                  1887.8440     4.9680    42.4396
         TOT.                      -21.586   13821.5767    68.1246   131.0387

 390.00  VIB.     0.2079D+07                 11412.2813    62.0724    58.1713
         ROT.     0.2303D+07                  1162.5145     2.9808    32.0929
         INT.     0.4789D+13                 12574.7958    65.0532    90.2642
         TRA.     0.3104D+28                  1937.5242     4.9680    42.5687
         TOT.                      -20.896   14512.3200    70.0212   132.8329

 400.00  VIB.     0.3035D+07                 12042.4143    63.9509    59.7666
         ROT.     0.2392D+07                  1192.3226     2.9808    32.1684
         INT.     0.7261D+13                 13234.7368    66.9317    91.9349
         TRA.     0.3224D+28                  1987.2043     4.9680    42.6944
         TOT.                      -20.186   15221.9411    71.8997   134.6294

   *: NOTE: HEATS OF FORMATION ARE RELATIVE TO THE
            ELEMENTS IN THEIR STANDARD STATE AT 298K
              (=  Standard Enthalpy of Formation).

            Hvib:  Zero-point energy is not included.
                   frequencies of less than zero cm-1 are not included.
            Hrot = (3/2)RT
            Htra = (3/2)RT + pV = (5/2)RT

            Heat capacity is Cp, not Cv

          For more information, see: HTTP://OpenMOPAC.net/Manual/thermochemistry.html


           FORCE CONSTANT IN CARTESIAN COORDINATES (Millidynes/A)

    ATOM   CHEMICAL       X               Y               Z
   NUMBER   SYMBOL  FORCE CONSTANT  FORCE CONSTANT  FORCE CONSTANT

      1       C        9.182360        9.510315        6.331069
      2       C        9.182142        9.510211        6.330509
      3       C        9.116683        9.362816        6.330969
      4       C        9.116738        9.362125        6.330855
      5       C        7.705829        6.933594        9.743730
      6       C        7.706061        6.933133        9.743363
      7       C        7.698883        6.929218        9.734304
      8       C        7.699038        6.929195        9.733602
      9       C        8.295986        8.366566        8.427970
     10       C        8.295757        8.366789        8.428076
     11       C        8.221228        8.459952        8.204736
     12       C        8.221593        8.459578        8.204997
     13       H        4.813750        0.780464        0.666280
     14       H        1.231945        4.327652        0.672391
     15       H        4.813962        0.780424        0.666277
     16       H        1.231993        4.327906        0.672398
     17       H        0.996939        1.397217        3.982133
     18       H        4.896234        0.742255        0.735368
     19       H        2.628174        1.736271        2.251024
     20       H        2.622211        1.729748        2.284551
     21       H        4.896247        0.742099        0.735529
     22       H        0.996917        1.406597        3.972691
     23       H        2.622434        1.721813        2.292603
     24       H        2.628334        1.744139        2.243255
     25       H        2.616558        1.735219        2.258842
     26       H        2.616739        1.727420        2.266736
     27       H        2.627610        1.733983        2.272076
     28       H        2.627815        1.742059        2.264141
     29       H        1.004282        1.407491        4.342302
     30       H        1.147461        4.934809        0.708897
     31       H        5.353116        0.693847        0.731402
     32       H        1.004158        1.417585        4.332214
     33       H        5.353206        0.693669        0.731598
     34       H        1.147647        4.935617        0.708016

 **********************
 *                    *
 * JOB ENDED NORMALLY *
 *                    *
 **********************



 TOTAL JOB TIME:             5.99 SECONDS

 == MOPAC DONE ==
