 *******************************************************************************
 **                                                                           **
 **                              MOPAC v23.1.2                                **
 **                                                                           **
 *******************************************************************************
 **          Digital Object Identifier (DOI): 10.5281/zenodo.6511958          **
 **    Visit the DOI location for information on how to cite this program.    **
 *******************************************************************************

                              PM3 CALCULATION RESULTS

 *******************************************************************************
 *  CALCULATION DONE: (MAX THREADS = 1)              Tue Jun  3 16:39:42 2025  *
 *  PM3        - The PM3 Hamiltonian to be used
 *  PRECISE    - TIGHTER CRITERIA TO BE USED
 *  NOSYM      - POINT-GROUP SYMMETRY SET TO C1
 *  THREADS=1  - MULTI-THREADING NOT USED
 *  T=         - A TIME OF 172800.0 SECONDS REQUESTED
 *  DUMP=N     - RESTART FILE WRITTEN EVERY 7200.0 SECONDS REQUESTED
 *******************************************************************************
pm3  precise nosym THREADS=1
 InChI=1S/C12H20/c1-4-7-10(5-2)12-9-8-11(12)6-3/h7,10-12H,1,5-6,8-9H2,2-3H3

   ATOM   CHEMICAL          X               Y               Z
  NUMBER   SYMBOL      (ANGSTROMS)     (ANGSTROMS)     (ANGSTROMS)

     1       C          0.23120000  *  -0.84860000  *  -0.41010000  *
     2       C          1.43250000  *   0.05800000  *  -0.09600000  *
     3       C         -1.13920000  *  -0.14390000  *  -0.27550000  *
     4       C          1.93750000  *  -0.11900000  *  -1.52830000  *
     5       C          0.73020000  *  -0.98890000  *  -1.85160000  *
     6       C          2.36460000  *  -0.52530000  *   0.98000000  *
     7       C         -2.27180000  *  -1.06610000  *  -0.77550000  *
     8       C          3.57840000  *   0.37090000  *   1.20910000  *
     9       C         -3.62050000  *  -0.34770000  *  -0.83450000  *
    10       C         -1.36880000  *   0.21370000  *   1.17130000  *
    11       C         -1.64110000  *   2.69740000  *   1.91800000  *
    12       C         -1.50630000  *   1.45670000  *   1.54660000  *
    13       H          1.14730000  *   1.11410000  *   0.11380000  *
    14       H          0.26200000  *  -1.82390000  *   0.12870000  *
    15       H         -1.13180000  *   0.77970000  *  -0.90130000  *
    16       H          1.80090000  *  -0.60860000  *   1.93440000  *
    17       H          2.70770000  *  -1.54400000  *   0.69350000  *
    18       H          1.93500000  *   0.83610000  *  -2.09760000  *
    19       H          2.89340000  *  -0.68190000  *  -1.61020000  *
    20       H          1.01660000  *  -2.03420000  *  -2.10000000  *
    21       H         -2.03720000  *  -1.42990000  *  -1.79880000  *
    22       H         -2.36020000  *  -1.95740000  *  -0.11560000  *
    23       H          0.07180000  *  -0.51640000  *  -2.61350000  *
    24       H          3.25430000  *   1.38330000  *   1.53160000  *
    25       H          4.17900000  *   0.45760000  *   0.27910000  *
    26       H          4.21810000  *  -0.06680000  *   2.00410000  *
    27       H         -4.38850000  *  -1.03480000  *  -1.24810000  *
    28       H         -3.55380000  *   0.54550000  *  -1.49120000  *
    29       H         -3.94240000  *  -0.03390000  *   0.18080000  *
    30       H         -1.40350000  *  -0.56800000  *   1.91960000  *
    31       H         -0.78880000  *   3.36260000  *   1.89780000  *
    32       H         -2.60650000  *   3.06360000  *   2.23930000  *



          CARTESIAN COORDINATES 

    NO.       ATOM           X           Y           Z

     1         C          0.2312     -0.8486     -0.4101
     2         C          1.4325      0.0580     -0.0960
     3         C         -1.1392     -0.1439     -0.2755
     4         C          1.9375     -0.1190     -1.5283
     5         C          0.7302     -0.9889     -1.8516
     6         C          2.3646     -0.5253      0.9800
     7         C         -2.2718     -1.0661     -0.7755
     8         C          3.5784      0.3709      1.2091
     9         C         -3.6205     -0.3477     -0.8345
    10         C         -1.3688      0.2137      1.1713
    11         C         -1.6411      2.6974      1.9180
    12         C         -1.5063      1.4567      1.5466
    13         H          1.1473      1.1141      0.1138
    14         H          0.2620     -1.8239      0.1287
    15         H         -1.1318      0.7797     -0.9013
    16         H          1.8009     -0.6086      1.9344
    17         H          2.7077     -1.5440      0.6935
    18         H          1.9350      0.8361     -2.0976
    19         H          2.8934     -0.6819     -1.6102
    20         H          1.0166     -2.0342     -2.1000
    21         H         -2.0372     -1.4299     -1.7988
    22         H         -2.3602     -1.9574     -0.1156
    23         H          0.0718     -0.5164     -2.6135
    24         H          3.2543      1.3833      1.5316
    25         H          4.1790      0.4576      0.2791
    26         H          4.2181     -0.0668      2.0041
    27         H         -4.3885     -1.0348     -1.2481
    28         H         -3.5538      0.5455     -1.4912
    29         H         -3.9424     -0.0339      0.1808
    30         H         -1.4035     -0.5680      1.9196
    31         H         -0.7888      3.3626      1.8978
    32         H         -2.6065      3.0636      2.2393

  H: (PM3): J. J. P. STEWART, J. COMP. CHEM. 10, 209 (1989).
  C: (PM3): J. J. P. STEWART, J. COMP. CHEM. 10, 209 (1989).

           Empirical Formula: C12 H20  =    32 atoms



      MOLECULAR POINT GROUP   :   C1  


      RHF CALCULATION, NO. OF DOUBLY OCCUPIED LEVELS = 34


          Geometry optimization using EF

          DIAGONAL MATRIX USED AS START HESSIAN

 CYCLE:     1 TIME:   0.012 TIME LEFT:  2.00D  GRAD.:    82.029 HEAT:  26.66945
 CYCLE:     2 TIME:   0.020 TIME LEFT:  2.00D  GRAD.:   115.006 HEAT:  26.40869
 CYCLE:     3 TIME:   0.012 TIME LEFT:  2.00D  GRAD.:   160.967 HEAT:  25.58032
 CYCLE:     4 TIME:   0.020 TIME LEFT:  2.00D  GRAD.:    76.483 HEAT:  23.35654
 CYCLE:     5 TIME:   0.008 TIME LEFT:  2.00D  GRAD.:    36.122 HEAT:  22.20850
 CYCLE:     6 TIME:   0.020 TIME LEFT:  2.00D  GRAD.:    31.058 HEAT:  21.74203
 CYCLE:     7 TIME:   0.012 TIME LEFT:  2.00D  GRAD.:    40.397 HEAT:  21.32387
 CYCLE:     8 TIME:   0.012 TIME LEFT:  2.00D  GRAD.:    44.075 HEAT:  21.00621
 CYCLE:     9 TIME:   0.020 TIME LEFT:  2.00D  GRAD.:    33.154 HEAT:  20.60419
 CYCLE:    10 TIME:   0.020 TIME LEFT:  2.00D  GRAD.:    22.740 HEAT:  20.41775
 CYCLE:    11 TIME:   0.012 TIME LEFT:  2.00D  GRAD.:    19.682 HEAT:  20.26131
 CYCLE:    12 TIME:   0.012 TIME LEFT:  2.00D  GRAD.:    28.061 HEAT:  20.23987
 CYCLE:    13 TIME:   0.012 TIME LEFT:  2.00D  GRAD.:    21.419 HEAT:  20.03952
 CYCLE:    14 TIME:   0.020 TIME LEFT:  2.00D  GRAD.:    20.861 HEAT:  19.99792
 CYCLE:    15 TIME:   0.012 TIME LEFT:  2.00D  GRAD.:    22.275 HEAT:  19.96008
 CYCLE:    16 TIME:   0.012 TIME LEFT:  2.00D  GRAD.:    20.256 HEAT:  19.88981
 CYCLE:    17 TIME:   0.012 TIME LEFT:  2.00D  GRAD.:    12.866 HEAT:  19.78821
 CYCLE:    18 TIME:   0.016 TIME LEFT:  2.00D  GRAD.:    13.010 HEAT:  19.78310
 CYCLE:    19 TIME:   0.012 TIME LEFT:  2.00D  GRAD.:    11.844 HEAT:  19.74707
 CYCLE:    20 TIME:   0.020 TIME LEFT:  2.00D  GRAD.:    10.666 HEAT:  19.73571
 CYCLE:    21 TIME:   0.008 TIME LEFT:  2.00D  GRAD.:    11.620 HEAT:  19.72951
 CYCLE:    22 TIME:   0.012 TIME LEFT:  2.00D  GRAD.:    10.911 HEAT:  19.71995
 CYCLE:    23 TIME:   0.012 TIME LEFT:  2.00D  GRAD.:    10.243 HEAT:  19.70817
 CYCLE:    24 TIME:   0.012 TIME LEFT:  2.00D  GRAD.:     9.454 HEAT:  19.70055
 CYCLE:    25 TIME:   0.008 TIME LEFT:  2.00D  GRAD.:     9.614 HEAT:  19.69108
 CYCLE:    26 TIME:   0.012 TIME LEFT:  2.00D  GRAD.:     6.624 HEAT:  19.67937
 CYCLE:    27 TIME:   0.016 TIME LEFT:  2.00D  GRAD.:     5.350 HEAT:  19.66978
 CYCLE:    28 TIME:   0.012 TIME LEFT:  2.00D  GRAD.:     4.668 HEAT:  19.66635
 CYCLE:    29 TIME:   0.012 TIME LEFT:  2.00D  GRAD.:     4.046 HEAT:  19.65925
 CYCLE:    30 TIME:   0.008 TIME LEFT:  2.00D  GRAD.:     3.598 HEAT:  19.65351
 CYCLE:    31 TIME:   0.012 TIME LEFT:  2.00D  GRAD.:     4.429 HEAT:  19.64605
 CYCLE:    32 TIME:   0.012 TIME LEFT:  2.00D  GRAD.:     3.960 HEAT:  19.63409
 CYCLE:    33 TIME:   0.012 TIME LEFT:  2.00D  GRAD.:     5.128 HEAT:  19.62799
 CYCLE:    34 TIME:   0.008 TIME LEFT:  2.00D  GRAD.:     4.488 HEAT:  19.62098
 CYCLE:    35 TIME:   0.012 TIME LEFT:  2.00D  GRAD.:     3.884 HEAT:  19.61518
 CYCLE:    36 TIME:   0.008 TIME LEFT:  2.00D  GRAD.:     2.430 HEAT:  19.60832
 CYCLE:    37 TIME:   0.012 TIME LEFT:  2.00D  GRAD.:     2.748 HEAT:  19.60425
 CYCLE:    38 TIME:   0.008 TIME LEFT:  2.00D  GRAD.:     2.545 HEAT:  19.60046
 CYCLE:    39 TIME:   0.012 TIME LEFT:  2.00D  GRAD.:     1.444 HEAT:  19.59716
 CYCLE:    40 TIME:   0.008 TIME LEFT:  2.00D  GRAD.:     1.995 HEAT:  19.59448
 CYCLE:    41 TIME:   0.012 TIME LEFT:  2.00D  GRAD.:     1.902 HEAT:  19.59146
 CYCLE:    42 TIME:   0.012 TIME LEFT:  2.00D  GRAD.:     1.566 HEAT:  19.58854
 CYCLE:    43 TIME:   0.012 TIME LEFT:  2.00D  GRAD.:     1.230 HEAT:  19.58612
 CYCLE:    44 TIME:   0.012 TIME LEFT:  2.00D  GRAD.:     1.697 HEAT:  19.58230
 CYCLE:    45 TIME:   0.012 TIME LEFT:  2.00D  GRAD.:     1.548 HEAT:  19.57914
 CYCLE:    46 TIME:   0.008 TIME LEFT:  2.00D  GRAD.:     1.211 HEAT:  19.57642
 CYCLE:    47 TIME:   0.012 TIME LEFT:  2.00D  GRAD.:     1.822 HEAT:  19.57415
 CYCLE:    48 TIME:   0.012 TIME LEFT:  2.00D  GRAD.:     1.539 HEAT:  19.57189
 CYCLE:    49 TIME:   0.012 TIME LEFT:  2.00D  GRAD.:     1.225 HEAT:  19.56983
 CYCLE:    50 TIME:   0.012 TIME LEFT:  2.00D  GRAD.:     1.462 HEAT:  19.56747
 CYCLE:    51 TIME:   0.012 TIME LEFT:  2.00D  GRAD.:     1.316 HEAT:  19.56532
 CYCLE:    52 TIME:   0.008 TIME LEFT:  2.00D  GRAD.:     1.053 HEAT:  19.56290
 CYCLE:    53 TIME:   0.012 TIME LEFT:  2.00D  GRAD.:     1.038 HEAT:  19.56095
 CYCLE:    54 TIME:   0.012 TIME LEFT:  2.00D  GRAD.:     0.841 HEAT:  19.55986
 CYCLE:    55 TIME:   0.012 TIME LEFT:  2.00D  GRAD.:     0.600 HEAT:  19.55889
 CYCLE:    56 TIME:   0.012 TIME LEFT:  2.00D  GRAD.:     0.507 HEAT:  19.55821
 CYCLE:    57 TIME:   0.008 TIME LEFT:  2.00D  GRAD.:     0.471 HEAT:  19.55779
 CYCLE:    58 TIME:   0.012 TIME LEFT:  2.00D  GRAD.:     0.447 HEAT:  19.55725
 CYCLE:    59 TIME:   0.012 TIME LEFT:  2.00D  GRAD.:     0.401 HEAT:  19.55687
 CYCLE:    60 TIME:   0.012 TIME LEFT:  2.00D  GRAD.:     0.383 HEAT:  19.55655
 CYCLE:    61 TIME:   0.012 TIME LEFT:  2.00D  GRAD.:     0.436 HEAT:  19.55617
 CYCLE:    62 TIME:   0.008 TIME LEFT:  2.00D  GRAD.:     0.431 HEAT:  19.55583
 CYCLE:    63 TIME:   0.012 TIME LEFT:  2.00D  GRAD.:     0.428 HEAT:  19.55542
 CYCLE:    64 TIME:   0.012 TIME LEFT:  2.00D  GRAD.:     0.449 HEAT:  19.55496
 CYCLE:    65 TIME:   0.012 TIME LEFT:  2.00D  GRAD.:     0.477 HEAT:  19.55438
 CYCLE:    66 TIME:   0.012 TIME LEFT:  2.00D  GRAD.:     0.468 HEAT:  19.55385
 CYCLE:    67 TIME:   0.012 TIME LEFT:  2.00D  GRAD.:     0.419 HEAT:  19.55340
 CYCLE:    68 TIME:   0.012 TIME LEFT:  2.00D  GRAD.:     0.388 HEAT:  19.55308
 CYCLE:    69 TIME:   0.008 TIME LEFT:  2.00D  GRAD.:     0.391 HEAT:  19.55272
 CYCLE:    70 TIME:   0.012 TIME LEFT:  2.00D  GRAD.:     0.354 HEAT:  19.55244
 CYCLE:    71 TIME:   0.012 TIME LEFT:  2.00D  GRAD.:     0.327 HEAT:  19.55210
 CYCLE:    72 TIME:   0.012 TIME LEFT:  2.00D  GRAD.:     0.318 HEAT:  19.55186
 CYCLE:    73 TIME:   0.012 TIME LEFT:  2.00D  GRAD.:     0.337 HEAT:  19.55161
 CYCLE:    74 TIME:   0.008 TIME LEFT:  2.00D  GRAD.:     0.338 HEAT:  19.55139
 CYCLE:    75 TIME:   0.012 TIME LEFT:  2.00D  GRAD.:     0.311 HEAT:  19.55117
 CYCLE:    76 TIME:   0.012 TIME LEFT:  2.00D  GRAD.:     0.281 HEAT:  19.55097
 CYCLE:    77 TIME:   0.012 TIME LEFT:  2.00D  GRAD.:     0.256 HEAT:  19.55077
 CYCLE:    78 TIME:   0.012 TIME LEFT:  2.00D  GRAD.:     0.209 HEAT:  19.55063
 CYCLE:    79 TIME:   0.012 TIME LEFT:  2.00D  GRAD.:     0.157 HEAT:  19.55053
 CYCLE:    80 TIME:   0.012 TIME LEFT:  2.00D  GRAD.:     0.134 HEAT:  19.55048
 CYCLE:    81 TIME:   0.008 TIME LEFT:  2.00D  GRAD.:     0.127 HEAT:  19.55044
 CYCLE:    82 TIME:   0.012 TIME LEFT:  2.00D  GRAD.:     0.163 HEAT:  19.55040
 CYCLE:    83 TIME:   0.012 TIME LEFT:  2.00D  GRAD.:     0.157 HEAT:  19.55035
 CYCLE:    84 TIME:   0.012 TIME LEFT:  2.00D  GRAD.:     0.228 HEAT:  19.55021
 CYCLE:    85 TIME:   0.012 TIME LEFT:  2.00D  GRAD.:     0.241 HEAT:  19.55012
 CYCLE:    86 TIME:   0.012 TIME LEFT:  2.00D  GRAD.:     0.215 HEAT:  19.54998
 CYCLE:    87 TIME:   0.012 TIME LEFT:  2.00D  GRAD.:     0.280 HEAT:  19.54981
 CYCLE:    88 TIME:   0.008 TIME LEFT:  2.00D  GRAD.:     0.249 HEAT:  19.54971
 CYCLE:    89 TIME:   0.012 TIME LEFT:  2.00D  GRAD.:     0.417 HEAT:  19.54978
 CYCLE:    90 TIME:   0.012 TIME LEFT:  2.00D  GRAD.:     0.160 HEAT:  19.54943
 CYCLE:    91 TIME:   0.012 TIME LEFT:  2.00D  GRAD.:     0.134 HEAT:  19.54936
 CYCLE:    92 TIME:   0.012 TIME LEFT:  2.00D  GRAD.:     0.133 HEAT:  19.54923
 CYCLE:    93 TIME:   0.008 TIME LEFT:  2.00D  GRAD.:     0.202 HEAT:  19.54918
 CYCLE:    94 TIME:   0.012 TIME LEFT:  2.00D  GRAD.:     0.162 HEAT:  19.54912
 CYCLE:    95 TIME:   0.012 TIME LEFT:  2.00D  GRAD.:     0.148 HEAT:  19.54899
 CYCLE:    96 TIME:   0.008 TIME LEFT:  2.00D  GRAD.:     0.130 HEAT:  19.54895
 CYCLE:    97 TIME:   0.012 TIME LEFT:  2.00D  GRAD.:     0.158 HEAT:  19.54886
 CYCLE:    98 TIME:   0.012 TIME LEFT:  2.00D  GRAD.:     0.139 HEAT:  19.54881
 CYCLE:    99 TIME:   0.012 TIME LEFT:  2.00D  GRAD.:     0.117 HEAT:  19.54875
 CYCLE:   100 TIME:   0.008 TIME LEFT:  2.00D  GRAD.:     0.122 HEAT:  19.54868
 CYCLE:   101 TIME:   0.012 TIME LEFT:  2.00D  GRAD.:     0.121 HEAT:  19.54864
 CYCLE:   102 TIME:   0.012 TIME LEFT:  2.00D  GRAD.:     0.152 HEAT:  19.54855
 CYCLE:   103 TIME:   0.012 TIME LEFT:  2.00D  GRAD.:     0.126 HEAT:  19.54852
 CYCLE:   104 TIME:   0.012 TIME LEFT:  2.00D  GRAD.:     0.130 HEAT:  19.54847
 CYCLE:   105 TIME:   0.012 TIME LEFT:  2.00D  GRAD.:     0.105 HEAT:  19.54843
 CYCLE:   106 TIME:   0.008 TIME LEFT:  2.00D  GRAD.:     0.087 HEAT:  19.54841
 CYCLE:   107 TIME:   0.012 TIME LEFT:  2.00D  GRAD.:     0.103 HEAT:  19.54836
 CYCLE:   108 TIME:   0.012 TIME LEFT:  2.00D  GRAD.:     0.091 HEAT:  19.54834
 CYCLE:   109 TIME:   0.008 TIME LEFT:  2.00D  GRAD.:     0.152 HEAT:  19.54829
 CYCLE:   110 TIME:   0.012 TIME LEFT:  2.00D  GRAD.:     0.098 HEAT:  19.54825
 CYCLE:   111 TIME:   0.012 TIME LEFT:  2.00D  GRAD.:     0.073 HEAT:  19.54822
 CYCLE:   112 TIME:   0.008 TIME LEFT:  2.00D  GRAD.:     0.078 HEAT:  19.54819
 CYCLE:   113 TIME:   0.012 TIME LEFT:  2.00D  GRAD.:     0.089 HEAT:  19.54814
 CYCLE:   114 TIME:   0.012 TIME LEFT:  2.00D  GRAD.:     0.078 HEAT:  19.54811
 CYCLE:   115 TIME:   0.012 TIME LEFT:  2.00D  GRAD.:     0.067 HEAT:  19.54808
 CYCLE:   116 TIME:   0.008 TIME LEFT:  2.00D  GRAD.:     0.058 HEAT:  19.54806
 CYCLE:   117 TIME:   0.012 TIME LEFT:  2.00D  GRAD.:     0.048 HEAT:  19.54805

     GRADIENT =  0.04831 IS LESS THAN CUTOFF =  0.05000



 -------------------------------------------------------------------------------
 pm3  precise nosym THREADS=1
 InChI=1S/C12H20/c1-4-7-10(5-2)12-9-8-11(12)6-3/h7,10-12H,1,5-6,8-9H2,2-3H3



     GEOMETRY OPTIMISED USING EIGENVECTOR FOLLOWING (EF).     
     SCF FIELD WAS ACHIEVED                                   


                              PM3 CALCULATION
                                                       MOPAC v23.1.2 MacOS
                                                       Tue Jun  3 16:39:43 2025




          FINAL HEAT OF FORMATION =         19.54805 KCAL/MOL =      81.78904 KJ/MOL


          COSMO AREA              =        234.97 SQUARE ANGSTROMS
          COSMO VOLUME            =        256.26 CUBIC ANGSTROMS

          GRADIENT NORM           =          0.04831          =       0.00854 PER ATOM
          IONIZATION POTENTIAL    =          9.799030 EV
          HOMO LUMO ENERGIES (EV) =         -9.799  1.071
          NO. OF FILLED LEVELS    =         34
          MOLECULAR WEIGHT        =        164.2900         POINT GROUP:  C1  

          MOLECULAR DIMENSIONS (Angstroms)

            Atom       Atom       Distance
            H    27    H    26     9.21387
            H    32    H    20     7.46060
            H    30    H    18     4.38330


          SCF CALCULATIONS        =        127

          WALL-CLOCK TIME         =      1.363 SECONDS
          COMPUTATION TIME        =      1.034 SECONDS




   ATOM   CHEMICAL          X               Y               Z
  NUMBER   SYMBOL      (ANGSTROMS)     (ANGSTROMS)     (ANGSTROMS)

     1       C          0.21057187  *  -0.83787623  *  -0.42187634  *
     2       C          1.45232955  *   0.04938262  *  -0.11202677  *
     3       C         -1.13908292  *  -0.14360834  *  -0.26726581  *
     4       C          1.95604646  *  -0.16289610  *  -1.55954435  *
     5       C          0.70715615  *  -1.00245836  *  -1.87988716  *
     6       C          2.35033497  *  -0.49015238  *   0.98112213  *
     7       C         -2.26656669  *  -1.06675977  *  -0.74071550  *
     8       C          3.55570028  *   0.39504752  *   1.20527781  *
     9       C         -3.58290138  *  -0.33537407  *  -0.87393445  *
    10       C         -1.34808800  *   0.21812576  *   1.17347325  *
    11       C         -1.66071033  *   2.66899337  *   1.97925397  *
    12       C         -1.50469281  *   1.44784402  *   1.57455683  *
    13       H          1.18361905  *   1.10591794  *   0.10584501  *
    14       H          0.20860360  *  -1.79225826  *   0.14833788  *
    15       H         -1.14479977  *   0.78214962  *  -0.89487811  *
    16       H          1.76213555  *  -0.57887976  *   1.91635175  *
    17       H          2.67771721  *  -1.52023366  *   0.73446301  *
    18       H          2.05783088  *   0.75995756  *  -2.14942292  *
    19       H          2.91151260  *  -0.70503077  *  -1.63761564  *
    20       H          0.90982812  *  -2.04165166  *  -2.17825498  *
    21       H         -1.98538450  *  -1.51287151  *  -1.71625601  *
    22       H         -2.37328767  *  -1.91999474  *  -0.04127898  *
    23       H          0.04493913  *  -0.56816922  *  -2.64553519  *
    24       H          3.26397397  *   1.41176060  *   1.50037432  *
    25       H          4.16474689  *   0.48136604  *   0.29520906  *
    26       H          4.20144237  *  -0.00458934  *   1.99739660  *
    27       H         -4.38529492  *  -1.01522873  *  -1.18725115  *
    28       H         -3.52585459  *   0.47081838  *  -1.61752883  *
    29       H         -3.88779522  *   0.12046644  *   0.07776165  *
    30       H         -1.36151367  *  -0.60427948  *   1.89990255  *
    31       H         -0.82200162  *   3.29507338  *   2.27114013  *
    32       H         -2.63874463  *   3.13682766  *   2.05060863  *

                             CARTESIAN COORDINATES

   1    C        0.210571866    -0.837876227    -0.421876337
   2    C        1.452329545     0.049382621    -0.112026775
   3    C       -1.139082920    -0.143608339    -0.267265806
   4    C        1.956046459    -0.162896096    -1.559544346
   5    C        0.707156152    -1.002458357    -1.879887163
   6    C        2.350334973    -0.490152383     0.981122134
   7    C       -2.266566685    -1.066759774    -0.740715497
   8    C        3.555700282     0.395047521     1.205277807
   9    C       -3.582901383    -0.335374072    -0.873934454
  10    C       -1.348088000     0.218125755     1.173473252
  11    C       -1.660710329     2.668993365     1.979253968
  12    C       -1.504692811     1.447844022     1.574556828
  13    H        1.183619049     1.105917942     0.105845013
  14    H        0.208603602    -1.792258256     0.148337883
  15    H       -1.144799765     0.782149624    -0.894878110
  16    H        1.762135549    -0.578879755     1.916351752
  17    H        2.677717206    -1.520233658     0.734463006
  18    H        2.057830878     0.759957559    -2.149422918
  19    H        2.911512597    -0.705030771    -1.637615644
  20    H        0.909828118    -2.041651659    -2.178254983
  21    H       -1.985384504    -1.512871515    -1.716256015
  22    H       -2.373287673    -1.919994742    -0.041278983
  23    H        0.044939125    -0.568169221    -2.645535195
  24    H        3.263973969     1.411760595     1.500374325
  25    H        4.164746887     0.481366039     0.295209059
  26    H        4.201442372    -0.004589338     1.997396603
  27    H       -4.385294916    -1.015228726    -1.187251148
  28    H       -3.525854587     0.470818378    -1.617528829
  29    H       -3.887795217     0.120466442     0.077761645
  30    H       -1.361513674    -0.604279484     1.899902551
  31    H       -0.822001623     3.295073380     2.271140130
  32    H       -2.638744628     3.136827661     2.050608631


           Empirical Formula: C12 H20  =    32 atoms



      MOLECULAR POINT GROUP   :   C1  


                  EIGENVALUES  
 -42.21474 -36.97890 -33.22518 -32.55187 -28.82390 -25.56457 -25.19934 -22.82590
 -21.70787 -19.99808 -19.06402 -17.86741 -16.83945 -16.49794 -16.09724 -15.50162
 -15.21799 -15.04898 -14.70630 -14.23142 -13.84539 -13.72699 -13.58049 -13.05186
 -12.59179 -12.39560 -12.14866 -12.03580 -11.70473 -11.44452 -11.22825 -11.16587
 -10.19673  -9.79903   1.07090   1.13387   2.98577   3.15631   3.41506   3.54493
   3.65689   3.75332   3.77167   3.86845   3.92750   4.00778   4.04024   4.09473
   4.16354   4.21320   4.26773   4.34305   4.42346   4.44621   4.51958   4.55645
   4.71720   4.78460   4.86084   4.93044   4.96653   5.00590   5.07269   5.10002
   5.31473   5.53306   5.67048   6.55474


              NET ATOMIC CHARGES AND DIPOLE CONTRIBUTIONS

  ATOM NO.   TYPE          CHARGE      No. of ELECS.   s-Pop       p-Pop       
    1          C          -0.093465        4.0935     1.19721     2.89625
    2          C          -0.094349        4.0943     1.19415     2.90019
    3          C          -0.025933        4.0259     1.16618     2.85975
    4          C          -0.109609        4.1096     1.17339     2.93622
    5          C          -0.109154        4.1092     1.17368     2.93547
    6          C          -0.089112        4.0891     1.15716     2.93195
    7          C          -0.097361        4.0974     1.16151     2.93585
    8          C          -0.109342        4.1093     1.13800     2.97134
    9          C          -0.112784        4.1128     1.13850     2.97428
   10          C          -0.080027        4.0800     1.16456     2.91547
   11          C          -0.095075        4.0951     1.14669     2.94838
   12          C          -0.181931        4.1819     1.21460     2.96733
   13          H           0.080107        0.9199     0.91989
   14          H           0.075502        0.9245     0.92450
   15          H           0.074273        0.9257     0.92573
   16          H           0.051305        0.9487     0.94869
   17          H           0.050315        0.9497     0.94968
   18          H           0.055079        0.9449     0.94492
   19          H           0.059719        0.9403     0.94028
   20          H           0.054961        0.9450     0.94504
   21          H           0.052732        0.9473     0.94727
   22          H           0.050584        0.9494     0.94942
   23          H           0.060143        0.9399     0.93986
   24          H           0.038223        0.9618     0.96178
   25          H           0.038782        0.9612     0.96122
   26          H           0.036632        0.9634     0.96337
   27          H           0.037124        0.9629     0.96288
   28          H           0.038362        0.9616     0.96164
   29          H           0.043664        0.9563     0.95634
   30          H           0.112943        0.8871     0.88706
   31          H           0.093814        0.9062     0.90619
   32          H           0.093874        0.9061     0.90613
 DIPOLE           X         Y         Z       TOTAL
 POINT-CHG.     0.033    -0.061    -0.114     0.134
 HYBRID        -0.013     0.026     0.063     0.069
 SUM            0.020    -0.035    -0.051     0.065


          ATOMIC ORBITAL ELECTRON POPULATIONS

     Atom    s        px        py        pz   
    1  C   1.19721   0.93679   0.98967   0.96979
    2  C   1.19415   0.95483   0.99892   0.94645
    3  C   1.16618   0.94013   0.98601   0.93362
    4  C   1.17339   0.97261   0.99943   0.96418
    5  C   1.17368   0.97688   0.99934   0.95925
    6  C   1.15716   0.96430   0.98537   0.98228
    7  C   1.16151   0.94859   0.97537   1.01190
    8  C   1.13800   0.97346   0.99116   1.00672
    9  C   1.13850   0.96365   0.99719   1.01344
   10  C   1.16456   1.02318   0.92659   0.96570
   11  C   1.14669   1.00466   0.92560   1.01813
   12  C   1.21460   1.00797   0.96965   0.98971
   13  H   0.91989
   14  H   0.92450
   15  H   0.92573
   16  H   0.94869
   17  H   0.94968
   18  H   0.94492
   19  H   0.94028
   20  H   0.94504
   21  H   0.94727
   22  H   0.94942
   23  H   0.93986
   24  H   0.96178
   25  H   0.96122
   26  H   0.96337
   27  H   0.96288
   28  H   0.96164
   29  H   0.95634
   30  H   0.88706
   31  H   0.90619
   32  H   0.90613
 *******************************************************************************
 **                                                                           **
 **                              MOPAC v23.1.2                                **
 **                                                                           **
 *******************************************************************************
 **          Digital Object Identifier (DOI): 10.5281/zenodo.6511958          **
 **    Visit the DOI location for information on how to cite this program.    **
 *******************************************************************************

                              PM3 CALCULATION RESULTS

 *******************************************************************************
 *  CALCULATION DONE: (MAX THREADS = 1)              Tue Jun  3 16:39:43 2025  *
 *  PM3        - The PM3 Hamiltonian to be used
 *  OLDGEO     - PREVIOUS GEOMETRY TO BE USED
 *  PRECISE    - TIGHTER CRITERIA TO BE USED
 *  NOSYM      - POINT-GROUP SYMMETRY SET TO C1
 *  THREADS=1  - MULTI-THREADING NOT USED
 *  T=         - A TIME OF 172800.0 SECONDS REQUESTED
 *  DUMP=N     - RESTART FILE WRITTEN EVERY 7200.0 SECONDS REQUESTED
 *  THERMO     - THERMODYNAMIC QUANTITIES TO BE CALCULATED
 *******************************************************************************
oldgeo thermo nosym precise THREADS=1  pm3
 InChI=1S/C12H20/c1-4-7-10(5-2)12-9-8-11(12)6-3/h7,10-12H,1,5-6,8-9H2,2-3H3

   ATOM   CHEMICAL          X               Y               Z
  NUMBER   SYMBOL      (ANGSTROMS)     (ANGSTROMS)     (ANGSTROMS)

     1       C          0.21057187  *  -0.83787623  *  -0.42187634  *
     2       C          1.45232955  *   0.04938262  *  -0.11202677  *
     3       C         -1.13908292  *  -0.14360834  *  -0.26726581  *
     4       C          1.95604646  *  -0.16289610  *  -1.55954435  *
     5       C          0.70715615  *  -1.00245836  *  -1.87988716  *
     6       C          2.35033497  *  -0.49015238  *   0.98112213  *
     7       C         -2.26656669  *  -1.06675977  *  -0.74071550  *
     8       C          3.55570028  *   0.39504752  *   1.20527781  *
     9       C         -3.58290138  *  -0.33537407  *  -0.87393445  *
    10       C         -1.34808800  *   0.21812576  *   1.17347325  *
    11       C         -1.66071033  *   2.66899337  *   1.97925397  *
    12       C         -1.50469281  *   1.44784402  *   1.57455683  *
    13       H          1.18361905  *   1.10591794  *   0.10584501  *
    14       H          0.20860360  *  -1.79225826  *   0.14833788  *
    15       H         -1.14479977  *   0.78214962  *  -0.89487811  *
    16       H          1.76213555  *  -0.57887976  *   1.91635175  *
    17       H          2.67771721  *  -1.52023366  *   0.73446301  *
    18       H          2.05783088  *   0.75995756  *  -2.14942292  *
    19       H          2.91151260  *  -0.70503077  *  -1.63761564  *
    20       H          0.90982812  *  -2.04165166  *  -2.17825498  *
    21       H         -1.98538450  *  -1.51287151  *  -1.71625601  *
    22       H         -2.37328767  *  -1.91999474  *  -0.04127898  *
    23       H          0.04493913  *  -0.56816922  *  -2.64553519  *
    24       H          3.26397397  *   1.41176060  *   1.50037432  *
    25       H          4.16474689  *   0.48136604  *   0.29520906  *
    26       H          4.20144237  *  -0.00458934  *   1.99739660  *
    27       H         -4.38529492  *  -1.01522873  *  -1.18725115  *
    28       H         -3.52585459  *   0.47081838  *  -1.61752883  *
    29       H         -3.88779522  *   0.12046644  *   0.07776165  *
    30       H         -1.36151367  *  -0.60427948  *   1.89990255  *
    31       H         -0.82200162  *   3.29507338  *   2.27114013  *
    32       H         -2.63874463  *   3.13682766  *   2.05060863  *



          CARTESIAN COORDINATES 

    NO.       ATOM           X           Y           Z

     1         C          0.2106     -0.8379     -0.4219
     2         C          1.4523      0.0494     -0.1120
     3         C         -1.1391     -0.1436     -0.2673
     4         C          1.9560     -0.1629     -1.5595
     5         C          0.7072     -1.0025     -1.8799
     6         C          2.3503     -0.4902      0.9811
     7         C         -2.2666     -1.0668     -0.7407
     8         C          3.5557      0.3950      1.2053
     9         C         -3.5829     -0.3354     -0.8739
    10         C         -1.3481      0.2181      1.1735
    11         C         -1.6607      2.6690      1.9793
    12         C         -1.5047      1.4478      1.5746
    13         H          1.1836      1.1059      0.1058
    14         H          0.2086     -1.7923      0.1483
    15         H         -1.1448      0.7821     -0.8949
    16         H          1.7621     -0.5789      1.9164
    17         H          2.6777     -1.5202      0.7345
    18         H          2.0578      0.7600     -2.1494
    19         H          2.9115     -0.7050     -1.6376
    20         H          0.9098     -2.0417     -2.1783
    21         H         -1.9854     -1.5129     -1.7163
    22         H         -2.3733     -1.9200     -0.0413
    23         H          0.0449     -0.5682     -2.6455
    24         H          3.2640      1.4118      1.5004
    25         H          4.1647      0.4814      0.2952
    26         H          4.2014     -0.0046      1.9974
    27         H         -4.3853     -1.0152     -1.1873
    28         H         -3.5259      0.4708     -1.6175
    29         H         -3.8878      0.1205      0.0778
    30         H         -1.3615     -0.6043      1.8999
    31         H         -0.8220      3.2951      2.2711
    32         H         -2.6387      3.1368      2.0506

  H: (PM3): J. J. P. STEWART, J. COMP. CHEM. 10, 209 (1989).
  C: (PM3): J. J. P. STEWART, J. COMP. CHEM. 10, 209 (1989).

           Empirical Formula: C12 H20  =    32 atoms



      MOLECULAR POINT GROUP   :   C1  


      RHF CALCULATION, NO. OF DOUBLY OCCUPIED LEVELS = 34



          HEAT OF FORMATION =      19.548051 KCALS/MOLE


          CARTESIAN COORDINATE DERIVATIVES

   NUMBER  ATOM         X            Y            Z

     1       C     -0.005881    -0.001692     0.004486
     2       C     -0.003612     0.004701    -0.000179
     3       C     -0.007181    -0.003459     0.004388
     4       C     -0.001916     0.002263     0.001687
     5       C     -0.002080    -0.002671     0.001501
     6       C     -0.000589    -0.000358    -0.001570
     7       C     -0.004171    -0.001554     0.003492
     8       C     -0.003870     0.005232    -0.003468
     9       C      0.000994    -0.000652     0.003146
    10       C     -0.007054     0.003952     0.005154
    11       C      0.004945    -0.003520    -0.003110
    12       C     -0.015856     0.003531     0.005766
    13       H     -0.005081     0.002627    -0.003258
    14       H     -0.000687    -0.000747     0.003431
    15       H     -0.007756    -0.002292     0.003999
    16       H      0.000308    -0.006638    -0.002252
    17       H      0.008287    -0.006003    -0.004299
    18       H      0.014572    -0.004333     0.000298
    19       H     -0.004630     0.002146     0.001542
    20       H      0.007328    -0.005528    -0.004166
    21       H      0.005885    -0.000821    -0.000831
    22       H      0.002542    -0.004830     0.001059
    23       H      0.003838     0.007398    -0.000005
    24       H     -0.003789     0.006423    -0.001807
    25       H      0.002862     0.000086    -0.003135
    26       H     -0.006242     0.009235    -0.001170
    27       H      0.004066     0.005399    -0.004658
    28       H      0.005104    -0.000301    -0.000833
    29       H      0.005165    -0.001045    -0.002542
    30       H     -0.005944     0.006290     0.004739
    31       H      0.013051    -0.011712    -0.002692
    32       H      0.007392    -0.001127    -0.004714



          GRADIENT NORM =   0.04864

          MOLECULAR WEIGHT =  164.29



          ROTATIONAL CONSTANTS IN CM(-1)

          A =    0.03708401   B =    0.02062552   C =    0.01477484



           PRINCIPAL MOMENTS OF INERTIA IN UNITS OF 10**(-40)*GRAM-CM**2

          A =      754.8469   B =     1357.1904   C =     1894.6230


          ORIENTATION OF MOLECULE IN FORCE CALCULATION

    NO.       ATOM         X         Y         Z

     1          C      -0.3680   -0.9641   -0.2308
     2          C       1.1893   -0.9641   -0.2308
     3          C      -1.0179    0.4162   -0.2308
     4          C       1.1820   -1.7290   -1.5758
     5          C      -0.3559   -1.6901   -1.5991
     6          C       1.8154   -1.6963    0.9372
     7          C      -2.5371    0.2860   -0.3815
     8          C       3.3255   -1.6936    0.8570
     9          C      -3.1965    1.6156   -0.6691
    10          C      -0.6918    1.1174    1.0546
    11          C       0.6156    3.3617    1.1423
    12          C      -0.0363    2.2427    1.0955
    13          H       1.6203    0.0574   -0.3122
    14          H      -0.7999   -1.5817    0.5865
    15          H      -0.6199    1.0045   -1.0948
    16          H       1.4819   -1.2180    1.8798
    17          H       1.4405   -2.7387    0.9814
    18          H       1.6716   -1.1999   -2.4067
    19          H       1.6194   -2.7387   -1.5313
    20          H      -0.8458   -2.6750   -1.5974
    21          H      -2.7611   -0.4281   -1.1998
    22          H      -2.9691   -0.1639    0.5347
    23          H      -0.7889   -1.1137   -2.4320
    24          H       3.7309   -0.6730    0.8617
    25          H       3.6792   -2.1811   -0.0616
    26          H       3.7703   -2.2279    1.7060
    27          H      -4.2860    1.5102   -0.7472
    28          H      -2.8396    2.0501   -1.6125
    29          H      -2.9906    2.3466    0.1245
    30          H      -1.0265    0.6407    1.9846
    31          H       1.6991    3.3994    1.2138
    32          H       0.1165    4.3263    1.1133


    FIRST DERIVATIVES WILL BE USED IN THE CALCULATION OF SECOND DERIVATIVES

          ESTIMATED TIME TO COMPLETE CALCULATION =        4.50 SECONDS

    FOR POINT-GROUP C1   THERE ARE   1 UNIQUE SYMMETRY FUNCTIONS.

 STEP:   1 TIME =     0.04 SECS, INTEGRAL =      0.04 TIME LEFT: 172799.95
 STEP:   2 TIME =     0.04 SECS, INTEGRAL =      0.07 TIME LEFT: 172799.91
 STEP:   3 TIME =     0.04 SECS, INTEGRAL =      0.11 TIME LEFT: 172799.88
 STEP:   4 TIME =     0.04 SECS, INTEGRAL =      0.15 TIME LEFT: 172799.84
 STEP:   5 TIME =     0.04 SECS, INTEGRAL =      0.18 TIME LEFT: 172799.80
 STEP:   6 TIME =     0.04 SECS, INTEGRAL =      0.22 TIME LEFT: 172799.77
 STEP:   7 TIME =     0.04 SECS, INTEGRAL =      0.26 TIME LEFT: 172799.73
 STEP:   8 TIME =     0.04 SECS, INTEGRAL =      0.30 TIME LEFT: 172799.69
 STEP:   9 TIME =     0.04 SECS, INTEGRAL =      0.33 TIME LEFT: 172799.66
 STEP:  10 TIME =     0.04 SECS, INTEGRAL =      0.37 TIME LEFT: 172799.62
 STEP:  11 TIME =     0.04 SECS, INTEGRAL =      0.41 TIME LEFT: 172799.58
 STEP:  12 TIME =     0.04 SECS, INTEGRAL =      0.44 TIME LEFT: 172799.55
 STEP:  13 TIME =     0.04 SECS, INTEGRAL =      0.48 TIME LEFT: 172799.51
 STEP:  14 TIME =     0.04 SECS, INTEGRAL =      0.52 TIME LEFT: 172799.47
 STEP:  15 TIME =     0.04 SECS, INTEGRAL =      0.55 TIME LEFT: 172799.44
 STEP:  16 TIME =     0.04 SECS, INTEGRAL =      0.59 TIME LEFT: 172799.40
 STEP:  17 TIME =     0.04 SECS, INTEGRAL =      0.62 TIME LEFT: 172799.37
 STEP:  18 TIME =     0.04 SECS, INTEGRAL =      0.66 TIME LEFT: 172799.33
 STEP:  19 TIME =     0.04 SECS, INTEGRAL =      0.69 TIME LEFT: 172799.30
 STEP:  20 TIME =     0.04 SECS, INTEGRAL =      0.73 TIME LEFT: 172799.26
 STEP:  21 TIME =     0.04 SECS, INTEGRAL =      0.77 TIME LEFT: 172799.22
 STEP:  22 TIME =     0.04 SECS, INTEGRAL =      0.80 TIME LEFT: 172799.18
 STEP:  23 TIME =     0.04 SECS, INTEGRAL =      0.84 TIME LEFT: 172799.14
 STEP:  24 TIME =     0.04 SECS, INTEGRAL =      0.89 TIME LEFT: 172799.10
 STEP:  25 TIME =     0.04 SECS, INTEGRAL =      0.93 TIME LEFT: 172799.06
 STEP:  26 TIME =     0.04 SECS, INTEGRAL =      0.96 TIME LEFT: 172799.02
 STEP:  27 TIME =     0.04 SECS, INTEGRAL =      1.00 TIME LEFT: 172798.98
 STEP:  28 TIME =     0.04 SECS, INTEGRAL =      1.04 TIME LEFT: 172798.95
 STEP:  29 TIME =     0.04 SECS, INTEGRAL =      1.08 TIME LEFT: 172798.91
 STEP:  30 TIME =     0.04 SECS, INTEGRAL =      1.11 TIME LEFT: 172798.88
 STEP:  31 TIME =     0.04 SECS, INTEGRAL =      1.15 TIME LEFT: 172798.84
 STEP:  32 TIME =     0.04 SECS, INTEGRAL =      1.18 TIME LEFT: 172798.80
 STEP:  33 TIME =     0.04 SECS, INTEGRAL =      1.23 TIME LEFT: 172798.76
 STEP:  34 TIME =     0.04 SECS, INTEGRAL =      1.27 TIME LEFT: 172798.72
 STEP:  35 TIME =     0.04 SECS, INTEGRAL =      1.30 TIME LEFT: 172798.68
 STEP:  36 TIME =     0.04 SECS, INTEGRAL =      1.34 TIME LEFT: 172798.64
 STEP:  37 TIME =     0.04 SECS, INTEGRAL =      1.38 TIME LEFT: 172798.61
 STEP:  38 TIME =     0.04 SECS, INTEGRAL =      1.41 TIME LEFT: 172798.57
 STEP:  39 TIME =     0.04 SECS, INTEGRAL =      1.45 TIME LEFT: 172798.54
 STEP:  40 TIME =     0.04 SECS, INTEGRAL =      1.49 TIME LEFT: 172798.50
 STEP:  41 TIME =     0.04 SECS, INTEGRAL =      1.53 TIME LEFT: 172798.46
 STEP:  42 TIME =     0.04 SECS, INTEGRAL =      1.56 TIME LEFT: 172798.43
 STEP:  43 TIME =     0.04 SECS, INTEGRAL =      1.60 TIME LEFT: 172798.39
 STEP:  44 TIME =     0.04 SECS, INTEGRAL =      1.63 TIME LEFT: 172798.36
 STEP:  45 TIME =     0.04 SECS, INTEGRAL =      1.67 TIME LEFT: 172798.32
 STEP:  46 TIME =     0.04 SECS, INTEGRAL =      1.70 TIME LEFT: 172798.29
 STEP:  47 TIME =     0.04 SECS, INTEGRAL =      1.74 TIME LEFT: 172798.25
 STEP:  48 TIME =     0.04 SECS, INTEGRAL =      1.77 TIME LEFT: 172798.21
 STEP:  49 TIME =     0.04 SECS, INTEGRAL =      1.81 TIME LEFT: 172798.18
 STEP:  50 TIME =     0.04 SECS, INTEGRAL =      1.84 TIME LEFT: 172798.14
 STEP:  51 TIME =     0.04 SECS, INTEGRAL =      1.89 TIME LEFT: 172798.10
 STEP:  52 TIME =     0.04 SECS, INTEGRAL =      1.93 TIME LEFT: 172798.06
 STEP:  53 TIME =     0.04 SECS, INTEGRAL =      1.96 TIME LEFT: 172798.03
 STEP:  54 TIME =     0.04 SECS, INTEGRAL =      2.00 TIME LEFT: 172797.99
 STEP:  55 TIME =     0.04 SECS, INTEGRAL =      2.03 TIME LEFT: 172797.96
 STEP:  56 TIME =     0.04 SECS, INTEGRAL =      2.07 TIME LEFT: 172797.92
 STEP:  57 TIME =     0.04 SECS, INTEGRAL =      2.11 TIME LEFT: 172797.88
 STEP:  58 TIME =     0.04 SECS, INTEGRAL =      2.15 TIME LEFT: 172797.84
 STEP:  59 TIME =     0.04 SECS, INTEGRAL =      2.18 TIME LEFT: 172797.80
 STEP:  60 TIME =     0.04 SECS, INTEGRAL =      2.22 TIME LEFT: 172797.77
 STEP:  61 TIME =     0.04 SECS, INTEGRAL =      2.26 TIME LEFT: 172797.73
 STEP:  62 TIME =     0.04 SECS, INTEGRAL =      2.30 TIME LEFT: 172797.69
 STEP:  63 TIME =     0.04 SECS, INTEGRAL =      2.33 TIME LEFT: 172797.66
 STEP:  64 TIME =     0.04 SECS, INTEGRAL =      2.37 TIME LEFT: 172797.62
 STEP:  65 TIME =     0.04 SECS, INTEGRAL =      2.41 TIME LEFT: 172797.58
 STEP:  66 TIME =     0.04 SECS, INTEGRAL =      2.45 TIME LEFT: 172797.54
 STEP:  67 TIME =     0.04 SECS, INTEGRAL =      2.48 TIME LEFT: 172797.51
 STEP:  68 TIME =     0.04 SECS, INTEGRAL =      2.52 TIME LEFT: 172797.47
 STEP:  69 TIME =     0.04 SECS, INTEGRAL =      2.56 TIME LEFT: 172797.43
 STEP:  70 TIME =     0.04 SECS, INTEGRAL =      2.60 TIME LEFT: 172797.39
 STEP:  71 TIME =     0.04 SECS, INTEGRAL =      2.63 TIME LEFT: 172797.36
 STEP:  72 TIME =     0.04 SECS, INTEGRAL =      2.68 TIME LEFT: 172797.31
 STEP:  73 TIME =     0.04 SECS, INTEGRAL =      2.71 TIME LEFT: 172797.27
 STEP:  74 TIME =     0.04 SECS, INTEGRAL =      2.75 TIME LEFT: 172797.24
 STEP:  75 TIME =     0.04 SECS, INTEGRAL =      2.79 TIME LEFT: 172797.20
 STEP:  76 TIME =     0.04 SECS, INTEGRAL =      2.82 TIME LEFT: 172797.16
 STEP:  77 TIME =     0.04 SECS, INTEGRAL =      2.86 TIME LEFT: 172797.13
 STEP:  78 TIME =     0.04 SECS, INTEGRAL =      2.89 TIME LEFT: 172797.09
 STEP:  79 TIME =     0.03 SECS, INTEGRAL =      2.93 TIME LEFT: 172797.06
 STEP:  80 TIME =     0.04 SECS, INTEGRAL =      2.96 TIME LEFT: 172797.02
 STEP:  81 TIME =     0.04 SECS, INTEGRAL =      3.00 TIME LEFT: 172796.98
 STEP:  82 TIME =     0.04 SECS, INTEGRAL =      3.04 TIME LEFT: 172796.95
 STEP:  83 TIME =     0.04 SECS, INTEGRAL =      3.07 TIME LEFT: 172796.91
 STEP:  84 TIME =     0.04 SECS, INTEGRAL =      3.11 TIME LEFT: 172796.88
 STEP:  85 TIME =     0.04 SECS, INTEGRAL =      3.15 TIME LEFT: 172796.84
 STEP:  86 TIME =     0.04 SECS, INTEGRAL =      3.19 TIME LEFT: 172796.80
 STEP:  87 TIME =     0.04 SECS, INTEGRAL =      3.22 TIME LEFT: 172796.77
 STEP:  88 TIME =     0.04 SECS, INTEGRAL =      3.26 TIME LEFT: 172796.73
 STEP:  89 TIME =     0.04 SECS, INTEGRAL =      3.30 TIME LEFT: 172796.69
 STEP:  90 TIME =     0.04 SECS, INTEGRAL =      3.34 TIME LEFT: 172796.65
 STEP:  91 TIME =     0.04 SECS, INTEGRAL =      3.37 TIME LEFT: 172796.62
 STEP:  92 TIME =     0.04 SECS, INTEGRAL =      3.41 TIME LEFT: 172796.58
 STEP:  93 TIME =     0.05 SECS, INTEGRAL =      3.46 TIME LEFT: 172796.53
 STEP:  94 TIME =     0.04 SECS, INTEGRAL =      3.50 TIME LEFT: 172796.49
 STEP:  95 TIME =     0.04 SECS, INTEGRAL =      3.53 TIME LEFT: 172796.46
 STEP:  96 TIME =     0.04 SECS, INTEGRAL =      3.57 TIME LEFT: 172796.41

(To convert to Hartree/Bohr^2, multiply by (10^(-21) x N x a0^2)/(4.184 x 627.51) =  0.0642)


           FORCE MATRIX IN MILLIDYNES/ANGSTROM


                  C  1       C  2       C  3       C  4       C  5       C  6
 ------------------------------------------------------------------------------
     C    1  14.330408
     C    2   3.181547  14.449211
     C    3   3.928784   0.512181  14.520205
     C    4   1.811140   3.484298   0.041278  14.442868
     C    5   3.436647   1.819633   0.518708   3.775971  14.414326
     C    6   0.538592   4.324215   0.034280   0.536764   0.041526  14.499151
     C    7   0.642691   0.048456   3.773317   0.005371   0.044945   0.006153
     C    8   0.050005   0.660618   0.007039   0.031562   0.005700   4.469477
     C    9   0.053118   0.009088   0.631556   0.000885   0.002463   0.001531
     C   10   0.698985   0.041246   4.482434   0.005456   0.048435   0.005360
     C   11   0.012156   0.001112   0.069118   0.000530   0.002238   0.000639
     C   12   0.036079   0.014104   0.889110   0.000988   0.005840   0.002162
     H   13   0.437451   4.389384   0.033695   0.428904   0.026360   0.429827
     H   14   4.382822   0.437248   0.436032   0.026378   0.428493   0.037449
     H   15   0.430781   0.020278   4.196264   0.001579   0.025628   0.001017
     H   16   0.020214   0.433468   0.001618   0.047585   0.003018   4.448883
     H   17   0.021105   0.451150   0.001059   0.022988   0.001820   4.436668
     H   18   0.030769   0.442010   0.003633   4.706117   0.445705   0.033604
     H   19   0.029309   0.453620   0.001325   4.661265   0.445949   0.025485
     H   20   0.442176   0.031088   0.032605   0.444933   4.705012   0.003885
     H   21   0.048785   0.002116   0.439648   0.000877   0.017184   0.000537
     H   22   0.019722   0.000927   0.450869   0.000423   0.002250   0.000393
     H   23   0.452454   0.029635   0.025730   0.445321   4.654075   0.001843
     H   24   0.001739   0.023978   0.000528   0.002034   0.000422   0.464266
     H   25   0.001862   0.020304   0.000644   0.006636   0.000542   0.463779
     H   26   0.008539   0.052438   0.001452   0.002027   0.000783   0.451366
     H   27   0.009372   0.001759   0.051204   0.000175   0.000555   0.000384
     H   28   0.001691   0.000488   0.022429   0.000125   0.000309   0.000094
     H   29   0.001998   0.000529   0.022612   0.000176   0.000425   0.000116
     H   30   0.016923   0.003375   0.446521   0.000875   0.002303   0.002765
     H   31   0.010991   0.000964   0.082845   0.000318   0.002059   0.000549
     H   32   0.010528   0.000532   0.083074   0.000220   0.001874   0.000204


                  C  7       C  8       C  9       C 10       C 11       C 12
 ------------------------------------------------------------------------------
     C    7  14.281253
     C    8   0.001812  14.375861
     C    9   4.481356   0.000653  14.380152
     C   10   0.690592   0.001109   0.045885  18.254675
     C   11   0.012337   0.000530   0.000884   0.774478  18.146149
     C   12   0.035580   0.001189   0.014542  11.483538  11.862369  24.872298
     H   13   0.003005   0.031891   0.000866   0.006516   0.002235   0.009241
     H   14   0.028982   0.002736   0.001401   0.025085   0.000778   0.001817
     H   15   0.426477   0.000574   0.035986   0.440550   0.004627   0.047790
     H   16   0.000406   0.439424   0.000197   0.004060   0.000372   0.001358
     H   17   0.000445   0.437541   0.000108   0.000428   0.000120   0.000407
     H   18   0.000863   0.001618   0.000172   0.000684   0.000240   0.000481
     H   19   0.000455   0.008353   0.000233   0.000747   0.000157   0.000240
     H   20   0.002088   0.000799   0.000492   0.006868   0.000588   0.001199
     H   21   4.426423   0.000241   0.436415   0.047988   0.002175   0.005846
     H   22   4.443479   0.000172   0.438075   0.035688   0.001053   0.002870
     H   23   0.013024   0.000490   0.001017   0.002526   0.000281   0.000991
     H   24   0.000168   4.725883   0.000079   0.000232   0.000229   0.000408
     H   25   0.000182   4.714152   0.000065   0.000463   0.000159   0.000385
     H   26   0.000458   4.752593   0.000188   0.000332   0.000236   0.000426
     H   27   0.450030   0.000188   4.752722   0.002905   0.000376   0.000502
     H   28   0.463634   0.000064   4.722465   0.002520   0.000215   0.000962
     H   29   0.464753   0.000070   4.720449   0.009373   0.001355   0.007049
     H   30   0.017164   0.000612   0.003162   4.732586   0.043635   0.445212
     H   31   0.011075   0.000407   0.000517   0.047511   5.027496   0.478083
     H   32   0.011475   0.000170   0.000400   0.048178   5.028077   0.479145


                  H 13       H 14       H 15       H 16       H 17       H 18
 ------------------------------------------------------------------------------
     H   13   4.892305
     H   14   0.029679   4.893789
     H   15   0.019674   0.040539   4.674201
     H   16   0.025636   0.012096   0.000309   5.053677
     H   17   0.043142   0.019767   0.000472   0.567983   5.053098
     H   18   0.027128   0.001181   0.000780   0.005789   0.001724   5.327327
     H   19   0.031351   0.002586   0.000552   0.003373   0.023165   0.556899
     H   20   0.001169   0.027007   0.001519   0.000663   0.000851   0.033004
     H   21   0.000512   0.003307   0.021178   0.000168   0.000120   0.000310
     H   22   0.000479   0.015588   0.042394   0.000104   0.000130   0.000155
     H   23   0.002624   0.031794   0.023798   0.000593   0.000527   0.023468
     H   24   0.022177   0.000510   0.000170   0.024440   0.048352   0.000352
     H   25   0.002033   0.000466   0.000115   0.049140   0.024332   0.000910
     H   26   0.002053   0.000657   0.000124   0.028668   0.030432   0.000328
     H   27   0.000166   0.000448   0.002216   0.000052   0.000032   0.000036
     H   28   0.000186   0.000479   0.023497   0.000033   0.000042   0.000056
     H   29   0.000227   0.000439   0.002340   0.000062   0.000043   0.000066
     H   30   0.001392   0.012847   0.036804   0.003949   0.000299   0.000352
     H   31   0.000536   0.000231   0.000437   0.000227   0.000180   0.000150
     H   32   0.000426   0.000211   0.000408   0.000118   0.000062   0.000087


                  H 19       H 20       H 21       H 22       H 23       H 24
 ------------------------------------------------------------------------------
     H   19   5.291930
     H   20   0.022897   5.326291
     H   21   0.000361   0.002082   5.045083
     H   22   0.000095   0.000349   0.568195   5.065431
     H   23   0.033298   0.556575   0.024415   0.000494   5.285623
     H   24   0.000435   0.000192   0.000050   0.000047   0.000105   5.467938
     H   25   0.011423   0.000252   0.000053   0.000038   0.000275   0.576188
     H   26   0.000566   0.000124   0.000068   0.000050   0.000122   0.573566
     H   27   0.000043   0.000107   0.029251   0.031131   0.000177   0.000023
     H   28   0.000044   0.000129   0.026231   0.048323   0.000324   0.000016
     H   29   0.000084   0.000228   0.048654   0.023021   0.000309   0.000022
     H   30   0.000316   0.000596   0.002055   0.020015   0.000735   0.000163
     H   31   0.000085   0.000314   0.001938   0.000419   0.000187   0.000168
     H   32   0.000049   0.000323   0.002033   0.000378   0.000116   0.000088


                  H 25       H 26       H 27       H 28       H 29       H 30
 ------------------------------------------------------------------------------
     H   25   5.452701
     H   26   0.571851   5.489235
     H   27   0.000020   0.000054   5.487447
     H   28   0.000011   0.000019   0.573445   5.465334
     H   29   0.000021   0.000020   0.569034   0.577346   5.454077
     H   30   0.000307   0.000150   0.000561   0.000570   0.001331   5.118168
     H   31   0.000133   0.000148   0.000074   0.000167   0.000291   0.070586
     H   32   0.000056   0.000068   0.000227   0.000248   0.000428   0.070784


                  H 31       H 32
 ------------------------------
     H   31   5.403896
     H   32   0.406390   5.405032


          HEAT OF FORMATION =      19.548051 KCALS/MOLE

          ZERO POINT ENERGY     179.818 KCAL/MOL


           NORMAL COORDINATE ANALYSIS (Total motion = 1 Angstrom)


   Root No.       1         2         3         4         5         6         7         8

                 1 A       2 A       3 A       4 A       5 A       6 A       7 A       8 A   

                  14.5      42.1      64.5      76.6     102.9     134.8     161.0     178.7
  
           1   -0.0063    0.0006   -0.0013   -0.0056    0.0014    0.0083   -0.0036    0.0020
           2    0.0045    0.0003   -0.0052   -0.0081    0.0059    0.0124   -0.0062    0.0044
           3   -0.0010   -0.0098   -0.0139   -0.0013   -0.0154    0.0012   -0.0016   -0.0008
           4   -0.0063    0.0005   -0.0014   -0.0059    0.0009    0.0077   -0.0035    0.0023
           5    0.0156    0.0020   -0.0108   -0.0090    0.0001   -0.0073    0.0080   -0.0041
           6    0.0029    0.0090   -0.0123   -0.0038   -0.0102   -0.0094    0.0014    0.0046
           7   -0.0160   -0.0026    0.0054    0.0004   -0.0005    0.0082   -0.0028   -0.0011
           8    0.0001   -0.0012   -0.0023   -0.0054    0.0044    0.0135   -0.0054    0.0028
           9   -0.0045   -0.0024   -0.0130    0.0091   -0.0003   -0.0091   -0.0177    0.0008
          10    0.0026    0.0177   -0.0029   -0.0083    0.0021   -0.0108    0.0063    0.0023
          11    0.0145    0.0252   -0.0311    0.0043   -0.0217   -0.0131    0.0154   -0.0164
          12    0.0035   -0.0043   -0.0007   -0.0113    0.0021   -0.0065   -0.0024    0.0111
          13    0.0023    0.0177   -0.0025   -0.0086    0.0031   -0.0105    0.0047    0.0037
          14    0.0030    0.0181   -0.0111    0.0028    0.0141   -0.0026   -0.0272    0.0125
          15   -0.0001   -0.0191   -0.0106   -0.0071   -0.0197    0.0087    0.0103   -0.0055
          16   -0.0037   -0.0151   -0.0043   -0.0045   -0.0072   -0.0007   -0.0054    0.0059
          17    0.0212   -0.0191    0.0096   -0.0188    0.0230   -0.0200    0.0055   -0.0006
          18    0.0050    0.0043    0.0017   -0.0108    0.0081   -0.0120    0.0009    0.0050
          19   -0.0145   -0.0037    0.0051   -0.0017   -0.0023    0.0086   -0.0051   -0.0005
          20   -0.0104   -0.0081    0.0066    0.0042   -0.0037   -0.0101    0.0011   -0.0001
          21   -0.0086    0.0144   -0.0154    0.0228    0.0204   -0.0047    0.0006   -0.0066
          22   -0.0036   -0.0141   -0.0034   -0.0030   -0.0075    0.0005   -0.0056    0.0057
          23    0.0324   -0.0188    0.0342    0.0380   -0.0049   -0.0021   -0.0028   -0.0003
          24    0.0087    0.0249    0.0206    0.0202    0.0047    0.0133    0.0006   -0.0091
          25   -0.0239   -0.0155    0.0061    0.0121   -0.0108   -0.0234    0.0019   -0.0007
          26   -0.0134   -0.0096    0.0197    0.0012   -0.0143   -0.0260    0.0064    0.0022
          27   -0.0011    0.0350    0.0428   -0.0227   -0.0077   -0.0003    0.0080    0.0040
          28   -0.0220    0.0098    0.0068    0.0163    0.0141    0.0018    0.0082   -0.0139
          29    0.0032    0.0021   -0.0093   -0.0100   -0.0032    0.0255    0.0005    0.0036
          30   -0.0046   -0.0075   -0.0093    0.0076    0.0001   -0.0146   -0.0238    0.0037
          31    0.0689    0.0023   -0.0072    0.0011    0.0026    0.0106    0.0005    0.0001
          32   -0.0500    0.0075   -0.0017   -0.0006    0.0030    0.0189    0.0028   -0.0041
          33    0.0005   -0.0329    0.0039   -0.0035    0.0120    0.0303    0.0263   -0.0069
          34    0.0238    0.0061    0.0001    0.0087    0.0085    0.0064    0.0052   -0.0089
          35   -0.0236    0.0047   -0.0056   -0.0053   -0.0001    0.0225    0.0016    0.0007
          36   -0.0019   -0.0192   -0.0032    0.0024    0.0034   -0.0036   -0.0134    0.0031
          37   -0.0136    0.0007    0.0009   -0.0066    0.0040    0.0224   -0.0105    0.0065
          38    0.0188    0.0038   -0.0131   -0.0079   -0.0026   -0.0142    0.0116   -0.0066
          39    0.0033    0.0330   -0.0297    0.0053   -0.0288   -0.0126    0.0101   -0.0032
          40   -0.0040   -0.0082   -0.0032   -0.0060   -0.0004    0.0100   -0.0027   -0.0013
          41    0.0027   -0.0100   -0.0027   -0.0128   -0.0021    0.0238    0.0043    0.0003
          42   -0.0013   -0.0223   -0.0129   -0.0053   -0.0219    0.0113    0.0068   -0.0057
          43   -0.0179   -0.0144    0.0094   -0.0041   -0.0140    0.0025   -0.0088    0.0010
          44    0.0018   -0.0003   -0.0013   -0.0055    0.0105    0.0092   -0.0149    0.0066
          45   -0.0042   -0.0073   -0.0103    0.0068   -0.0021   -0.0139   -0.0263    0.0044
          46   -0.0095   -0.0274   -0.0238   -0.0403    0.0026   -0.0203   -0.0026    0.0131
          47    0.0194   -0.0355    0.0133   -0.0555    0.0561   -0.0406    0.0080   -0.0007
          48    0.0038    0.0084   -0.0069   -0.0048   -0.0051   -0.0085    0.0007    0.0073
          49    0.0039   -0.0164    0.0119    0.0309   -0.0242    0.0100   -0.0106    0.0057
          50    0.0184   -0.0196    0.0040   -0.0330    0.0304   -0.0250    0.0075   -0.0004
          51    0.0048   -0.0191    0.0069   -0.0462    0.0392   -0.0360    0.0017    0.0078
          52    0.0006    0.0232    0.0097   -0.0113    0.0278   -0.0162   -0.0173    0.0234
          53    0.0175    0.0425   -0.0512    0.0135   -0.0493   -0.0193    0.0366   -0.0361
          54    0.0042    0.0099   -0.0060   -0.0073   -0.0001   -0.0137   -0.0030    0.0111
          55    0.0100    0.0224   -0.0170   -0.0065   -0.0241   -0.0165    0.0369   -0.0194
          56    0.0178    0.0267   -0.0364    0.0046   -0.0320   -0.0156    0.0282   -0.0254
          57    0.0053   -0.0177    0.0184   -0.0228    0.0274   -0.0075   -0.0141    0.0269
          58    0.0097    0.0229   -0.0161   -0.0074   -0.0216   -0.0176    0.0347   -0.0167
          59   -0.0007    0.0155   -0.0043    0.0022    0.0264    0.0009   -0.0423    0.0228
          60   -0.0001   -0.0364   -0.0105   -0.0134   -0.0351    0.0250    0.0337   -0.0197
          61   -0.0071   -0.0082    0.0033   -0.0143   -0.0088    0.0187   -0.0209    0.0022
          62   -0.0066   -0.0020    0.0409   -0.0230   -0.0263   -0.0133   -0.0000    0.0061
          63   -0.0140    0.0104   -0.0448    0.0499    0.0418   -0.0049    0.0063   -0.0126
          64   -0.0135    0.0098    0.0066   -0.0014    0.0096    0.0206    0.0050   -0.0014
          65   -0.0199   -0.0191   -0.0310    0.0420    0.0188   -0.0205    0.0067   -0.0083
          66   -0.0128    0.0154   -0.0331    0.0415    0.0372   -0.0038    0.0083   -0.0110
          67   -0.0000    0.0222    0.0108   -0.0119    0.0294   -0.0143   -0.0216    0.0257
          68   -0.0013    0.0264   -0.0077    0.0088    0.0320   -0.0093   -0.0556    0.0283
          69   -0.0019   -0.0157   -0.0152   -0.0012   -0.0209    0.0061    0.0047   -0.0062
          70   -0.0111   -0.0135   -0.0202   -0.0395    0.0093   -0.0098   -0.0006    0.0104
          71    0.0354   -0.0192    0.0409    0.0523   -0.0114    0.0017   -0.0047   -0.0027
          72    0.0092    0.0476    0.0186    0.0639   -0.0376    0.0598   -0.0117    0.0940
          73    0.0024   -0.0019    0.0159    0.0328   -0.0177    0.0207   -0.0079   -0.0063
          74    0.0346   -0.0036    0.0336    0.0824   -0.0480    0.0368   -0.0156    0.0946
          75    0.0099    0.0215    0.0284    0.0106    0.0237    0.0005    0.0065   -0.0642
          76   -0.0017   -0.0260   -0.0051   -0.0012   -0.0146   -0.0087   -0.0083    0.0119
          77    0.0361   -0.0335    0.0476    0.0246    0.0222   -0.0306    0.0052   -0.0920
          78    0.0101    0.0219    0.0300    0.0109    0.0254    0.0003    0.0070   -0.0702
          79   -0.0225   -0.0156    0.0061    0.0095   -0.0122   -0.0194   -0.0085   -0.0084
          80   -0.0220   -0.0161    0.0239    0.0130   -0.0191   -0.0564    0.0331    0.0187
          81   -0.0092    0.0452    0.0373   -0.0026    0.0185   -0.0167    0.1188    0.0914
          82   -0.0214   -0.0281    0.0075    0.0041   -0.0317   -0.0225   -0.0778   -0.0657
          83   -0.0020    0.0026    0.0615   -0.0429   -0.0438   -0.0065   -0.0438   -0.0327
          84    0.0051    0.0358    0.0626   -0.0460   -0.0292    0.0091   -0.0451   -0.0365
          85   -0.0354   -0.0121    0.0060    0.0336    0.0043   -0.0557    0.0997    0.0735
          86   -0.0188   -0.0165   -0.0158    0.0315    0.0115   -0.0282    0.0346    0.0226
          87    0.0067    0.0405    0.0757   -0.0562   -0.0355    0.0099   -0.0430   -0.0338
          88   -0.0634    0.0228    0.0130    0.0349    0.0303   -0.0105    0.0160   -0.0284
          89    0.0273    0.0028   -0.0181   -0.0171   -0.0133    0.0333   -0.0021    0.0094
          90   -0.0072   -0.0025   -0.0116    0.0107    0.0009   -0.0146   -0.0217    0.0013
          91    0.0688    0.0031   -0.0073    0.0019    0.0032    0.0092   -0.0003   -0.0001
          92   -0.0941    0.0122    0.0050    0.0072    0.0083    0.0127    0.0050   -0.0130
          93    0.0251   -0.0471    0.0009   -0.0207    0.0007    0.0564    0.0370    0.0012
          94    0.1094   -0.0019   -0.0138   -0.0066   -0.0032    0.0162   -0.0030    0.0090
          95   -0.0297    0.0054   -0.0048   -0.0043    0.0006    0.0219    0.0017   -0.0001
          96   -0.0220   -0.0310    0.0134    0.0084    0.0307    0.0339    0.0505   -0.0237


   Root No.       9        10        11        12        13        14        15        16

                 9 A      10 A      11 A      12 A      13 A      14 A      15 A      16 A   

                 187.7     212.2     265.1     292.7     328.4     340.5     393.7     433.7
  
           1    0.0078   -0.0134    0.0061   -0.0056   -0.0058    0.0033    0.0103   -0.0074
           2    0.0066   -0.0112   -0.0060   -0.0155   -0.0076    0.0049    0.0243   -0.0181
           3    0.0038    0.0029   -0.0047    0.0068    0.0161   -0.0064    0.0069    0.0007
           4    0.0084   -0.0139    0.0093   -0.0132    0.0014    0.0017    0.0082   -0.0036
           5   -0.0047   -0.0193   -0.0009   -0.0027   -0.0031    0.0035    0.0269    0.0079
           6   -0.0065    0.0295   -0.0118   -0.0005    0.0042   -0.0037   -0.0010   -0.0125
           7    0.0039   -0.0048   -0.0122    0.0136   -0.0137    0.0006   -0.0150   -0.0231
           8    0.0045   -0.0047   -0.0149   -0.0127   -0.0125    0.0033    0.0040   -0.0175
           9    0.0066   -0.0053    0.0002    0.0125   -0.0015   -0.0000   -0.0053    0.0426
          10   -0.0061    0.0064    0.0068   -0.0119   -0.0232    0.0101    0.0012    0.0160
          11   -0.0018   -0.0048   -0.0077    0.0124    0.0122   -0.0069   -0.0061   -0.0103
          12   -0.0083    0.0216   -0.0081   -0.0098   -0.0053    0.0026    0.0182    0.0005
          13   -0.0057    0.0082    0.0069   -0.0123   -0.0222    0.0099    0.0023    0.0161
          14    0.0109    0.0158   -0.0017    0.0101    0.0288   -0.0095    0.0137   -0.0163
          15    0.0011   -0.0127   -0.0083   -0.0086    0.0008   -0.0005    0.0172   -0.0084
          16    0.0055    0.0082    0.0086   -0.0186    0.0284   -0.0088   -0.0114   -0.0006
          17   -0.0135   -0.0284    0.0032    0.0151    0.0119   -0.0049   -0.0082    0.0032
          18   -0.0098    0.0117   -0.0079    0.0099    0.0029   -0.0045   -0.0142   -0.0203
          19    0.0057   -0.0064   -0.0175    0.0209   -0.0143   -0.0023   -0.0118   -0.0218
          20   -0.0032    0.0011   -0.0048   -0.0307   -0.0056    0.0054   -0.0232   -0.0032
          21   -0.0092   -0.0009    0.0330   -0.0081   -0.0145    0.0112   -0.0030   -0.0166
          22    0.0066    0.0080    0.0098   -0.0215    0.0319   -0.0098   -0.0131   -0.0003
          23   -0.0014    0.0164   -0.0077    0.0080   -0.0128    0.0031    0.0012   -0.0038
          24    0.0126   -0.0282    0.0119   -0.0076    0.0248   -0.0075   -0.0081    0.0017
          25    0.0019   -0.0045    0.0252    0.0377   -0.0023   -0.0029    0.0231   -0.0104
          26   -0.0025    0.0024    0.0127   -0.0232    0.0039    0.0038   -0.0062    0.0079
          27    0.0036    0.0002    0.0076    0.0056   -0.0032    0.0015    0.0023   -0.0078
          28   -0.0185    0.0008   -0.0289    0.0005    0.0060   -0.0201   -0.0003    0.0064
          29    0.0070    0.0110    0.0166    0.0123   -0.0062    0.0112   -0.0050    0.0152
          30    0.0113   -0.0167   -0.0140    0.0028   -0.0148    0.0023   -0.0068    0.0251
          31    0.0011    0.0043    0.0031    0.0050   -0.0083   -0.0195   -0.0035    0.0118
          32   -0.0034    0.0081   -0.0034    0.0115    0.0005    0.0111   -0.0050    0.0208
          33   -0.0116    0.0157    0.0104    0.0049    0.0078   -0.0029    0.0016    0.0054
          34   -0.0115    0.0028   -0.0246    0.0049    0.0270    0.0640    0.0074    0.0140
          35    0.0031    0.0100    0.0140    0.0112   -0.0184   -0.0381   -0.0103    0.0169
          36    0.0090   -0.0159   -0.0187   -0.0048   -0.0236    0.0103   -0.0101   -0.0039
          37    0.0155   -0.0204    0.0073   -0.0207   -0.0072    0.0052    0.0204   -0.0193
          38   -0.0079   -0.0146   -0.0011    0.0015    0.0003    0.0019    0.0202    0.0135
          39   -0.0069    0.0434   -0.0179    0.0008   -0.0006   -0.0030   -0.0042   -0.0165
          40    0.0113   -0.0327    0.0152   -0.0069    0.0006    0.0033    0.0234    0.0074
          41    0.0061   -0.0189   -0.0130   -0.0240   -0.0141    0.0073    0.0287   -0.0408
          42    0.0054   -0.0142   -0.0054   -0.0008    0.0133   -0.0043    0.0185   -0.0092
          43    0.0090   -0.0041   -0.0254    0.0211   -0.0123   -0.0022   -0.0301   -0.0178
          44    0.0101   -0.0156   -0.0219   -0.0175   -0.0218    0.0056    0.0103   -0.0154
          45    0.0127   -0.0126   -0.0111    0.0116   -0.0081    0.0006   -0.0085    0.0449
          46   -0.0094    0.0153    0.0035   -0.0097    0.0343   -0.0125   -0.0237   -0.0092
          47   -0.0252   -0.0530    0.0077    0.0390    0.0286   -0.0147   -0.0472   -0.0085
          48   -0.0089    0.0261   -0.0119    0.0011   -0.0030   -0.0012    0.0008   -0.0174
          49    0.0138    0.0342    0.0046   -0.0263    0.0222   -0.0066   -0.0089   -0.0008
          50   -0.0171   -0.0378    0.0045    0.0191    0.0149   -0.0062   -0.0118    0.0019
          51   -0.0238    0.0007   -0.0065    0.0344    0.0203   -0.0153   -0.0586   -0.0354
          52   -0.0071    0.0351    0.0099   -0.0138   -0.0220    0.0122    0.0133    0.0243
          53   -0.0041   -0.0050   -0.0157    0.0251    0.0151   -0.0137   -0.0436   -0.0279
          54   -0.0104    0.0386   -0.0113   -0.0029   -0.0028   -0.0004    0.0023   -0.0056
          55   -0.0138   -0.0100    0.0021   -0.0103   -0.0375    0.0124   -0.0173    0.0197
          56   -0.0053   -0.0122   -0.0096    0.0130    0.0057   -0.0058   -0.0135   -0.0085
          57   -0.0129    0.0225   -0.0017   -0.0222   -0.0188    0.0125    0.0520    0.0249
          58   -0.0147   -0.0063    0.0030   -0.0130   -0.0383    0.0134   -0.0149    0.0231
          59    0.0154    0.0231    0.0002    0.0107    0.0371   -0.0113    0.0225   -0.0198
          60    0.0000   -0.0474   -0.0141   -0.0284   -0.0310    0.0108    0.0237   -0.0187
          61    0.0142   -0.0102   -0.0486    0.0342   -0.0113   -0.0096   -0.0109    0.0169
          62    0.0059    0.0010   -0.0239   -0.0168    0.0075   -0.0037   -0.0186    0.0296
          63   -0.0194    0.0002    0.0594   -0.0243   -0.0268    0.0214   -0.0069   -0.0567
          64    0.0019   -0.0052   -0.0127    0.0104   -0.0247    0.0017   -0.0150   -0.0654
          65   -0.0171    0.0031    0.0343   -0.0493   -0.0156    0.0169   -0.0255   -0.0368
          66   -0.0177    0.0007    0.0544   -0.0223   -0.0249    0.0191   -0.0064   -0.0553
          67   -0.0047    0.0365    0.0093   -0.0124   -0.0159    0.0098    0.0141    0.0236
          68    0.0176    0.0410    0.0044    0.0273    0.0612   -0.0204    0.0154   -0.0144
          69    0.0051   -0.0102   -0.0053    0.0029    0.0186   -0.0075    0.0120   -0.0105
          70   -0.0057   -0.0261    0.0184   -0.0169    0.0530   -0.0168   -0.0219    0.0058
          71    0.0041    0.0306   -0.0114    0.0063   -0.0216    0.0060    0.0048   -0.0065
          72   -0.0728   -0.0962    0.0247   -0.0048    0.0428   -0.0127   -0.0157    0.0096
          73    0.0275   -0.0014    0.0197   -0.0375    0.0407   -0.0095   -0.0063    0.0151
          74   -0.0799   -0.0216   -0.0053    0.0146   -0.0127    0.0024   -0.0034   -0.0069
          75    0.0626   -0.0118    0.0146   -0.0174    0.0287   -0.0071   -0.0032    0.0094
          76   -0.0004    0.0509   -0.0079   -0.0120    0.0037   -0.0034   -0.0116   -0.0211
          77    0.0812    0.0788   -0.0170   -0.0015   -0.0298    0.0093    0.0120   -0.0066
          78    0.0683   -0.0118    0.0156   -0.0188    0.0297   -0.0072   -0.0024    0.0111
          79   -0.0046   -0.0044    0.0259    0.0357   -0.0040   -0.0025    0.0206   -0.0126
          80    0.0090    0.0035    0.0437   -0.0037    0.0177    0.0018    0.0324    0.0231
          81    0.0799   -0.0031   -0.0388    0.0122    0.0022   -0.0021   -0.0063    0.0013
          82   -0.0562   -0.0014    0.0774    0.0397   -0.0024   -0.0001    0.0452   -0.0136
          83   -0.0296    0.0044    0.0048   -0.0224    0.0063   -0.0013   -0.0094    0.0070
          84   -0.0306    0.0022    0.0234    0.0065   -0.0022    0.0002    0.0088   -0.0095
          85    0.0648   -0.0062    0.0126    0.0570    0.0110   -0.0076    0.0443    0.0063
          86    0.0138    0.0005    0.0060   -0.0330   -0.0040    0.0091   -0.0205    0.0025
          87   -0.0274    0.0025    0.0174    0.0101    0.0006   -0.0022    0.0106   -0.0073
          88   -0.0424   -0.0012   -0.0628   -0.0231    0.0123   -0.1460    0.0323    0.0330
          89    0.0171    0.0212    0.0492    0.0377    0.0042    0.0818   -0.0221    0.0367
          90    0.0075   -0.0119   -0.0091    0.0073   -0.0071   -0.0069   -0.0038    0.0453
          91    0.0007    0.0032    0.0007    0.0025   -0.0106   -0.0331   -0.0012    0.0131
          92   -0.0155    0.0046   -0.0389    0.0119    0.0460    0.1337    0.0095    0.0280
          93    0.0012    0.0348    0.0673    0.0431    0.0123    0.1203   -0.0455   -0.0152
          94    0.0137    0.0071    0.0365    0.0072   -0.0508   -0.1208   -0.0209    0.0073
          95    0.0022    0.0099    0.0127    0.0118   -0.0203   -0.0440   -0.0122    0.0196
          96   -0.0424    0.0245   -0.0204   -0.0249    0.0315   -0.1410    0.0601    0.0338


   Root No.      17        18        19        20        21        22        23        24

                17 A      18 A      19 A      20 A      21 A      22 A      23 A      24 A   

                 493.5     503.7     593.1     599.2     755.6     821.7     824.0     847.8
  
           1   -0.0247   -0.0189    0.0114    0.0008    0.0219   -0.0002    0.0015   -0.0088
           2    0.0109   -0.0143   -0.0228    0.0247   -0.0061   -0.0015   -0.0013   -0.0018
           3   -0.0264    0.0039    0.0265   -0.0192   -0.0245    0.0004   -0.0004    0.0104
           4   -0.0217   -0.0199    0.0135    0.0031    0.0226   -0.0004    0.0026   -0.0093
           5   -0.0034    0.0329    0.0018   -0.0013    0.0306    0.0003    0.0021   -0.0116
           6    0.0099    0.0033   -0.0068    0.0050    0.0085    0.0009   -0.0014   -0.0011
           7   -0.0113    0.0158   -0.0073   -0.0136    0.0036    0.0005    0.0015   -0.0005
           8    0.0206   -0.0040   -0.0257    0.0090   -0.0234    0.0024   -0.0060    0.0027
           9   -0.0152   -0.0057   -0.0210    0.0063    0.0063   -0.0015    0.0013   -0.0001
          10   -0.0061   -0.0051    0.0048   -0.0053   -0.0235    0.0003   -0.0015    0.0088
          11    0.0019    0.0024   -0.0009    0.0013    0.0100   -0.0077    0.0134    0.0019
          12    0.0082    0.0253   -0.0061    0.0017    0.0049   -0.0016    0.0005   -0.0230
          13   -0.0057   -0.0046    0.0049   -0.0052   -0.0222    0.0011   -0.0026    0.0103
          14   -0.0166   -0.0020    0.0118   -0.0000   -0.0105   -0.0061    0.0075    0.0214
          15   -0.0170   -0.0028    0.0141   -0.0017   -0.0253    0.0011   -0.0046    0.0044
          16    0.0165    0.0046   -0.0060    0.0029    0.0016    0.0005   -0.0005    0.0012
          17    0.0007    0.0098    0.0010   -0.0052   -0.0009    0.0102   -0.0152    0.0139
          18   -0.0021   -0.0302   -0.0022    0.0108    0.0298    0.0066   -0.0071    0.0085
          19   -0.0096    0.0201   -0.0252   -0.0193    0.0014   -0.0025   -0.0005    0.0009
          20   -0.0215    0.0082   -0.0071   -0.0119    0.0026   -0.0054   -0.0027    0.0006
          21   -0.0003    0.0026   -0.0085   -0.0041    0.0010   -0.0232   -0.0143    0.0008
          22    0.0232    0.0068   -0.0109    0.0054    0.0022    0.0002   -0.0001    0.0008
          23   -0.0060   -0.0069    0.0018   -0.0001   -0.0013    0.0022   -0.0035    0.0048
          24    0.0083    0.0037   -0.0026    0.0009    0.0050    0.0019   -0.0019    0.0042
          25    0.0191    0.0003   -0.0100    0.0012   -0.0033   -0.0022   -0.0015    0.0011
          26   -0.0117   -0.0047    0.0076   -0.0012    0.0048   -0.0013   -0.0001   -0.0014
          27    0.0033    0.0017   -0.0028   -0.0024   -0.0010   -0.0060   -0.0039    0.0007
          28   -0.0060    0.0111    0.0242    0.0363   -0.0005   -0.0032   -0.0004   -0.0016
          29    0.0146   -0.0093   -0.0000   -0.0217    0.0018    0.0009   -0.0001    0.0012
          30   -0.0028   -0.0034   -0.0352    0.0115   -0.0035    0.0138    0.0054   -0.0027
          31    0.0074   -0.0022    0.0088   -0.0015    0.0021    0.0025    0.0013   -0.0001
          32    0.0120   -0.0034    0.0156    0.0016    0.0040    0.0025    0.0020   -0.0017
          33   -0.0066   -0.0004   -0.0071    0.0014    0.0003    0.0003    0.0003   -0.0001
          34    0.0095   -0.0096   -0.0020   -0.0100    0.0007    0.0018    0.0008   -0.0003
          35    0.0063    0.0016    0.0142    0.0070    0.0027    0.0015    0.0011   -0.0008
          36    0.0450   -0.0018    0.0707   -0.0116    0.0067   -0.0040   -0.0003    0.0002
          37   -0.0298   -0.0480    0.0075    0.0210    0.0386   -0.0016    0.0033   -0.0309
          38    0.0009    0.0443    0.0035   -0.0088    0.0231   -0.0005    0.0038   -0.0036
          39    0.0166    0.0063   -0.0116    0.0070    0.0183   -0.0132    0.0216   -0.0102
          40   -0.0486   -0.0209    0.0328   -0.0033    0.0552   -0.0008    0.0036   -0.0323
          41    0.0166   -0.0173   -0.0220    0.0269   -0.0384    0.0025   -0.0090   -0.0025
          42   -0.0346   -0.0005    0.0373   -0.0181   -0.0309    0.0027   -0.0050   -0.0022
          43   -0.0262    0.0294   -0.0179   -0.0408    0.0022    0.0172    0.0140    0.0038
          44    0.0296   -0.0135   -0.0621    0.0366   -0.0273    0.0136   -0.0075   -0.0069
          45   -0.0147   -0.0060   -0.0495    0.0122    0.0025    0.0147    0.0065   -0.0045
          46    0.0252   -0.0030   -0.0133    0.0072   -0.0183   -0.0309    0.0431   -0.0530
          47   -0.0049   -0.0357    0.0050   -0.0051   -0.0729   -0.0446    0.0599   -0.0539
          48    0.0036   -0.0102   -0.0066    0.0121    0.0573    0.0217   -0.0274    0.0215
          49    0.0239    0.0074   -0.0115    0.0052    0.0173    0.0305   -0.0436    0.0572
          50   -0.0018    0.0052    0.0026   -0.0055   -0.0108   -0.0044    0.0056   -0.0113
          51   -0.0004   -0.0786   -0.0038    0.0139   -0.0425   -0.0490    0.0693   -0.0549
          52   -0.0016    0.0177    0.0021   -0.0097   -0.0180   -0.0296    0.0506    0.0896
          53    0.0132   -0.0387   -0.0118    0.0098   -0.0309    0.0255   -0.0502   -0.0618
          54    0.0179    0.0140   -0.0145    0.0044   -0.0155    0.0002   -0.0059   -0.0126
          55    0.0071   -0.0142   -0.0057   -0.0036   -0.0459    0.0294   -0.0542   -0.0859
          56    0.0076   -0.0007   -0.0055    0.0020    0.0015    0.0049   -0.0094   -0.0413
          57    0.0084    0.0776   -0.0046   -0.0073    0.0485   -0.0338    0.0618    0.0050
          58    0.0120   -0.0081   -0.0131    0.0002   -0.0120   -0.0266    0.0478    0.0930
          59   -0.0262    0.0002    0.0219   -0.0037   -0.0175    0.0089   -0.0197   -0.0231
          60    0.0088   -0.0302   -0.0352    0.0397   -0.0026   -0.0263    0.0338    0.0759
          61   -0.0110    0.0149   -0.0479    0.0029   -0.0026   -0.0468   -0.0311    0.0008
          62   -0.0253    0.0017   -0.0063    0.0040    0.0117   -0.0859   -0.0496    0.0046
          63    0.0035    0.0093   -0.0023   -0.0246   -0.0060    0.0632    0.0373   -0.0029
          64   -0.0008    0.0304   -0.0245   -0.0364   -0.0093    0.0241    0.0121    0.0017
          65   -0.0216    0.0115    0.0053   -0.0320    0.0010    0.0964    0.0605   -0.0048
          66    0.0037    0.0099   -0.0026   -0.0236   -0.0051    0.0428    0.0249   -0.0015
          67   -0.0071    0.0147    0.0124   -0.0143   -0.0450    0.0278   -0.0548   -0.0831
          68   -0.0513    0.0139    0.0620   -0.0354   -0.0404    0.0244   -0.0371   -0.0491
          69   -0.0392   -0.0024    0.0430   -0.0205   -0.0340    0.0068   -0.0056    0.0089
          70    0.0327    0.0244   -0.0143    0.0005    0.0070    0.0376   -0.0556    0.0671
          71   -0.0102   -0.0145    0.0034    0.0020   -0.0033   -0.0138    0.0202   -0.0236
          72    0.0162    0.0162   -0.0047   -0.0039   -0.0251   -0.0125    0.0156   -0.0183
          73    0.0344    0.0326   -0.0144   -0.0017   -0.0546   -0.0400    0.0525   -0.0676
          74   -0.0090   -0.0171    0.0030    0.0021   -0.0051   -0.0152    0.0223   -0.0253
          75    0.0145    0.0194   -0.0047   -0.0031   -0.0164   -0.0057    0.0065   -0.0083
          76    0.0061   -0.0341   -0.0066    0.0186    0.0525    0.0007    0.0057   -0.0020
          77   -0.0109   -0.0131    0.0031    0.0027   -0.0013   -0.0142    0.0209   -0.0250
          78    0.0150    0.0223   -0.0044   -0.0043   -0.0224   -0.0087    0.0102   -0.0130
          79    0.0169    0.0022   -0.0122   -0.0011   -0.0025   -0.0065   -0.0038    0.0014
          80    0.0255   -0.0310    0.0317    0.0315   -0.0098    0.0188    0.0057   -0.0033
          81   -0.0051    0.0059   -0.0048   -0.0078    0.0002    0.0296    0.0194   -0.0010
          82    0.0413   -0.0128   -0.0009    0.0176   -0.0111   -0.0291   -0.0220    0.0026
          83   -0.0161   -0.0008    0.0103   -0.0068    0.0047    0.0715    0.0460   -0.0054
          84    0.0092   -0.0012    0.0019    0.0007   -0.0038    0.0198    0.0112   -0.0007
          85    0.0401   -0.0145    0.0038    0.0204   -0.0139    0.0345    0.0171   -0.0008
          86   -0.0251    0.0027   -0.0036   -0.0101    0.0123   -0.0685   -0.0396    0.0020
          87    0.0109   -0.0016    0.0042    0.0010   -0.0056    0.0496    0.0295   -0.0021
          88   -0.0068   -0.0079    0.0103    0.0540   -0.0276    0.0284    0.0066    0.0141
          89   -0.0149   -0.0033   -0.0386   -0.0210    0.0238   -0.0057    0.0042   -0.0116
          90   -0.0176   -0.0071   -0.0577    0.0177   -0.0017    0.0215    0.0100   -0.0036
          91    0.0115   -0.0057    0.0087   -0.0111    0.0042    0.0014    0.0013   -0.0007
          92    0.0276   -0.0207    0.0063   -0.0303    0.0056    0.0086    0.0038    0.0014
          93   -0.0774    0.0646    0.0083    0.1734   -0.0300    0.0153    0.0012    0.0053
          94   -0.0047    0.0162    0.0298    0.0369    0.0025    0.0003    0.0018   -0.0039
          95    0.0067    0.0039    0.0233    0.0162    0.0049    0.0015    0.0023   -0.0039
          96    0.0100   -0.0634   -0.1148   -0.1545    0.0183   -0.0054   -0.0001   -0.0063


   Root No.      25        26        27        28        29        30        31        32

                25 A      26 A      27 A      28 A      29 A      30 A      31 A      32 A   

                 879.0     909.7     936.6     946.0     974.7     983.4     991.3    1000.2
  
           1   -0.0002   -0.0120    0.0038    0.0114    0.0009   -0.0005   -0.0241   -0.0003
           2   -0.0060   -0.0081   -0.0034   -0.0059   -0.0034   -0.0006   -0.0029   -0.0006
           3    0.0034    0.0063    0.0001    0.0040   -0.0032    0.0004    0.0011   -0.0142
           4    0.0036   -0.0014    0.0014    0.0064   -0.0051    0.0015    0.0144   -0.0027
           5    0.0068    0.0124   -0.0028   -0.0082    0.0113   -0.0005   -0.0012   -0.0020
           6   -0.0027   -0.0080    0.0012    0.0020    0.0090   -0.0008   -0.0199   -0.0005
           7   -0.0079    0.0012    0.0178    0.0156    0.0113   -0.0056    0.0028    0.0047
           8    0.0043    0.0196    0.0052    0.0067   -0.0054   -0.0020   -0.0025   -0.0104
[...]
 FREQUENCY          2949.19         C  7 -- H 21         +52.1% ( 75.0%)     96.9%
 TRANSITION DIPOLE   0.0136         C  7 -- H 22         +44.9% ( 69.6%)     96.1%
 TRAVEL (Ang.)       0.2111         C  7 -- C  9          +1.2% ( 11.2%)      0.0%
 REDUCED MASS        0.5133         C  3 -- C  7          +1.1% ( 11.1%)      0.1%
 EFFECTIVE MASS      1.5429
 FORCE CONSTANT      2.6303

 VIBRATION         75   75A           ATOM PAIR      ENERGY CONTRIBUTION    RADIAL
 FREQUENCY          2951.83         C  6 -- H 17         +41.2% ( 66.4%)     96.7%
 TRANSITION DIPOLE   0.0419         C  6 -- H 16         +39.9% ( 65.3%)     96.4%
 TRAVEL (Ang.)       0.2463         C  2 -- H 13         +15.2% ( 40.3%)    100.0%
 REDUCED MASS        0.3766         C  2 -- C  6          +1.0% ( 10.6%)      2.3%
 EFFECTIVE MASS      1.5214
 FORCE CONSTANT      1.9331

 VIBRATION         76   76A           ATOM PAIR      ENERGY CONTRIBUTION    RADIAL
 FREQUENCY          3026.17         C  5 -- H 23         +26.7% ( 53.5%)     97.6%
 TRANSITION DIPOLE   0.0239         C  4 -- H 19         +20.5% ( 46.9%)     97.4%
 TRAVEL (Ang.)       0.3398         C  5 -- H 20         +18.3% ( 44.3%)     95.4%
 REDUCED MASS        0.1930         C  4 -- H 18         +15.1% ( 40.3%)     95.7%
 EFFECTIVE MASS      1.5025
 FORCE CONSTANT      1.0411

 VIBRATION         77   77A           ATOM PAIR      ENERGY CONTRIBUTION    RADIAL
 FREQUENCY          3027.98         C  7 -- H 22         +42.3% ( 64.6%)     98.0%
 TRANSITION DIPOLE   0.0487         C  7 -- H 21         +36.5% ( 60.0%)     97.3%
 TRAVEL (Ang.)       0.2614         C  4 -- H 19          +4.9% ( 21.9%)     97.6%
 REDUCED MASS        0.3260         C  4 -- H 18          +3.5% ( 18.6%)     95.6%
 EFFECTIVE MASS      1.3135
 FORCE CONSTANT      1.7608

 VIBRATION         78   78A           ATOM PAIR      ENERGY CONTRIBUTION    RADIAL
 FREQUENCY          3028.82         C  6 -- H 16         +46.8% ( 67.6%)     97.9%
 TRANSITION DIPOLE   0.0481         C  6 -- H 17         +44.2% ( 65.7%)     97.5%
 TRAVEL (Ang.)       0.2309         C  5 -- H 23          +2.1% ( 14.4%)     97.6%
 REDUCED MASS        0.4177         C  5 -- H 20          +1.5% ( 12.2%)     95.6%
 EFFECTIVE MASS      1.2908
 FORCE CONSTANT      2.2576

 VIBRATION         79   79A           ATOM PAIR      ENERGY CONTRIBUTION    RADIAL
 FREQUENCY          3033.01         C 10 -- H 30         +95.1% ( 98.8%)    100.0%
 TRANSITION DIPOLE   0.2938         C 10 -- C 12          +1.5% ( 12.5%)     41.4%
 TRAVEL (Ang.)       0.1581         C  3 -- C 10          +1.3% ( 11.6%)     14.4%
 REDUCED MASS        0.8892         C  7 -- H 22          +0.8% (  9.3%)     98.5%
 EFFECTIVE MASS      1.5128
 FORCE CONSTANT      4.8197

 VIBRATION         80   80A           ATOM PAIR      ENERGY CONTRIBUTION    RADIAL
 FREQUENCY          3041.16         C  4 -- H 19         +31.0% ( 57.8%)     97.8%
 TRANSITION DIPOLE   0.0937         C  5 -- H 23         +26.5% ( 53.4%)     98.0%
 TRAVEL (Ang.)       0.2885         C  4 -- H 18         +21.4% ( 48.0%)     95.7%
 REDUCED MASS        0.2664         C  5 -- H 20         +17.2% ( 43.0%)     95.5%
 EFFECTIVE MASS      1.5288
 FORCE CONSTANT      1.4517

 VIBRATION         81   81A           ATOM PAIR      ENERGY CONTRIBUTION    RADIAL
 FREQUENCY          3076.86         C  9 -- H 29         +51.4% ( 73.9%)     97.4%
 TRANSITION DIPOLE   0.0234         C  9 -- H 28         +46.3% ( 70.2%)     96.7%
 TRAVEL (Ang.)       0.2082         C  7 -- C  9          +1.0% ( 10.2%)      0.0%
 REDUCED MASS        0.5056         C  9 -- H 27          +1.0% ( 10.1%)      0.8%
 EFFECTIVE MASS      1.5021
 FORCE CONSTANT      2.8200

 VIBRATION         82   82A           ATOM PAIR      ENERGY CONTRIBUTION    RADIAL
 FREQUENCY          3076.88         C  8 -- H 25         +57.3% ( 78.1%)     98.1%
 TRANSITION DIPOLE   0.0074         C  8 -- H 24         +39.3% ( 64.7%)     95.4%
 TRAVEL (Ang.)       0.2071         C  8 -- H 26          +1.9% ( 14.0%)     21.0%
 REDUCED MASS        0.5108         C  6 -- C  8          +1.0% ( 10.2%)      0.0%
 EFFECTIVE MASS      1.5013
 FORCE CONSTANT      2.8491

 VIBRATION         83   83A           ATOM PAIR      ENERGY CONTRIBUTION    RADIAL
 FREQUENCY          3084.31         C  8 -- H 26         +60.2% ( 80.0%)     98.6%
 TRANSITION DIPOLE   0.0057         C  8 -- H 24         +27.0% ( 53.6%)     91.2%
 TRAVEL (Ang.)       0.2142         C  8 -- H 25         +11.3% ( 34.7%)     76.2%
 REDUCED MASS        0.4765         C  6 -- C  8          +1.0% ( 10.3%)      0.0%
 EFFECTIVE MASS      1.5037
 FORCE CONSTANT      2.6709

 VIBRATION         84   84A           ATOM PAIR      ENERGY CONTRIBUTION    RADIAL
 FREQUENCY          3084.42         C  9 -- H 27         +61.5% ( 80.9%)     98.7%
 TRANSITION DIPOLE   0.0117         C  9 -- H 28         +20.2% ( 46.3%)     87.2%
 TRAVEL (Ang.)       0.2142         C  9 -- H 29         +16.8% ( 42.3%)     84.3%
 REDUCED MASS        0.4763         C  7 -- C  9          +1.0% ( 10.4%)      0.0%
 EFFECTIVE MASS      1.5042
 FORCE CONSTANT      2.6697

 VIBRATION         85   85A           ATOM PAIR      ENERGY CONTRIBUTION    RADIAL
 FREQUENCY          3101.70         C  5 -- H 20         +48.2% ( 68.9%)     98.3%
 TRANSITION DIPOLE   0.0711         C  5 -- H 23         +30.9% ( 55.1%)     95.4%
 TRAVEL (Ang.)       0.2502         C  4 -- H 18         +11.5% ( 33.7%)     98.3%
 REDUCED MASS        0.3472         C  4 -- H 19          +7.3% ( 26.9%)     95.3%
 EFFECTIVE MASS      1.2832
 FORCE CONSTANT      1.9678

 VIBRATION         86   86A           ATOM PAIR      ENERGY CONTRIBUTION    RADIAL
 FREQUENCY          3103.61         C  4 -- H 18         +46.2% ( 67.4%)     98.1%
 TRANSITION DIPOLE   0.0787         C  4 -- H 19         +32.7% ( 56.8%)     95.9%
 TRAVEL (Ang.)       0.2523         C  5 -- H 20         +11.0% ( 32.9%)     98.2%
 REDUCED MASS        0.3413         C  5 -- H 23          +7.8% ( 27.7%)     95.9%
 EFFECTIVE MASS      1.2891
 FORCE CONSTANT      1.9368

 VIBRATION         87   87A           ATOM PAIR      ENERGY CONTRIBUTION    RADIAL
 FREQUENCY          3119.57         C 11 -- H 31         +51.9% ( 72.2%)     95.7%
 TRANSITION DIPOLE   0.3488         C 11 -- H 32         +46.2% ( 68.1%)     94.6%
 TRAVEL (Ang.)       0.2106         C 11 -- C 12          +1.8% ( 13.4%)     99.9%
 REDUCED MASS        0.4873
 EFFECTIVE MASS      1.4142
 FORCE CONSTANT      2.7943

 VIBRATION         88   88A           ATOM PAIR      ENERGY CONTRIBUTION    RADIAL
 FREQUENCY          3125.39         C 11 -- H 32         +52.1% ( 73.9%)     97.4%
 TRANSITION DIPOLE   0.2256         C 11 -- H 31         +46.7% ( 69.9%)     96.8%
 TRAVEL (Ang.)       0.2008         C 11 -- C 12          +1.2% ( 11.2%)      0.1%
 REDUCED MASS        0.5349
 EFFECTIVE MASS      1.5952
 FORCE CONSTANT      3.0782

 VIBRATION         89   89A           ATOM PAIR      ENERGY CONTRIBUTION    RADIAL
 FREQUENCY          3179.28         C  9 -- H 27         +36.9% ( 58.4%)     97.6%
 TRANSITION DIPOLE   0.0210         C  9 -- H 28         +32.4% ( 54.8%)     97.0%
 TRAVEL (Ang.)       0.2540         C  9 -- H 29         +30.4% ( 53.1%)     96.6%
 REDUCED MASS        0.3288         C  7 -- C  9          +0.3% (  5.1%)     99.5%
 EFFECTIVE MASS      1.1367
 FORCE CONSTANT      1.9579

 VIBRATION         90   90A           ATOM PAIR      ENERGY CONTRIBUTION    RADIAL
 FREQUENCY          3179.55         C  8 -- H 26         +37.4% ( 58.8%)     97.7%
 TRANSITION DIPOLE   0.0092         C  8 -- H 24         +32.6% ( 54.9%)     97.0%
 TRAVEL (Ang.)       0.2538         C  8 -- H 25         +29.8% ( 52.5%)     96.5%
 REDUCED MASS        0.3294         C  6 -- C  8          +0.3% (  5.1%)     99.3%
 EFFECTIVE MASS      1.1368
 FORCE CONSTANT      1.9617

      SYMMETRY NUMBER FOR POINT-GROUP C1  =  1


          SYSTEM IS A GROUND STATE



 InChI=1S/C12H20/c1-4-7-10(5-2)12-9-8-11(12)6-3/h7,10-12H,1,5-6,8-9H2,2-3H3


          MOLECULE IS NOT LINEAR

          THERE ARE 90 GENUINE VIBRATIONS IN THIS SYSTEM
          THIS THERMODYNAMICS CALCULATION IS LIMITED TO
          MOLECULES WHICH HAVE NO INTERNAL ROTATIONS




                    CALCULATED THERMODYNAMIC PROPERTIES
                                          *
   TEMP. (K)   PARTITION FUNCTION   H.O.F.    ENTHALPY  HEAT CAPACITY ENTROPY
                                   KCAL/MOL   CAL/MOLE    CAL/K/MOL  CAL/K/MOL


 298.00  VIB.     0.2961D+06                  7119.0720    46.3329    48.9255
         ROT.     0.1572D+07                   888.2803     2.9808    31.3335
         INT.     0.4654D+12                  8007.3523    49.3137    80.2590
         TRA.     0.2036D+28                  1480.4672     4.9680    41.1956
         TOT.                       19.548    9487.8194    54.2817   121.4546

 200.00  VIB.     0.5272D+04                  3362.4602    30.9282    33.8429
         ROT.     0.8641D+06                   596.1613     2.9808    30.1448
         INT.     0.4555D+10                  3958.6215    33.9090    63.9877
         TRA.     0.1119D+28                   993.6021     4.9680    39.2145
         TOT.                       15.012    4952.2237    38.8770   103.2022

 210.00  VIB.     0.8034D+04                  3678.6752    32.3219    35.3854
         ROT.     0.9297D+06                   625.9693     2.9808    30.2903
         INT.     0.7470D+10                  4304.6445    35.3027    65.6757
         TRA.     0.1204D+28                  1043.2822     4.9680    39.4569
         TOT.                       15.408    5347.9268    40.2708   105.1326

 220.00  VIB.     0.1221D+05                  4009.0463    33.7597    36.9221
         ROT.     0.9969D+06                   655.7774     2.9808    30.4289
         INT.     0.1217D+11                  4664.8237    36.7406    67.3510
         TRA.     0.1291D+28                  1092.9623     4.9680    39.6880
         TOT.                       15.818    5757.7860    41.7086   107.0390

 230.00  VIB.     0.1849D+05                  4354.0203    35.2425    38.4553
         ROT.     0.1066D+07                   685.5855     2.9808    30.5614
         INT.     0.1971D+11                  5039.6057    38.2233    69.0167
         TRA.     0.1380D+28                  1142.6424     4.9680    39.9088
         TOT.                       16.242    6182.2482    43.1913   108.9256

 240.00  VIB.     0.2795D+05                  4714.0442    36.7695    39.9873
         ROT.     0.1136D+07                   715.3935     2.9808    30.6883
         INT.     0.3175D+11                  5429.4378    39.7503    70.6756
         TRA.     0.1471D+28                  1192.3226     4.9680    40.1203
         TOT.                       16.682    6621.7603    44.7183   110.7959

 250.00  VIB.     0.4215D+05                  5089.5503    38.3385    41.5200
         ROT.     0.1208D+07                   745.2016     2.9808    30.8100
         INT.     0.5090D+11                  5834.7519    41.3193    72.3299
         TRA.     0.1564D+28                  1242.0027     4.9680    40.3231
         TOT.                       17.137    7076.7546    46.2873   112.6530

 260.00  VIB.     0.6344D+05                  5480.9435    39.9463    43.0548
         ROT.     0.1281D+07                   775.0097     2.9808    30.9269
         INT.     0.8126D+11                  6255.9532    42.9271    73.9817
         TRA.     0.1659D+28                  1291.6828     4.9680    40.5179
         TOT.                       17.608    7547.6359    47.8951   114.4997

 270.00  VIB.     0.9533D+05                  5888.5922    41.5889    44.5931
         ROT.     0.1355D+07                   804.8177     2.9808    31.0394
         INT.     0.1292D+12                  6693.4100    44.5697    75.6325
         TRA.     0.1756D+28                  1341.3629     4.9680    40.7054
         TOT.                       18.095    8034.7728    49.5377   116.3379

 280.00  VIB.     0.1430D+06                  6312.8217    43.2616    46.1358
         ROT.     0.1431D+07                   834.6258     2.9808    31.1478
         INT.     0.2048D+12                  7147.4475    46.2425    77.2835
         TRA.     0.1854D+28                  1391.0430     4.9680    40.8861
         TOT.                       18.599    8538.4905    51.2105   118.1697

 290.00  VIB.     0.2144D+06                  6753.9094    44.9597    47.6834
         ROT.     0.1509D+07                   864.4339     2.9808    31.2524
         INT.     0.3235D+12                  7618.3432    47.9405    78.9358
         TRA.     0.1954D+28                  1440.7231     4.9680    41.0604
         TOT.                       19.119    9059.0663    52.9085   119.9962

 300.00  VIB.     0.3210D+06                  7212.0827    46.6779    49.2365
         ROT.     0.1587D+07                   894.2419     2.9808    31.3534
         INT.     0.5096D+12                  8106.3246    49.6587    80.5900
         TRA.     0.2056D+28                  1490.4032     4.9680    41.2289
         TOT.                       19.657    9596.7278    54.6267   121.8188

 310.00  VIB.     0.4803D+06                  7687.5184    48.4113    50.7953
         ROT.     0.1668D+07                   924.0500     2.9808    31.4512
         INT.     0.8009D+12                  8611.5683    51.3921    82.2465
         TRA.     0.2160D+28                  1540.0833     4.9680    41.3918
         TOT.                       20.212   10151.6516    56.3601   123.6383

 320.00  VIB.     0.7181D+06                  8180.3429    50.1549    52.3598
         ROT.     0.1749D+07                   953.8580     2.9808    31.5458
         INT.     0.1256D+13                  9134.2010    53.1357    83.9056
         TRA.     0.2265D+28                  1589.7634     4.9680    41.5495
         TOT.                       20.784   10723.9644    58.1037   125.4551

 330.00  VIB.     0.1073D+07                  8690.6346    51.9040    53.9299
         ROT.     0.1831D+07                   983.6661     2.9808    31.6375
         INT.     0.1966D+13                  9674.3007    54.8848    85.5675
         TRA.     0.2372D+28                  1639.4435     4.9680    41.7024
         TOT.                       21.374   11313.7442    59.8528   127.2699

 340.00  VIB.     0.1603D+07                  9218.4257    53.6541    55.5054
         ROT.     0.1915D+07                  1013.4742     2.9808    31.7265
         INT.     0.3071D+13                 10231.8999    56.6349    87.2320
         TRA.     0.2481D+28                  1689.1236     4.9680    41.8507
         TOT.                       21.981   11921.0235    61.6029   129.0826

 350.00  VIB.     0.2395D+07                  9763.7060    55.4011    57.0859
         ROT.     0.2000D+07                  1043.2822     2.9808    31.8129
         INT.     0.4791D+13                 10806.9882    58.3819    88.8989
         TRA.     0.2591D+28                  1738.8037     4.9680    41.9947
         TOT.                       22.606   12545.7920    63.3500   130.8936

 360.00  VIB.     0.3576D+07                 10326.4258    57.1414    58.6711
         ROT.     0.2087D+07                  1073.0903     2.9808    31.8969
         INT.     0.7463D+13                 11399.5161    60.1222    90.5680
         TRA.     0.2703D+28                  1788.4838     4.9680    42.1347
         TOT.                       23.248   13187.9999    65.0902   132.7026

 370.00  VIB.     0.5340D+07                 10906.4998    58.8715    60.2603
         ROT.     0.2174D+07                  1102.8984     2.9808    31.9786
         INT.     0.1161D+14                 12009.3982    61.8523    92.2389
         TRA.     0.2817D+28                  1838.1639     4.9680    42.2708
         TOT.                       23.908   13847.5621    66.8203   134.5096

 380.00  VIB.     0.7974D+07                 11503.8111    60.5884    61.8531
         ROT.     0.2263D+07                  1132.7064     2.9808    32.0581
         INT.     0.1804D+14                 12636.5175    63.5692    93.9112
         TRA.     0.2932D+28                  1887.8440     4.9680    42.4033
         TOT.                       24.585   14524.3616    68.5372   136.3144

 390.00  VIB.     0.1191D+08                 12118.2145    62.2895    63.4490
         ROT.     0.2353D+07                  1162.5145     2.9808    32.1355
         INT.     0.2801D+14                 13280.7290    65.2703    95.5845
         TRA.     0.3048D+28                  1937.5242     4.9680    42.5323
         TOT.                       25.278   15218.2531    70.2383   138.1168

 400.00  VIB.     0.1778D+08                 12749.5403    63.9725    65.0473
         ROT.     0.2444D+07                  1192.3226     2.9808    32.2110
         INT.     0.4345D+14                 13941.8629    66.9533    97.2582
         TRA.     0.3166D+28                  1987.2043     4.9680    42.6581
         TOT.                       25.989   15929.0671    71.9213   139.9163

   *: NOTE: HEATS OF FORMATION ARE RELATIVE TO THE
            ELEMENTS IN THEIR STANDARD STATE AT 298K
              (=  Standard Enthalpy of Formation).

            Hvib:  Zero-point energy is not included.
                   frequencies of less than zero cm-1 are not included.
            Hrot = (3/2)RT
            Htra = (3/2)RT + pV = (5/2)RT

            Heat capacity is Cp, not Cv

          For more information, see: HTTP://OpenMOPAC.net/Manual/thermochemistry.html


           FORCE CONSTANT IN CARTESIAN COORDINATES (Millidynes/A)

    ATOM   CHEMICAL       X               Y               Z
   NUMBER   SYMBOL  FORCE CONSTANT  FORCE CONSTANT  FORCE CONSTANT

      1       C        7.891340        8.322464        8.262272
      2       C        7.908283        8.554634        8.183847
      3       C        7.932695        8.390282        8.798955
      4       C        8.122284        8.389010        8.048049
      5       C        8.119217        8.414173        7.975719
      6       C        8.496093        8.271690        8.343694
      7       C        7.905931        8.530224        8.286335
      8       C        8.319069        8.249404        8.328358
      9       C        8.461613        8.230513        8.212368
     10       C        5.887631       12.549019        8.501214
     11       C       10.314962       14.048541        1.879553
     12       C        7.455591       18.876718        1.901596
     13       H        1.362227        4.126412        0.745547
     14       H        1.369561        1.979772        2.899497
     15       H        1.228775        1.802516        3.014464
     16       H        1.071197        1.559083        3.731111
     17       H        1.184703        4.494729        0.714388
     18       H        1.560123        1.810340        3.257938
     19       H        1.372613        4.506505        0.733649
     20       H        1.557936        4.361371        0.706942
     21       H        0.909167        2.381610        3.102649
     22       H        1.373344        1.343813        3.694666
     23       H        1.363066        1.991111        3.261373
     24       H        1.300733        4.807618        0.671615
     25       H        1.147829        1.612159        3.992978
     26       H        1.421634        1.809178        3.559987
     27       H        5.313825        0.785303        0.688590
     28       H        1.226897        1.380753        4.169240
     29       H        0.854785        2.687636        3.201266
     30       H        0.811361        1.392835        3.873220
     31       H        5.335157        0.615280        0.319925
     32       H        1.633773        4.335705        0.301813

 **********************
 *                    *
 * JOB ENDED NORMALLY *
 *                    *
 **********************



 TOTAL JOB TIME:             6.56 SECONDS

 == MOPAC DONE ==
