 *******************************************************************************
 **                                                                           **
 **                              MOPAC v23.1.2                                **
 **                                                                           **
 *******************************************************************************
 **          Digital Object Identifier (DOI): 10.5281/zenodo.6511958          **
 **    Visit the DOI location for information on how to cite this program.    **
 *******************************************************************************

                              PM3 CALCULATION RESULTS

 *******************************************************************************
 *  CALCULATION DONE: (MAX THREADS = 1)              Tue Jun  3 16:38:47 2025  *
 *  PM3        - The PM3 Hamiltonian to be used
 *  PRECISE    - TIGHTER CRITERIA TO BE USED
 *  NOSYM      - POINT-GROUP SYMMETRY SET TO C1
 *  THREADS=1  - MULTI-THREADING NOT USED
 *  T=         - A TIME OF 172800.0 SECONDS REQUESTED
 *  DUMP=N     - RESTART FILE WRITTEN EVERY 7200.0 SECONDS REQUESTED
 *******************************************************************************
pm3  precise nosym THREADS=1
 InChI=1S/C12H20/c1-3-9-6-5-7-11-10(4-2)8-12(9)11/h5-6,9-12H,3-4,7-8H2,1-2H3

   ATOM   CHEMICAL          X               Y               Z
  NUMBER   SYMBOL      (ANGSTROMS)     (ANGSTROMS)     (ANGSTROMS)

     1       C          0.75790000  *   0.08610000  *  -0.58520000  *
     2       C         -0.30770000  *  -0.94960000  *  -0.17490000  *
     3       C          1.62960000  *  -0.34720000  *   0.60560000  *
     4       C         -1.69070000  *  -0.37660000  *   0.24370000  *
     5       C          0.57040000  *  -1.37760000  *   1.00670000  *
     6       C          2.97120000  *  -0.98310000  *   0.20290000  *
     7       C         -2.60780000  *  -0.21810000  *  -0.98790000  *
     8       C          0.31060000  *   1.56220000  *  -0.52170000  *
     9       C         -4.03910000  *   0.15980000  *  -0.60420000  *
    10       C          3.96870000  *   0.07580000  *  -0.25890000  *
    11       C         -1.54390000  *   0.93390000  *   0.98710000  *
    12       C         -0.61340000  *   1.82960000  *   0.63490000  *
    13       H          1.75030000  *   0.43660000  *   1.38760000  *
    14       H         -0.39240000  *  -1.77430000  *  -0.91810000  *
    15       H          1.20770000  *  -0.16060000  *  -1.57310000  *
    16       H         -2.16950000  *  -1.11270000  *   0.92710000  *
    17       H         -2.64800000  *  -1.18180000  *  -1.54110000  *
    18       H         -2.20380000  *   0.54940000  *  -1.68110000  *
    19       H          3.39730000  *  -1.51140000  *   1.08300000  *
    20       H          2.82530000  *  -1.73010000  *  -0.60850000  *
    21       H          0.90980000  *  -2.43330000  *   0.91470000  *
    22       H          0.12780000  *  -1.15380000  *   2.00240000  *
    23       H          1.20190000  *   2.22120000  *  -0.44830000  *
    24       H         -0.21640000  *   1.81910000  *  -1.46420000  *
    25       H         -4.66980000  *   0.19670000  *  -1.51730000  *
    26       H         -4.06410000  *   1.15970000  *  -0.12200000  *
    27       H         -4.46570000  *  -0.59470000  *   0.09040000  *
    28       H          4.14940000  *   0.81400000  *   0.55120000  *
    29       H          4.93270000  *  -0.41010000  *  -0.51830000  *
    30       H          3.58640000  *   0.60540000  *  -1.15700000  *
    31       H         -0.49430000  *   2.73820000  *   1.21680000  *
    32       H         -2.17050000  *   1.12750000  *   1.85240000  *



          CARTESIAN COORDINATES 

    NO.       ATOM           X           Y           Z

     1         C          0.7579      0.0861     -0.5852
     2         C         -0.3077     -0.9496     -0.1749
     3         C          1.6296     -0.3472      0.6056
     4         C         -1.6907     -0.3766      0.2437
     5         C          0.5704     -1.3776      1.0067
     6         C          2.9712     -0.9831      0.2029
     7         C         -2.6078     -0.2181     -0.9879
     8         C          0.3106      1.5622     -0.5217
     9         C         -4.0391      0.1598     -0.6042
    10         C          3.9687      0.0758     -0.2589
    11         C         -1.5439      0.9339      0.9871
    12         C         -0.6134      1.8296      0.6349
    13         H          1.7503      0.4366      1.3876
    14         H         -0.3924     -1.7743     -0.9181
    15         H          1.2077     -0.1606     -1.5731
    16         H         -2.1695     -1.1127      0.9271
    17         H         -2.6480     -1.1818     -1.5411
    18         H         -2.2038      0.5494     -1.6811
    19         H          3.3973     -1.5114      1.0830
    20         H          2.8253     -1.7301     -0.6085
    21         H          0.9098     -2.4333      0.9147
    22         H          0.1278     -1.1538      2.0024
    23         H          1.2019      2.2212     -0.4483
    24         H         -0.2164      1.8191     -1.4642
    25         H         -4.6698      0.1967     -1.5173
    26         H         -4.0641      1.1597     -0.1220
    27         H         -4.4657     -0.5947      0.0904
    28         H          4.1494      0.8140      0.5512
    29         H          4.9327     -0.4101     -0.5183
    30         H          3.5864      0.6054     -1.1570
    31         H         -0.4943      2.7382      1.2168
    32         H         -2.1705      1.1275      1.8524

  H: (PM3): J. J. P. STEWART, J. COMP. CHEM. 10, 209 (1989).
  C: (PM3): J. J. P. STEWART, J. COMP. CHEM. 10, 209 (1989).

           Empirical Formula: C12 H20  =    32 atoms



      MOLECULAR POINT GROUP   :   C1  


      RHF CALCULATION, NO. OF DOUBLY OCCUPIED LEVELS = 34


          Geometry optimization using EF

          DIAGONAL MATRIX USED AS START HESSIAN

 CYCLE:     1 TIME:   0.012 TIME LEFT:  2.00D  GRAD.:    80.527 HEAT: -8.286782
 CYCLE:     2 TIME:   0.020 TIME LEFT:  2.00D  GRAD.:    94.094 HEAT: -9.081909
 CYCLE:     3 TIME:   0.012 TIME LEFT:  2.00D  GRAD.:    82.683 HEAT: -9.896223
 CYCLE:     4 TIME:   0.016 TIME LEFT:  2.00D  GRAD.:    35.895 HEAT: -11.70182
 CYCLE:     5 TIME:   0.020 TIME LEFT:  2.00D  GRAD.:    22.329 HEAT: -12.13269
 CYCLE:     6 TIME:   0.016 TIME LEFT:  2.00D  GRAD.:    23.385 HEAT: -12.29142
 CYCLE:     7 TIME:   0.012 TIME LEFT:  2.00D  GRAD.:    24.106 HEAT: -12.44374
 CYCLE:     8 TIME:   0.020 TIME LEFT:  2.00D  GRAD.:    14.160 HEAT: -12.59816
 CYCLE:     9 TIME:   0.016 TIME LEFT:  2.00D  GRAD.:     9.637 HEAT: -12.65984
 CYCLE:    10 TIME:   0.012 TIME LEFT:  2.00D  GRAD.:    10.889 HEAT: -12.71497
 CYCLE:    11 TIME:   0.016 TIME LEFT:  2.00D  GRAD.:    10.631 HEAT: -12.74545
 CYCLE:    12 TIME:   0.012 TIME LEFT:  2.00D  GRAD.:     9.003 HEAT: -12.77411
 CYCLE:    13 TIME:   0.020 TIME LEFT:  2.00D  GRAD.:     6.853 HEAT: -12.79638
 CYCLE:    14 TIME:   0.008 TIME LEFT:  2.00D  GRAD.:     9.573 HEAT: -12.80462
 CYCLE:    15 TIME:   0.012 TIME LEFT:  2.00D  GRAD.:     7.816 HEAT: -12.83022
 CYCLE:    16 TIME:   0.020 TIME LEFT:  2.00D  GRAD.:     6.597 HEAT: -12.84556
 CYCLE:    17 TIME:   0.008 TIME LEFT:  2.00D  GRAD.:     7.301 HEAT: -12.85498
 CYCLE:    18 TIME:   0.012 TIME LEFT:  2.00D  GRAD.:     5.190 HEAT: -12.87305
 CYCLE:    19 TIME:   0.012 TIME LEFT:  2.00D  GRAD.:     8.528 HEAT: -12.87820
 CYCLE:    20 TIME:   0.012 TIME LEFT:  2.00D  GRAD.:     5.946 HEAT: -12.90339
 CYCLE:    21 TIME:   0.016 TIME LEFT:  2.00D  GRAD.:     7.736 HEAT: -12.90666
 CYCLE:    22 TIME:   0.012 TIME LEFT:  2.00D  GRAD.:     5.193 HEAT: -12.92469
 CYCLE:    23 TIME:   0.012 TIME LEFT:  2.00D  GRAD.:     7.476 HEAT: -12.93107
 CYCLE:    24 TIME:   0.008 TIME LEFT:  2.00D  GRAD.:     5.544 HEAT: -12.95065
 CYCLE:    25 TIME:   0.020 TIME LEFT:  2.00D  GRAD.:     7.071 HEAT: -12.95338
 CYCLE:    26 TIME:   0.012 TIME LEFT:  2.00D  GRAD.:     3.094 HEAT: -12.97413
 CYCLE:    27 TIME:   0.008 TIME LEFT:  2.00D  GRAD.:     6.260 HEAT: -12.98308
 CYCLE:    28 TIME:   0.012 TIME LEFT:  2.00D  GRAD.:     3.484 HEAT: -13.00706
 CYCLE:    29 TIME:   0.012 TIME LEFT:  2.00D  GRAD.:     8.874 HEAT: -13.00729
 CYCLE:    30 TIME:   0.008 TIME LEFT:  2.00D  GRAD.:     5.136 HEAT: -13.03766
 CYCLE:    31 TIME:   0.027 TIME LEFT:  2.00D  GRAD.:     6.057 HEAT: -13.03972
 CYCLE:    32 TIME:   0.012 TIME LEFT:  2.00D  GRAD.:     2.380 HEAT: -13.05460
 CYCLE:    33 TIME:   0.012 TIME LEFT:  2.00D  GRAD.:     4.805 HEAT: -13.05993
 CYCLE:    34 TIME:   0.008 TIME LEFT:  2.00D  GRAD.:     2.653 HEAT: -13.07396
 CYCLE:    35 TIME:   0.012 TIME LEFT:  2.00D  GRAD.:     3.998 HEAT: -13.08358
 CYCLE:    36 TIME:   0.012 TIME LEFT:  2.00D  GRAD.:     4.413 HEAT: -13.09512
 CYCLE:    37 TIME:   0.012 TIME LEFT:  2.00D  GRAD.:     4.142 HEAT: -13.10378
 CYCLE:    38 TIME:   0.008 TIME LEFT:  2.00D  GRAD.:     3.936 HEAT: -13.11134
 CYCLE:    39 TIME:   0.012 TIME LEFT:  2.00D  GRAD.:     3.637 HEAT: -13.12211
 CYCLE:    40 TIME:   0.008 TIME LEFT:  2.00D  GRAD.:     4.490 HEAT: -13.12620
 CYCLE:    41 TIME:   0.012 TIME LEFT:  2.00D  GRAD.:     2.084 HEAT: -13.13703
 CYCLE:    42 TIME:   0.012 TIME LEFT:  2.00D  GRAD.:     3.611 HEAT: -13.13921
 CYCLE:    43 TIME:   0.012 TIME LEFT:  2.00D  GRAD.:     2.015 HEAT: -13.14506
 CYCLE:    44 TIME:   0.008 TIME LEFT:  2.00D  GRAD.:     2.110 HEAT: -13.14782
 CYCLE:    45 TIME:   0.012 TIME LEFT:  2.00D  GRAD.:     1.893 HEAT: -13.15178
 CYCLE:    46 TIME:   0.012 TIME LEFT:  2.00D  GRAD.:     1.983 HEAT: -13.15734
 CYCLE:    47 TIME:   0.012 TIME LEFT:  2.00D  GRAD.:     1.922 HEAT: -13.16132
 CYCLE:    48 TIME:   0.012 TIME LEFT:  2.00D  GRAD.:     1.640 HEAT: -13.16503
 CYCLE:    49 TIME:   0.012 TIME LEFT:  2.00D  GRAD.:     1.489 HEAT: -13.16849
 CYCLE:    50 TIME:   0.008 TIME LEFT:  2.00D  GRAD.:     1.555 HEAT: -13.17190
 CYCLE:    51 TIME:   0.012 TIME LEFT:  2.00D  GRAD.:     1.578 HEAT: -13.17524
 CYCLE:    52 TIME:   0.012 TIME LEFT:  2.00D  GRAD.:     1.407 HEAT: -13.17845
 CYCLE:    53 TIME:   0.012 TIME LEFT:  2.00D  GRAD.:     1.287 HEAT: -13.18156
 CYCLE:    54 TIME:   0.008 TIME LEFT:  2.00D  GRAD.:     1.238 HEAT: -13.18456
 CYCLE:    55 TIME:   0.012 TIME LEFT:  2.00D  GRAD.:     0.989 HEAT: -13.18663
 CYCLE:    56 TIME:   0.012 TIME LEFT:  2.00D  GRAD.:     0.993 HEAT: -13.18868
 CYCLE:    57 TIME:   0.012 TIME LEFT:  2.00D  GRAD.:     1.076 HEAT: -13.19111
 CYCLE:    58 TIME:   0.012 TIME LEFT:  2.00D  GRAD.:     1.107 HEAT: -13.19373
 CYCLE:    59 TIME:   0.012 TIME LEFT:  2.00D  GRAD.:     1.113 HEAT: -13.19692
 CYCLE:    60 TIME:   0.008 TIME LEFT:  2.00D  GRAD.:     1.132 HEAT: -13.20010
 CYCLE:    61 TIME:   0.012 TIME LEFT:  2.00D  GRAD.:     1.146 HEAT: -13.20297
 CYCLE:    62 TIME:   0.012 TIME LEFT:  2.00D  GRAD.:     1.221 HEAT: -13.20592
 CYCLE:    63 TIME:   0.012 TIME LEFT:  2.00D  GRAD.:     1.236 HEAT: -13.20900
 CYCLE:    64 TIME:   0.012 TIME LEFT:  2.00D  GRAD.:     1.259 HEAT: -13.21292
 CYCLE:    65 TIME:   0.008 TIME LEFT:  2.00D  GRAD.:     1.225 HEAT: -13.21668
 CYCLE:    66 TIME:   0.012 TIME LEFT:  2.00D  GRAD.:     1.154 HEAT: -13.22019
 CYCLE:    67 TIME:   0.012 TIME LEFT:  2.00D  GRAD.:     0.981 HEAT: -13.22305
 CYCLE:    68 TIME:   0.012 TIME LEFT:  2.00D  GRAD.:     0.793 HEAT: -13.22498
 CYCLE:    69 TIME:   0.012 TIME LEFT:  2.00D  GRAD.:     0.633 HEAT: -13.22637
 CYCLE:    70 TIME:   0.012 TIME LEFT:  2.00D  GRAD.:     0.525 HEAT: -13.22723
 CYCLE:    71 TIME:   0.012 TIME LEFT:  2.00D  GRAD.:     0.516 HEAT: -13.22794
 CYCLE:    72 TIME:   0.012 TIME LEFT:  2.00D  GRAD.:     0.510 HEAT: -13.22862
 CYCLE:    73 TIME:   0.016 TIME LEFT:  2.00D  GRAD.:     0.516 HEAT: -13.22935
 CYCLE:    74 TIME:   0.008 TIME LEFT:  2.00D  GRAD.:     0.509 HEAT: -13.23006
 CYCLE:    75 TIME:   0.012 TIME LEFT:  2.00D  GRAD.:     0.528 HEAT: -13.23075
 CYCLE:    76 TIME:   0.012 TIME LEFT:  2.00D  GRAD.:     0.581 HEAT: -13.23152
 CYCLE:    77 TIME:   0.012 TIME LEFT:  2.00D  GRAD.:     0.609 HEAT: -13.23238
 CYCLE:    78 TIME:   0.012 TIME LEFT:  2.00D  GRAD.:     0.574 HEAT: -13.23329
 CYCLE:    79 TIME:   0.008 TIME LEFT:  2.00D  GRAD.:     0.536 HEAT: -13.23414
 CYCLE:    80 TIME:   0.012 TIME LEFT:  2.00D  GRAD.:     0.549 HEAT: -13.23493
 CYCLE:    81 TIME:   0.016 TIME LEFT:  2.00D  GRAD.:     0.589 HEAT: -13.23581
 CYCLE:    82 TIME:   0.012 TIME LEFT:  2.00D  GRAD.:     0.581 HEAT: -13.23673
 CYCLE:    83 TIME:   0.012 TIME LEFT:  2.00D  GRAD.:     0.518 HEAT: -13.23757
 CYCLE:    84 TIME:   0.012 TIME LEFT:  2.00D  GRAD.:     0.442 HEAT: -13.23820
 CYCLE:    85 TIME:   0.012 TIME LEFT:  2.00D  GRAD.:     0.386 HEAT: -13.23868
 CYCLE:    86 TIME:   0.012 TIME LEFT:  2.00D  GRAD.:     0.335 HEAT: -13.23903
 CYCLE:    87 TIME:   0.012 TIME LEFT:  2.00D  GRAD.:     0.289 HEAT: -13.23929
 CYCLE:    88 TIME:   0.012 TIME LEFT:  2.00D  GRAD.:     0.271 HEAT: -13.23950
 CYCLE:    89 TIME:   0.012 TIME LEFT:  2.00D  GRAD.:     0.277 HEAT: -13.23970
 CYCLE:    90 TIME:   0.012 TIME LEFT:  2.00D  GRAD.:     0.276 HEAT: -13.23992
 CYCLE:    91 TIME:   0.012 TIME LEFT:  2.00D  GRAD.:     0.276 HEAT: -13.24015
 CYCLE:    92 TIME:   0.012 TIME LEFT:  2.00D  GRAD.:     0.277 HEAT: -13.24035
 CYCLE:    93 TIME:   0.012 TIME LEFT:  2.00D  GRAD.:     0.281 HEAT: -13.24056
 CYCLE:    94 TIME:   0.008 TIME LEFT:  2.00D  GRAD.:     0.274 HEAT: -13.24076
 CYCLE:    95 TIME:   0.012 TIME LEFT:  2.00D  GRAD.:     0.256 HEAT: -13.24096
 CYCLE:    96 TIME:   0.012 TIME LEFT:  2.00D  GRAD.:     0.240 HEAT: -13.24113
 CYCLE:    97 TIME:   0.012 TIME LEFT:  2.00D  GRAD.:     0.223 HEAT: -13.24129
 CYCLE:    98 TIME:   0.012 TIME LEFT:  2.00D  GRAD.:     0.193 HEAT: -13.24142
 CYCLE:    99 TIME:   0.008 TIME LEFT:  2.00D  GRAD.:     0.158 HEAT: -13.24151
 CYCLE:   100 TIME:   0.012 TIME LEFT:  2.00D  GRAD.:     0.166 HEAT: -13.24155
 CYCLE:   101 TIME:   0.012 TIME LEFT:  2.00D  GRAD.:     0.141 HEAT: -13.24160
 CYCLE:   102 TIME:   0.012 TIME LEFT:  2.00D  GRAD.:     0.136 HEAT: -13.24166
 CYCLE:   103 TIME:   0.012 TIME LEFT:  2.00D  GRAD.:     0.154 HEAT: -13.24173
 CYCLE:   104 TIME:   0.008 TIME LEFT:  2.00D  GRAD.:     0.126 HEAT: -13.24179
 CYCLE:   105 TIME:   0.012 TIME LEFT:  2.00D  GRAD.:     0.112 HEAT: -13.24184
 CYCLE:   106 TIME:   0.012 TIME LEFT:  2.00D  GRAD.:     0.095 HEAT: -13.24186
 CYCLE:   107 TIME:   0.008 TIME LEFT:  2.00D  GRAD.:     0.167 HEAT: -13.24188
 CYCLE:   108 TIME:   0.012 TIME LEFT:  2.00D  GRAD.:     0.100 HEAT: -13.24191
 CYCLE:   109 TIME:   0.008 TIME LEFT:  2.00D  GRAD.:     0.085 HEAT: -13.24194
 CYCLE:   110 TIME:   0.012 TIME LEFT:  2.00D  GRAD.:     0.075 HEAT: -13.24196
 CYCLE:   111 TIME:   0.008 TIME LEFT:  2.00D  GRAD.:     0.084 HEAT: -13.24199
 CYCLE:   112 TIME:   0.012 TIME LEFT:  2.00D  GRAD.:     0.078 HEAT: -13.24200
 CYCLE:   113 TIME:   0.012 TIME LEFT:  2.00D  GRAD.:     0.277 HEAT: -13.24190
 CYCLE:   114 TIME:   0.012 TIME LEFT:  2.00D  GRAD.:     0.091 HEAT: -13.24206
 CYCLE:   115 TIME:   0.008 TIME LEFT:  2.00D  GRAD.:     0.081 HEAT: -13.24207
 CYCLE:   116 TIME:   0.012 TIME LEFT:  2.00D  GRAD.:     0.131 HEAT: -13.24215
 CYCLE:   117 TIME:   0.008 TIME LEFT:  2.00D  GRAD.:     0.124 HEAT: -13.24219
 CYCLE:   118 TIME:   0.012 TIME LEFT:  2.00D  GRAD.:     0.081 HEAT: -13.24225
 CYCLE:   119 TIME:   0.012 TIME LEFT:  2.00D  GRAD.:     0.117 HEAT: -13.24229
 CYCLE:   120 TIME:   0.012 TIME LEFT:  2.00D  GRAD.:     0.090 HEAT: -13.24231
 CYCLE:   121 TIME:   0.008 TIME LEFT:  2.00D  GRAD.:     0.104 HEAT: -13.24235
 CYCLE:   122 TIME:   0.012 TIME LEFT:  2.00D  GRAD.:     0.086 HEAT: -13.24237
 CYCLE:   123 TIME:   0.012 TIME LEFT:  2.00D  GRAD.:     0.082 HEAT: -13.24238
 CYCLE:   124 TIME:   0.012 TIME LEFT:  2.00D  GRAD.:     0.052 HEAT: -13.24240
 CYCLE:   125 TIME:   0.008 TIME LEFT:  2.00D  GRAD.:     0.047 HEAT: -13.24241

     GRADIENT =  0.04672 IS LESS THAN CUTOFF =  0.05000



 -------------------------------------------------------------------------------
 pm3  precise nosym THREADS=1
 InChI=1S/C12H20/c1-3-9-6-5-7-11-10(4-2)8-12(9)11/h5-6,9-12H,3-4,7-8H2,1-2H3



     GEOMETRY OPTIMISED USING EIGENVECTOR FOLLOWING (EF).     
     SCF FIELD WAS ACHIEVED                                   


                              PM3 CALCULATION
                                                       MOPAC v23.1.2 MacOS
                                                       Tue Jun  3 16:38:49 2025




          FINAL HEAT OF FORMATION =        -13.24241 KCAL/MOL =     -55.40623 KJ/MOL


          COSMO AREA              =        219.36 SQUARE ANGSTROMS
          COSMO VOLUME            =        240.91 CUBIC ANGSTROMS

          GRADIENT NORM           =          0.04672          =       0.00826 PER ATOM
          IONIZATION POTENTIAL    =          9.697939 EV
          HOMO LUMO ENERGIES (EV) =         -9.698  1.161
          NO. OF FILLED LEVELS    =         34
          MOLECULAR WEIGHT        =        164.2900         POINT GROUP:  C1  

          MOLECULAR DIMENSIONS (Angstroms)

            Atom       Atom       Distance
            H    29    H    25     9.72632
            H    21    H    31     5.27061
            H    22    H    15     3.69376


          SCF CALCULATIONS        =        139

          WALL-CLOCK TIME         =      1.477 SECONDS
          COMPUTATION TIME        =      1.110 SECONDS




   ATOM   CHEMICAL          X               Y               Z
  NUMBER   SYMBOL      (ANGSTROMS)     (ANGSTROMS)     (ANGSTROMS)

     1       C          0.76608201  *   0.12215064  *  -0.58155268  *
     2       C         -0.34248241  *  -0.89491421  *  -0.19007683  *
     3       C          1.64839948  *  -0.39378216  *   0.59289906  *
     4       C         -1.68772867  *  -0.32398913  *   0.24503522  *
     5       C          0.55012404  *  -1.41565010  *   0.96222890  *
     6       C          2.97506477  *  -1.00333480  *   0.19139483  *
     7       C         -2.64295156  *  -0.22304483  *  -0.95131663  *
     8       C          0.39611857  *   1.58878625  *  -0.50755006  *
     9       C         -4.07214655  *   0.02483751  *  -0.52390745  *
    10       C          3.98626211  *   0.05662094  *  -0.18460919  *
    11       C         -1.55107619  *   1.01551645  *   0.89638792  *
    12       C         -0.60119671  *   1.88643025  *   0.55324426  *
    13       H          1.80717693  *   0.37595842  *   1.37899985  *
    14       H         -0.50610422  *  -1.66264203  *  -0.97763540  *
    15       H          1.21317413  *  -0.09432258  *  -1.57598104  *
    16       H         -2.12626726  *  -1.03474518  *   0.98954672  *
    17       H         -2.59198543  *  -1.15843218  *  -1.54482931  *
    18       H         -2.30129544  *   0.58259967  *  -1.63155223  *
    19       H          3.35921782  *  -1.61610425  *   1.03086836  *
    20       H          2.83297558  *  -1.70931670  *  -0.65157093  *
    21       H          0.85030564  *  -2.47053961  *   0.86584878  *
    22       H          0.12655447  *  -1.28659678  *   1.97006628  *
    23       H          1.31583450  *   2.18760229  *  -0.35406687  *
    24       H         -0.02950896  *   1.91978722  *  -1.47718818  *
    25       H         -4.73860999  *   0.09700446  *  -1.39284135  *
    26       H         -4.16903802  *   0.96024233  *   0.04371496  *
    27       H         -4.45149255  *  -0.78416244  *   0.11476806  *
    28       H          4.20643883  *   0.72468903  *   0.65873138  *
    29       H          4.93479553  *  -0.39199558  *  -0.50544571  *
    30       H          3.62059930  *   0.68412053  *  -1.00917150  *
    31       H         -0.53270387  *   2.86695934  *   1.03617916  *
    32       H         -2.29041350  *   1.26152917  *   1.66668764  *

                             CARTESIAN COORDINATES

   1    C        0.766082009     0.122150641    -0.581552679
   2    C       -0.342482414    -0.894914214    -0.190076830
   3    C        1.648399482    -0.393782164     0.592899060
   4    C       -1.687728670    -0.323989130     0.245035218
   5    C        0.550124037    -1.415650098     0.962228895
   6    C        2.975064773    -1.003334804     0.191394830
   7    C       -2.642951563    -0.223044826    -0.951316627
   8    C        0.396118572     1.588786248    -0.507550056
   9    C       -4.072146551     0.024837506    -0.523907451
  10    C        3.986262115     0.056620938    -0.184609188
  11    C       -1.551076189     1.015516450     0.896387925
  12    C       -0.601196711     1.886430253     0.553244259
  13    H        1.807176930     0.375958424     1.378999850
  14    H       -0.506104218    -1.662642029    -0.977635395
  15    H        1.213174132    -0.094322578    -1.575981043
  16    H       -2.126267262    -1.034745178     0.989546715
  17    H       -2.591985428    -1.158432180    -1.544829314
  18    H       -2.301295443     0.582599671    -1.631552234
  19    H        3.359217821    -1.616104252     1.030868358
  20    H        2.832975579    -1.709316700    -0.651570934
  21    H        0.850305635    -2.470539611     0.865848777
  22    H        0.126554472    -1.286596780     1.970066276
  23    H        1.315834497     2.187602287    -0.354066872
  24    H       -0.029508961     1.919787221    -1.477188177
  25    H       -4.738609988     0.097004455    -1.392841345
  26    H       -4.169038018     0.960242330     0.043714962
  27    H       -4.451492547    -0.784162436     0.114768058
  28    H        4.206438829     0.724689026     0.658731380
  29    H        4.934795531    -0.391995581    -0.505445711
  30    H        3.620599298     0.684120526    -1.009171504
  31    H       -0.532703866     2.866959337     1.036179155
  32    H       -2.290413498     1.261529174     1.666687640


           Empirical Formula: C12 H20  =    32 atoms



      MOLECULAR POINT GROUP   :   C1  


                  EIGENVALUES  
 -43.07239 -37.13452 -33.59992 -32.09777 -28.86623 -26.49979 -23.51881 -22.69295
 -21.23847 -20.95221 -19.13883 -17.63709 -16.72821 -16.24110 -15.91012 -15.45815
 -15.07565 -14.63235 -14.45095 -14.21713 -13.83280 -13.59686 -13.39585 -13.21525
 -12.69278 -12.46912 -12.20722 -12.12839 -11.73731 -11.53078 -11.28423 -11.14165
 -10.83190  -9.69794   1.16102   3.21222   3.29935   3.47543   3.51999   3.58091
   3.64248   3.77195   3.85353   3.89836   3.97407   4.00063   4.05148   4.11031
   4.15431   4.23390   4.27980   4.33462   4.43142   4.48747   4.52167   4.63977
   4.75344   4.79518   4.83204   4.89171   4.99068   5.02628   5.09523   5.13657
   5.51148   5.53283   5.88219   6.08923


              NET ATOMIC CHARGES AND DIPOLE CONTRIBUTIONS

  ATOM NO.   TYPE          CHARGE      No. of ELECS.   s-Pop       p-Pop       
    1          C          -0.085594        4.0856     1.19394     2.89166
    2          C          -0.086478        4.0865     1.19402     2.89246
    3          C          -0.097058        4.0971     1.19414     2.90291
    4          C          -0.029743        4.0297     1.16409     2.86565
    5          C          -0.109903        4.1099     1.17744     2.93246
    6          C          -0.088304        4.0883     1.15706     2.93125
    7          C          -0.093786        4.0938     1.16191     2.93187
    8          C          -0.050670        4.0507     1.14386     2.90681
    9          C          -0.111694        4.1117     1.13866     2.97303
   10          C          -0.110431        4.1104     1.13834     2.97209
   11          C          -0.144736        4.1447     1.19549     2.94925
   12          C          -0.141872        4.1419     1.19370     2.94817
   13          H           0.078878        0.9211     0.92112
   14          H           0.071426        0.9286     0.92857
   15          H           0.072296        0.9277     0.92770
   16          H           0.067338        0.9327     0.93266
   17          H           0.048679        0.9513     0.95132
   18          H           0.054251        0.9457     0.94575
   19          H           0.049574        0.9504     0.95043
   20          H           0.050295        0.9497     0.94970
   21          H           0.056973        0.9430     0.94303
   22          H           0.061271        0.9387     0.93873
   23          H           0.055927        0.9441     0.94407
   24          H           0.056914        0.9431     0.94309
   25          H           0.037049        0.9630     0.96295
   26          H           0.041101        0.9589     0.95890
   27          H           0.037039        0.9630     0.96296
   28          H           0.038007        0.9620     0.96199
   29          H           0.036914        0.9631     0.96309
   30          H           0.039216        0.9608     0.96078
   31          H           0.097716        0.9023     0.90228
   32          H           0.099404        0.9006     0.90060
 DIPOLE           X         Y         Z       TOTAL
 POINT-CHG.     0.062    -0.044    -0.168     0.185
 HYBRID        -0.009     0.045     0.019     0.050
 SUM            0.053     0.000    -0.149     0.158


          ATOMIC ORBITAL ELECTRON POPULATIONS

     Atom    s        px        py        pz   
    1  C   1.19394   0.96547   0.94429   0.98190
    2  C   1.19402   0.93600   0.97592   0.98053
    3  C   1.19414   0.93678   0.98453   0.98160
    4  C   1.16409   0.94649   0.95146   0.96770
    5  C   1.17744   0.96947   0.98104   0.98195
    6  C   1.15706   0.94949   0.97272   1.00904
    7  C   1.16191   0.94799   1.01689   0.96700
    8  C   1.14386   0.97611   0.95368   0.97702
    9  C   1.13866   0.95760   1.01011   1.00532
   10  C   1.13834   0.98038   0.98440   1.00731
   11  C   1.19549   0.98654   0.96369   0.99902
   12  C   1.19370   0.97590   0.98413   0.98813
   13  H   0.92112
   14  H   0.92857
   15  H   0.92770
   16  H   0.93266
   17  H   0.95132
   18  H   0.94575
   19  H   0.95043
   20  H   0.94970
   21  H   0.94303
   22  H   0.93873
   23  H   0.94407
   24  H   0.94309
   25  H   0.96295
   26  H   0.95890
   27  H   0.96296
   28  H   0.96199
   29  H   0.96309
   30  H   0.96078
   31  H   0.90228
   32  H   0.90060
 *******************************************************************************
 **                                                                           **
 **                              MOPAC v23.1.2                                **
 **                                                                           **
 *******************************************************************************
 **          Digital Object Identifier (DOI): 10.5281/zenodo.6511958          **
 **    Visit the DOI location for information on how to cite this program.    **
 *******************************************************************************

                              PM3 CALCULATION RESULTS

 *******************************************************************************
 *  CALCULATION DONE: (MAX THREADS = 1)              Tue Jun  3 16:38:49 2025  *
 *  PM3        - The PM3 Hamiltonian to be used
 *  OLDGEO     - PREVIOUS GEOMETRY TO BE USED
 *  PRECISE    - TIGHTER CRITERIA TO BE USED
 *  NOSYM      - POINT-GROUP SYMMETRY SET TO C1
 *  THREADS=1  - MULTI-THREADING NOT USED
 *  T=         - A TIME OF 172800.0 SECONDS REQUESTED
 *  DUMP=N     - RESTART FILE WRITTEN EVERY 7200.0 SECONDS REQUESTED
 *  THERMO     - THERMODYNAMIC QUANTITIES TO BE CALCULATED
 *******************************************************************************
oldgeo thermo nosym precise THREADS=1  pm3
 InChI=1S/C12H20/c1-3-9-6-5-7-11-10(4-2)8-12(9)11/h5-6,9-12H,3-4,7-8H2,1-2H3

   ATOM   CHEMICAL          X               Y               Z
  NUMBER   SYMBOL      (ANGSTROMS)     (ANGSTROMS)     (ANGSTROMS)

     1       C          0.76608201  *   0.12215064  *  -0.58155268  *
     2       C         -0.34248241  *  -0.89491421  *  -0.19007683  *
     3       C          1.64839948  *  -0.39378216  *   0.59289906  *
     4       C         -1.68772867  *  -0.32398913  *   0.24503522  *
     5       C          0.55012404  *  -1.41565010  *   0.96222890  *
     6       C          2.97506477  *  -1.00333480  *   0.19139483  *
     7       C         -2.64295156  *  -0.22304483  *  -0.95131663  *
     8       C          0.39611857  *   1.58878625  *  -0.50755006  *
     9       C         -4.07214655  *   0.02483751  *  -0.52390745  *
    10       C          3.98626211  *   0.05662094  *  -0.18460919  *
    11       C         -1.55107619  *   1.01551645  *   0.89638792  *
    12       C         -0.60119671  *   1.88643025  *   0.55324426  *
    13       H          1.80717693  *   0.37595842  *   1.37899985  *
    14       H         -0.50610422  *  -1.66264203  *  -0.97763540  *
    15       H          1.21317413  *  -0.09432258  *  -1.57598104  *
    16       H         -2.12626726  *  -1.03474518  *   0.98954672  *
    17       H         -2.59198543  *  -1.15843218  *  -1.54482931  *
    18       H         -2.30129544  *   0.58259967  *  -1.63155223  *
    19       H          3.35921782  *  -1.61610425  *   1.03086836  *
    20       H          2.83297558  *  -1.70931670  *  -0.65157093  *
    21       H          0.85030564  *  -2.47053961  *   0.86584878  *
    22       H          0.12655447  *  -1.28659678  *   1.97006628  *
    23       H          1.31583450  *   2.18760229  *  -0.35406687  *
    24       H         -0.02950896  *   1.91978722  *  -1.47718818  *
    25       H         -4.73860999  *   0.09700446  *  -1.39284135  *
    26       H         -4.16903802  *   0.96024233  *   0.04371496  *
    27       H         -4.45149255  *  -0.78416244  *   0.11476806  *
    28       H          4.20643883  *   0.72468903  *   0.65873138  *
    29       H          4.93479553  *  -0.39199558  *  -0.50544571  *
    30       H          3.62059930  *   0.68412053  *  -1.00917150  *
    31       H         -0.53270387  *   2.86695934  *   1.03617916  *
    32       H         -2.29041350  *   1.26152917  *   1.66668764  *



          CARTESIAN COORDINATES 

    NO.       ATOM           X           Y           Z

     1         C          0.7661      0.1222     -0.5816
     2         C         -0.3425     -0.8949     -0.1901
     3         C          1.6484     -0.3938      0.5929
     4         C         -1.6877     -0.3240      0.2450
     5         C          0.5501     -1.4157      0.9622
     6         C          2.9751     -1.0033      0.1914
     7         C         -2.6430     -0.2230     -0.9513
     8         C          0.3961      1.5888     -0.5076
     9         C         -4.0721      0.0248     -0.5239
    10         C          3.9863      0.0566     -0.1846
    11         C         -1.5511      1.0155      0.8964
    12         C         -0.6012      1.8864      0.5532
    13         H          1.8072      0.3760      1.3790
    14         H         -0.5061     -1.6626     -0.9776
    15         H          1.2132     -0.0943     -1.5760
    16         H         -2.1263     -1.0347      0.9895
    17         H         -2.5920     -1.1584     -1.5448
    18         H         -2.3013      0.5826     -1.6316
    19         H          3.3592     -1.6161      1.0309
    20         H          2.8330     -1.7093     -0.6516
    21         H          0.8503     -2.4705      0.8658
    22         H          0.1266     -1.2866      1.9701
    23         H          1.3158      2.1876     -0.3541
    24         H         -0.0295      1.9198     -1.4772
    25         H         -4.7386      0.0970     -1.3928
    26         H         -4.1690      0.9602      0.0437
    27         H         -4.4515     -0.7842      0.1148
    28         H          4.2064      0.7247      0.6587
    29         H          4.9348     -0.3920     -0.5054
    30         H          3.6206      0.6841     -1.0092
    31         H         -0.5327      2.8670      1.0362
    32         H         -2.2904      1.2615      1.6667

  H: (PM3): J. J. P. STEWART, J. COMP. CHEM. 10, 209 (1989).
  C: (PM3): J. J. P. STEWART, J. COMP. CHEM. 10, 209 (1989).

           Empirical Formula: C12 H20  =    32 atoms



      MOLECULAR POINT GROUP   :   C1  


      RHF CALCULATION, NO. OF DOUBLY OCCUPIED LEVELS = 34



          HEAT OF FORMATION =     -13.242407 KCALS/MOLE


          CARTESIAN COORDINATE DERIVATIVES

   NUMBER  ATOM         X            Y            Z

     1       C     -0.005236     0.004580    -0.003032
     2       C     -0.003499     0.001490    -0.001979
     3       C     -0.002955     0.005143    -0.004690
     4       C     -0.003828     0.000482     0.001187
     5       C     -0.001025     0.001543    -0.004791
     6       C     -0.004494     0.004887    -0.005777
     7       C      0.001506    -0.002054    -0.003738
     8       C      0.001512     0.000977     0.001187
     9       C     -0.000039    -0.001574    -0.003103
    10       C     -0.002907     0.005282    -0.001743
    11       C     -0.000744    -0.004515     0.003773
    12       C      0.000627    -0.001292     0.001011
    13       H      0.004433    -0.004867     0.002447
    14       H     -0.003505    -0.005689     0.005602
    15       H     -0.005775     0.001259    -0.000264
    16       H     -0.003900     0.000870     0.002576
    17       H     -0.002277     0.001592     0.001408
    18       H      0.003380     0.000087     0.002205
    19       H     -0.006705     0.006026    -0.002895
    20       H      0.008533    -0.002414    -0.000010
    21       H      0.007659    -0.003000    -0.002134
    22       H     -0.001232     0.004566    -0.006626
    23       H      0.000245    -0.005951     0.005019
    24       H      0.019025    -0.006132    -0.003253
    25       H      0.000105     0.001635    -0.002626
    26       H     -0.006585     0.007681    -0.004573
    27       H      0.013759    -0.011441     0.011073
    28       H      0.010407    -0.000938     0.003418
    29       H     -0.005064     0.002870    -0.001387
    30       H      0.000419    -0.001514     0.007583
    31       H     -0.007058     0.000390     0.001410
    32       H     -0.004779     0.000022     0.002724



          GRADIENT NORM =   0.04721

          MOLECULAR WEIGHT =  164.29



          ROTATIONAL CONSTANTS IN CM(-1)

          A =    0.06855315   B =    0.01785268   C =    0.01625338



           PRINCIPAL MOMENTS OF INERTIA IN UNITS OF 10**(-40)*GRAM-CM**2

          A =      408.3365   B =     1567.9857   C =     1722.2731


          ORIENTATION OF MOLECULE IN FORCE CALCULATION

    NO.       ATOM         X         Y         Z

     1          C      -0.7887   -0.0328   -0.6368
     2          C       0.7659   -0.0328   -0.6368
     3          C      -0.7846    1.5241   -0.6368
     4          C       1.4612   -0.6579    0.5676
     5          C       0.7602    1.5149   -0.6577
     6          C      -1.4329    2.1768   -1.8395
     7          C       1.7751   -2.1360    0.3018
     8          C      -1.4658   -0.6708    0.5581
     9          C       2.7397   -2.7082    1.3161
    10          C      -2.9422    2.1190   -1.7609
    11          C       0.6514   -0.5309    1.8187
    12          C      -0.6822   -0.5365    1.8137
    13          H      -1.2034    1.9531    0.2993
    14          H       1.1865   -0.4663   -1.5703
    15          H      -1.2163   -0.4567   -1.5712
    16          H       2.4265   -0.1119    0.7157
    17          H       2.2013   -2.2460   -0.7161
    18          H       0.8331   -2.7200    0.2971
    19          H      -1.0946    3.2299   -1.9044
    20          H      -1.0820    1.6934   -2.7735
    21          H       1.2120    1.9607   -1.5573
    22          H       1.2316    1.9911    0.2157
    23          H      -2.4748   -0.2296    0.6817
    24          H      -1.6230   -1.7528    0.3693
    25          H       2.9490   -3.7659    1.1110
    26          H       2.3398   -2.6439    2.3371
    27          H       3.7004   -2.1759    1.3087
    28          H      -3.3239    2.6595   -0.8845
    29          H      -3.4059    2.5644   -2.6500
    30          H      -3.2996    1.0827   -1.6845
    31          H      -1.2509   -0.4568    2.7462
    32          H       1.2117   -0.4518    2.7570


    FIRST DERIVATIVES WILL BE USED IN THE CALCULATION OF SECOND DERIVATIVES

          ESTIMATED TIME TO COMPLETE CALCULATION =        4.50 SECONDS

    FOR POINT-GROUP C1   THERE ARE   1 UNIQUE SYMMETRY FUNCTIONS.

 STEP:   1 TIME =     0.04 SECS, INTEGRAL =      0.04 TIME LEFT: 172799.95
 STEP:   2 TIME =     0.04 SECS, INTEGRAL =      0.07 TIME LEFT: 172799.92
 STEP:   3 TIME =     0.04 SECS, INTEGRAL =      0.11 TIME LEFT: 172799.88
 STEP:   4 TIME =     0.04 SECS, INTEGRAL =      0.14 TIME LEFT: 172799.84
 STEP:   5 TIME =     0.04 SECS, INTEGRAL =      0.18 TIME LEFT: 172799.80
 STEP:   6 TIME =     0.04 SECS, INTEGRAL =      0.22 TIME LEFT: 172799.77
 STEP:   7 TIME =     0.04 SECS, INTEGRAL =      0.25 TIME LEFT: 172799.73
 STEP:   8 TIME =     0.04 SECS, INTEGRAL =      0.29 TIME LEFT: 172799.70
 STEP:   9 TIME =     0.04 SECS, INTEGRAL =      0.32 TIME LEFT: 172799.66
 STEP:  10 TIME =     0.04 SECS, INTEGRAL =      0.36 TIME LEFT: 172799.63
 STEP:  11 TIME =     0.04 SECS, INTEGRAL =      0.40 TIME LEFT: 172799.59
 STEP:  12 TIME =     0.04 SECS, INTEGRAL =      0.44 TIME LEFT: 172799.55
 STEP:  13 TIME =     0.04 SECS, INTEGRAL =      0.47 TIME LEFT: 172799.52
 STEP:  14 TIME =     0.04 SECS, INTEGRAL =      0.51 TIME LEFT: 172799.48
 STEP:  15 TIME =     0.04 SECS, INTEGRAL =      0.55 TIME LEFT: 172799.44
 STEP:  16 TIME =     0.04 SECS, INTEGRAL =      0.58 TIME LEFT: 172799.41
 STEP:  17 TIME =     0.04 SECS, INTEGRAL =      0.62 TIME LEFT: 172799.37
 STEP:  18 TIME =     0.03 SECS, INTEGRAL =      0.65 TIME LEFT: 172799.34
 STEP:  19 TIME =     0.04 SECS, INTEGRAL =      0.69 TIME LEFT: 172799.30
 STEP:  20 TIME =     0.04 SECS, INTEGRAL =      0.73 TIME LEFT: 172799.26
 STEP:  21 TIME =     0.04 SECS, INTEGRAL =      0.76 TIME LEFT: 172799.23
 STEP:  22 TIME =     0.04 SECS, INTEGRAL =      0.80 TIME LEFT: 172799.19
 STEP:  23 TIME =     0.04 SECS, INTEGRAL =      0.84 TIME LEFT: 172799.15
 STEP:  24 TIME =     0.04 SECS, INTEGRAL =      0.87 TIME LEFT: 172799.12
 STEP:  25 TIME =     0.04 SECS, INTEGRAL =      0.91 TIME LEFT: 172799.08
 STEP:  26 TIME =     0.04 SECS, INTEGRAL =      0.95 TIME LEFT: 172799.04
 STEP:  27 TIME =     0.04 SECS, INTEGRAL =      0.98 TIME LEFT: 172799.01
 STEP:  28 TIME =     0.04 SECS, INTEGRAL =      1.02 TIME LEFT: 172798.97
 STEP:  29 TIME =     0.04 SECS, INTEGRAL =      1.05 TIME LEFT: 172798.93
 STEP:  30 TIME =     0.04 SECS, INTEGRAL =      1.09 TIME LEFT: 172798.89
 STEP:  31 TIME =     0.04 SECS, INTEGRAL =      1.13 TIME LEFT: 172798.86
 STEP:  32 TIME =     0.04 SECS, INTEGRAL =      1.17 TIME LEFT: 172798.82
 STEP:  33 TIME =     0.04 SECS, INTEGRAL =      1.21 TIME LEFT: 172798.78
 STEP:  34 TIME =     0.04 SECS, INTEGRAL =      1.24 TIME LEFT: 172798.75
 STEP:  35 TIME =     0.04 SECS, INTEGRAL =      1.28 TIME LEFT: 172798.71
 STEP:  36 TIME =     0.04 SECS, INTEGRAL =      1.32 TIME LEFT: 172798.67
 STEP:  37 TIME =     0.04 SECS, INTEGRAL =      1.36 TIME LEFT: 172798.63
 STEP:  38 TIME =     0.04 SECS, INTEGRAL =      1.39 TIME LEFT: 172798.59
 STEP:  39 TIME =     0.04 SECS, INTEGRAL =      1.43 TIME LEFT: 172798.56
 STEP:  40 TIME =     0.04 SECS, INTEGRAL =      1.47 TIME LEFT: 172798.52
 STEP:  41 TIME =     0.04 SECS, INTEGRAL =      1.51 TIME LEFT: 172798.48
 STEP:  42 TIME =     0.04 SECS, INTEGRAL =      1.54 TIME LEFT: 172798.45
 STEP:  43 TIME =     0.04 SECS, INTEGRAL =      1.58 TIME LEFT: 172798.41
 STEP:  44 TIME =     0.04 SECS, INTEGRAL =      1.61 TIME LEFT: 172798.38
 STEP:  45 TIME =     0.04 SECS, INTEGRAL =      1.65 TIME LEFT: 172798.34
 STEP:  46 TIME =     0.04 SECS, INTEGRAL =      1.68 TIME LEFT: 172798.30
 STEP:  47 TIME =     0.04 SECS, INTEGRAL =      1.72 TIME LEFT: 172798.27
 STEP:  48 TIME =     0.04 SECS, INTEGRAL =      1.76 TIME LEFT: 172798.23
 STEP:  49 TIME =     0.04 SECS, INTEGRAL =      1.79 TIME LEFT: 172798.20
 STEP:  50 TIME =     0.04 SECS, INTEGRAL =      1.83 TIME LEFT: 172798.16
 STEP:  51 TIME =     0.04 SECS, INTEGRAL =      1.87 TIME LEFT: 172798.12
 STEP:  52 TIME =     0.04 SECS, INTEGRAL =      1.90 TIME LEFT: 172798.09
 STEP:  53 TIME =     0.04 SECS, INTEGRAL =      1.94 TIME LEFT: 172798.05
 STEP:  54 TIME =     0.04 SECS, INTEGRAL =      1.98 TIME LEFT: 172798.01
 STEP:  55 TIME =     0.04 SECS, INTEGRAL =      2.01 TIME LEFT: 172797.98
 STEP:  56 TIME =     0.04 SECS, INTEGRAL =      2.05 TIME LEFT: 172797.94
 STEP:  57 TIME =     0.04 SECS, INTEGRAL =      2.09 TIME LEFT: 172797.90
 STEP:  58 TIME =     0.04 SECS, INTEGRAL =      2.12 TIME LEFT: 172797.86
 STEP:  59 TIME =     0.04 SECS, INTEGRAL =      2.16 TIME LEFT: 172797.82
 STEP:  60 TIME =     0.04 SECS, INTEGRAL =      2.20 TIME LEFT: 172797.79
 STEP:  61 TIME =     0.04 SECS, INTEGRAL =      2.23 TIME LEFT: 172797.75
 STEP:  62 TIME =     0.04 SECS, INTEGRAL =      2.27 TIME LEFT: 172797.72
 STEP:  63 TIME =     0.04 SECS, INTEGRAL =      2.30 TIME LEFT: 172797.68
 STEP:  64 TIME =     0.04 SECS, INTEGRAL =      2.34 TIME LEFT: 172797.65
 STEP:  65 TIME =     0.04 SECS, INTEGRAL =      2.38 TIME LEFT: 172797.61
 STEP:  66 TIME =     0.04 SECS, INTEGRAL =      2.41 TIME LEFT: 172797.57
 STEP:  67 TIME =     0.04 SECS, INTEGRAL =      2.45 TIME LEFT: 172797.54
 STEP:  68 TIME =     0.04 SECS, INTEGRAL =      2.48 TIME LEFT: 172797.50
 STEP:  69 TIME =     0.04 SECS, INTEGRAL =      2.52 TIME LEFT: 172797.46
 STEP:  70 TIME =     0.04 SECS, INTEGRAL =      2.57 TIME LEFT: 172797.42
 STEP:  71 TIME =     0.04 SECS, INTEGRAL =      2.60 TIME LEFT: 172797.39
 STEP:  72 TIME =     0.04 SECS, INTEGRAL =      2.64 TIME LEFT: 172797.35
 STEP:  73 TIME =     0.04 SECS, INTEGRAL =      2.68 TIME LEFT: 172797.31
 STEP:  74 TIME =     0.04 SECS, INTEGRAL =      2.71 TIME LEFT: 172797.27
 STEP:  75 TIME =     0.04 SECS, INTEGRAL =      2.75 TIME LEFT: 172797.23
 STEP:  76 TIME =     0.04 SECS, INTEGRAL =      2.79 TIME LEFT: 172797.20
 STEP:  77 TIME =     0.04 SECS, INTEGRAL =      2.83 TIME LEFT: 172797.16
 STEP:  78 TIME =     0.03 SECS, INTEGRAL =      2.86 TIME LEFT: 172797.13
 STEP:  79 TIME =     0.04 SECS, INTEGRAL =      2.89 TIME LEFT: 172797.09
 STEP:  80 TIME =     0.04 SECS, INTEGRAL =      2.93 TIME LEFT: 172797.06
 STEP:  81 TIME =     0.04 SECS, INTEGRAL =      2.97 TIME LEFT: 172797.02
 STEP:  82 TIME =     0.04 SECS, INTEGRAL =      3.01 TIME LEFT: 172796.98
 STEP:  83 TIME =     0.04 SECS, INTEGRAL =      3.05 TIME LEFT: 172796.94
 STEP:  84 TIME =     0.04 SECS, INTEGRAL =      3.09 TIME LEFT: 172796.90
 STEP:  85 TIME =     0.04 SECS, INTEGRAL =      3.12 TIME LEFT: 172796.87
 STEP:  86 TIME =     0.04 SECS, INTEGRAL =      3.16 TIME LEFT: 172796.83
 STEP:  87 TIME =     0.04 SECS, INTEGRAL =      3.20 TIME LEFT: 172796.79
 STEP:  88 TIME =     0.04 SECS, INTEGRAL =      3.23 TIME LEFT: 172796.76
 STEP:  89 TIME =     0.03 SECS, INTEGRAL =      3.26 TIME LEFT: 172796.73
 STEP:  90 TIME =     0.04 SECS, INTEGRAL =      3.30 TIME LEFT: 172796.69
 STEP:  91 TIME =     0.04 SECS, INTEGRAL =      3.34 TIME LEFT: 172796.65
 STEP:  92 TIME =     0.04 SECS, INTEGRAL =      3.38 TIME LEFT: 172796.61
 STEP:  93 TIME =     0.04 SECS, INTEGRAL =      3.41 TIME LEFT: 172796.58
 STEP:  94 TIME =     0.04 SECS, INTEGRAL =      3.45 TIME LEFT: 172796.54
 STEP:  95 TIME =     0.04 SECS, INTEGRAL =      3.48 TIME LEFT: 172796.50
 STEP:  96 TIME =     0.04 SECS, INTEGRAL =      3.52 TIME LEFT: 172796.47

(To convert to Hartree/Bohr^2, multiply by (10^(-21) x N x a0^2)/(4.184 x 627.51) =  0.0642)


           FORCE MATRIX IN MILLIDYNES/ANGSTROM


                  C  1       C  2       C  3       C  4       C  5       C  6
 ------------------------------------------------------------------------------
     C    1  14.359810
     C    2   3.234178  14.392573
     C    3   3.184575   1.786542  14.488599
     C    4   0.505414   3.946981   0.038586  14.615770
     C    5   1.804191   3.477332   3.554372   0.527140  14.381064
     C    6   0.531885   0.042525   4.316003   0.002526   0.543599  14.493549
     C    7   0.016514   0.639879   0.004875   3.707533   0.044166   0.001057
     C    8   4.285417   0.521989   0.533903   0.107051   0.038872   0.034646
     C    9   0.002464   0.051707   0.000643   0.620528   0.008395   0.000217
     C   10   0.031039   0.004711   0.663829   0.000637   0.050861   4.463449
     C   11   0.058890   0.662642   0.011903   4.687872   0.030638   0.001200
     C   12   0.691582   0.057526   0.030874   0.823454   0.011451   0.002793
     H   13   0.439297   0.025490   4.393819   0.003457   0.428730   0.429509
     H   14   0.429394   4.377040   0.027653   0.429298   0.427623   0.003613
     H   15   4.391965   0.428184   0.437408   0.033956   0.027886   0.033915
     H   16   0.042545   0.415023   0.003025   4.172636   0.035261   0.000909
     H   17   0.002018   0.059278   0.000450   0.444186   0.001991   0.000180
     H   18   0.003041   0.014137   0.000362   0.446529   0.001041   0.000328
     H   19   0.046691   0.003912   0.433162   0.000733   0.019270   4.456472
     H   20   0.025096   0.002394   0.450777   0.000594   0.019125   4.435114
     H   21   0.031150   0.443096   0.452792   0.033154   4.670189   0.029017
     H   22   0.029356   0.452728   0.443821   0.028279   4.681496   0.033123
     H   23   0.433646   0.045572   0.025068   0.006490   0.002586   0.002415
     H   24   0.439228   0.006828   0.043260   0.015792   0.004344   0.005240
     H   25   0.000657   0.008929   0.000138   0.050520   0.001698   0.000062
     H   26   0.000380   0.001348   0.000139   0.020237   0.000578   0.000051
     H   27   0.000433   0.002100   0.000077   0.023026   0.000408   0.000084
     H   28   0.002072   0.000454   0.023057   0.000104   0.001563   0.463856
     H   29   0.002158   0.000621   0.052550   0.000175   0.008864   0.451241
     H   30   0.007374   0.000546   0.022025   0.000329   0.002000   0.463699
     H   31   0.040317   0.007982   0.001793   0.124866   0.000423   0.000843
     H   32   0.009944   0.039889   0.000618   0.431278   0.001221   0.000405


                  C  7       C  8       C  9       C 10       C 11       C 12
 ------------------------------------------------------------------------------
     C    7  14.240103
     C    8   0.023871  14.830684
     C    9   4.466757   0.001647  14.355655
     C   10   0.000335   0.004506   0.000301  14.371984
     C   11   0.684838   0.869177   0.054951   0.000514  18.143097
     C   12   0.037630   5.006872   0.003823   0.000506  10.695157  18.195028
     H   13   0.000775   0.034155   0.000184   0.033240   0.003001   0.008723
     H   14   0.074992   0.034034   0.002302   0.000741   0.044331   0.003278
     H   15   0.001301   0.417970   0.000499   0.008345   0.003447   0.046744
     H   16   0.434591   0.006108   0.035954   0.000183   0.418260   0.046829
     H   17   4.423262   0.002662   0.435818   0.000069   0.046308   0.004727
     H   18   4.452300   0.004119   0.438757   0.000064   0.031701   0.005568
     H   19   0.000202   0.006066   0.000070   0.440072   0.000274   0.000618
     H   20   0.000218   0.001390   0.000079   0.437633   0.000266   0.000686
     H   21   0.004825   0.001523   0.001230   0.002845   0.001723   0.000742
     H   22   0.002720   0.003406   0.000850   0.006111   0.006692   0.002464
     H   23   0.001067   4.451793   0.000399   0.002395   0.049223   0.441601
     H   24   0.004239   4.395795   0.000730   0.000458   0.027621   0.406548
     H   25   0.449794   0.000290   4.749742   0.000097   0.003452   0.000489
     H   26   0.464857   0.000563   4.714326   0.000055   0.011879   0.001567
     H   27   0.464029   0.000256   4.717344   0.000045   0.002753   0.000635
     H   28   0.000078   0.000927   0.000057   4.723893   0.000179   0.000474
     H   29   0.000136   0.000203   0.000100   4.756047   0.000247   0.000234
     H   30   0.000112   0.004144   0.000067   4.704683   0.000378   0.000526
     H   31   0.018641   0.429551   0.001137   0.000276   0.444887   4.841270
     H   32   0.013469   0.126611   0.011421   0.000259   4.824526   0.445164


                  H 13       H 14       H 15       H 16       H 17       H 18
 ------------------------------------------------------------------------------
     H   13   4.897559
     H   14   0.001088   4.864464
     H   15   0.030335   0.031423   4.887958
     H   16   0.000613   0.018974   0.005099   4.631244
     H   17   0.000255   0.035590   0.000476   0.020437   5.033658
     H   18   0.000211   0.002431   0.000442   0.043792   0.566234   5.062445
     H   19   0.024329   0.000674   0.003050   0.000262   0.000029   0.000085
     H   20   0.042864   0.001208   0.027568   0.000168   0.000086   0.000062
     H   21   0.031472   0.028340   0.002923   0.002222   0.000316   0.000298
     H   22   0.027707   0.031971   0.000854   0.027594   0.000444   0.000405
     H   23   0.020520   0.005458   0.022726   0.000797   0.000387   0.000442
     H   24   0.003008   0.000832   0.037614   0.000997   0.000545   0.008685
     H   25   0.000043   0.000533   0.000129   0.002334   0.030951   0.030196
     H   26   0.000113   0.000514   0.000151   0.002105   0.048303   0.023787
     H   27   0.000058   0.000422   0.000154   0.024331   0.025635   0.048115
     H   28   0.021642   0.000178   0.000511   0.000024   0.000043   0.000019
     H   29   0.002038   0.000131   0.000572   0.000059   0.000028   0.000025
     H   30   0.002237   0.000228   0.011547   0.000116   0.000034   0.000042
     H   31   0.001328   0.001241   0.006341   0.011023   0.003059   0.001160
     H   32   0.000531   0.006034   0.001280   0.037670   0.002019   0.002401


                  H 19       H 20       H 21       H 22       H 23       H 24
 ------------------------------------------------------------------------------
     H   19   5.066690
     H   20   0.572360   5.053631
     H   21   0.011404   0.014516   5.296832
     H   22   0.001901   0.001211   0.550490   5.303825
     H   23   0.000499   0.000384   0.000605   0.000664   5.034912
     H   24   0.001120   0.000349   0.000592   0.000748   0.556293   4.974794
     H   25   0.000029   0.000028   0.000287   0.000159   0.000094   0.000192
     H   26   0.000022   0.000039   0.000071   0.000178   0.000170   0.000302
     H   27   0.000021   0.000026   0.000050   0.000156   0.000106   0.000332
     H   28   0.025537   0.048369   0.000459   0.000309   0.001409   0.000198
     H   29   0.027514   0.031087   0.000669   0.001166   0.000393   0.000122
     H   30   0.049180   0.022944   0.000415   0.000410   0.007963   0.000178
     H   31   0.000205   0.000311   0.000288   0.000470   0.035755   0.015545
     H   32   0.000096   0.000135   0.000487   0.001227   0.011070   0.017249


                  H 25       H 26       H 27       H 28       H 29       H 30
 ------------------------------------------------------------------------------
     H   25   5.486425
     H   26   0.572413   5.457231
     H   27   0.573527   0.577643   5.462119
     H   28   0.000019   0.000023   0.000008   5.466883
     H   29   0.000030   0.000017   0.000016   0.572560   5.490627
     H   30   0.000026   0.000026   0.000018   0.577893   0.568572   5.440998
     H   31   0.000235   0.000522   0.000264   0.000156   0.000095   0.000153
     H   32   0.000671   0.021117   0.000549   0.000091   0.000086   0.000112


                  H 31       H 32
 ------------------------------
     H   31   5.214497
     H   32   0.070756   5.200358


          HEAT OF FORMATION =     -13.242407 KCALS/MOLE

          ZERO POINT ENERGY     181.960 KCAL/MOL


           NORMAL COORDINATE ANALYSIS (Total motion = 1 Angstrom)


   Root No.       1         2         3         4         5         6         7         8

                 1 A       2 A       3 A       4 A       5 A       6 A       7 A       8 A   

                  49.9      53.5      90.6     101.7     143.3     183.5     195.4     237.9
  
           1    0.0052   -0.0106   -0.0059    0.0082    0.0133    0.0111   -0.0008    0.0006
           2   -0.0074   -0.0001   -0.0047   -0.0114    0.0083   -0.0026    0.0054    0.0004
           3   -0.0165    0.0037    0.0079   -0.0064   -0.0008   -0.0001    0.0044   -0.0127
           4    0.0053   -0.0107   -0.0056    0.0084    0.0125    0.0109   -0.0006    0.0013
           5   -0.0117   -0.0131    0.0013    0.0068    0.0109    0.0061    0.0043    0.0009
           6   -0.0123    0.0059    0.0042    0.0027    0.0105    0.0111    0.0005   -0.0045
           7    0.0094    0.0025   -0.0116   -0.0096    0.0110    0.0024   -0.0002   -0.0030
           8   -0.0074   -0.0000   -0.0044   -0.0113    0.0078   -0.0034    0.0054   -0.0009
           9   -0.0068   -0.0041   -0.0061   -0.0005   -0.0097   -0.0142   -0.0022   -0.0040
          10   -0.0009   -0.0134    0.0045    0.0038   -0.0003    0.0029    0.0048    0.0004
          11    0.0012   -0.0088    0.0026    0.0022    0.0053    0.0074    0.0046   -0.0197
          12   -0.0015    0.0094   -0.0013    0.0029    0.0148    0.0169   -0.0026   -0.0155
          13    0.0090    0.0023   -0.0115   -0.0092    0.0110    0.0029   -0.0002   -0.0038
          14   -0.0117   -0.0131    0.0011    0.0067    0.0108    0.0054    0.0044    0.0041
          15   -0.0269   -0.0041    0.0052    0.0181   -0.0037   -0.0086   -0.0059    0.0396
          16   -0.0089    0.0096    0.0001   -0.0007   -0.0050   -0.0074   -0.0031   -0.0018
          17    0.0048    0.0004   -0.0174   -0.0134   -0.0163   -0.0151   -0.0001   -0.0106
          18    0.0101   -0.0078   -0.0200   -0.0066   -0.0139   -0.0152   -0.0041   -0.0089
          19    0.0121    0.0013    0.0235   -0.0207   -0.0052   -0.0019    0.0128    0.0104
          20    0.0014   -0.0063    0.0089   -0.0043    0.0066    0.0084    0.0064   -0.0191
          21    0.0130    0.0122   -0.0130    0.0094   -0.0024    0.0016   -0.0053   -0.0045
          22   -0.0004   -0.0192   -0.0018    0.0145   -0.0037    0.0012   -0.0042   -0.0103
          23   -0.0135    0.0098    0.0010   -0.0223    0.0160    0.0071    0.0065    0.0267
          24   -0.0234    0.0038    0.0132   -0.0081   -0.0070   -0.0004    0.0031   -0.0060
          25   -0.0003    0.0549   -0.0060    0.0007   -0.0030   -0.0010   -0.0087    0.0080
          26    0.0139    0.0240   -0.0019   -0.0034   -0.0124   -0.0138    0.0019    0.0052
          27    0.0321   -0.0215    0.0090   -0.0107   -0.0162   -0.0130    0.0130    0.0142
          28   -0.0079    0.0089   -0.0012   -0.0016   -0.0039   -0.0073   -0.0031   -0.0018
          29    0.0256    0.0226    0.0361    0.0231   -0.0208    0.0039    0.0008   -0.0095
          30    0.0474   -0.0050   -0.0080    0.0018    0.0225    0.0090   -0.0018    0.0178
          31   -0.0113   -0.0179    0.0077    0.0040   -0.0114   -0.0052    0.0030    0.0006
          32    0.0041   -0.0160   -0.0142    0.0195   -0.0077   -0.0015   -0.0154   -0.0086
          33   -0.0084    0.0069    0.0021    0.0017    0.0089    0.0124   -0.0015   -0.0166
          34   -0.0112   -0.0178    0.0079    0.0038   -0.0113   -0.0051    0.0033    0.0004
          35   -0.0044   -0.0061   -0.0137    0.0074   -0.0017    0.0004   -0.0251    0.0276
          36   -0.0177    0.0043    0.0084   -0.0039   -0.0009    0.0041    0.0012   -0.0130
          37    0.0253    0.0059   -0.0211   -0.0259    0.0103    0.0022    0.0024   -0.0235
          38   -0.0143    0.0083    0.0042   -0.0193    0.0150    0.0010    0.0104   -0.0052
          39    0.0036   -0.0064   -0.0145   -0.0041   -0.0132   -0.0158   -0.0034   -0.0103
          40    0.0081   -0.0136   -0.0085    0.0205    0.0195    0.0192   -0.0050    0.0055
          41   -0.0230   -0.0229    0.0052    0.0200    0.0073    0.0009    0.0023    0.0277
          42   -0.0057    0.0090    0.0010    0.0022    0.0148    0.0167   -0.0006   -0.0143
          43    0.0074   -0.0120   -0.0065    0.0162    0.0236    0.0210   -0.0012    0.0036
          44    0.0002   -0.0001   -0.0138   -0.0146    0.0021   -0.0132    0.0040   -0.0047
          45   -0.0210    0.0043    0.0123   -0.0083   -0.0030    0.0002    0.0049   -0.0112
          46   -0.0056   -0.0185   -0.0017    0.0117   -0.0010    0.0018    0.0014    0.0016
          47    0.0085   -0.0006    0.0134   -0.0109    0.0020    0.0059    0.0088   -0.0208
          48    0.0028    0.0136    0.0004   -0.0021    0.0295    0.0267    0.0018   -0.0147
          49    0.0286   -0.0391    0.0574   -0.0503   -0.0106   -0.0067    0.0316    0.0210
          50   -0.0027   -0.0102    0.0283   -0.0211    0.0180    0.0201    0.0070   -0.0266
          51    0.0204   -0.0044   -0.0009   -0.0012   -0.0061   -0.0020    0.0028    0.0012
          52    0.0157    0.0120    0.0274   -0.0277   -0.0078   -0.0050    0.0112    0.0165
          53   -0.0043   -0.0237    0.0030    0.0065    0.0107    0.0133    0.0089   -0.0281
          54    0.0023    0.0577   -0.0528    0.0419   -0.0058   -0.0029   -0.0241   -0.0058
          55    0.0043    0.0245    0.0344    0.0229   -0.0084    0.0029   -0.0032    0.0001
          56    0.0002   -0.0049   -0.0302   -0.0219   -0.0175   -0.0193   -0.0004   -0.0126
          57    0.0046   -0.0159   -0.0523   -0.0229   -0.0463   -0.0319   -0.0093   -0.0257
          58   -0.0382    0.0012   -0.0225   -0.0162   -0.0224   -0.0274   -0.0049   -0.0141
          59    0.0022   -0.0113   -0.0550   -0.0341   -0.0382   -0.0292   -0.0041   -0.0232
          60    0.0004   -0.0049   -0.0091   -0.0017   -0.0091   -0.0152   -0.0027   -0.0067
          61   -0.0029    0.0059   -0.0058   -0.0029    0.0131    0.0029   -0.0023    0.0247
          62   -0.0226   -0.0229    0.0041    0.0217    0.0026   -0.0046    0.0001    0.0363
          63   -0.0383   -0.0071    0.0095    0.0288   -0.0066   -0.0136   -0.0091    0.0708
          64    0.0226    0.0063   -0.0203   -0.0258    0.0071   -0.0025    0.0024   -0.0359
          65   -0.0031   -0.0109    0.0018    0.0023    0.0196    0.0197    0.0081   -0.0243
          66   -0.0390   -0.0075    0.0096    0.0296   -0.0066   -0.0137   -0.0094    0.0731
          67   -0.0052   -0.0121    0.0041    0.0022    0.0025    0.0051    0.0061   -0.0002
          68   -0.0217    0.0258    0.0120   -0.0481    0.0328    0.0175    0.0270    0.0513
          69   -0.0327    0.0051    0.0232   -0.0184   -0.0136   -0.0057    0.0155   -0.0081
          70    0.0107   -0.0369   -0.0161    0.0447   -0.0209   -0.0092   -0.0295   -0.0364
          71   -0.0148    0.0126    0.0032   -0.0276    0.0191    0.0082    0.0121    0.0280
          72   -0.0246    0.0027    0.0120   -0.0032   -0.0105    0.0019   -0.0080    0.0101
          73    0.0109    0.0591    0.0206   -0.0337   -0.0111   -0.0032   -0.1582    0.0144
          74    0.0144    0.0230    0.0074   -0.0140   -0.0110   -0.0097   -0.0501    0.0017
          75    0.0412   -0.0121   -0.0123    0.0088   -0.0318   -0.0367    0.1292    0.0393
          76   -0.0176    0.1007   -0.0470    0.0384    0.0038    0.0012    0.0547    0.0017
          77    0.0163    0.0373   -0.0378    0.0334   -0.0233   -0.0351    0.1751    0.0255
          78    0.0252   -0.0045   -0.0047    0.0018   -0.0129   -0.0109    0.0272    0.0106
          79   -0.0041    0.0480   -0.0152    0.0140    0.0004   -0.0002    0.0598    0.0057
          80    0.0210    0.0359    0.0153   -0.0282   -0.0185   -0.0152   -0.1239    0.0094
          81    0.0451   -0.0749    0.0615   -0.0586   -0.0152   -0.0037   -0.1027    0.0088
          82    0.0208    0.0180    0.0226    0.0147    0.0108    0.0214   -0.0009    0.0164
          83    0.0359    0.0341    0.0805    0.0532    0.0604   -0.1094   -0.0089   -0.0307
          84    0.0536   -0.0082   -0.0250   -0.0095   -0.0211    0.0917    0.0051    0.0391
          85   -0.0240    0.0139    0.0079    0.0043   -0.0272   -0.0170   -0.0042   -0.0193
          86    0.0264    0.0232    0.0199    0.0124   -0.1106    0.1363    0.0118    0.0131
          87    0.0563   -0.0074   -0.0209   -0.0067   -0.0101    0.0804    0.0042    0.0385
          88   -0.0194   -0.0057   -0.0349   -0.0245    0.0066   -0.0265   -0.0044   -0.0019
          89    0.0307    0.0282    0.0508    0.0331   -0.0167    0.0009    0.0005   -0.0109
          90    0.0628    0.0026    0.0314    0.0285    0.1309   -0.1266   -0.0133   -0.0000
          91   -0.0186   -0.0181    0.0136   -0.0024   -0.0177   -0.0107    0.0067    0.0070
          92   -0.0035   -0.0108   -0.0251    0.0199   -0.0115   -0.0054   -0.0520    0.0548
          93   -0.0222    0.0046    0.0130   -0.0089   -0.0039    0.0012    0.0057   -0.0112
          94   -0.0187   -0.0199    0.0110    0.0016   -0.0187   -0.0108    0.0015    0.0022
          95    0.0130   -0.0302   -0.0257    0.0420   -0.0239   -0.0109   -0.0248   -0.0188
          96   -0.0047    0.0094    0.0012    0.0009    0.0147    0.0166    0.0005   -0.0166


   Root No.       9        10        11        12        13        14        15        16

                 9 A      10 A      11 A      12 A      13 A      14 A      15 A      16 A   

                 253.1     281.2     346.8     371.2     391.6     474.6     509.6     555.5
  
           1   -0.0043   -0.0106   -0.0080    0.0196    0.0154    0.0044    0.0104   -0.0190
           2   -0.0125    0.0026    0.0323   -0.0162    0.0065    0.0075   -0.0056    0.0077
           3   -0.0029    0.0120    0.0111   -0.0053    0.0119    0.0028    0.0195   -0.0007
           4   -0.0031   -0.0121   -0.0098    0.0160    0.0163    0.0015    0.0132   -0.0143
           5   -0.0124   -0.0033    0.0074    0.0014    0.0070   -0.0193    0.0182   -0.0091
           6    0.0067   -0.0076    0.0069    0.0055   -0.0057    0.0056    0.0185    0.0526
           7   -0.0034    0.0109    0.0034    0.0025    0.0078    0.0222   -0.0068   -0.0096
           8   -0.0126    0.0025    0.0325   -0.0169    0.0016    0.0093   -0.0025    0.0075
           9    0.0026    0.0170    0.0008   -0.0078    0.0441   -0.0137   -0.0079    0.0088
          10   -0.0021   -0.0131   -0.0102   -0.0095    0.0062   -0.0025    0.0002    0.0352
          11   -0.0005    0.0082   -0.0197   -0.0119   -0.0037   -0.0093   -0.0250   -0.0034
          12    0.0147   -0.0077   -0.0005    0.0073   -0.0073    0.0089   -0.0009    0.0255
          13   -0.0036    0.0083    0.0065    0.0041    0.0123    0.0310   -0.0092   -0.0106
          14   -0.0138   -0.0060    0.0110   -0.0004    0.0091   -0.0227    0.0221   -0.0158
          15   -0.0004    0.0071   -0.0059   -0.0068   -0.0096    0.0220   -0.0129    0.0018
          16    0.0013    0.0277   -0.0099   -0.0049   -0.0119   -0.0217    0.0049    0.0023
          17    0.0054   -0.0265   -0.0004    0.0032   -0.0399    0.0027    0.0106    0.0002
          18    0.0110   -0.0050   -0.0155    0.0083    0.0344   -0.0013   -0.0087   -0.0018
          19    0.0343   -0.0061    0.0073   -0.0180    0.0011    0.0006    0.0058   -0.0061
          20    0.0137    0.0162   -0.0187   -0.0041   -0.0073   -0.0026   -0.0309   -0.0038
          21   -0.0151   -0.0233   -0.0006   -0.0282   -0.0018   -0.0143   -0.0189   -0.0121
          22   -0.0065   -0.0058    0.0190    0.0171   -0.0120    0.0027   -0.0148   -0.0203
          23   -0.0034   -0.0174   -0.0205    0.0040    0.0098   -0.0007   -0.0106   -0.0031
          24   -0.0003    0.0043   -0.0046    0.0059   -0.0070   -0.0007    0.0113   -0.0232
          25    0.0088   -0.0152    0.0086   -0.0199    0.0021   -0.0041    0.0063   -0.0099
          26   -0.0241    0.0272   -0.0065    0.0402   -0.0011    0.0093   -0.0013    0.0143
          27   -0.0137   -0.0118    0.0090   -0.0060    0.0020   -0.0074    0.0016   -0.0057
          28    0.0010    0.0304   -0.0108   -0.0060   -0.0165   -0.0296    0.0081    0.0035
          29    0.0031   -0.0149   -0.0007    0.0053    0.0067    0.0061    0.0003   -0.0019
          30   -0.0035    0.0178   -0.0042   -0.0049   -0.0217   -0.0109    0.0035    0.0013
          31   -0.0141   -0.0102   -0.0012   -0.0003   -0.0091   -0.0004   -0.0106    0.0279
          32    0.0116    0.0134   -0.0215   -0.0334    0.0015    0.0291    0.0251   -0.0036
          33    0.0066   -0.0050    0.0064    0.0174   -0.0167    0.0071   -0.0104    0.0109
          34   -0.0148   -0.0103   -0.0013    0.0003   -0.0096   -0.0006   -0.0116    0.0268
          35    0.0447   -0.0010    0.0144    0.0185    0.0076   -0.0169   -0.0124    0.0047
          36    0.0001    0.0045    0.0046    0.0152   -0.0112    0.0041    0.0080   -0.0499
          37   -0.0014    0.0117    0.0114    0.0020    0.0269    0.0327   -0.0131   -0.0053
          38   -0.0201    0.0160    0.0516   -0.0303    0.0017    0.0219   -0.0011    0.0145
          39    0.0072    0.0102   -0.0057   -0.0013    0.0509   -0.0146   -0.0110    0.0071
          40    0.0010   -0.0231   -0.0215    0.0333    0.0105   -0.0052    0.0149   -0.0195
          41   -0.0177   -0.0064    0.0012    0.0050    0.0069   -0.0282    0.0310   -0.0308
          42    0.0108   -0.0111    0.0046    0.0108   -0.0081    0.0065    0.0127    0.0586
          43   -0.0003   -0.0228   -0.0172    0.0275    0.0164   -0.0007    0.0307    0.0128
          44   -0.0132    0.0139    0.0466   -0.0311    0.0221    0.0131   -0.0221    0.0215
          45   -0.0040    0.0117    0.0075   -0.0014    0.0037    0.0024    0.0180   -0.0218
          46   -0.0119   -0.0143   -0.0110   -0.0083    0.0083    0.0039    0.0132    0.0429
          47    0.0142    0.0114   -0.0184   -0.0177   -0.0107   -0.0172   -0.0493   -0.0126
          48    0.0263   -0.0082    0.0016    0.0248    0.0046    0.0013    0.0069    0.0056
          49    0.0706    0.0093    0.0168   -0.0083   -0.0012    0.0177    0.0252   -0.0205
          50    0.0600    0.0298   -0.0142    0.0051   -0.0159    0.0218   -0.0172   -0.0054
          51   -0.0059   -0.0187    0.0033   -0.0250   -0.0016   -0.0105   -0.0121   -0.0177
          52    0.0422   -0.0014    0.0157   -0.0119    0.0001    0.0080    0.0185   -0.0172
          53    0.0017    0.0091   -0.0318   -0.0131   -0.0055   -0.0129   -0.0488    0.0139
          54   -0.0705   -0.0423   -0.0068   -0.0389    0.0045   -0.0394   -0.0370   -0.0048
          55    0.0004    0.0402   -0.0127   -0.0065    0.0071   -0.0334    0.0024    0.0061
          56    0.0071   -0.0333   -0.0022    0.0057   -0.0486    0.0062    0.0129   -0.0024
          57    0.0324   -0.0450   -0.0540    0.0354   -0.0096   -0.0050    0.0100   -0.0182
          58    0.0093    0.0173   -0.0182   -0.0013   -0.0099   -0.0305    0.0082    0.0029
          59    0.0221   -0.0640   -0.0296    0.0262   -0.0861    0.0080    0.0266   -0.0156
          60    0.0054    0.0101   -0.0038   -0.0020    0.0572   -0.0071   -0.0152    0.0061
          61   -0.0059    0.0081    0.0068   -0.0018   -0.0288    0.0782   -0.0295   -0.0231
          62   -0.0189    0.0004   -0.0049   -0.0067    0.0031   -0.0126   -0.0015   -0.0740
          63   -0.0043    0.0102   -0.0137   -0.0131   -0.0340    0.0529   -0.0363   -0.0347
          64   -0.0009    0.0182    0.0175    0.0009    0.0497    0.0058   -0.0055    0.0124
          65   -0.0086   -0.0201    0.0135    0.0141    0.0174   -0.0558    0.0613    0.0279
          66   -0.0047    0.0098   -0.0136   -0.0134   -0.0353    0.0554   -0.0379   -0.0360
          67   -0.0189   -0.0167   -0.0191    0.0131   -0.0036    0.0081   -0.0057   -0.0115
          68   -0.0263   -0.0419   -0.1085    0.0003    0.0328    0.0092    0.0116    0.0090
          69   -0.0220    0.0001   -0.0157   -0.0148   -0.0164    0.0083    0.0101    0.0110
          70    0.0236    0.0222    0.1177    0.0258   -0.0356   -0.0093   -0.0401   -0.0431
          71   -0.0118   -0.0205   -0.0326   -0.0012    0.0139    0.0045   -0.0048    0.0024
          72    0.0233   -0.0023   -0.0234    0.0271   -0.0076   -0.0188    0.0025   -0.0331
          73   -0.0443   -0.0153    0.0120    0.0040    0.0083    0.0056    0.0322    0.0085
          74   -0.0359    0.0242   -0.0084    0.0375   -0.0005    0.0089   -0.0020    0.0144
          75   -0.0083    0.0054    0.0221    0.0364    0.0058    0.0068    0.0341    0.0171
          76    0.0139   -0.0229    0.0072   -0.0316   -0.0009   -0.0141   -0.0109   -0.0225
          77    0.0022    0.0434    0.0040    0.0703   -0.0000    0.0205    0.0204    0.0296
          78   -0.0136   -0.0156    0.0078   -0.0120    0.0008   -0.0119   -0.0063   -0.0111
          79    0.0349   -0.0146    0.0074   -0.0306   -0.0005   -0.0080   -0.0041   -0.0184
          80   -0.0717    0.0263   -0.0044    0.0605    0.0038    0.0169    0.0182    0.0304
          81   -0.0197   -0.0127    0.0046   -0.0155    0.0032   -0.0056    0.0027   -0.0055
          82   -0.0096    0.0519   -0.0037   -0.0151   -0.0381   -0.0396    0.0146    0.0060
          83    0.0154   -0.0321   -0.0077    0.0118    0.0207    0.0107   -0.0041   -0.0045
          84   -0.0157    0.0381    0.0033   -0.0130   -0.0404   -0.0185    0.0093    0.0041
          85    0.0097    0.0172   -0.0179    0.0052    0.0466   -0.0146   -0.0097   -0.0019
          86   -0.0111    0.0093    0.0071    0.0008    0.0284    0.0077   -0.0055   -0.0023
          87   -0.0153    0.0372    0.0033   -0.0132   -0.0449   -0.0188    0.0104    0.0042
          88    0.0026    0.0232   -0.0116   -0.0086   -0.0628   -0.0390    0.0220    0.0073
          89    0.0034   -0.0139   -0.0009    0.0066    0.0217    0.0094   -0.0042   -0.0033
          90    0.0080    0.0014   -0.0103   -0.0028   -0.0443   -0.0154    0.0099    0.0018
          91   -0.0188   -0.0083   -0.0079   -0.0062   -0.0049   -0.0059   -0.0025    0.0227
          92    0.0977    0.0036    0.0551    0.0489    0.0177   -0.0357    0.0039    0.0468
          93   -0.0070    0.0051   -0.0035    0.0082   -0.0093    0.0026    0.0124   -0.0553
          94   -0.0203   -0.0057    0.0031    0.0049   -0.0136   -0.0032   -0.0114   -0.0098
          95    0.0214    0.0348   -0.0305   -0.0710    0.0039    0.0935    0.1184    0.0166
          96    0.0096   -0.0095    0.0045    0.0177   -0.0140    0.0031   -0.0178    0.0315


   Root No.      17        18        19        20        21        22        23        24

                17 A      18 A      19 A      20 A      21 A      22 A      23 A      24 A   

                 593.3     734.7     756.1     808.0     819.7     845.5     862.6     901.8
  
           1    0.0010   -0.0081    0.0187   -0.0052   -0.0081   -0.0111   -0.0101    0.0245
           2   -0.0083   -0.0103    0.0027    0.0147   -0.0127    0.0002    0.0091    0.0051
           3    0.0363   -0.0067    0.0098   -0.0024   -0.0202    0.0038   -0.0078    0.0317
           4    0.0126   -0.0130    0.0167   -0.0041   -0.0121    0.0106    0.0045   -0.0133
           5    0.0049    0.0156   -0.0166   -0.0011    0.0062    0.0022    0.0005   -0.0057
           6    0.0079   -0.0053   -0.0190    0.0013    0.0125   -0.0263    0.0010    0.0121
           7    0.0145    0.0162   -0.0155   -0.0019    0.0078    0.0029    0.0000   -0.0052
           8   -0.0043   -0.0019    0.0172   -0.0088    0.0014    0.0003   -0.0100   -0.0034
           9   -0.0179   -0.0082    0.0163   -0.0052   -0.0038   -0.0032   -0.0123   -0.0109
          10    0.0349   -0.0266    0.0124    0.0077   -0.0007    0.0083    0.0135   -0.0173
          11    0.0163   -0.0026    0.0004    0.0012    0.0020    0.0042    0.0009   -0.0055
          12   -0.0107   -0.0031    0.0035    0.0006   -0.0050    0.0154    0.0046   -0.0081
          13    0.0187    0.0174   -0.0179   -0.0028    0.0083   -0.0048   -0.0049   -0.0103
          14   -0.0011    0.0216   -0.0190    0.0013    0.0038    0.0116    0.0011    0.0014
          15    0.0046   -0.0030   -0.0004   -0.0027    0.0065   -0.0229   -0.0097   -0.0128
          16   -0.0054   -0.0004   -0.0013    0.0016   -0.0004   -0.0000    0.0006   -0.0004
          17    0.0076   -0.0047    0.0186   -0.0210    0.0132    0.0018    0.0015   -0.0018
          18   -0.0073    0.0046   -0.0108    0.0007    0.0088    0.0064    0.0150    0.0105
          19   -0.0005   -0.0036    0.0035    0.0124    0.0141    0.0055   -0.0070    0.0020
          20    0.0121    0.0109    0.0064    0.0015    0.0013   -0.0135   -0.0009    0.0049
          21    0.0032    0.0111   -0.0010   -0.0102   -0.0118   -0.0127    0.0062    0.0011
          22   -0.0348   -0.0082    0.0112    0.0083    0.0032   -0.0174   -0.0038    0.0121
          23   -0.0241   -0.0261   -0.0053    0.0153   -0.0006   -0.0107    0.0212    0.0009
          24    0.0183    0.0007   -0.0004   -0.0031    0.0022    0.0016    0.0037   -0.0099
          25   -0.0051    0.0015   -0.0027    0.0023    0.0042    0.0046   -0.0037    0.0011
          26    0.0039   -0.0005    0.0031   -0.0006   -0.0012   -0.0069   -0.0002    0.0051
          27   -0.0003    0.0030   -0.0028   -0.0026   -0.0019   -0.0023    0.0015   -0.0006
          28   -0.0085   -0.0016   -0.0013    0.0034   -0.0014    0.0035    0.0052    0.0065
          29    0.0033   -0.0003    0.0027   -0.0049    0.0030    0.0005    0.0011    0.0021
          30   -0.0021    0.0000   -0.0025    0.0017    0.0015    0.0020    0.0065    0.0072
          31   -0.0091    0.0123   -0.0070   -0.0046   -0.0037    0.0060   -0.0015    0.0015
          32   -0.0192   -0.0211   -0.0146   -0.0090   -0.0003    0.0099   -0.0133    0.0047
          33   -0.0361    0.0163   -0.0001    0.0037   -0.0008    0.0326   -0.0072   -0.0024
          34   -0.0111    0.0145   -0.0067   -0.0055   -0.0046    0.0038   -0.0016    0.0023
          35    0.0097   -0.0127   -0.0098   -0.0090    0.0006    0.0067   -0.0119    0.0028
          36   -0.0060   -0.0084    0.0088    0.0077    0.0114   -0.0109    0.0044   -0.0117
          37    0.0223    0.0275   -0.0228   -0.0071    0.0129    0.0247    0.0045   -0.0011
          38    0.0147   -0.0053    0.0287   -0.0011   -0.0255    0.0123   -0.0224    0.0200
          39   -0.0226   -0.0016    0.0066   -0.0098    0.0102    0.0015   -0.0033   -0.0183
          40   -0.0169   -0.0056    0.0201   -0.0170    0.0019    0.0029    0.0005   -0.0597
          41    0.0033    0.0276   -0.0253   -0.0096    0.0215   -0.0104   -0.0071   -0.0431
          42   -0.0049   -0.0073   -0.0133   -0.0002    0.0110   -0.0217    0.0034    0.0074
          43    0.0138   -0.0126    0.0113   -0.0192    0.0018   -0.0345   -0.0143    0.0528
          44   -0.0227   -0.0067    0.0181    0.0222   -0.0286    0.0134   -0.0069   -0.0215
          45    0.0371   -0.0059    0.0063   -0.0003   -0.0170    0.0086    0.0009    0.0292
          46    0.0304   -0.0336    0.0036   -0.0011   -0.0074    0.0111    0.0147   -0.0183
          47    0.0177    0.0129    0.0089    0.0139    0.0150   -0.0078   -0.0042    0.0041
          48    0.0103   -0.0127    0.0279    0.0064   -0.0112    0.0309    0.0163   -0.0374
          49   -0.0378    0.0108   -0.0237   -0.0580   -0.0630   -0.0293    0.0339   -0.0144
          50   -0.0348    0.0257   -0.0146   -0.0453   -0.0486   -0.0231    0.0144    0.0065
          51   -0.0064    0.0153   -0.0096   -0.0326   -0.0363   -0.0249    0.0206   -0.0059
          52   -0.0247    0.0062   -0.0093   -0.0025    0.0032    0.0016   -0.0118    0.0151
          53    0.0482   -0.0047    0.0249    0.0210    0.0141   -0.0077    0.0091   -0.0179
          54    0.0497   -0.0025    0.0285    0.0716    0.0803    0.0193   -0.0426    0.0241
          55   -0.0167   -0.0065    0.0111   -0.0309    0.0366    0.0142    0.0449    0.0360
          56    0.0134   -0.0020    0.0103   -0.0033   -0.0057   -0.0042   -0.0160   -0.0133
          57    0.0202    0.0116   -0.0644    0.0850   -0.0700   -0.0129   -0.0181    0.0153
          58   -0.0079   -0.0022   -0.0115    0.0403   -0.0445   -0.0128   -0.0397   -0.0279
          59    0.0373    0.0045   -0.0288    0.0560   -0.0616   -0.0183   -0.0403   -0.0111
          60   -0.0224   -0.0008    0.0091   -0.0225    0.0284    0.0112    0.0194    0.0042
          61    0.0504    0.0339   -0.0398    0.0046    0.0128    0.0221    0.0224    0.0482
          62    0.0063    0.0278    0.0085    0.0054   -0.0341    0.1082    0.0200    0.0039
          63    0.0253    0.0083    0.0028    0.0036   -0.0114    0.0413    0.0147    0.0210
          64   -0.0093    0.0080    0.0011   -0.0185    0.0192   -0.0520   -0.0491   -0.0792
          65   -0.0078    0.0187   -0.0506    0.0029    0.0319   -0.0565   -0.0014   -0.0024
          66    0.0250    0.0045    0.0066    0.0049   -0.0153    0.0433    0.0166    0.0276
          67   -0.0506    0.0274    0.0311   -0.0007    0.0039   -0.0166   -0.0303    0.0203
          68   -0.0587    0.0487    0.0448   -0.0074    0.0017   -0.0110   -0.0457    0.0273
          69    0.0039    0.0389   -0.0080    0.0006   -0.0024    0.0181    0.0130   -0.0347
          70    0.0017   -0.1023   -0.0411    0.0352    0.0030   -0.0281    0.0687   -0.0071
          71   -0.0316   -0.0098    0.0059    0.0169   -0.0046   -0.0109    0.0148    0.0083
          72    0.0258   -0.0038   -0.0141   -0.0352    0.0256    0.0105   -0.0256   -0.0355
          73   -0.0119   -0.0151   -0.0087   -0.0092   -0.0138    0.0286    0.0145   -0.0311
          74    0.0043    0.0012    0.0022   -0.0067   -0.0090   -0.0119    0.0058    0.0020
          75   -0.0095   -0.0253   -0.0036    0.0185    0.0201    0.0530   -0.0098   -0.0213
          76   -0.0075    0.0190   -0.0162   -0.0508   -0.0561   -0.0403    0.0356   -0.0138
          77   -0.0039   -0.0186    0.0043    0.0155    0.0145    0.0295   -0.0074   -0.0080
          78   -0.0006    0.0104   -0.0078   -0.0229   -0.0247   -0.0207    0.0161   -0.0053
          79   -0.0022    0.0081    0.0003    0.0105    0.0161   -0.0035   -0.0149    0.0170
          80   -0.0017   -0.0130   -0.0027   -0.0172   -0.0254    0.0076    0.0220   -0.0255
          81    0.0068   -0.0020    0.0100    0.0432    0.0528    0.0208   -0.0373    0.0254
          82   -0.0076   -0.0053   -0.0061    0.0438   -0.0550   -0.0183   -0.0558   -0.0460
          83    0.0039    0.0053   -0.0167    0.0252   -0.0214   -0.0056   -0.0145   -0.0099
          84   -0.0020   -0.0052    0.0072    0.0022   -0.0089   -0.0046   -0.0125   -0.0099
          85   -0.0138    0.0134   -0.0361    0.0230    0.0068    0.0157    0.0405    0.0403
          86    0.0005    0.0044   -0.0141    0.0217   -0.0178   -0.0048   -0.0121   -0.0079
          87   -0.0009   -0.0059    0.0080    0.0046   -0.0135   -0.0073   -0.0191   -0.0158
          88   -0.0054   -0.0142    0.0400   -0.0577    0.0449    0.0147    0.0335    0.0304
          89    0.0027    0.0041   -0.0122    0.0185   -0.0157   -0.0045   -0.0115   -0.0084
          90    0.0010   -0.0037    0.0016    0.0112   -0.0174   -0.0072   -0.0191   -0.0148
          91    0.0232    0.0144   -0.0121   -0.0144   -0.0052   -0.0152    0.0123   -0.0137
          92    0.0534    0.1742    0.1059    0.0384   -0.0157   -0.0284    0.0351   -0.0054
          93    0.0112   -0.0245   -0.0044   -0.0016    0.0127   -0.0184    0.0088   -0.0216
          94   -0.0168    0.0222   -0.0117   -0.0093    0.0037   -0.0266   -0.0065    0.0103
          95   -0.0546    0.0878    0.0713    0.0743    0.0156   -0.0423    0.0791   -0.0259
          96   -0.0279    0.0009   -0.0045   -0.0007   -0.0066    0.0572   -0.0121   -0.0058


   Root No.      25        26        27        28        29        30        31        32

                25 A      26 A      27 A      28 A      29 A      30 A      31 A      32 A   

                 916.2     953.2     963.5     983.9     987.5     998.2    1014.1    1027.9
  
           1   -0.0042   -0.0072    0.0095    0.0132    0.0059    0.0020    0.0025    0.0041
[...]
 TRANSITION DIPOLE   0.0413         C  3 -- H 13         +31.4% ( 57.9%)    100.0%
 TRAVEL (Ang.)       0.2779         C  8 -- H 23         +22.6% ( 49.2%)     95.0%
 REDUCED MASS        0.2970         C  6 -- H 20          +3.4% ( 19.2%)     96.8%
 EFFECTIVE MASS      1.5071
 FORCE CONSTANT      1.5130

 VIBRATION         75   75A           ATOM PAIR      ENERGY CONTRIBUTION    RADIAL
 FREQUENCY          2945.22         C  1 -- H 15         +46.9% ( 70.2%)    100.0%
 TRANSITION DIPOLE   0.1247         C  3 -- H 13         +15.9% ( 40.9%)    100.0%
 TRAVEL (Ang.)       0.2866         C  8 -- H 24          +9.5% ( 31.7%)     96.7%
 REDUCED MASS        0.2787         C  8 -- H 23          +9.3% ( 31.2%)     96.6%
 EFFECTIVE MASS      1.4669
 FORCE CONSTANT      1.4245

 VIBRATION         76   76A           ATOM PAIR      ENERGY CONTRIBUTION    RADIAL
 FREQUENCY          2949.26         C  7 -- H 17         +51.5% ( 74.5%)     97.0%
 TRANSITION DIPOLE   0.0252         C  7 -- H 18         +42.6% ( 67.7%)     96.0%
 TRAVEL (Ang.)       0.2173         C  2 -- H 14          +2.0% ( 14.7%)    100.0%
 REDUCED MASS        0.4843         C  7 -- C  9          +1.1% ( 11.1%)      0.0%
 EFFECTIVE MASS      1.5409
 FORCE CONSTANT      2.4820

 VIBRATION         77   77A           ATOM PAIR      ENERGY CONTRIBUTION    RADIAL
 FREQUENCY          2952.95         C  6 -- H 20         +42.5% ( 67.4%)     96.9%
 TRANSITION DIPOLE   0.0452         C  6 -- H 19         +37.6% ( 63.4%)     96.1%
 TRAVEL (Ang.)       0.2477         C  3 -- H 13         +16.0% ( 41.4%)    100.0%
 REDUCED MASS        0.3722         C  3 -- C  6          +1.0% ( 10.5%)      2.3%
 EFFECTIVE MASS      1.5208
 FORCE CONSTANT      1.9121

 VIBRATION         78   78A           ATOM PAIR      ENERGY CONTRIBUTION    RADIAL
 FREQUENCY          3016.49         C  8 -- H 23         +59.2% ( 75.9%)     98.6%
 TRANSITION DIPOLE   0.0715         C  8 -- H 24         +37.8% ( 60.7%)     95.9%
 TRAVEL (Ang.)       0.2140         C 12 -- H 31          +0.7% (  8.1%)     99.9%
 REDUCED MASS        0.4881         C  8 -- C 12          +0.7% (  8.0%)     22.1%
 EFFECTIVE MASS      1.2834
 FORCE CONSTANT      2.6165

 VIBRATION         79   79A           ATOM PAIR      ENERGY CONTRIBUTION    RADIAL
 FREQUENCY          3027.13         C  7 -- H 18         +54.0% ( 72.4%)     98.2%
 TRANSITION DIPOLE   0.0200         C  7 -- H 17         +43.4% ( 64.9%)     97.0%
 TRAVEL (Ang.)       0.2163         C  7 -- C  9          +0.6% (  7.7%)     25.9%
 REDUCED MASS        0.4760         C  4 -- C  7          +0.6% (  7.6%)     28.5%
 EFFECTIVE MASS      1.2738
 FORCE CONSTANT      2.5700

 VIBRATION         80   80A           ATOM PAIR      ENERGY CONTRIBUTION    RADIAL
 FREQUENCY          3031.60         C  6 -- H 19         +52.5% ( 71.4%)     98.1%
 TRANSITION DIPOLE   0.0211         C  6 -- H 20         +45.5% ( 66.4%)     97.3%
 TRAVEL (Ang.)       0.2153         C  6 -- C 10          +0.6% (  7.8%)     26.1%
 REDUCED MASS        0.4796         C  3 -- C  6          +0.6% (  7.7%)     29.4%
 EFFECTIVE MASS      1.2755
 FORCE CONSTANT      2.5973

 VIBRATION         81   81A           ATOM PAIR      ENERGY CONTRIBUTION    RADIAL
 FREQUENCY          3033.83         C  5 -- H 21         +49.6% ( 73.4%)     97.0%
 TRANSITION DIPOLE   0.0783         C  5 -- H 22         +46.4% ( 70.9%)     96.7%
 TRAVEL (Ang.)       0.2083         C  1 -- C  5          +1.1% ( 11.1%)      0.0%
 REDUCED MASS        0.5121         C  2 -- C  5          +1.1% ( 11.1%)      0.1%
 EFFECTIVE MASS      1.5441
 FORCE CONSTANT      2.7770

 VIBRATION         82   82A           ATOM PAIR      ENERGY CONTRIBUTION    RADIAL
 FREQUENCY          3048.09         C 11 -- H 32         +60.3% ( 78.8%)    100.0%
 TRANSITION DIPOLE   0.2843         C 12 -- H 31         +37.0% ( 61.8%)    100.0%
 TRAVEL (Ang.)       0.2128         C 11 -- C 12          +1.1% ( 10.6%)      0.9%
 REDUCED MASS        0.4884         C  4 -- C 11          +0.8% (  9.1%)     19.4%
 EFFECTIVE MASS      1.4577
 FORCE CONSTANT      2.6736

 VIBRATION         83   83A           ATOM PAIR      ENERGY CONTRIBUTION    RADIAL
 FREQUENCY          3068.89         C 12 -- H 31         +59.1% ( 78.0%)     99.9%
 TRANSITION DIPOLE   0.2788         C 11 -- H 32         +36.3% ( 61.1%)     99.9%
 TRAVEL (Ang.)       0.2134         C 11 -- C 12          +2.0% ( 14.4%)     97.7%
 REDUCED MASS        0.4824         C  8 -- C 12          +1.0% ( 10.0%)     16.4%
 EFFECTIVE MASS      1.5882
 FORCE CONSTANT      2.6766

 VIBRATION         84   84A           ATOM PAIR      ENERGY CONTRIBUTION    RADIAL
 FREQUENCY          3074.29         C 10 -- H 30         +59.9% ( 79.8%)     98.2%
 TRANSITION DIPOLE   0.0051         C 10 -- H 28         +36.7% ( 62.5%)     94.9%
 TRAVEL (Ang.)       0.2052         C 10 -- H 29          +2.1% ( 15.0%)     25.9%
 REDUCED MASS        0.5211         C  6 -- C 10          +1.0% ( 10.2%)      0.0%
 EFFECTIVE MASS      1.5009
 FORCE CONSTANT      2.9015

 VIBRATION         85   85A           ATOM PAIR      ENERGY CONTRIBUTION    RADIAL
 FREQUENCY          3076.22         C  9 -- H 26         +51.7% ( 74.2%)     97.5%
 TRANSITION DIPOLE   0.0106         C  9 -- H 27         +45.5% ( 69.6%)     96.6%
 TRAVEL (Ang.)       0.2091         C  9 -- H 25          +1.0% ( 10.6%)      3.2%
 REDUCED MASS        0.5016         C  7 -- C  9          +1.0% ( 10.2%)      0.0%
 EFFECTIVE MASS      1.5013
 FORCE CONSTANT      2.7964

 VIBRATION         86   86A           ATOM PAIR      ENERGY CONTRIBUTION    RADIAL
 FREQUENCY          3083.36         C  9 -- H 25         +61.2% ( 80.7%)     98.7%
 TRANSITION DIPOLE   0.0023         C  9 -- H 27         +21.5% ( 47.8%)     88.1%
 TRAVEL (Ang.)       0.2147         C  9 -- H 26         +15.8% ( 41.0%)     83.2%
 REDUCED MASS        0.4745         C  7 -- C  9          +1.0% ( 10.3%)      0.0%
 EFFECTIVE MASS      1.5033
 FORCE CONSTANT      2.6577

 VIBRATION         87   87A           ATOM PAIR      ENERGY CONTRIBUTION    RADIAL
 FREQUENCY          3084.83         C 10 -- H 29         +59.3% ( 79.4%)     98.6%
 TRANSITION DIPOLE   0.0068         C 10 -- H 28         +29.1% ( 55.6%)     92.1%
 TRAVEL (Ang.)       0.2146         C 10 -- H 30         +10.1% ( 32.8%)     73.7%
 REDUCED MASS        0.4748         C  6 -- C 10          +1.0% ( 10.3%)      0.0%
 EFFECTIVE MASS      1.5039
 FORCE CONSTANT      2.6623

 VIBRATION         88   88A           ATOM PAIR      ENERGY CONTRIBUTION    RADIAL
 FREQUENCY          3098.27         C  5 -- H 22         +50.7% ( 70.6%)     97.4%
 TRANSITION DIPOLE   0.0749         C  5 -- H 21         +47.2% ( 68.1%)     96.9%
 TRAVEL (Ang.)       0.2119         C  1 -- C  5          +0.7% (  8.3%)    100.0%
 REDUCED MASS        0.4846         C  3 -- C  5          +0.7% (  8.2%)     49.2%
 EFFECTIVE MASS      1.2822
 FORCE CONSTANT      2.7406

 VIBRATION         89   89A           ATOM PAIR      ENERGY CONTRIBUTION    RADIAL
 FREQUENCY          3178.42         C 10 -- H 29         +38.1% ( 59.4%)     97.8%
 TRANSITION DIPOLE   0.0086         C 10 -- H 28         +33.3% ( 55.5%)     97.1%
 TRAVEL (Ang.)       0.2532         C 10 -- H 30         +28.3% ( 51.2%)     96.1%
 REDUCED MASS        0.3309         C  6 -- C 10          +0.3% (  5.1%)     98.9%
 EFFECTIVE MASS      1.1373
 FORCE CONSTANT      1.9695

 VIBRATION         90   90A           ATOM PAIR      ENERGY CONTRIBUTION    RADIAL
 FREQUENCY          3179.38         C  9 -- H 25         +37.1% ( 58.6%)     97.7%
 TRANSITION DIPOLE   0.0186         C  9 -- H 27         +31.8% ( 54.2%)     96.9%
 TRAVEL (Ang.)       0.2540         C  9 -- H 26         +30.9% ( 53.5%)     96.7%
 REDUCED MASS        0.3288         C  7 -- C  9          +0.3% (  5.1%)     99.4%
 EFFECTIVE MASS      1.1368
 FORCE CONSTANT      1.9582

      SYMMETRY NUMBER FOR POINT-GROUP C1  =  1


          SYSTEM IS A GROUND STATE



 InChI=1S/C12H20/c1-3-9-6-5-7-11-10(4-2)8-12(9)11/h5-6,9-12H,3-4,7-8H2,1-2H3


          MOLECULE IS NOT LINEAR

          THERE ARE 90 GENUINE VIBRATIONS IN THIS SYSTEM
          THIS THERMODYNAMICS CALCULATION IS LIMITED TO
          MOLECULES WHICH HAVE NO INTERNAL ROTATIONS




                    CALCULATED THERMODYNAMIC PROPERTIES
                                          *
   TEMP. (K)   PARTITION FUNCTION   H.O.F.    ENTHALPY  HEAT CAPACITY ENTROPY
                                   KCAL/MOL   CAL/MOLE    CAL/K/MOL  CAL/K/MOL


 298.00  VIB.     0.7713D+04                  6036.1040    42.4753    38.0422
         ROT.     0.1185D+07                   888.2803     2.9808    30.7717
         INT.     0.9137D+10                  6924.3843    45.4561    68.8139
         TRA.     0.2036D+28                  1480.4672     4.9680    41.1956
         TOT.                      -13.242    8404.8515    50.4241   110.0096

 200.00  VIB.     0.2788D+03                  2687.4020    26.5661    24.6262
         ROT.     0.6513D+06                   596.1613     2.9808    29.5830
         INT.     0.1816D+09                  3283.5632    29.5469    54.2093
         TRA.     0.1119D+28                   993.6021     4.9680    39.2145
         TOT.                      -17.370    4277.1654    34.5150    93.4238

 210.00  VIB.     0.3909D+03                  2960.0734    27.9771    25.9563
         ROT.     0.7008D+06                   625.9693     2.9808    29.7285
         INT.     0.2740D+09                  3586.0427    30.9579    55.6848
         TRA.     0.1204D+28                  1043.2822     4.9680    39.4569
         TOT.                      -17.018    4629.3249    35.9260    95.1417

 220.00  VIB.     0.5480D+03                  3247.1264    29.4426    27.2914
         ROT.     0.7514D+06                   655.7774     2.9808    29.8671
         INT.     0.4118D+09                  3902.9038    32.4234    57.1586
         TRA.     0.1291D+28                  1092.9623     4.9680    39.6880
         TOT.                      -16.651    4995.8662    37.3914    96.8466

 230.00  VIB.     0.7680D+03                  3549.1060    30.9623    28.6335
         ROT.     0.8032D+06                   685.5855     2.9808    29.9996
         INT.     0.6169D+09                  4234.6914    33.9431    58.6332
         TRA.     0.1380D+28                  1142.6424     4.9680    39.9088
         TOT.                      -16.270    5377.3339    38.9111    98.5420

 240.00  VIB.     0.1077D+04                  3866.5465    32.5344    29.9843
         ROT.     0.8562D+06                   715.3935     2.9808    30.1265
         INT.     0.9217D+09                  4581.9400    35.5152    60.1108
         TRA.     0.1471D+28                  1192.3226     4.9680    40.1203
         TOT.                      -15.873    5774.2626    40.4832   100.2311

 250.00  VIB.     0.1509D+04                  4199.9575    34.1557    31.3451
         ROT.     0.9102D+06                   745.2016     2.9808    30.2482
         INT.     0.1374D+10                  4945.1591    37.1365    61.5933
         TRA.     0.1564D+28                  1242.0027     4.9680    40.3231
         TOT.                      -15.460    6187.1617    42.1046   101.9164

 260.00  VIB.     0.2117D+04                  4549.8117    35.8222    32.7171
         ROT.     0.9654D+06                   775.0097     2.9808    30.3651
         INT.     0.2044D+10                  5324.8214    38.8031    63.0822
         TRA.     0.1659D+28                  1291.6828     4.9680    40.5179
         TOT.                      -15.031    6616.5042    43.7711   103.6001

 270.00  VIB.     0.2972D+04                  4916.5366    37.5290    34.1009
         ROT.     0.1022D+07                   804.8177     2.9808    30.4776
         INT.     0.3036D+10                  5721.3544    40.5098    64.5785
         TRA.     0.1756D+28                  1341.3629     4.9680    40.7054
         TOT.                      -14.585    7062.7172    45.4778   105.2839

 280.00  VIB.     0.4174D+04                  5300.5080    39.2706    35.4971
         ROT.     0.1079D+07                   834.6258     2.9808    30.5860
         INT.     0.4504D+10                  6135.1338    42.2514    66.0831
         TRA.     0.1854D+28                  1391.0430     4.9680    40.8861
         TOT.                      -14.121    7526.1768    47.2194   106.9692

 290.00  VIB.     0.5869D+04                  5702.0462    41.0414    36.9060
         ROT.     0.1137D+07                   864.4339     2.9808    30.6906
         INT.     0.6674D+10                  6566.4801    44.0222    67.5966
         TRA.     0.1954D+28                  1440.7231     4.9680    41.0604
         TOT.                      -13.640    8007.2032    48.9902   108.6570

 300.00  VIB.     0.8260D+04                  6121.4148    42.8357    38.3276
         ROT.     0.1197D+07                   894.2419     2.9808    30.7916
         INT.     0.9883D+10                  7015.6568    45.8165    69.1192
         TRA.     0.2056D+28                  1490.4032     4.9680    41.2289
         TOT.                      -13.141    8506.0599    50.7845   110.3481

 310.00  VIB.     0.1164D+05                  6558.8200    44.6478    39.7616
         ROT.     0.1257D+07                   924.0500     2.9808    30.8894
         INT.     0.1463D+11                  7482.8700    47.6286    70.6510
         TRA.     0.2160D+28                  1540.0833     4.9680    41.3918
         TOT.                      -12.624    9022.9533    52.5966   112.0428

 320.00  VIB.     0.1642D+05                  7014.4122    46.4722    41.2079
         ROT.     0.1318D+07                   953.8580     2.9808    30.9840
         INT.     0.2164D+11                  7968.2703    49.4530    72.1919
         TRA.     0.2265D+28                  1589.7634     4.9680    41.5495
         TOT.                      -12.089    9558.0337    54.4210   113.7414

 330.00  VIB.     0.2319D+05                  7488.2882    48.3037    42.6660
         ROT.     0.1380D+07                   983.6661     2.9808    31.0757
         INT.     0.3201D+11                  8471.9543    51.2845    73.7417
         TRA.     0.2372D+28                  1639.4435     4.9680    41.7024
         TOT.                      -11.536   10111.3978    56.2526   115.4441

 340.00  VIB.     0.3280D+05                  7980.4943    50.1375    44.1352
         ROT.     0.1444D+07                  1013.4742     2.9808    31.1647
         INT.     0.4735D+11                  8993.9684    53.1183    75.2999
         TRA.     0.2481D+28                  1689.1236     4.9680    41.8507
         TOT.                      -10.964   10683.0920    58.0863   117.1506

 350.00  VIB.     0.4645D+05                  8491.0297    51.9689    45.6150
         ROT.     0.1508D+07                  1043.2822     2.9808    31.2511
         INT.     0.7004D+11                  9534.3119    54.9497    76.8661
         TRA.     0.2591D+28                  1738.8037     4.9680    41.9947
         TOT.                      -10.374   11273.1156    59.9177   118.8608

 360.00  VIB.     0.6589D+05                  9019.8507    53.7939    47.1046
         ROT.     0.1573D+07                  1073.0903     2.9808    31.3351
         INT.     0.1036D+12                 10092.9410    56.7747    78.4397
         TRA.     0.2703D+28                  1788.4838     4.9680    42.1347
         TOT.                       -9.766   11881.4248    61.7428   120.5744

 370.00  VIB.     0.9359D+05                  9566.8748    55.6089    48.6033
         ROT.     0.1639D+07                  1102.8984     2.9808    31.4168
         INT.     0.1534D+12                 10669.7731    58.5897    80.0201
         TRA.     0.2817D+28                  1838.1639     4.9680    42.2708
         TOT.                       -9.139   12507.9371    63.5577   122.2908

 380.00  VIB.     0.1331D+06                 10131.9843    57.4105    50.1102
         ROT.     0.1706D+07                  1132.7064     2.9808    31.4963
         INT.     0.2271D+12                 11264.6908    60.3913    81.6065
         TRA.     0.2932D+28                  1887.8440     4.9680    42.4033
         TOT.                       -8.495   13152.5348    65.3594   124.0098

 390.00  VIB.     0.1896D+06                 10715.0313    59.1959    51.6246
         ROT.     0.1774D+07                  1162.5145     2.9808    31.5737
         INT.     0.3363D+12                 11877.5458    62.1767    83.1983
         TRA.     0.3048D+28                  1937.5242     4.9680    42.5323
         TOT.                       -7.832   13815.0700    67.1448   125.7306

 400.00  VIB.     0.2705D+06                 11315.8408    60.9626    53.1457
         ROT.     0.1842D+07                  1192.3226     2.9808    31.6492
         INT.     0.4983D+12                 12508.1633    63.9434    84.7948
         TRA.     0.3166D+28                  1987.2043     4.9680    42.6581
         TOT.                       -7.152   14495.3676    68.9115   127.4529

   *: NOTE: HEATS OF FORMATION ARE RELATIVE TO THE
            ELEMENTS IN THEIR STANDARD STATE AT 298K
              (=  Standard Enthalpy of Formation).

            Hvib:  Zero-point energy is not included.
                   frequencies of less than zero cm-1 are not included.
            Hrot = (3/2)RT
            Htra = (3/2)RT + pV = (5/2)RT

            Heat capacity is Cp, not Cv

          For more information, see: HTTP://OpenMOPAC.net/Manual/thermochemistry.html


           FORCE CONSTANT IN CARTESIAN COORDINATES (Millidynes/A)

    ATOM   CHEMICAL       X               Y               Z
   NUMBER   SYMBOL  FORCE CONSTANT  FORCE CONSTANT  FORCE CONSTANT

      1       C        7.874458        7.702127        8.891698
      2       C        7.829894        8.098969        8.611312
      3       C        8.277827        7.735121        8.699018
      4       C        8.743354        7.819386        8.708027
      5       C        7.951568        7.845111        8.666216
      6       C        8.480208        8.316857        8.304733
      7       C        8.349120        7.845081        8.455056
      8       C        8.888436        8.051550        8.706806
      9       C        8.230725        8.418475        8.213187
     10       C        8.318015        8.223080        8.348349
     11       C       15.278171        2.639889        9.365731
     12       C       15.270426        2.456004        9.545184
     13       H        1.304670        1.350173        3.588782
     14       H        1.287497        1.326624        3.570999
     15       H        1.317485        1.353747        3.564903
     16       H        3.533482        1.652449        0.772676
     17       H        1.392483        0.748053        4.206565
     18       H        3.800395        1.885090        0.701589
     19       H        1.087487        4.591340        0.697727
     20       H        1.121619        1.593399        3.678948
     21       H        1.447331        1.404897        3.760321
     22       H        1.492812        1.533570        3.594078
     23       H        4.134661        1.418761        0.766931
     24       H        0.703106        4.706656        0.792995
     25       H        0.837881        5.053214        0.897852
     26       H        1.389425        0.707470        4.670892
     27       H        4.220015        1.852629        0.701797
     28       H        1.231517        1.841486        3.704650
     29       H        1.486530        1.461009        3.844023
     30       H        1.159185        4.895738        0.685992
     31       H        1.931956        0.366648        3.956574
     32       H        1.891802        0.374394        3.984933

 **********************
 *                    *
 * JOB ENDED NORMALLY *
 *                    *
 **********************



 TOTAL JOB TIME:             6.72 SECONDS

 == MOPAC DONE ==
