 *******************************************************************************
 **                                                                           **
 **                              MOPAC v23.1.2                                **
 **                                                                           **
 *******************************************************************************
 **          Digital Object Identifier (DOI): 10.5281/zenodo.6511958          **
 **    Visit the DOI location for information on how to cite this program.    **
 *******************************************************************************

                              PM3 CALCULATION RESULTS

 *******************************************************************************
 *  CALCULATION DONE: (MAX THREADS = 1)              Tue Jun  3 16:34:44 2025  *
 *  PM3        - The PM3 Hamiltonian to be used
 *  PRECISE    - TIGHTER CRITERIA TO BE USED
 *  NOSYM      - POINT-GROUP SYMMETRY SET TO C1
 *  THREADS=1  - MULTI-THREADING NOT USED
 *  T=         - A TIME OF 172800.0 SECONDS REQUESTED
 *  DUMP=N     - RESTART FILE WRITTEN EVERY 7200.0 SECONDS REQUESTED
 *******************************************************************************
pm3  precise nosym THREADS=1
 InChI=1S/C3H4O3/c4-3-5-1-2-6-3/h1-2H2

   ATOM   CHEMICAL          X               Y               Z
  NUMBER   SYMBOL      (ANGSTROMS)     (ANGSTROMS)     (ANGSTROMS)

     1       O          0.80810000  *  -1.09500000  *  -0.07310000  *
     2       O          0.67610000  *   1.17740000  *   0.11720000  *
     3       O          2.76030000  *   0.15340000  *   0.08200000  *
     4       C         -0.58290000  *  -0.80440000  *  -0.08310000  *
     5       C         -0.67230000  *   0.73470000  *   0.04580000  *
     6       C          1.50470000  *   0.08360000  *   0.04470000  *
     7       H         -1.07850000  *  -1.30450000  *   0.77620000  *
     8       H         -1.03320000  *  -1.14980000  *  -1.03820000  *
     9       H         -1.21380000  *   1.02500000  *   0.97140000  *
    10       H         -1.16840000  *   1.17960000  *  -0.84300000  *



          CARTESIAN COORDINATES 

    NO.       ATOM           X           Y           Z

     1         O          0.8081     -1.0950     -0.0731
     2         O          0.6761      1.1774      0.1172
     3         O          2.7603      0.1534      0.0820
     4         C         -0.5829     -0.8044     -0.0831
     5         C         -0.6723      0.7347      0.0458
     6         C          1.5047      0.0836      0.0447
     7         H         -1.0785     -1.3045      0.7762
     8         H         -1.0332     -1.1498     -1.0382
     9         H         -1.2138      1.0250      0.9714
    10         H         -1.1684      1.1796     -0.8430

  H: (PM3): J. J. P. STEWART, J. COMP. CHEM. 10, 209 (1989).
  C: (PM3): J. J. P. STEWART, J. COMP. CHEM. 10, 209 (1989).
  O: (PM3): J. J. P. STEWART, J. COMP. CHEM. 10, 209 (1989).

           Empirical Formula: C3 H4 O3  =    10 atoms



      MOLECULAR POINT GROUP   :   C1  


      RHF CALCULATION, NO. OF DOUBLY OCCUPIED LEVELS = 17


          Geometry optimization using EF

          DIAGONAL MATRIX USED AS START HESSIAN

 CYCLE:     1 TIME:   0.004 TIME LEFT:  2.00D  GRAD.:   151.728 HEAT: -120.7143
 CYCLE:     2 TIME:   0.008 TIME LEFT:  2.00D  GRAD.:    33.647 HEAT: -123.9237
 CYCLE:     3 TIME:   0.004 TIME LEFT:  2.00D  GRAD.:    29.521 HEAT: -124.2266
 CYCLE:     4 TIME:   0.004 TIME LEFT:  2.00D  GRAD.:    18.986 HEAT: -124.6537
 CYCLE:     5 TIME:   0.004 TIME LEFT:  2.00D  GRAD.:    15.206 HEAT: -124.7760
 CYCLE:     6 TIME:   0.004 TIME LEFT:  2.00D  GRAD.:    11.797 HEAT: -124.9085
 CYCLE:     7 TIME:   0.004 TIME LEFT:  2.00D  GRAD.:    22.266 HEAT: -124.9398
 CYCLE:     8 TIME:   0.004 TIME LEFT:  2.00D  GRAD.:    17.059 HEAT: -125.0018
 CYCLE:     9 TIME:   0.004 TIME LEFT:  2.00D  GRAD.:    19.859 HEAT: -125.0033
 CYCLE:    10 TIME:   0.004 TIME LEFT:  2.00D  GRAD.:    15.250 HEAT: -125.0270
 CYCLE:    11 TIME:   0.004 TIME LEFT:  2.00D  GRAD.:     8.266 HEAT: -125.0827
 CYCLE:    12 TIME:   0.004 TIME LEFT:  2.00D  GRAD.:     8.308 HEAT: -125.0837
 CYCLE:    13 TIME:   0.004 TIME LEFT:  2.00D  GRAD.:     5.123 HEAT: -125.0979
 CYCLE:    14 TIME:   0.004 TIME LEFT:  2.00D  GRAD.:     3.121 HEAT: -125.1037
 CYCLE:    15 TIME:   0.000 TIME LEFT:  2.00D  GRAD.:     3.544 HEAT: -125.1030
 CYCLE:    16 TIME:   0.004 TIME LEFT:  2.00D  GRAD.:     0.846 HEAT: -125.1073
 CYCLE:    17 TIME:   0.004 TIME LEFT:  2.00D  GRAD.:     0.353 HEAT: -125.1076
 CYCLE:    18 TIME:   0.008 TIME LEFT:  2.00D  GRAD.:     0.275 HEAT: -125.1077
 CYCLE:    19 TIME:   0.004 TIME LEFT:  2.00D  GRAD.:     0.085 HEAT: -125.1078
 CYCLE:    20 TIME:   0.004 TIME LEFT:  2.00D  GRAD.:     0.031 HEAT: -125.1078

     GRADIENT =  0.03053 IS LESS THAN CUTOFF =  0.05000



 -------------------------------------------------------------------------------
 pm3  precise nosym THREADS=1
 InChI=1S/C3H4O3/c4-3-5-1-2-6-3/h1-2H2



     GEOMETRY OPTIMISED USING EIGENVECTOR FOLLOWING (EF).     
     SCF FIELD WAS ACHIEVED                                   


                              PM3 CALCULATION
                                                       MOPAC v23.1.2 MacOS
                                                       Tue Jun  3 16:34:44 2025




          FINAL HEAT OF FORMATION =       -125.10781 KCAL/MOL =    -523.45109 KJ/MOL


          COSMO AREA              =        108.81 SQUARE ANGSTROMS
          COSMO VOLUME            =         93.63 CUBIC ANGSTROMS

          GRADIENT NORM           =          0.03053          =       0.00966 PER ATOM
          IONIZATION POTENTIAL    =         11.776585 EV
          HOMO LUMO ENERGIES (EV) =        -11.777  1.175
          NO. OF FILLED LEVELS    =         17
          MOLECULAR WEIGHT        =         88.0628         POINT GROUP:  C1  

          MOLECULAR DIMENSIONS (Angstroms)

            Atom       Atom       Distance
            H     7    O     3     4.09858
            H    10    O     1     3.01254
            H     9    H     8     2.62687


          SCF CALCULATIONS        =         25

          WALL-CLOCK TIME         =      0.098 SECONDS
          COMPUTATION TIME        =      0.041 SECONDS




   ATOM   CHEMICAL          X               Y               Z
  NUMBER   SYMBOL      (ANGSTROMS)     (ANGSTROMS)     (ANGSTROMS)

     1       O          0.81349290  *  -1.08807219  *  -0.07205894  *
     2       O          0.68236534  *   1.17111211  *   0.11668888  *
     3       O          2.71299701  *   0.15086181  *   0.08047701  *
     4       C         -0.58778794  *  -0.79973520  *  -0.08296500  *
     5       C         -0.67652675  *   0.72944013  *   0.04535506  *
     6       C          1.51366910  *   0.08408506  *   0.04499845  *
     7       H         -1.04014693  *  -1.35053994  *   0.75729306  *
     8       H         -0.99477831  *  -1.19821072  *  -1.02616585  *
     9       H         -1.18028685  *   1.07738301  *   0.96142080  *
    10       H         -1.13616888  *   1.22961053  *  -0.82215180  *

                             CARTESIAN COORDINATES

   1    O        0.813492896    -1.088072186    -0.072058943
   2    O        0.682365343     1.171112111     0.116688884
   3    O        2.712997013     0.150861809     0.080477008
   4    C       -0.587787935    -0.799735199    -0.082964998
   5    C       -0.676526752     0.729440127     0.045355056
   6    C        1.513669101     0.084085058     0.044998449
   7    H       -1.040146934    -1.350539940     0.757293062
   8    H       -0.994778306    -1.198210725    -1.026165848
   9    H       -1.180286848     1.077383013     0.961420799
  10    H       -1.136168880     1.229610530    -0.822151804


           Empirical Formula: C3 H4 O3  =    10 atoms



      MOLECULAR POINT GROUP   :   C1  


                  EIGENVALUES  
 -41.99265 -36.95968 -36.05506 -30.18345 -24.40558 -22.74527 -18.70546 -18.59653
 -17.86169 -16.40212 -15.36833 -15.23610 -14.91312 -14.34629 -11.93038 -11.79151
 -11.77658   1.17546   1.50606   1.99137   2.37112   2.80447   2.98059   3.21546
   3.67298   3.69069   5.66364   6.93661


              NET ATOMIC CHARGES AND DIPOLE CONTRIBUTIONS

  ATOM NO.   TYPE          CHARGE      No. of ELECS.   s-Pop       p-Pop       
    1          O          -0.237581        6.2376     1.84846     4.38912
    2          O          -0.237597        6.2376     1.84845     4.38914
    3          O          -0.324272        6.3243     1.86093     4.46334
    4          C           0.029901        3.9701     1.17211     2.79799
    5          C           0.029884        3.9701     1.17211     2.79801
    6          C           0.472686        3.5273     1.16705     2.36026
    7          H           0.066759        0.9332     0.93324
    8          H           0.066726        0.9333     0.93327
    9          H           0.066737        0.9333     0.93326
   10          H           0.066756        0.9332     0.93324
 DIPOLE           X         Y         Z       TOTAL
 POINT-CHG.    -4.073    -0.227    -0.121     4.081
 HYBRID        -0.534    -0.030    -0.016     0.535
 SUM           -4.607    -0.256    -0.137     4.616


          ATOMIC ORBITAL ELECTRON POPULATIONS

     Atom    s        px        py        pz   
    1  O   1.84846   1.17233   1.32739   1.88940
    2  O   1.84845   1.15952   1.33969   1.88993
    3  O   1.86093   1.16059   1.84763   1.45512
    4  C   1.17211   0.83010   0.94261   1.02529
    5  C   1.17211   0.84257   0.93069   1.02475
    6  C   1.16705   0.85160   0.76984   0.73882
    7  H   0.93324
    8  H   0.93327
    9  H   0.93326
   10  H   0.93324
 *******************************************************************************
 **                                                                           **
 **                              MOPAC v23.1.2                                **
 **                                                                           **
 *******************************************************************************
 **          Digital Object Identifier (DOI): 10.5281/zenodo.6511958          **
 **    Visit the DOI location for information on how to cite this program.    **
 *******************************************************************************

                              PM3 CALCULATION RESULTS

 *******************************************************************************
 *  CALCULATION DONE: (MAX THREADS = 1)              Tue Jun  3 16:34:44 2025  *
 *  PM3        - The PM3 Hamiltonian to be used
 *  OLDGEO     - PREVIOUS GEOMETRY TO BE USED
 *  PRECISE    - TIGHTER CRITERIA TO BE USED
 *  NOSYM      - POINT-GROUP SYMMETRY SET TO C1
 *  THREADS=1  - MULTI-THREADING NOT USED
 *  T=         - A TIME OF 172800.0 SECONDS REQUESTED
 *  DUMP=N     - RESTART FILE WRITTEN EVERY 7200.0 SECONDS REQUESTED
 *  THERMO     - THERMODYNAMIC QUANTITIES TO BE CALCULATED
 *******************************************************************************
oldgeo thermo nosym precise THREADS=1  pm3
 InChI=1S/C3H4O3/c4-3-5-1-2-6-3/h1-2H2

   ATOM   CHEMICAL          X               Y               Z
  NUMBER   SYMBOL      (ANGSTROMS)     (ANGSTROMS)     (ANGSTROMS)

     1       O          0.81349290  *  -1.08807219  *  -0.07205894  *
     2       O          0.68236534  *   1.17111211  *   0.11668888  *
     3       O          2.71299701  *   0.15086181  *   0.08047701  *
     4       C         -0.58778794  *  -0.79973520  *  -0.08296500  *
     5       C         -0.67652675  *   0.72944013  *   0.04535506  *
     6       C          1.51366910  *   0.08408506  *   0.04499845  *
     7       H         -1.04014693  *  -1.35053994  *   0.75729306  *
     8       H         -0.99477831  *  -1.19821072  *  -1.02616585  *
     9       H         -1.18028685  *   1.07738301  *   0.96142080  *
    10       H         -1.13616888  *   1.22961053  *  -0.82215180  *



          CARTESIAN COORDINATES 

    NO.       ATOM           X           Y           Z

     1         O          0.8135     -1.0881     -0.0721
     2         O          0.6824      1.1711      0.1167
     3         O          2.7130      0.1509      0.0805
     4         C         -0.5878     -0.7997     -0.0830
     5         C         -0.6765      0.7294      0.0454
     6         C          1.5137      0.0841      0.0450
     7         H         -1.0401     -1.3505      0.7573
     8         H         -0.9948     -1.1982     -1.0262
     9         H         -1.1803      1.0774      0.9614
    10         H         -1.1362      1.2296     -0.8222

  H: (PM3): J. J. P. STEWART, J. COMP. CHEM. 10, 209 (1989).
  C: (PM3): J. J. P. STEWART, J. COMP. CHEM. 10, 209 (1989).
  O: (PM3): J. J. P. STEWART, J. COMP. CHEM. 10, 209 (1989).

           Empirical Formula: C3 H4 O3  =    10 atoms



      MOLECULAR POINT GROUP   :   C1  


      RHF CALCULATION, NO. OF DOUBLY OCCUPIED LEVELS = 17



          HEAT OF FORMATION =    -125.107813 KCALS/MOLE


          CARTESIAN COORDINATE DERIVATIVES

   NUMBER  ATOM         X            Y            Z

     1       O     -0.002561     0.003859    -0.002063
     2       O     -0.000793    -0.003217    -0.000535
     3       O      0.013135    -0.000296     0.002681
     4       C     -0.005465    -0.005632    -0.002356
     5       C     -0.002415    -0.002068    -0.001813
     6       C      0.001401    -0.002729     0.002285
     7       H      0.001475    -0.015534     0.001177
     8       H      0.000818     0.000416     0.001438
     9       H     -0.001992     0.015265    -0.000716
    10       H     -0.003604     0.009936    -0.000099



          GRADIENT NORM =   0.03015

          MOLECULAR WEIGHT =   88.06



          ROTATIONAL CONSTANTS IN CM(-1)

          A =    0.26064677   B =    0.12780148   C =    0.08866927



           PRINCIPAL MOMENTS OF INERTIA IN UNITS OF 10**(-40)*GRAM-CM**2

          A =      107.3973   B =      219.0331   C =      315.6985


          ORIENTATION OF MOLECULE IN FORCE CALCULATION

    NO.       ATOM         X         Y         Z

     1          O      -1.1355   -0.0010   -0.0001
     2          O       1.1354   -0.0010   -0.0001
     3          O       0.0001    1.9680   -0.0001
     4          C      -0.7686   -1.3838    0.0005
     5          C       0.7685   -1.3838   -0.0001
     6          C      -0.0000    0.7663   -0.0001
     7          H      -1.2206   -1.8410   -0.8944
     8          H      -1.2199   -1.8399    0.8962
     9          H       1.2199   -1.8402   -0.8956
    10          H       1.2206   -1.8404    0.8950


    FIRST DERIVATIVES WILL BE USED IN THE CALCULATION OF SECOND DERIVATIVES

          ESTIMATED TIME TO COMPLETE CALCULATION =        0.47 SECONDS

    FOR POINT-GROUP C1   THERE ARE   1 UNIQUE SYMMETRY FUNCTIONS.

 STEP:   1 TIME =     0.01 SECS, INTEGRAL =      0.01 TIME LEFT: 172799.99
 STEP:   2 TIME =     0.01 SECS, INTEGRAL =      0.02 TIME LEFT: 172799.98
 STEP:   3 TIME =     0.01 SECS, INTEGRAL =      0.02 TIME LEFT: 172799.97
 STEP:   4 TIME =     0.00 SECS, INTEGRAL =      0.03 TIME LEFT: 172799.97
 STEP:   5 TIME =     0.00 SECS, INTEGRAL =      0.03 TIME LEFT: 172799.96
 STEP:   6 TIME =     0.01 SECS, INTEGRAL =      0.04 TIME LEFT: 172799.96
 STEP:   7 TIME =     0.01 SECS, INTEGRAL =      0.05 TIME LEFT: 172799.95
 STEP:   8 TIME =     0.01 SECS, INTEGRAL =      0.05 TIME LEFT: 172799.94
 STEP:   9 TIME =     0.01 SECS, INTEGRAL =      0.06 TIME LEFT: 172799.93
 STEP:  10 TIME =     0.01 SECS, INTEGRAL =      0.07 TIME LEFT: 172799.93
 STEP:  11 TIME =     0.01 SECS, INTEGRAL =      0.08 TIME LEFT: 172799.92
 STEP:  12 TIME =     0.01 SECS, INTEGRAL =      0.09 TIME LEFT: 172799.91
 STEP:  13 TIME =     0.01 SECS, INTEGRAL =      0.09 TIME LEFT: 172799.90
 STEP:  14 TIME =     0.01 SECS, INTEGRAL =      0.10 TIME LEFT: 172799.89
 STEP:  15 TIME =     0.01 SECS, INTEGRAL =      0.11 TIME LEFT: 172799.89
 STEP:  16 TIME =     0.01 SECS, INTEGRAL =      0.12 TIME LEFT: 172799.88
 STEP:  17 TIME =     0.01 SECS, INTEGRAL =      0.12 TIME LEFT: 172799.87
 STEP:  18 TIME =     0.01 SECS, INTEGRAL =      0.13 TIME LEFT: 172799.86
 STEP:  19 TIME =     0.00 SECS, INTEGRAL =      0.14 TIME LEFT: 172799.86
 STEP:  20 TIME =     0.00 SECS, INTEGRAL =      0.14 TIME LEFT: 172799.86
 STEP:  21 TIME =     0.00 SECS, INTEGRAL =      0.14 TIME LEFT: 172799.85
 STEP:  22 TIME =     0.00 SECS, INTEGRAL =      0.15 TIME LEFT: 172799.85
 STEP:  23 TIME =     0.01 SECS, INTEGRAL =      0.16 TIME LEFT: 172799.84
 STEP:  24 TIME =     0.01 SECS, INTEGRAL =      0.16 TIME LEFT: 172799.83
 STEP:  25 TIME =     0.01 SECS, INTEGRAL =      0.17 TIME LEFT: 172799.82
 STEP:  26 TIME =     0.00 SECS, INTEGRAL =      0.18 TIME LEFT: 172799.82
 STEP:  27 TIME =     0.00 SECS, INTEGRAL =      0.18 TIME LEFT: 172799.82
 STEP:  28 TIME =     0.00 SECS, INTEGRAL =      0.18 TIME LEFT: 172799.81
 STEP:  29 TIME =     0.00 SECS, INTEGRAL =      0.19 TIME LEFT: 172799.81
 STEP:  30 TIME =     0.01 SECS, INTEGRAL =      0.20 TIME LEFT: 172799.80

(To convert to Hartree/Bohr^2, multiply by (10^(-21) x N x a0^2)/(4.184 x 627.51) =  0.0642)


           FORCE MATRIX IN MILLIDYNES/ANGSTROM


                  O  1       O  2       O  3       C  4       C  5       C  6
 ------------------------------------------------------------------------------
     O    1   9.724854
     O    2   0.684812   9.726938
     O    3   1.085280   1.085588  15.727755
     C    4   4.547348   1.002453   0.213639  14.766405
     C    5   1.002568   4.548321   0.213541   3.636232  14.766380
     C    6   5.211130   5.212331  14.260006   1.680587   1.680750  22.561591
     H    7   0.377528   0.031828   0.025704   4.625820   0.429273   0.096847
     H    8   0.377627   0.031787   0.025679   4.625201   0.429359   0.096815
     H    9   0.031782   0.377770   0.025692   0.429284   4.626110   0.096828
     H   10   0.031841   0.377682   0.025703   0.429304   4.625741   0.096842


                  H  7       H  8       H  9       H 10
 ------------------------------------------------------
     H    7   5.093698
     H    8   0.494845   5.093426
     H    9   0.028321   0.029613   5.094070
     H   10   0.029577   0.028345   0.494659   5.093901


          HEAT OF FORMATION =    -125.107813 KCALS/MOLE

          ZERO POINT ENERGY      44.999 KCAL/MOL


           NORMAL COORDINATE ANALYSIS (Total motion = 1 Angstrom)


   Root No.       1         2         3         4         5         6         7         8

                 1 A       2 A       3 A       4 A       5 A       6 A       7 A       8 A   

                 164.1     166.2     360.7     612.0     637.6     752.5     826.6     948.8
  
           1    0.0000    0.0000   -0.0835    0.0003    0.1335   -0.0545   -0.0001    0.0897
           2   -0.0000   -0.0000   -0.0591   -0.0002   -0.0498    0.0691    0.0001    0.0201
           3   -0.0978   -0.0571   -0.0000   -0.1115    0.0001    0.0000   -0.0127   -0.0002
           4   -0.0000    0.0000   -0.0835   -0.0003   -0.1335   -0.0546   -0.0000   -0.0896
           5   -0.0000   -0.0000    0.0591   -0.0001   -0.0498   -0.0691   -0.0001    0.0201
           6   -0.0942    0.0603    0.0000   -0.1115    0.0001    0.0000   -0.0127    0.0002
           7   -0.0000   -0.0000    0.1825    0.0000    0.0000   -0.0124   -0.0000   -0.0000
           8   -0.0000   -0.0000   -0.0000    0.0003    0.1598   -0.0000    0.0000   -0.0752
           9    0.1015   -0.0017   -0.0000   -0.1320    0.0001   -0.0000    0.0005    0.0000
          10    0.0000    0.0000    0.0291    0.0000    0.0374    0.0851    0.0001   -0.0063
          11    0.0000    0.0000   -0.0469   -0.0002   -0.0948    0.0746    0.0001    0.0240
          12    0.0570    0.0601    0.0000   -0.0027    0.0000   -0.0001    0.0351    0.0004
          13    0.0000   -0.0000    0.0291   -0.0001   -0.0375    0.0851    0.0001    0.0063
          14   -0.0000    0.0000    0.0469   -0.0002   -0.0947   -0.0746   -0.0001    0.0240
          15    0.0533   -0.0619   -0.0000   -0.0027    0.0000   -0.0001    0.0351   -0.0004
          16   -0.0000    0.0000   -0.0996    0.0000    0.0000   -0.0418   -0.0000   -0.0000
          17   -0.0000   -0.0000    0.0000    0.0003    0.1274    0.0000    0.0000   -0.0475
          18   -0.0255    0.0004   -0.0000    0.4700   -0.0005    0.0000   -0.0007   -0.0000
          19   -0.0058   -0.0778    0.0622   -0.0264   -0.0133    0.0991    0.1719   -0.0841
          20   -0.0978   -0.0882   -0.0792   -0.0219   -0.0542    0.0915    0.0986    0.1405
          21    0.1107    0.1458   -0.0003    0.0249    0.0025   -0.0105   -0.1080   -0.0137
          22    0.0059    0.0780    0.0622    0.0263   -0.0133    0.0999   -0.1720   -0.0820
          23    0.0980    0.0884   -0.0791    0.0217   -0.0545    0.0920   -0.0988    0.1342
          24    0.1107    0.1458    0.0004    0.0248   -0.0026    0.0110   -0.1080    0.0125
          25    0.0011   -0.0781    0.0622    0.0264    0.0132    0.0999   -0.1719    0.0819
          26   -0.0925    0.0915    0.0792   -0.0220   -0.0544   -0.0920    0.0985    0.1343
          27    0.1017   -0.1493    0.0003    0.0250    0.0025    0.0110   -0.1078   -0.0126
          28   -0.0011    0.0780    0.0622   -0.0264    0.0133    0.0992    0.1721    0.0841
          29    0.0924   -0.0915    0.0792    0.0218   -0.0543   -0.0916   -0.0989    0.1402
          30    0.1018   -0.1494   -0.0003    0.0250   -0.0026   -0.0105   -0.1082    0.0136


   Root No.       9        10        11        12        13        14        15        16

                 9 A      10 A      11 A      12 A      13 A      14 A      15 A      16 A   

                 953.6     998.6    1020.3    1068.5    1072.4    1097.6    1273.1    1279.0
  
           1    0.0006   -0.0000   -0.0118    0.0192   -0.0001    0.0097   -0.0301    0.0192
           2    0.0002    0.0001    0.0482    0.0151   -0.0001    0.0851    0.0265    0.0463
           3    0.0173    0.0127   -0.0001   -0.0000   -0.0039   -0.0000   -0.0000   -0.0000
           4   -0.0006   -0.0000   -0.0118   -0.0191    0.0001   -0.0097    0.0301    0.0192
           5    0.0001   -0.0001   -0.0481    0.0151   -0.0001    0.0851    0.0265   -0.0463
           6   -0.0173    0.0128   -0.0000    0.0000    0.0039    0.0000   -0.0000    0.0000
           7    0.0000   -0.0000   -0.0057    0.0000    0.0000    0.0000    0.0000    0.0015
           8   -0.0005   -0.0000   -0.0000   -0.0268    0.0002   -0.0168    0.0000    0.0000
           9   -0.0000   -0.0014    0.0000   -0.0000   -0.0000    0.0000   -0.0000   -0.0000
          10   -0.0000   -0.0000   -0.0110    0.0702   -0.0003   -0.0344    0.0788    0.0347
          11    0.0001   -0.0001   -0.0356    0.0184   -0.0000   -0.0685   -0.0608   -0.0718
          12   -0.0301   -0.0195    0.0001    0.0004    0.0623    0.0001    0.0000    0.0000
          13    0.0000   -0.0000   -0.0110   -0.0702    0.0004    0.0344   -0.0788    0.0347
          14    0.0002    0.0001    0.0355    0.0184   -0.0001   -0.0685   -0.0608    0.0718
          15    0.0301   -0.0195    0.0000   -0.0004   -0.0623   -0.0001    0.0000    0.0000
          16    0.0000    0.0001    0.0294   -0.0000   -0.0000   -0.0001   -0.0000   -0.0702
          17   -0.0003   -0.0000   -0.0000   -0.0130    0.0001   -0.0155   -0.0038    0.0000
          18    0.0000    0.0070   -0.0000    0.0000   -0.0000   -0.0000    0.0000    0.0000
          19    0.0718    0.1380    0.0933    0.1732    0.2097   -0.0295   -0.0661   -0.1562
          20   -0.2099   -0.1867   -0.1732   -0.0841    0.0079   -0.1542    0.1633    0.0488
          21    0.0384   -0.0005    0.0125   -0.0029   -0.0502    0.0338   -0.0333    0.0343
          22   -0.0727   -0.1376    0.0941    0.1708   -0.2119   -0.0297   -0.0662   -0.1560
          23    0.2118    0.1858   -0.1745   -0.0844   -0.0069   -0.1543    0.1632    0.0488
          24    0.0386   -0.0007   -0.0124    0.0022   -0.0502   -0.0336    0.0331   -0.0341
          25    0.0726   -0.1376    0.0942   -0.1708    0.2116    0.0296    0.0661   -0.1562
          26    0.2115   -0.1860    0.1743   -0.0845   -0.0068   -0.1547    0.1632   -0.0486
          27   -0.0385   -0.0005   -0.0125   -0.0022    0.0500    0.0338   -0.0332   -0.0343
          28   -0.0715    0.1381    0.0932   -0.1733   -0.2100    0.0290    0.0661   -0.1562
          29   -0.2098    0.1869    0.1732   -0.0843    0.0079   -0.1545    0.1632   -0.0487
          30   -0.0385   -0.0005    0.0125    0.0029    0.0504   -0.0336    0.0331    0.0343


   Root No.      17        18        19        20        21        22        23        24

                17 A      18 A      19 A      20 A      21 A      22 A      23 A      24 A   

                1361.2    1390.9    1405.8    2038.8    2982.2    2996.4    3034.5    3036.2
  
           1    0.0096    0.0016   -0.0676   -0.0178   -0.0000    0.0000    0.0004   -0.0000
           2    0.0093    0.0061   -0.0070   -0.0151    0.0000    0.0000   -0.0001    0.0002
           3    0.0000   -0.0000   -0.0000    0.0000    0.0003    0.0002   -0.0000    0.0000
           4    0.0096   -0.0016   -0.0676    0.0178   -0.0000    0.0000    0.0004    0.0000
           5   -0.0093    0.0061    0.0070   -0.0151   -0.0000    0.0000    0.0001    0.0002
           6   -0.0000   -0.0000    0.0000    0.0000   -0.0003    0.0002    0.0000    0.0000
           7    0.0010   -0.0000   -0.0105   -0.0000    0.0000    0.0000    0.0001   -0.0000
           8   -0.0000    0.0046   -0.0000   -0.3025   -0.0000   -0.0000   -0.0000   -0.0001
           9   -0.0000   -0.0000   -0.0000   -0.0000    0.0000   -0.0000    0.0000    0.0000
          10   -0.0245   -0.0400    0.0297   -0.0115   -0.0000   -0.0000   -0.0165   -0.0150
          11   -0.0343   -0.0252   -0.0558   -0.0285   -0.0000   -0.0000   -0.0157   -0.0152
          12    0.0001    0.0000    0.0000    0.0000   -0.0321   -0.0315   -0.0000   -0.0000
          13   -0.0246    0.0399    0.0296    0.0115    0.0000   -0.0000   -0.0158    0.0157
          14    0.0345   -0.0251    0.0558   -0.0285   -0.0000    0.0000    0.0150   -0.0159
          15   -0.0000    0.0000   -0.0000   -0.0000    0.0317   -0.0319    0.0000   -0.0000
          16   -0.0197    0.0000    0.1597    0.0000   -0.0000   -0.0000    0.0000   -0.0000
          17    0.0000   -0.0011   -0.0000    0.5027    0.0000   -0.0000    0.0000    0.0009
          18   -0.0000    0.0000    0.0000   -0.0000   -0.0000   -0.0002   -0.0000   -0.0000
          19    0.1250    0.1509   -0.0740   -0.0056    0.0988    0.1015    0.0950    0.0915
          20    0.1140    0.0868    0.1178   -0.0079    0.0963    0.0943    0.0910    0.0864
          21   -0.1355   -0.1383   -0.0281   -0.0194    0.1906    0.1864    0.2058    0.1966
          22    0.1249    0.1508   -0.0740   -0.0056   -0.0987   -0.1015    0.0947    0.0913
          23    0.1140    0.0869    0.1178   -0.0078   -0.0962   -0.0942    0.0906    0.0861
          24    0.1351    0.1380    0.0280    0.0194    0.1910    0.1869   -0.2057   -0.1964
          25    0.1257   -0.1505   -0.0738    0.0056    0.0973   -0.1027    0.0905   -0.0956
          26   -0.1144    0.0864   -0.1179   -0.0078   -0.0949    0.0954   -0.0867    0.0903
          27    0.1358   -0.1376    0.0282   -0.0194   -0.1884    0.1891   -0.1967    0.2058
          28    0.1254   -0.1502   -0.0738    0.0056   -0.0975    0.1029    0.0907   -0.0957
          29   -0.1142    0.0863   -0.1178   -0.0079    0.0950   -0.0955   -0.0868    0.0903
          30   -0.1358    0.1376   -0.0282    0.0194   -0.1884    0.1891    0.1965   -0.2056


           MASS-WEIGHTED COORDINATE ANALYSIS (NORMAL COORDINATES)


   Root No.       1         2         3         4         5         6         7         8

                 1 A       2 A       3 A       4 A       5 A       6 A       7 A       8 A   

                 164.1     166.2     360.7     612.0     637.6     752.5     826.6     948.8
  
           1    0.0000    0.0001   -0.3184    0.0007    0.4339   -0.2696   -0.0004    0.5037
           2   -0.0001   -0.0001   -0.2253   -0.0004   -0.1617    0.3420    0.0005    0.1129
           3   -0.4954   -0.3891   -0.0001   -0.2442    0.0003    0.0001   -0.1037   -0.0014
           4   -0.0000    0.0001   -0.3184   -0.0006   -0.4339   -0.2699   -0.0003   -0.5035
           5   -0.0000   -0.0000    0.2253   -0.0002   -0.1616   -0.3420   -0.0004    0.1131
           6   -0.4774    0.4110    0.0001   -0.2442    0.0004    0.0002   -0.1037    0.0014
           7   -0.0000   -0.0001    0.6956    0.0000    0.0000   -0.0613   -0.0001   -0.0000
           8   -0.0000   -0.0000   -0.0001    0.0008    0.5193   -0.0000    0.0000   -0.4223
           9    0.5145   -0.0116   -0.0000   -0.2890    0.0004   -0.0000    0.0040    0.0000
          10    0.0000    0.0001    0.0961    0.0001    0.1054    0.3648    0.0006   -0.0309
          11    0.0002    0.0001   -0.1549   -0.0004   -0.2668    0.3199    0.0005    0.1167
          12    0.2503    0.3546    0.0001   -0.0052    0.0001   -0.0005    0.2480    0.0022
          13    0.0000   -0.0002    0.0961   -0.0002   -0.1055    0.3648    0.0005    0.0308
          14   -0.0000    0.0000    0.1549   -0.0003   -0.2667   -0.3199   -0.0004    0.1167
          15    0.2340   -0.3655   -0.0000   -0.0051    0.0000   -0.0003    0.2481   -0.0020
          16   -0.0000    0.0000   -0.3290    0.0000    0.0000   -0.1794   -0.0003   -0.0001
          17   -0.0000   -0.0000    0.0000    0.0005    0.3587    0.0000    0.0000   -0.2313
          18   -0.1120    0.0026   -0.0000    0.8916   -0.0013    0.0002   -0.0052   -0.0000
          19   -0.0074   -0.1330    0.0595   -0.0145   -0.0108    0.1231    0.3521   -0.1186
          20   -0.1243   -0.1508   -0.0758   -0.0120   -0.0442    0.1136    0.2020    0.1980
          21    0.1409    0.2493   -0.0003    0.0137    0.0020   -0.0131   -0.2212   -0.0193
          22    0.0075    0.1333    0.0595    0.0144   -0.0108    0.1241   -0.3523   -0.1157
          23    0.1246    0.1511   -0.0757    0.0119   -0.0444    0.1143   -0.2023    0.1893
          24    0.1408    0.2492    0.0003    0.0136   -0.0021    0.0136   -0.2211    0.0176
          25    0.0014   -0.1335    0.0595    0.0145    0.0107    0.1241   -0.3521    0.1155
          26   -0.1176    0.1564    0.0757   -0.0121   -0.0443   -0.1142    0.2018    0.1894
          27    0.1294   -0.2552    0.0003    0.0137    0.0020    0.0136   -0.2207   -0.0177
          28   -0.0015    0.1334    0.0595   -0.0145    0.0109    0.1231    0.3525    0.1185
          29    0.1176   -0.1565    0.0757    0.0120   -0.0443   -0.1137   -0.2025    0.1977
          30    0.1295   -0.2555   -0.0003    0.0137   -0.0021   -0.0131   -0.2215    0.0191


   Root No.       9        10        11        12        13        14        15        16

                 9 A      10 A      11 A      12 A      13 A      14 A      15 A      16 A   

                 953.6     998.6    1020.3    1068.5    1072.4    1097.6    1273.1    1279.0
  
           1    0.0051   -0.0001   -0.0888    0.1383   -0.0007    0.0556   -0.1861    0.1205
           2    0.0012    0.0012    0.3641    0.1088   -0.0011    0.4873    0.1635    0.2908
           3    0.1418    0.1058   -0.0005   -0.0003   -0.0296   -0.0002   -0.0001   -0.0001
           4   -0.0051   -0.0003   -0.0892   -0.1381    0.0008   -0.0554    0.1862    0.1206
           5    0.0012   -0.0010   -0.3632    0.1089   -0.0010    0.4877    0.1636   -0.2911
           6   -0.1417    0.1060   -0.0003    0.0002    0.0296    0.0000   -0.0000    0.0000
           7    0.0000   -0.0001   -0.0428    0.0000    0.0000    0.0000    0.0000    0.0095
           8   -0.0041   -0.0001   -0.0003   -0.1933    0.0012   -0.0960    0.0002    0.0001
           9   -0.0000   -0.0114    0.0000   -0.0000   -0.0000    0.0000   -0.0000   -0.0000
          10   -0.0003   -0.0002   -0.0717    0.4392   -0.0022   -0.1708    0.4220    0.1892
          11    0.0009   -0.0008   -0.2329    0.1151   -0.0000   -0.3400   -0.3252   -0.3911
          12   -0.2144   -0.1401    0.0007    0.0022    0.4059    0.0005    0.0001    0.0000
          13    0.0001   -0.0003   -0.0717   -0.4391    0.0025    0.1709   -0.4219    0.1892
          14    0.0012    0.0007    0.2324    0.1150   -0.0005   -0.3400   -0.3254    0.3912
          15    0.2142   -0.1404    0.0003   -0.0022   -0.4059   -0.0005    0.0001    0.0000
          16    0.0000    0.0006    0.1925   -0.0002   -0.0001   -0.0003   -0.0001   -0.3821
          17   -0.0023   -0.0001   -0.0002   -0.0812    0.0005   -0.0772   -0.0204    0.0001
          18    0.0001    0.0505   -0.0001    0.0000   -0.0000   -0.0000    0.0000    0.0000
          19    0.1480    0.2880    0.1768    0.3139    0.3955   -0.0424   -0.1024   -0.2464
          20   -0.4325   -0.3895   -0.3283   -0.1524    0.0148   -0.2217    0.2532    0.0769
          21    0.0792   -0.0010    0.0237   -0.0053   -0.0946    0.0485   -0.0516    0.0541
          22   -0.1498   -0.2870    0.1783    0.3094   -0.3996   -0.0427   -0.1026   -0.2462
          23    0.4364    0.3876   -0.3306   -0.1529   -0.0129   -0.2218    0.2532    0.0770
          24    0.0795   -0.0014   -0.0236    0.0040   -0.0947   -0.0483    0.0513   -0.0539
          25    0.1496   -0.2872    0.1785   -0.3094    0.3991    0.0426    0.1025   -0.2464
          26    0.4358   -0.3881    0.3304   -0.1531   -0.0128   -0.2224    0.2532   -0.0766
          27   -0.0794   -0.0011   -0.0236   -0.0040    0.0943    0.0486   -0.0514   -0.0541
          28   -0.1474    0.2882    0.1766   -0.3140   -0.3960    0.0418    0.1025   -0.2463
          29   -0.4322    0.3900    0.3282   -0.1527    0.0149   -0.2222    0.2531   -0.0768
          30   -0.0793   -0.0011    0.0236    0.0053    0.0950   -0.0484    0.0514    0.0542


   Root No.      17        18        19        20        21        22        23        24

                17 A      18 A      19 A      20 A      21 A      22 A      23 A      24 A   

                1361.2    1390.9    1405.8    2038.8    2982.2    2996.4    3034.5    3036.2
  
           1    0.0778    0.0126   -0.3400   -0.0334   -0.0000    0.0000    0.0031   -0.0002
           2    0.0752    0.0485   -0.0354   -0.0283    0.0000    0.0000   -0.0006    0.0019
           3    0.0000   -0.0000   -0.0000    0.0000    0.0023    0.0017   -0.0000    0.0000
           4    0.0778   -0.0127   -0.3401    0.0334   -0.0000    0.0000    0.0031    0.0001
           5   -0.0755    0.0484    0.0354   -0.0283   -0.0000    0.0000    0.0007    0.0019
           6   -0.0000   -0.0000    0.0000    0.0000   -0.0023    0.0017    0.0000    0.0000
           7    0.0079   -0.0000   -0.0525   -0.0001    0.0000    0.0000    0.0005   -0.0000
           8   -0.0001    0.0365   -0.0001   -0.5678   -0.0000   -0.0000   -0.0000   -0.0006
           9   -0.0000   -0.0000   -0.0000   -0.0000    0.0000   -0.0002    0.0000    0.0000
          10   -0.1722   -0.2755    0.1293   -0.0187   -0.0000   -0.0000   -0.1161   -0.1058
          11   -0.2414   -0.1736   -0.2429   -0.0463   -0.0001   -0.0001   -0.1107   -0.1071
          12    0.0004    0.0003    0.0001    0.0000   -0.2249   -0.2206   -0.0001   -0.0001
          13   -0.1732    0.2749    0.1289    0.0187    0.0001   -0.0001   -0.1111    0.1111
          14    0.2421   -0.1727    0.2430   -0.0463   -0.0000    0.0001    0.1057   -0.1120
          15   -0.0002    0.0000   -0.0000   -0.0000    0.2220   -0.2235    0.0001   -0.0001
          16   -0.1387    0.0001    0.6955    0.0001   -0.0000   -0.0000    0.0000   -0.0000
          17    0.0000   -0.0077   -0.0001    0.8176    0.0000   -0.0000    0.0001    0.0064
          18   -0.0000    0.0000    0.0000   -0.0000   -0.0000   -0.0012   -0.0000   -0.0000
          19    0.2545    0.3009   -0.0934   -0.0026    0.2003    0.2060    0.1940    0.1871
          20    0.2321    0.1731    0.1487   -0.0037    0.1952    0.1913    0.1858    0.1766
          21   -0.2758   -0.2758   -0.0355   -0.0091    0.3866    0.3782    0.4204    0.4017
          22    0.2543    0.3006   -0.0934   -0.0026   -0.2002   -0.2060    0.1934    0.1866
          23    0.2320    0.1732    0.1486   -0.0037   -0.1950   -0.1911    0.1851    0.1759
          24    0.2751    0.2751    0.0353    0.0091    0.3874    0.3792   -0.4202   -0.4015
          25    0.2559   -0.3001   -0.0931    0.0026    0.1974   -0.2084    0.1848   -0.1954
          26   -0.2329    0.1723   -0.1487   -0.0037   -0.1925    0.1936   -0.1771    0.1845
          27    0.2765   -0.2744    0.0356   -0.0091   -0.3821    0.3837   -0.4016    0.4206
          28    0.2552   -0.2995   -0.0932    0.0027   -0.1978    0.2088    0.1851   -0.1957
          29   -0.2324    0.1720   -0.1487   -0.0037    0.1927   -0.1938   -0.1772    0.1845
          30   -0.2765    0.2743   -0.0356    0.0091   -0.3820    0.3837    0.4013   -0.4202


          DESCRIPTION OF VIBRATIONS


 VIBRATION          1    1A           ATOM PAIR      ENERGY CONTRIBUTION    RADIAL
 FREQUENCY           164.12         C  4 -- C  5         +15.1% (210.1%)      0.0%
 TRANSITION DIPOLE   0.2016         O  1 -- C  4         +14.4% (205.3%)      0.0%
 TRAVEL (Ang.)       0.3697         O  2 -- C  5         +12.8% (193.5%)      0.0%
 REDUCED MASS        3.0058         C  4 -- C  6         +10.0% (170.7%)      0.0%
 EFFECTIVE MASS     55.6293
 FORCE CONSTANT      0.0477

 VIBRATION          2    2A           ATOM PAIR      ENERGY CONTRIBUTION    RADIAL
 FREQUENCY           166.17         C  4 -- C  5         +20.3% (357.1%)      0.0%
 TRANSITION DIPOLE   0.0028         O  2 -- C  5         +11.3% (267.0%)      0.0%
 TRAVEL (Ang.)       0.5648         O  1 -- C  4         +10.6% (258.2%)      0.0%
 REDUCED MASS        1.2720         C  5 -- H  9         +10.0% (250.3%)     80.4%
 EFFECTIVE MASS    101.7912
 FORCE CONSTANT      0.0207

 VIBRATION          3    3A           ATOM PAIR      ENERGY CONTRIBUTION    RADIAL
 FREQUENCY           360.67         O  3 -- C  6         +18.0% (132.2%)      0.0%
 TRANSITION DIPOLE   0.8822         C  5 -- C  6         +12.9% (111.8%)      0.0%
 TRAVEL (Ang.)       0.2004         C  4 -- C  6         +12.9% (111.8%)      0.0%
 REDUCED MASS        4.6544         O  2 -- C  5         +10.9% (102.8%)      0.8%
 EFFECTIVE MASS     17.0989         O  1 -- C  4         +10.9% (102.7%)      0.8%
 FORCE CONSTANT      0.3567

 VIBRATION          4    4A           ATOM PAIR      ENERGY CONTRIBUTION    RADIAL
 FREQUENCY           611.96         O  3 -- C  6         +22.0% ( 88.5%)      0.0%
 TRANSITION DIPOLE   1.8372         O  2 -- C  6         +20.7% ( 85.8%)      0.0%
 TRAVEL (Ang.)       0.1187         O  1 -- C  6         +20.7% ( 85.8%)      0.0%
 REDUCED MASS        7.8167         C  4 -- C  6         +17.9% ( 79.9%)      0.0%
 EFFECTIVE MASS     12.7688         C  5 -- C  6         +17.9% ( 79.9%)      0.0%
 FORCE CONSTANT      1.7247

 VIBRATION          5    5A           ATOM PAIR      ENERGY CONTRIBUTION    RADIAL
 FREQUENCY           637.56         C  4 -- C  6         +16.8% (110.3%)     76.2%
 TRANSITION DIPOLE   0.1483         C  5 -- C  6         +16.8% (110.2%)     76.1%
 TRAVEL (Ang.)       0.1879         O  2 -- C  6         +16.7% (110.0%)      1.0%
 REDUCED MASS        2.9958         O  1 -- C  6         +16.7% (110.0%)      1.0%
 EFFECTIVE MASS     15.3010
 FORCE CONSTANT      0.7175

 VIBRATION          6    6A           ATOM PAIR      ENERGY CONTRIBUTION    RADIAL
 FREQUENCY           752.50         C  4 -- C  5         +15.8% ( 99.0%)      0.0%
 TRANSITION DIPOLE   0.0614         O  2 -- C  5         +11.3% ( 83.9%)      8.4%
 TRAVEL (Ang.)       0.1894         O  1 -- C  4         +11.3% ( 83.9%)      8.4%
 REDUCED MASS        2.4992         C  5 -- C  6         +10.6% ( 81.0%)     58.9%
 EFFECTIVE MASS     15.4781         C  4 -- C  6         +10.6% ( 81.0%)     58.9%
 FORCE CONSTANT      0.8338

 VIBRATION          7    7A           ATOM PAIR      ENERGY CONTRIBUTION    RADIAL
 FREQUENCY           826.56         C  4 -- H  8         +19.0% ( 70.7%)      6.1%
 TRANSITION DIPOLE   0.1345         C  5 -- H 10         +19.0% ( 70.7%)      6.1%
 TRAVEL (Ang.)       0.5407         C  4 -- H  7         +19.0% ( 70.6%)      6.1%
 REDUCED MASS        0.2790         C  5 -- H  9         +19.0% ( 70.6%)      6.1%
 EFFECTIVE MASS      2.9617
 FORCE CONSTANT      0.1123

 VIBRATION          8    8A           ATOM PAIR      ENERGY CONTRIBUTION    RADIAL
 FREQUENCY           948.83         O  1 -- C  6         +20.4% ( 66.7%)    100.0%
 TRANSITION DIPOLE   0.5856         O  2 -- C  6         +20.4% ( 66.7%)    100.0%
 TRAVEL (Ang.)       0.1585         O  1 -- C  4         +11.2% ( 49.6%)      6.9%
 REDUCED MASS        2.8299         O  2 -- C  5         +11.2% ( 49.5%)      6.9%
 EFFECTIVE MASS     13.1940
 FORCE CONSTANT      1.5011

 VIBRATION          9    9A           ATOM PAIR      ENERGY CONTRIBUTION    RADIAL
 FREQUENCY           953.64         C  4 -- H  8         +19.1% ( 55.6%)      4.8%
 TRANSITION DIPOLE   0.0034         C  5 -- H  9         +19.0% ( 55.5%)      4.8%
 TRAVEL (Ang.)       0.5282         C  4 -- H  7         +18.8% ( 55.2%)      4.8%
 REDUCED MASS        0.2534         C  5 -- H 10         +18.8% ( 55.2%)      4.8%
 EFFECTIVE MASS      2.6533
 FORCE CONSTANT      0.1358

 VIBRATION         10   10A           ATOM PAIR      ENERGY CONTRIBUTION    RADIAL
 FREQUENCY           998.56         C  5 -- H 10         +22.1% ( 51.5%)      1.9%
 TRANSITION DIPOLE   0.0820         C  4 -- H  7         +22.0% ( 51.5%)      1.9%
 TRAVEL (Ang.)       0.5373         C  5 -- H  9         +21.9% ( 51.4%)      1.9%
 REDUCED MASS        0.2339         C  4 -- H  8         +21.9% ( 51.3%)      1.9%
 EFFECTIVE MASS      1.6403
 FORCE CONSTANT      0.1374

 VIBRATION         11   11A           ATOM PAIR      ENERGY CONTRIBUTION    RADIAL
 FREQUENCY          1020.30         O  1 -- C  4         +12.7% ( 49.7%)     94.8%
 TRANSITION DIPOLE   0.2464         O  2 -- C  5         +12.7% ( 49.6%)     94.8%
 TRAVEL (Ang.)       0.2858         C  4 -- H  8          +9.2% ( 42.1%)      9.2%
 REDUCED MASS        0.8091         C  5 -- H  9          +9.2% ( 42.1%)      9.1%
 EFFECTIVE MASS      7.3542
 FORCE CONSTANT      0.4963

 VIBRATION         12   12A           ATOM PAIR      ENERGY CONTRIBUTION    RADIAL
 FREQUENCY          1068.52         C  4 -- C  5         +22.4% ( 77.7%)    100.0%
 TRANSITION DIPOLE   0.0794         C  5 -- H 10          +9.5% ( 50.5%)     32.4%
 TRAVEL (Ang.)       0.2361         C  4 -- H  7          +9.5% ( 50.5%)     32.5%
 REDUCED MASS        1.1322         C  4 -- H  8          +9.4% ( 50.4%)     30.9%
 EFFECTIVE MASS      8.0845
 FORCE CONSTANT      0.7616

 VIBRATION         13   13A           ATOM PAIR      ENERGY CONTRIBUTION    RADIAL
 FREQUENCY          1072.42         C  4 -- C  5         +16.7% ( 62.4%)      0.0%
 TRANSITION DIPOLE   0.0011         C  4 -- H  8         +13.5% ( 56.1%)     14.0%
 TRAVEL (Ang.)       0.2868         C  5 -- H  9         +13.5% ( 56.0%)     14.0%
 REDUCED MASS        0.7646         C  5 -- H 10         +13.5% ( 56.0%)     13.7%
 EFFECTIVE MASS      5.0358         C  4 -- H  7         +13.5% ( 55.9%)     13.8%
 FORCE CONSTANT      0.5181

 VIBRATION         14   14A           ATOM PAIR      ENERGY CONTRIBUTION    RADIAL
 FREQUENCY          1097.56         O  2 -- C  5         +17.0% ( 65.4%)     74.8%
 TRANSITION DIPOLE   1.4060         O  1 -- C  4         +17.0% ( 65.3%)     74.8%
 TRAVEL (Ang.)       0.1610         C  4 -- C  5         +12.9% ( 56.9%)    100.0%
 REDUCED MASS        2.3713         O  2 -- C  6          +7.1% ( 42.1%)     40.7%
 EFFECTIVE MASS     12.2509
 FORCE CONSTANT      1.6831

 VIBRATION         15   15A           ATOM PAIR      ENERGY CONTRIBUTION    RADIAL
 FREQUENCY          1273.09         C  4 -- C  5         +17.4% ( 65.7%)    100.0%
 TRANSITION DIPOLE   0.6488         O  2 -- C  5         +11.1% ( 52.3%)     64.9%
 TRAVEL (Ang.)       0.1596         O  1 -- C  4         +11.1% ( 52.3%)     64.9%
 REDUCED MASS        2.0806         C  5 -- H  9         +11.0% ( 52.2%)      0.0%
 EFFECTIVE MASS      8.6420         C  4 -- H  7         +11.0% ( 52.2%)      0.0%
 FORCE CONSTANT      1.9869         C  5 -- H 10         +11.0% ( 52.2%)      0.0%
                            C  4 -- H  8         +11.0% ( 52.2%)      0.0%

 VIBRATION         16   16A           ATOM PAIR      ENERGY CONTRIBUTION    RADIAL
 FREQUENCY          1279.02         C  4 -- C  5         +10.4% ( 51.0%)      0.0%
 TRANSITION DIPOLE   1.1299         O  2 -- C  5          +9.3% ( 48.3%)     97.5%
 TRAVEL (Ang.)       0.1909         O  1 -- C  4          +9.3% ( 48.3%)     97.5%
 REDUCED MASS        1.4463         O  2 -- C  6          +8.8% ( 46.9%)     99.5%
 EFFECTIVE MASS      9.4124
 FORCE CONSTANT      1.3940

 VIBRATION         17   17A           ATOM PAIR      ENERGY CONTRIBUTION    RADIAL
 FREQUENCY          1361.15         C  5 -- H  9         +15.7% ( 46.0%)      4.5%
 TRANSITION DIPOLE   0.2958         C  5 -- H 10         +15.6% ( 45.9%)      4.5%
 TRAVEL (Ang.)       0.3765         C  4 -- H  7         +15.6% ( 45.8%)      4.5%
 REDUCED MASS        0.3496         C  4 -- H  8         +15.5% ( 45.7%)      4.5%
 EFFECTIVE MASS      3.2767
 FORCE CONSTANT      0.3816

 VIBRATION         18   18A           ATOM PAIR      ENERGY CONTRIBUTION    RADIAL
 FREQUENCY          1390.92         C  4 -- H  7         +16.1% ( 46.6%)      4.6%
 TRANSITION DIPOLE   0.1826         C  4 -- H  8         +16.1% ( 46.5%)      4.6%
 TRAVEL (Ang.)       0.3386         C  5 -- H  9         +16.0% ( 46.4%)      4.6%
 REDUCED MASS        0.4229         C  5 -- H 10         +15.9% ( 46.3%)      4.6%
 EFFECTIVE MASS      3.2555         C  4 -- C  5         +13.3% ( 42.3%)    100.0%
 FORCE CONSTANT      0.4820

 VIBRATION         19   19A           ATOM PAIR      ENERGY CONTRIBUTION    RADIAL
 FREQUENCY          1405.77         O  2 -- C  6         +18.7% ( 70.4%)     71.8%
 TRANSITION DIPOLE   2.4051         O  1 -- C  6         +18.7% ( 70.4%)     71.8%
 TRAVEL (Ang.)       0.1189         C  4 -- C  6         +14.4% ( 61.7%)     46.3%
 REDUCED MASS        3.3903         C  5 -- C  6         +14.4% ( 61.7%)     46.3%
 EFFECTIVE MASS     11.1579         O  3 -- C  6         +12.2% ( 56.8%)      0.0%
 FORCE CONSTANT      3.9474

 VIBRATION         20   20A           ATOM PAIR      ENERGY CONTRIBUTION    RADIAL
 FREQUENCY          2038.80         O  3 -- C  6         +34.2% ( 99.2%)    100.0%
 TRANSITION DIPOLE   6.6484         C  5 -- C  6         +16.4% ( 68.6%)     90.0%
 TRAVEL (Ang.)       0.0686         C  4 -- C  6         +16.4% ( 68.6%)     90.0%
 REDUCED MASS        7.0288         O  1 -- C  6         +16.4% ( 68.6%)     35.1%
 EFFECTIVE MASS     13.2535         O  2 -- C  6         +16.4% ( 68.6%)     35.1%
 FORCE CONSTANT     17.2141

 VIBRATION         21   21A           ATOM PAIR      ENERGY CONTRIBUTION    RADIAL
 FREQUENCY          2982.16         C  4 -- H  8         +24.4% ( 51.7%)     96.3%
 TRANSITION DIPOLE   0.0013         C  4 -- H  7         +24.3% ( 51.6%)     96.3%
 TRAVEL (Ang.)       0.2926         C  5 -- H 10         +23.7% ( 51.0%)     96.3%
 REDUCED MASS        0.2641         C  5 -- H  9         +23.7% ( 51.0%)     96.3%
 EFFECTIVE MASS      1.5941
 FORCE CONSTANT      1.3837

 VIBRATION         22   22A           ATOM PAIR      ENERGY CONTRIBUTION    RADIAL
 FREQUENCY          2996.42         C  5 -- H 10         +24.5% ( 51.4%)     96.6%
 TRANSITION DIPOLE   0.1871         C  5 -- H  9         +24.4% ( 51.4%)     96.6%
 TRAVEL (Ang.)       0.2924         C  4 -- H  8         +23.9% ( 50.8%)     96.6%
 REDUCED MASS        0.2632         C  4 -- H  7         +23.8% ( 50.7%)     96.6%
 EFFECTIVE MASS      1.5631
 FORCE CONSTANT      1.3923

 VIBRATION         23   23A           ATOM PAIR      ENERGY CONTRIBUTION    RADIAL
 FREQUENCY          3034.51         C  4 -- H  7         +25.6% ( 50.3%)     97.0%
 TRANSITION DIPOLE   0.1811         C  4 -- H  8         +25.5% ( 50.3%)     97.0%
 TRAVEL (Ang.)       0.3025         C  5 -- H  9         +23.4% ( 48.1%)     97.0%
 REDUCED MASS        0.2428         C  5 -- H 10         +23.3% ( 48.0%)     97.0%
 EFFECTIVE MASS      1.2910
 FORCE CONSTANT      1.3174

 VIBRATION         24   24A           ATOM PAIR      ENERGY CONTRIBUTION    RADIAL
 FREQUENCY          3036.21         C  5 -- H  9         +25.6% ( 50.3%)     97.1%
 TRANSITION DIPOLE   0.1744         C  5 -- H 10         +25.5% ( 50.3%)     97.1%
 TRAVEL (Ang.)       0.3025         C  4 -- H  7         +23.3% ( 48.0%)     97.1%
 REDUCED MASS        0.2426         C  4 -- H  8         +23.3% ( 48.0%)     97.1%
 EFFECTIVE MASS      1.2922
 FORCE CONSTANT      1.3179

      SYMMETRY NUMBER FOR POINT-GROUP C1  =  1


          SYSTEM IS A GROUND STATE



 InChI=1S/C3H4O3/c4-3-5-1-2-6-3/h1-2H2


          MOLECULE IS NOT LINEAR

          THERE ARE 24 GENUINE VIBRATIONS IN THIS SYSTEM
          THIS THERMODYNAMICS CALCULATION IS LIMITED TO
          MOLECULES WHICH HAVE NO INTERNAL ROTATIONS




                    CALCULATED THERMODYNAMIC PROPERTIES
                                          *
   TEMP. (K)   PARTITION FUNCTION   H.O.F.    ENTHALPY  HEAT CAPACITY ENTROPY
                                   KCAL/MOL   CAL/MOLE    CAL/K/MOL  CAL/K/MOL


 298.00  VIB.     0.4936D+01                  1462.0789    11.7768     8.0791
         ROT.     0.9721D+05                   888.2803     2.9808    25.8032
         INT.     0.4799D+06                  2350.3592    14.7576    33.8823
         TRA.     0.7989D+27                  1480.4672     4.9680    39.3368
         TOT.                     -125.108    3830.8263    19.7256    73.2191

 200.00  VIB.     0.2316D+01                   568.7135     6.6317     4.5121
         ROT.     0.5345D+05                   596.1613     2.9808    24.6145
         INT.     0.1238D+06                  1164.8748     9.6126    29.1266
         TRA.     0.4393D+27                   993.6021     4.9680    37.3557
         TOT.                     -126.780    2158.4769    14.5806    66.4823

 210.00  VIB.     0.2489D+01                   637.3417     7.0971     4.8468
         ROT.     0.5751D+05                   625.9693     2.9808    24.7599
         INT.     0.1431D+06                  1263.3111    10.0779    29.6068
         TRA.     0.4726D+27                  1043.2822     4.9680    37.5981
         TOT.                     -126.632    2306.5933    15.0459    67.2049

 220.00  VIB.     0.2678D+01                   710.7160     7.5807     5.1881
         ROT.     0.6166D+05                   655.7774     2.9808    24.8986
         INT.     0.1651D+06                  1366.4934    10.5615    30.0867
         TRA.     0.5068D+27                  1092.9623     4.9680    37.8292
         TOT.                     -126.479    2459.4557    15.5295    67.9159

 230.00  VIB.     0.2885D+01                   789.0121     8.0812     5.5360
         ROT.     0.6592D+05                   685.5855     2.9808    25.0311
         INT.     0.1902D+06                  1474.5976    11.0620    30.5672
         TRA.     0.5417D+27                  1142.6424     4.9680    38.0501
         TOT.                     -126.321    2617.2401    16.0300    68.6172

 240.00  VIB.     0.3112D+01                   872.3893     8.5966     5.8908
         ROT.     0.7026D+05                   715.3935     2.9808    25.1580
         INT.     0.2186D+06                  1587.7828    11.5774    31.0488
         TRA.     0.5774D+27                  1192.3226     4.9680    38.2615
         TOT.                     -126.159    2780.1054    16.5454    69.3103

 250.00  VIB.     0.3360D+01                   960.9873     9.1250     6.2524
         ROT.     0.7470D+05                   745.2016     2.9808    25.2797
         INT.     0.2510D+06                  1706.1889    12.1058    31.5321
         TRA.     0.6139D+27                  1242.0027     4.9680    38.4643
         TOT.                     -125.990    2948.1915    17.0738    69.9964

 260.00  VIB.     0.3633D+01                  1054.9257     9.6643     6.6208
         ROT.     0.7923D+05                   775.0097     2.9808    25.3966
         INT.     0.2878D+06                  1829.9353    12.6451    32.0174
         TRA.     0.6511D+27                  1291.6828     4.9680    38.6591
         TOT.                     -125.817    3121.6181    17.6131    70.6765

 270.00  VIB.     0.3932D+01                  1154.3030    10.2124     6.9958
         ROT.     0.8384D+05                   804.8177     2.9808    25.5091
         INT.     0.3296D+06                  1959.1208    13.1932    32.5048
         TRA.     0.6890D+27                  1341.3629     4.9680    38.8466
         TOT.                     -125.638    3300.4836    18.1613    71.3515

 280.00  VIB.     0.4260D+01                  1259.1970    10.7673     7.3772
         ROT.     0.8854D+05                   834.6258     2.9808    25.6175
         INT.     0.3772D+06                  2093.8228    13.7481    32.9947
         TRA.     0.7277D+27                  1391.0430     4.9680    39.0273
         TOT.                     -125.454    3484.8658    18.7161    72.0220

 290.00  VIB.     0.4621D+01                  1369.6650    11.3269     7.7648
         ROT.     0.9333D+05                   864.4339     2.9808    25.7221
         INT.     0.4313D+06                  2234.0989    14.3077    33.4868
         TRA.     0.7670D+27                  1440.7231     4.9680    39.2017
         TOT.                     -125.264    3674.8219    19.2757    72.6885

 300.00  VIB.     0.5019D+01                  1485.7450    11.8894     8.1582
         ROT.     0.9819D+05                   894.2419     2.9808    25.8231
         INT.     0.4928D+06                  2379.9869    14.8702    33.9814
         TRA.     0.8070D+27                  1490.4032     4.9680    39.3701
         TOT.                     -125.068    3870.3901    19.8382    73.3515

 310.00  VIB.     0.5457D+01                  1607.4568    12.4530     8.5573
         ROT.     0.1031D+06                   924.0500     2.9808    25.9209
         INT.     0.5628D+06                  2531.5068    15.4338    34.4782
         TRA.     0.8477D+27                  1540.0833     4.9680    39.5330
         TOT.                     -124.867    4071.5901    20.4018    74.0111

 320.00  VIB.     0.5939D+01                  1734.8035    13.0161     8.9616
         ROT.     0.1082D+06                   953.8580     2.9808    26.0155
         INT.     0.6425D+06                  2688.6615    15.9969    34.9771
         TRA.     0.8890D+27                  1589.7634     4.9680    39.6907
         TOT.                     -124.660    4278.4249    20.9649    74.6678

 330.00  VIB.     0.6471D+01                  1867.7725    13.5773     9.3707
         ROT.     0.1133D+06                   983.6661     2.9808    26.1072
         INT.     0.7331D+06                  2851.4386    16.5581    35.4779
         TRA.     0.9310D+27                  1639.4435     4.9680    39.8436
         TOT.                     -124.448    4490.8821    21.5261    75.3215

 340.00  VIB.     0.7058D+01                  2006.3377    14.1351     9.7843
         ROT.     0.1185D+06                  1013.4742     2.9808    26.1962
         INT.     0.8362D+06                  3019.8119    17.1160    35.9805
         TRA.     0.9737D+27                  1689.1236     4.9680    39.9919
         TOT.                     -124.230    4708.9355    22.0840    75.9724

 350.00  VIB.     0.7706D+01                  2150.4606    14.6886    10.2020
         ROT.     0.1237D+06                  1043.2822     2.9808    26.2826
         INT.     0.9535D+06                  3193.7429    17.6694    36.4847
         TRA.     0.1017D+28                  1738.8037     4.9680    40.1359
         TOT.                     -124.006    4932.5466    22.6374    76.6206

 360.00  VIB.     0.8422D+01                  2300.0918    15.2366    10.6235
         ROT.     0.1291D+06                  1073.0903     2.9808    26.3666
         INT.     0.1087D+07                  3373.1821    18.2174    36.9901
         TRA.     0.1061D+28                  1788.4838     4.9680    40.2759
         TOT.                     -123.777    5161.6659    23.1855    77.2660

 370.00  VIB.     0.9213D+01                  2455.1724    15.7784    11.0484
         ROT.     0.1345D+06                  1102.8984     2.9808    26.4483
         INT.     0.1239D+07                  3558.0708    18.7592    37.4967
         TRA.     0.1105D+28                  1838.1639     4.9680    40.4120
         TOT.                     -123.542    5396.2347    23.7272    77.9086

 380.00  VIB.     0.1009D+02                  2615.6357    16.3130    11.4763
         ROT.     0.1400D+06                  1132.7064     2.9808    26.5278
         INT.     0.1412D+07                  3748.3421    19.2939    38.0040
         TRA.     0.1150D+28                  1887.8440     4.9680    40.5445
         TOT.                     -123.302    5636.1861    24.2619    78.5485

 390.00  VIB.     0.1106D+02                  2781.4078    16.8401    11.9069
         ROT.     0.1455D+06                  1162.5145     2.9808    26.6052
         INT.     0.1609D+07                  3943.9223    19.8209    38.5120
         TRA.     0.1196D+28                  1937.5242     4.9680    40.6735
         TOT.                     -123.057    5881.4464    24.7889    79.1856

 400.00  VIB.     0.1213D+02                  2952.4095    17.3589    12.3398
         ROT.     0.1512D+06                  1192.3226     2.9808    26.6807
         INT.     0.1833D+07                  4144.7320    20.3397    39.0204
         TRA.     0.1242D+28                  1987.2043     4.9680    40.7993
         TOT.                     -122.807    6131.9363    25.3077    79.8197

   *: NOTE: HEATS OF FORMATION ARE RELATIVE TO THE
            ELEMENTS IN THEIR STANDARD STATE AT 298K
              (=  Standard Enthalpy of Formation).

            Hvib:  Zero-point energy is not included.
                   frequencies of less than zero cm-1 are not included.
            Hrot = (3/2)RT
            Htra = (3/2)RT + pV = (5/2)RT

            Heat capacity is Cp, not Cv

          For more information, see: HTTP://OpenMOPAC.net/Manual/thermochemistry.html


           FORCE CONSTANT IN CARTESIAN COORDINATES (Millidynes/A)

    ATOM   CHEMICAL       X               Y               Z
   NUMBER   SYMBOL  FORCE CONSTANT  FORCE CONSTANT  FORCE CONSTANT

      1       O        6.765119        6.929718        0.667328
      2       O        6.765732        6.931847        0.668803
      3       O        0.680751       15.708818        0.363165
      4       C        8.163278        8.812329        8.386007
      5       C        8.161558        8.813038        8.386925
      6       C        9.211846       20.485084        2.128051
      7       H        1.408786        1.294964        3.612909
      8       H        1.406517        1.291827        3.617305
      9       H        1.406781        1.292901        3.617345
     10       H        1.408914        1.293472        3.613615

 **********************
 *                    *
 * JOB ENDED NORMALLY *
 *                    *
 **********************



 TOTAL JOB TIME:             0.46 SECONDS

 == MOPAC DONE ==
