 *******************************************************************************
 **                                                                           **
 **                              MOPAC v23.1.2                                **
 **                                                                           **
 *******************************************************************************
 **          Digital Object Identifier (DOI): 10.5281/zenodo.6511958          **
 **    Visit the DOI location for information on how to cite this program.    **
 *******************************************************************************

                              PM3 CALCULATION RESULTS

 *******************************************************************************
 *  CALCULATION DONE: (MAX THREADS = 1)              Tue Jun  3 16:34:02 2025  *
 *  PM3        - The PM3 Hamiltonian to be used
 *  PRECISE    - TIGHTER CRITERIA TO BE USED
 *  NOSYM      - POINT-GROUP SYMMETRY SET TO C1
 *  THREADS=1  - MULTI-THREADING NOT USED
 *  T=         - A TIME OF 172800.0 SECONDS REQUESTED
 *  DUMP=N     - RESTART FILE WRITTEN EVERY 7200.0 SECONDS REQUESTED
 *******************************************************************************
pm3  precise nosym THREADS=1
 InChI=1S/C10H10/c1-8-6-9-4-2-3-5-10(9)7-8/h2-6,10H,1,7H2

   ATOM   CHEMICAL          X               Y               Z
  NUMBER   SYMBOL      (ANGSTROMS)     (ANGSTROMS)     (ANGSTROMS)

     1       C         -0.13580000  *  -0.52680000  *   0.77410000  *
     2       C          1.13490000  *  -1.15840000  *   0.18210000  *
     3       C         -0.14260000  *   0.86380000  *   0.21730000  *
     4       C          1.85750000  *   0.02640000  *  -0.37410000  *
     5       C         -1.42200000  *  -1.24030000  *   0.43040000  *
     6       C          0.99620000  *   1.19550000  *  -0.36040000  *
     7       C         -1.39570000  *   1.61790000  *   0.10010000  *
     8       C         -2.55320000  *  -0.54780000  *   0.21030000  *
     9       C         -2.54700000  *   0.93510000  *   0.11660000  *
    10       C          3.08190000  *  -0.00510000  *  -0.89280000  *
    11       H         -0.04440000  *  -0.46550000  *   1.88080000  *
    12       H          0.89830000  *  -1.87060000  *  -0.63870000  *
    13       H          1.73780000  *  -1.66020000  *   0.96970000  *
    14       H         -1.46400000  *  -2.32040000  *   0.49670000  *
    15       H          1.18110000  *   2.12450000  *  -0.88540000  *
    16       H         -1.39010000  *   2.68720000  *  -0.07050000  *
    17       H         -3.48500000  *  -1.07950000  *   0.06720000  *
    18       H         -3.48400000  *   1.46170000  *  -0.01070000  *
    19       H          3.52610000  *   0.88890000  *  -1.31200000  *
    20       H          3.65000000  *  -0.92640000  *  -0.90080000  *



          CARTESIAN COORDINATES 

    NO.       ATOM           X           Y           Z

     1         C         -0.1358     -0.5268      0.7741
     2         C          1.1349     -1.1584      0.1821
     3         C         -0.1426      0.8638      0.2173
     4         C          1.8575      0.0264     -0.3741
     5         C         -1.4220     -1.2403      0.4304
     6         C          0.9962      1.1955     -0.3604
     7         C         -1.3957      1.6179      0.1001
     8         C         -2.5532     -0.5478      0.2103
     9         C         -2.5470      0.9351      0.1166
    10         C          3.0819     -0.0051     -0.8928
    11         H         -0.0444     -0.4655      1.8808
    12         H          0.8983     -1.8706     -0.6387
    13         H          1.7378     -1.6602      0.9697
    14         H         -1.4640     -2.3204      0.4967
    15         H          1.1811      2.1245     -0.8854
    16         H         -1.3901      2.6872     -0.0705
    17         H         -3.4850     -1.0795      0.0672
    18         H         -3.4840      1.4617     -0.0107
    19         H          3.5261      0.8889     -1.3120
    20         H          3.6500     -0.9264     -0.9008

  H: (PM3): J. J. P. STEWART, J. COMP. CHEM. 10, 209 (1989).
  C: (PM3): J. J. P. STEWART, J. COMP. CHEM. 10, 209 (1989).

           Empirical Formula: C10 H10  =    20 atoms



      MOLECULAR POINT GROUP   :   C1  


      RHF CALCULATION, NO. OF DOUBLY OCCUPIED LEVELS = 25


          Geometry optimization using EF

          DIAGONAL MATRIX USED AS START HESSIAN

 CYCLE:     1 TIME:   0.008 TIME LEFT:  2.00D  GRAD.:   110.380 HEAT:  64.24885
 CYCLE:     2 TIME:   0.016 TIME LEFT:  2.00D  GRAD.:    59.690 HEAT:  62.10498
 CYCLE:     3 TIME:   0.008 TIME LEFT:  2.00D  GRAD.:    62.930 HEAT:  61.66413
 CYCLE:     4 TIME:   0.004 TIME LEFT:  2.00D  GRAD.:    36.596 HEAT:  60.72860
 CYCLE:     5 TIME:   0.012 TIME LEFT:  2.00D  GRAD.:    50.579 HEAT:  60.55835
 CYCLE:     6 TIME:   0.008 TIME LEFT:  2.00D  GRAD.:    38.426 HEAT:  60.14403
 CYCLE:     7 TIME:   0.012 TIME LEFT:  2.00D  GRAD.:    27.792 HEAT:  59.89377
 CYCLE:     8 TIME:   0.004 TIME LEFT:  2.00D  GRAD.:    23.083 HEAT:  59.72254
 CYCLE:     9 TIME:   0.008 TIME LEFT:  2.00D  GRAD.:    30.552 HEAT:  59.65510
 CYCLE:    10 TIME:   0.008 TIME LEFT:  2.00D  GRAD.:    20.471 HEAT:  59.47442
 CYCLE:    11 TIME:   0.012 TIME LEFT:  2.00D  GRAD.:    22.182 HEAT:  59.43282
 CYCLE:    12 TIME:   0.004 TIME LEFT:  2.00D  GRAD.:    19.154 HEAT:  59.37784
 CYCLE:    13 TIME:   0.008 TIME LEFT:  2.00D  GRAD.:    18.238 HEAT:  59.31828
 CYCLE:    14 TIME:   0.012 TIME LEFT:  2.00D  GRAD.:     9.647 HEAT:  59.25046
 CYCLE:    15 TIME:   0.008 TIME LEFT:  2.00D  GRAD.:    13.255 HEAT:  59.23348
 CYCLE:    16 TIME:   0.004 TIME LEFT:  2.00D  GRAD.:     9.197 HEAT:  59.19574
 CYCLE:    17 TIME:   0.008 TIME LEFT:  2.00D  GRAD.:    11.851 HEAT:  59.17281
 CYCLE:    18 TIME:   0.008 TIME LEFT:  2.00D  GRAD.:    11.151 HEAT:  59.14773
 CYCLE:    19 TIME:   0.008 TIME LEFT:  2.00D  GRAD.:     8.547 HEAT:  59.10329
 CYCLE:    20 TIME:   0.004 TIME LEFT:  2.00D  GRAD.:     8.052 HEAT:  59.08272
 CYCLE:    21 TIME:   0.008 TIME LEFT:  2.00D  GRAD.:     7.374 HEAT:  59.05886
 CYCLE:    22 TIME:   0.008 TIME LEFT:  2.00D  GRAD.:     5.342 HEAT:  59.04338
 CYCLE:    23 TIME:   0.008 TIME LEFT:  2.00D  GRAD.:     3.040 HEAT:  59.02919
 CYCLE:    24 TIME:   0.008 TIME LEFT:  2.00D  GRAD.:     5.076 HEAT:  59.02456
 CYCLE:    25 TIME:   0.004 TIME LEFT:  2.00D  GRAD.:     2.978 HEAT:  59.01070
 CYCLE:    26 TIME:   0.008 TIME LEFT:  2.00D  GRAD.:     3.169 HEAT:  58.99926
 CYCLE:    27 TIME:   0.008 TIME LEFT:  2.00D  GRAD.:     2.978 HEAT:  58.99156
 CYCLE:    28 TIME:   0.004 TIME LEFT:  2.00D  GRAD.:     3.068 HEAT:  58.98734
 CYCLE:    29 TIME:   0.008 TIME LEFT:  2.00D  GRAD.:     2.567 HEAT:  58.98313
 CYCLE:    30 TIME:   0.008 TIME LEFT:  2.00D  GRAD.:     1.548 HEAT:  58.97859
 CYCLE:    31 TIME:   0.004 TIME LEFT:  2.00D  GRAD.:     1.492 HEAT:  58.97419
 CYCLE:    32 TIME:   0.008 TIME LEFT:  2.00D  GRAD.:     2.362 HEAT:  58.97133
 CYCLE:    33 TIME:   0.004 TIME LEFT:  2.00D  GRAD.:     1.298 HEAT:  58.96879
 CYCLE:    34 TIME:   0.008 TIME LEFT:  2.00D  GRAD.:     1.110 HEAT:  58.96705
 CYCLE:    35 TIME:   0.008 TIME LEFT:  2.00D  GRAD.:     1.205 HEAT:  58.96491
 CYCLE:    36 TIME:   0.008 TIME LEFT:  2.00D  GRAD.:     1.118 HEAT:  58.96305
 CYCLE:    37 TIME:   0.004 TIME LEFT:  2.00D  GRAD.:     0.797 HEAT:  58.96178
 CYCLE:    38 TIME:   0.008 TIME LEFT:  2.00D  GRAD.:     0.724 HEAT:  58.96074
 CYCLE:    39 TIME:   0.004 TIME LEFT:  2.00D  GRAD.:     0.771 HEAT:  58.95969
 CYCLE:    40 TIME:   0.008 TIME LEFT:  2.00D  GRAD.:     0.764 HEAT:  58.95865
 CYCLE:    41 TIME:   0.008 TIME LEFT:  2.00D  GRAD.:     0.654 HEAT:  58.95748
 CYCLE:    42 TIME:   0.008 TIME LEFT:  2.00D  GRAD.:     0.589 HEAT:  58.95654
 CYCLE:    43 TIME:   0.004 TIME LEFT:  2.00D  GRAD.:     0.576 HEAT:  58.95583
 CYCLE:    44 TIME:   0.008 TIME LEFT:  2.00D  GRAD.:     0.573 HEAT:  58.95507
 CYCLE:    45 TIME:   0.008 TIME LEFT:  2.00D  GRAD.:     0.652 HEAT:  58.95409
 CYCLE:    46 TIME:   0.008 TIME LEFT:  2.00D  GRAD.:     0.644 HEAT:  58.95297
 CYCLE:    47 TIME:   0.004 TIME LEFT:  2.00D  GRAD.:     0.514 HEAT:  58.95221
 CYCLE:    48 TIME:   0.008 TIME LEFT:  2.00D  GRAD.:     0.378 HEAT:  58.95180
 CYCLE:    49 TIME:   0.008 TIME LEFT:  2.00D  GRAD.:     0.352 HEAT:  58.95146
 CYCLE:    50 TIME:   0.004 TIME LEFT:  2.00D  GRAD.:     0.354 HEAT:  58.95114
 CYCLE:    51 TIME:   0.008 TIME LEFT:  2.00D  GRAD.:     0.316 HEAT:  58.95084
 CYCLE:    52 TIME:   0.004 TIME LEFT:  2.00D  GRAD.:     0.272 HEAT:  58.95065
 CYCLE:    53 TIME:   0.008 TIME LEFT:  2.00D  GRAD.:     0.279 HEAT:  58.95050
 CYCLE:    54 TIME:   0.008 TIME LEFT:  2.00D  GRAD.:     0.297 HEAT:  58.95034
 CYCLE:    55 TIME:   0.008 TIME LEFT:  2.00D  GRAD.:     0.268 HEAT:  58.95015
 CYCLE:    56 TIME:   0.004 TIME LEFT:  2.00D  GRAD.:     0.211 HEAT:  58.94999
 CYCLE:    57 TIME:   0.008 TIME LEFT:  2.00D  GRAD.:     0.192 HEAT:  58.94989
 CYCLE:    58 TIME:   0.004 TIME LEFT:  2.00D  GRAD.:     0.180 HEAT:  58.94981
 CYCLE:    59 TIME:   0.008 TIME LEFT:  2.00D  GRAD.:     0.189 HEAT:  58.94974
 CYCLE:    60 TIME:   0.008 TIME LEFT:  2.00D  GRAD.:     0.125 HEAT:  58.94970
 CYCLE:    61 TIME:   0.008 TIME LEFT:  2.00D  GRAD.:     0.086 HEAT:  58.94966
 CYCLE:    62 TIME:   0.004 TIME LEFT:  2.00D  GRAD.:     0.081 HEAT:  58.94965
 CYCLE:    63 TIME:   0.008 TIME LEFT:  2.00D  GRAD.:     0.039 HEAT:  58.94964

     GRADIENT =  0.03922 IS LESS THAN CUTOFF =  0.05000



 -------------------------------------------------------------------------------
 pm3  precise nosym THREADS=1
 InChI=1S/C10H10/c1-8-6-9-4-2-3-5-10(9)7-8/h2-6,10H,1,7H2



     GEOMETRY OPTIMISED USING EIGENVECTOR FOLLOWING (EF).     
     SCF FIELD WAS ACHIEVED                                   


                              PM3 CALCULATION
                                                       MOPAC v23.1.2 MacOS
                                                       Tue Jun  3 16:34:03 2025




          FINAL HEAT OF FORMATION =         58.94964 KCAL/MOL =     246.64530 KJ/MOL


          COSMO AREA              =        174.74 SQUARE ANGSTROMS
          COSMO VOLUME            =        175.38 CUBIC ANGSTROMS

          GRADIENT NORM           =          0.03922          =       0.00877 PER ATOM
          IONIZATION POTENTIAL    =          8.449653 EV
          HOMO LUMO ENERGIES (EV) =         -8.450 -0.456
          NO. OF FILLED LEVELS    =         25
          MOLECULAR WEIGHT        =        130.1890         POINT GROUP:  C1  

          MOLECULAR DIMENSIONS (Angstroms)

            Atom       Atom       Distance
            H    20    H    18     7.73119
            H    15    H    14     5.20558
            H    12    H    11     2.49786


          SCF CALCULATIONS        =         70

          WALL-CLOCK TIME         =      0.465 SECONDS
          COMPUTATION TIME        =      0.293 SECONDS




   ATOM   CHEMICAL          X               Y               Z
  NUMBER   SYMBOL      (ANGSTROMS)     (ANGSTROMS)     (ANGSTROMS)

     1       C         -0.16312640  *  -0.51028060  *   0.72553447  *
     2       C          1.11946838  *  -1.14563820  *   0.15094814  *
     3       C         -0.17834705  *   0.87608571  *   0.12873361  *
     4       C          1.89082793  *   0.01748356  *  -0.41674534  *
     5       C         -1.43916118  *  -1.22797348  *   0.45842566  *
     6       C          0.99805971  *   1.18083159  *  -0.45614221  *
     7       C         -1.42524208  *   1.60912718  *   0.12629977  *
     8       C         -2.56943242  *  -0.54042645  *   0.23032512  *
     9       C         -2.57673164  *   0.91253575  *   0.17397177  *
    10       C          3.15837266  *  -0.00901863  *  -0.81990378  *
    11       H         -0.07161547  *  -0.42133440  *   1.83714529  *
    12       H          0.88916610  *  -1.88220169  *  -0.64117766  *
    13       H          1.69760384  *  -1.68524133  *   0.92175274  *
    14       H         -1.41839315  *  -2.32177038  *   0.49087502  *
    15       H          1.27402471  *   2.12107922  *  -0.93273722  *
    16       H         -1.39485787  *   2.69951985  *   0.04188330  *
    17       H         -3.52385733  *  -1.05344738  *   0.07344301  *
    18       H         -3.54905635  *   1.41460683  *   0.15026053  *
    19       H          3.66044258  *   0.86598268  *  -1.22052056  *
    20       H          3.76778340  *  -0.90586961  *  -0.77198490  *

                             CARTESIAN COORDINATES

   1    C       -0.163126397    -0.510280601     0.725534471
   2    C        1.119468380    -1.145638203     0.150948143
   3    C       -0.178347047     0.876085709     0.128733614
   4    C        1.890827933     0.017483564    -0.416745340
   5    C       -1.439161176    -1.227973476     0.458425664
   6    C        0.998059706     1.180831586    -0.456142207
   7    C       -1.425242076     1.609127182     0.126299771
   8    C       -2.569432417    -0.540426450     0.230325115
   9    C       -2.576731644     0.912535750     0.173971769
  10    C        3.158372664    -0.009018632    -0.819903775
  11    H       -0.071615471    -0.421334403     1.837145293
  12    H        0.889166100    -1.882201693    -0.641177662
  13    H        1.697603842    -1.685241335     0.921752745
  14    H       -1.418393151    -2.321770384     0.490875018
  15    H        1.274024712     2.121079217    -0.932737225
  16    H       -1.394857870     2.699519854     0.041883303
  17    H       -3.523857332    -1.053447379     0.073443013
  18    H       -3.549056355     1.414606835     0.150260528
  19    H        3.660442578     0.865982676    -1.220520559
  20    H        3.767783396    -0.905869606    -0.771984897


           Empirical Formula: C10 H10  =    20 atoms



      MOLECULAR POINT GROUP   :   C1  


                  EIGENVALUES  
 -41.53766 -35.53360 -30.94757 -29.68858 -26.33909 -24.04621 -21.06923 -20.02548
 -18.79584 -17.36788 -17.10052 -16.20637 -15.67216 -14.87520 -14.32713 -14.13923
 -13.85691 -13.20610 -12.72505 -12.40650 -12.10444 -11.69759 -11.09115  -9.81767
  -8.44965  -0.45584   0.73593   1.79088   2.26648   3.09401   3.17098   3.34062
   3.43488   3.49344   3.69237   3.88600   3.91863   4.05573   4.09216   4.16423
   4.52175   4.71860   4.77822   4.99624   5.29624   5.43390   5.71721   5.96125
   6.15026   6.27504


              NET ATOMIC CHARGES AND DIPOLE CONTRIBUTIONS

  ATOM NO.   TYPE          CHARGE      No. of ELECS.   s-Pop       p-Pop       
    1          C          -0.017529        4.0175     1.15861     2.85892
    2          C          -0.050582        4.0506     1.15380     2.89678
    3          C          -0.084507        4.0845     1.19086     2.89365
    4          C          -0.085626        4.0856     1.19190     2.89373
    5          C          -0.119909        4.1199     1.19631     2.92360
    6          C          -0.097753        4.0978     1.18468     2.91307
    7          C          -0.081867        4.0819     1.17427     2.90760
    8          C          -0.117782        4.1178     1.18031     2.93747
    9          C          -0.094324        4.0943     1.18166     2.91266
   10          C          -0.159418        4.1594     1.17650     2.98291
   11          H           0.082367        0.9176     0.91763
   12          H           0.065089        0.9349     0.93491
   13          H           0.058738        0.9413     0.94126
   14          H           0.104043        0.8960     0.89596
   15          H           0.118340        0.8817     0.88166
   16          H           0.107156        0.8928     0.89284
   17          H           0.102268        0.8977     0.89773
   18          H           0.101537        0.8985     0.89846
   19          H           0.085699        0.9143     0.91430
   20          H           0.084061        0.9159     0.91594
 DIPOLE           X         Y         Z       TOTAL
 POINT-CHG.    -0.248    -0.255     0.159     0.390
 HYBRID         0.013    -0.015    -0.003     0.020
 SUM           -0.235    -0.270     0.156     0.390


          ATOMIC ORBITAL ELECTRON POPULATIONS

     Atom    s        px        py        pz   
    1  C   1.15861   0.93345   0.92984   0.99563
    2  C   1.15380   0.94482   0.95670   0.99526
    3  C   1.19086   0.94716   0.95925   0.98724
    4  C   1.19190   0.95444   0.94821   0.99108
    5  C   1.19631   0.94777   0.98349   0.99234
    6  C   1.18468   0.94541   0.97176   0.99591
    7  C   1.17427   0.92619   0.97661   1.00479
    8  C   1.18031   0.97475   0.94519   1.01753
    9  C   1.18166   0.97190   0.94333   0.99743
   10  C   1.17650   0.95232   1.01354   1.01706
   11  H   0.91763
   12  H   0.93491
   13  H   0.94126
   14  H   0.89596
   15  H   0.88166
   16  H   0.89284
   17  H   0.89773
   18  H   0.89846
   19  H   0.91430
   20  H   0.91594
 *******************************************************************************
 **                                                                           **
 **                              MOPAC v23.1.2                                **
 **                                                                           **
 *******************************************************************************
 **          Digital Object Identifier (DOI): 10.5281/zenodo.6511958          **
 **    Visit the DOI location for information on how to cite this program.    **
 *******************************************************************************

                              PM3 CALCULATION RESULTS

 *******************************************************************************
 *  CALCULATION DONE: (MAX THREADS = 1)              Tue Jun  3 16:34:03 2025  *
 *  PM3        - The PM3 Hamiltonian to be used
 *  OLDGEO     - PREVIOUS GEOMETRY TO BE USED
 *  PRECISE    - TIGHTER CRITERIA TO BE USED
 *  NOSYM      - POINT-GROUP SYMMETRY SET TO C1
 *  THREADS=1  - MULTI-THREADING NOT USED
 *  T=         - A TIME OF 172800.0 SECONDS REQUESTED
 *  DUMP=N     - RESTART FILE WRITTEN EVERY 7200.0 SECONDS REQUESTED
 *  THERMO     - THERMODYNAMIC QUANTITIES TO BE CALCULATED
 *******************************************************************************
oldgeo thermo nosym precise THREADS=1  pm3
 InChI=1S/C10H10/c1-8-6-9-4-2-3-5-10(9)7-8/h2-6,10H,1,7H2

   ATOM   CHEMICAL          X               Y               Z
  NUMBER   SYMBOL      (ANGSTROMS)     (ANGSTROMS)     (ANGSTROMS)

     1       C         -0.16312640  *  -0.51028060  *   0.72553447  *
     2       C          1.11946838  *  -1.14563820  *   0.15094814  *
     3       C         -0.17834705  *   0.87608571  *   0.12873361  *
     4       C          1.89082793  *   0.01748356  *  -0.41674534  *
     5       C         -1.43916118  *  -1.22797348  *   0.45842566  *
     6       C          0.99805971  *   1.18083159  *  -0.45614221  *
     7       C         -1.42524208  *   1.60912718  *   0.12629977  *
     8       C         -2.56943242  *  -0.54042645  *   0.23032512  *
     9       C         -2.57673164  *   0.91253575  *   0.17397177  *
    10       C          3.15837266  *  -0.00901863  *  -0.81990378  *
    11       H         -0.07161547  *  -0.42133440  *   1.83714529  *
    12       H          0.88916610  *  -1.88220169  *  -0.64117766  *
    13       H          1.69760384  *  -1.68524133  *   0.92175274  *
    14       H         -1.41839315  *  -2.32177038  *   0.49087502  *
    15       H          1.27402471  *   2.12107922  *  -0.93273722  *
    16       H         -1.39485787  *   2.69951985  *   0.04188330  *
    17       H         -3.52385733  *  -1.05344738  *   0.07344301  *
    18       H         -3.54905635  *   1.41460683  *   0.15026053  *
    19       H          3.66044258  *   0.86598268  *  -1.22052056  *
    20       H          3.76778340  *  -0.90586961  *  -0.77198490  *



          CARTESIAN COORDINATES 

    NO.       ATOM           X           Y           Z

     1         C         -0.1631     -0.5103      0.7255
     2         C          1.1195     -1.1456      0.1509
     3         C         -0.1783      0.8761      0.1287
     4         C          1.8908      0.0175     -0.4167
     5         C         -1.4392     -1.2280      0.4584
     6         C          0.9981      1.1808     -0.4561
     7         C         -1.4252      1.6091      0.1263
     8         C         -2.5694     -0.5404      0.2303
     9         C         -2.5767      0.9125      0.1740
    10         C          3.1584     -0.0090     -0.8199
    11         H         -0.0716     -0.4213      1.8371
    12         H          0.8892     -1.8822     -0.6412
    13         H          1.6976     -1.6852      0.9218
    14         H         -1.4184     -2.3218      0.4909
    15         H          1.2740      2.1211     -0.9327
    16         H         -1.3949      2.6995      0.0419
    17         H         -3.5239     -1.0534      0.0734
    18         H         -3.5491      1.4146      0.1503
    19         H          3.6604      0.8660     -1.2205
    20         H          3.7678     -0.9059     -0.7720

  H: (PM3): J. J. P. STEWART, J. COMP. CHEM. 10, 209 (1989).
  C: (PM3): J. J. P. STEWART, J. COMP. CHEM. 10, 209 (1989).

           Empirical Formula: C10 H10  =    20 atoms



      MOLECULAR POINT GROUP   :   C1  


      RHF CALCULATION, NO. OF DOUBLY OCCUPIED LEVELS = 25



          HEAT OF FORMATION =      58.949640 KCALS/MOLE


          CARTESIAN COORDINATE DERIVATIVES

   NUMBER  ATOM         X            Y            Z

     1       C     -0.000835     0.000690     0.002715
     2       C     -0.010962    -0.000705    -0.008021
     3       C     -0.000702     0.003617     0.005804
     4       C     -0.006776    -0.003100    -0.006710
     5       C      0.008456     0.000887     0.000115
     6       C     -0.005900     0.003700     0.005432
     7       C      0.002932    -0.002609    -0.000616
     8       C      0.006464    -0.002189     0.002825
     9       C     -0.001252    -0.002305    -0.001436
    10       C      0.000122     0.006890     0.000024
    11       H     -0.008290    -0.002003    -0.002337
    12       H     -0.000876     0.001449     0.001221
    13       H      0.001352     0.005680     0.004053
    14       H     -0.005743    -0.002284    -0.009405
    15       H     -0.002765    -0.001310     0.000266
    16       H      0.002004     0.001571    -0.003765
    17       H     -0.001833     0.002797     0.006347
    18       H      0.003421    -0.002520     0.000832
    19       H      0.003123    -0.013180    -0.004569
    20       H      0.018060     0.004922     0.007224



          GRADIENT NORM =   0.03982

          MOLECULAR WEIGHT =  130.19



          ROTATIONAL CONSTANTS IN CM(-1)

          A =    0.11131367   B =    0.03459982   C =    0.02749929



           PRINCIPAL MOMENTS OF INERTIA IN UNITS OF 10**(-40)*GRAM-CM**2

          A =      251.4763   B =      809.0433   C =     1017.9447


          ORIENTATION OF MOLECULE IN FORCE CALCULATION

    NO.       ATOM         X         Y         Z

     1          C      -0.0627   -0.8747    0.3044
     2          C       1.4797   -0.8747    0.3044
     3          C      -0.4241    0.5908    0.3044
     4          C       1.8535    0.5409    0.6599
     5          C      -0.7287   -1.5959   -0.8141
     6          C       0.6465    1.3691    0.5632
     7          C      -1.7621    0.9682   -0.0950
     8          C      -1.8668   -1.1215   -1.3450
     9          C      -2.4504    0.1321   -0.8952
    10          C       3.0686    0.9665    0.9947
    11          H      -0.4374   -1.3366    1.2522
    12          H       1.8867   -1.1462   -0.6874
    13          H       1.8956   -1.6025    1.0234
    14          H      -0.2729   -2.5316   -1.1525
    15          H       0.6662    2.4546    0.6559
    16          H      -2.1545    1.9370    0.2283
    17          H      -2.3907   -1.6622   -2.1399
    18          H      -3.4570    0.3785   -1.2476
    19          H       3.2749    2.0031    1.2422
    20          H       3.9270    0.3040    1.0420


    FIRST DERIVATIVES WILL BE USED IN THE CALCULATION OF SECOND DERIVATIVES

          ESTIMATED TIME TO COMPLETE CALCULATION =        1.88 SECONDS

    FOR POINT-GROUP C1   THERE ARE   1 UNIQUE SYMMETRY FUNCTIONS.

 STEP:   1 TIME =     0.02 SECS, INTEGRAL =      0.02 TIME LEFT: 172799.97
 STEP:   2 TIME =     0.02 SECS, INTEGRAL =      0.04 TIME LEFT: 172799.95
 STEP:   3 TIME =     0.02 SECS, INTEGRAL =      0.06 TIME LEFT: 172799.93
 STEP:   4 TIME =     0.02 SECS, INTEGRAL =      0.08 TIME LEFT: 172799.91
 STEP:   5 TIME =     0.02 SECS, INTEGRAL =      0.10 TIME LEFT: 172799.89
 STEP:   6 TIME =     0.02 SECS, INTEGRAL =      0.12 TIME LEFT: 172799.88
 STEP:   7 TIME =     0.02 SECS, INTEGRAL =      0.14 TIME LEFT: 172799.86
 STEP:   8 TIME =     0.02 SECS, INTEGRAL =      0.16 TIME LEFT: 172799.84
 STEP:   9 TIME =     0.02 SECS, INTEGRAL =      0.18 TIME LEFT: 172799.81
 STEP:  10 TIME =     0.02 SECS, INTEGRAL =      0.20 TIME LEFT: 172799.79
 STEP:  11 TIME =     0.02 SECS, INTEGRAL =      0.22 TIME LEFT: 172799.77
 STEP:  12 TIME =     0.02 SECS, INTEGRAL =      0.24 TIME LEFT: 172799.75
 STEP:  13 TIME =     0.02 SECS, INTEGRAL =      0.26 TIME LEFT: 172799.73
 STEP:  14 TIME =     0.02 SECS, INTEGRAL =      0.28 TIME LEFT: 172799.71
 STEP:  15 TIME =     0.02 SECS, INTEGRAL =      0.30 TIME LEFT: 172799.69
 STEP:  16 TIME =     0.02 SECS, INTEGRAL =      0.32 TIME LEFT: 172799.67
 STEP:  17 TIME =     0.02 SECS, INTEGRAL =      0.34 TIME LEFT: 172799.65
 STEP:  18 TIME =     0.02 SECS, INTEGRAL =      0.36 TIME LEFT: 172799.63
 STEP:  19 TIME =     0.02 SECS, INTEGRAL =      0.38 TIME LEFT: 172799.61
 STEP:  20 TIME =     0.02 SECS, INTEGRAL =      0.40 TIME LEFT: 172799.59
 STEP:  21 TIME =     0.02 SECS, INTEGRAL =      0.42 TIME LEFT: 172799.57
 STEP:  22 TIME =     0.02 SECS, INTEGRAL =      0.44 TIME LEFT: 172799.55
 STEP:  23 TIME =     0.02 SECS, INTEGRAL =      0.46 TIME LEFT: 172799.53
 STEP:  24 TIME =     0.02 SECS, INTEGRAL =      0.48 TIME LEFT: 172799.51
 STEP:  25 TIME =     0.02 SECS, INTEGRAL =      0.50 TIME LEFT: 172799.49
 STEP:  26 TIME =     0.02 SECS, INTEGRAL =      0.52 TIME LEFT: 172799.47
 STEP:  27 TIME =     0.02 SECS, INTEGRAL =      0.54 TIME LEFT: 172799.45
 STEP:  28 TIME =     0.02 SECS, INTEGRAL =      0.56 TIME LEFT: 172799.43
 STEP:  29 TIME =     0.02 SECS, INTEGRAL =      0.58 TIME LEFT: 172799.41
 STEP:  30 TIME =     0.02 SECS, INTEGRAL =      0.60 TIME LEFT: 172799.39
 STEP:  31 TIME =     0.02 SECS, INTEGRAL =      0.62 TIME LEFT: 172799.38
 STEP:  32 TIME =     0.02 SECS, INTEGRAL =      0.64 TIME LEFT: 172799.35
 STEP:  33 TIME =     0.02 SECS, INTEGRAL =      0.66 TIME LEFT: 172799.33
 STEP:  34 TIME =     0.02 SECS, INTEGRAL =      0.68 TIME LEFT: 172799.31
 STEP:  35 TIME =     0.02 SECS, INTEGRAL =      0.70 TIME LEFT: 172799.29
 STEP:  36 TIME =     0.02 SECS, INTEGRAL =      0.71 TIME LEFT: 172799.28
 STEP:  37 TIME =     0.02 SECS, INTEGRAL =      0.73 TIME LEFT: 172799.26
 STEP:  38 TIME =     0.02 SECS, INTEGRAL =      0.75 TIME LEFT: 172799.24
 STEP:  39 TIME =     0.02 SECS, INTEGRAL =      0.77 TIME LEFT: 172799.22
 STEP:  40 TIME =     0.02 SECS, INTEGRAL =      0.79 TIME LEFT: 172799.20
 STEP:  41 TIME =     0.02 SECS, INTEGRAL =      0.81 TIME LEFT: 172799.18
 STEP:  42 TIME =     0.02 SECS, INTEGRAL =      0.83 TIME LEFT: 172799.16
 STEP:  43 TIME =     0.02 SECS, INTEGRAL =      0.85 TIME LEFT: 172799.14
 STEP:  44 TIME =     0.02 SECS, INTEGRAL =      0.87 TIME LEFT: 172799.12
 STEP:  45 TIME =     0.02 SECS, INTEGRAL =      0.89 TIME LEFT: 172799.11
 STEP:  46 TIME =     0.02 SECS, INTEGRAL =      0.91 TIME LEFT: 172799.08
 STEP:  47 TIME =     0.02 SECS, INTEGRAL =      0.93 TIME LEFT: 172799.06
 STEP:  48 TIME =     0.02 SECS, INTEGRAL =      0.95 TIME LEFT: 172799.04
 STEP:  49 TIME =     0.02 SECS, INTEGRAL =      0.97 TIME LEFT: 172799.02
 STEP:  50 TIME =     0.02 SECS, INTEGRAL =      0.99 TIME LEFT: 172799.00
 STEP:  51 TIME =     0.02 SECS, INTEGRAL =      1.01 TIME LEFT: 172798.98
 STEP:  52 TIME =     0.02 SECS, INTEGRAL =      1.03 TIME LEFT: 172798.96
 STEP:  53 TIME =     0.02 SECS, INTEGRAL =      1.05 TIME LEFT: 172798.94
 STEP:  54 TIME =     0.02 SECS, INTEGRAL =      1.07 TIME LEFT: 172798.92
 STEP:  55 TIME =     0.02 SECS, INTEGRAL =      1.09 TIME LEFT: 172798.90
 STEP:  56 TIME =     0.02 SECS, INTEGRAL =      1.11 TIME LEFT: 172798.88
 STEP:  57 TIME =     0.02 SECS, INTEGRAL =      1.13 TIME LEFT: 172798.86
 STEP:  58 TIME =     0.02 SECS, INTEGRAL =      1.15 TIME LEFT: 172798.84
 STEP:  59 TIME =     0.02 SECS, INTEGRAL =      1.17 TIME LEFT: 172798.82
 STEP:  60 TIME =     0.02 SECS, INTEGRAL =      1.19 TIME LEFT: 172798.80

(To convert to Hartree/Bohr^2, multiply by (10^(-21) x N x a0^2)/(4.184 x 627.51) =  0.0642)


           FORCE MATRIX IN MILLIDYNES/ANGSTROM


                  C  1       C  2       C  3       C  4       C  5       C  6
 ------------------------------------------------------------------------------
     C    1  15.078120
     C    2   3.513505  14.477456
     C    3   4.208320   0.882073  19.240891
     C    4   0.860740   4.328215   1.538105  19.264203
     C    5   4.876626   0.550741   0.732560   0.045214  17.907811
     C    6   1.092694   0.878452   9.672771   5.110945   0.055080  18.355900
     C    7   0.600092   0.046257   5.771302   0.152269   0.194997   0.910558
     C    8   0.898936   0.051298   0.181401   0.029175  10.079936   0.064415
     C    9   0.146610   0.015980   1.227706   0.053800   1.135185   0.160315
     C   10   0.056225   0.690228   0.120393  10.675686   0.009898   0.935107
     H   11   4.143272   0.428285   0.407549   0.020587   0.388517   0.034712
     H   12   0.452920   4.517804   0.017019   0.429566   0.028551   0.022559
     H   13   0.432597   4.568509   0.036575   0.440758   0.020886   0.034104
     H   14   0.431752   0.015572   0.042844   0.004728   4.865940   0.006651
     H   15   0.109037   0.039325   0.455653   0.430168   0.017993   5.021678
     H   16   0.037107   0.006941   0.446605   0.008340   0.018051   0.019962
     H   17   0.121398   0.012727   0.004455   0.002126   0.442974   0.000782
     H   18   0.004544   0.001002   0.122227   0.009540   0.048028   0.010298
     H   19   0.011047   0.123649   0.008535   0.475581   0.002110   0.091260
     H   20   0.008157   0.085883   0.008261   0.476828   0.000964   0.127255


                  C  7       C  8       C  9       C 10       H 11       H 12
 ------------------------------------------------------------------------------
     C    7  18.204221
     C    8   1.141341  18.137175
     C    9   9.802541   5.448085  18.049598
     C   10   0.035329   0.007623   0.015518  17.964422
     H   11   0.015050   0.037001   0.018888   0.003610   4.596534
     H   12   0.002436   0.003962   0.000882   0.020652   0.033179   5.120155
     H   13   0.005496   0.003322   0.000981   0.019899   0.031815   0.560651
     H   14   0.014341   0.444062   0.123720   0.001048   0.013622   0.015231
     H   15   0.057898   0.010134   0.012007   0.013991   0.016603   0.001911
     H   16   4.875932   0.123362   0.447003   0.001788   0.004254   0.000577
     H   17   0.048151   4.855643   0.434639   0.000815   0.016102   0.000805
     H   18   0.439479   0.433522   4.868002   0.000945   0.001162   0.000325
     H   19   0.005680   0.002002   0.001851   5.112605   0.002454   0.015499
     H   20   0.010426   0.001265   0.001104   5.114159   0.001577   0.012142


                  H 13       H 14       H 15       H 16       H 17       H 18
 ------------------------------------------------------------------------------
     H   13   5.171158
     H   14   0.001515   5.242880
     H   15   0.003846   0.003916   5.416758
     H   16   0.001109   0.009441   0.006419   5.248755
     H   17   0.000886   0.065473   0.000778   0.007403   5.219713
     H   18   0.000079   0.007765   0.003703   0.061832   0.031780   5.231208
     H   19   0.010330   0.000301   0.009244   0.000439   0.000238   0.000492
     H   20   0.010156   0.000470   0.002493   0.000552   0.000225   0.000901


                  H 19       H 20
 ------------------------------
     H   19   5.488630
     H   20   0.406658   5.490152


          HEAT OF FORMATION =      58.949640 KCALS/MOLE

          ZERO POINT ENERGY     104.905 KCAL/MOL


           NORMAL COORDINATE ANALYSIS (Total motion = 1 Angstrom)


   Root No.       1         2         3         4         5         6         7         8

                 1 A       2 A       3 A       4 A       5 A       6 A       7 A       8 A   

                  83.8     151.8     213.9     270.4     401.6     417.9     474.7     500.3
  
           1    0.0134    0.0010    0.0041    0.0099    0.0158    0.0013    0.0086   -0.0088
           2    0.0088   -0.0053    0.0098   -0.0293   -0.0049   -0.0172   -0.0293    0.0121
           3   -0.0203    0.0102   -0.0332   -0.0109   -0.0218    0.0284    0.0140    0.0136
           4    0.0133    0.0019    0.0022    0.0177    0.0155   -0.0014    0.0157   -0.0043
           5    0.0158    0.0113   -0.0008   -0.0220    0.0190   -0.0015    0.0220    0.0011
           6   -0.0538   -0.0383    0.0236    0.0122    0.0189   -0.0068    0.0098   -0.0013
           7    0.0108   -0.0078    0.0088    0.0093   -0.0037   -0.0202    0.0017   -0.0026
           8    0.0085   -0.0076    0.0102   -0.0313   -0.0127   -0.0200   -0.0313    0.0091
           9   -0.0247    0.0252   -0.0237   -0.0010    0.0133    0.0435   -0.0150    0.0193
          10    0.0066   -0.0048    0.0014    0.0083    0.0007   -0.0153   -0.0050    0.0197
          11    0.0047    0.0020   -0.0019   -0.0131    0.0320    0.0011    0.0236   -0.0172
          12   -0.0007    0.0069    0.0320   -0.0021   -0.0102   -0.0193    0.0434    0.0449
          13   -0.0138   -0.0180    0.0053   -0.0225   -0.0080    0.0418   -0.0191   -0.0016
          14   -0.0109   -0.0215    0.0064   -0.0076   -0.0027    0.0293   -0.0054    0.0321
          15    0.0099    0.0337   -0.0306   -0.0088   -0.0125   -0.0223    0.0072   -0.0087
          16    0.0096   -0.0145    0.0001    0.0045   -0.0131   -0.0176   -0.0167    0.0227
          17    0.0081   -0.0072   -0.0012   -0.0254    0.0111   -0.0062   -0.0048   -0.0085
          18   -0.0167    0.0561    0.0501   -0.0130   -0.0082   -0.0138   -0.0145   -0.0149
          19    0.0087    0.0109    0.0138    0.0212   -0.0078    0.0138    0.0119   -0.0164
          20    0.0065    0.0079    0.0115    0.0072   -0.0168    0.0239   -0.0011   -0.0260
          21   -0.0176   -0.0191   -0.0373    0.0029    0.0219   -0.0251   -0.0207    0.0038
          22   -0.0278    0.0010   -0.0313   -0.0248   -0.0251    0.0010   -0.0002   -0.0255
          23   -0.0212   -0.0086   -0.0230    0.0132   -0.0116   -0.0055    0.0242   -0.0171
          24    0.0306    0.0054    0.0202    0.0099    0.0119    0.0367   -0.0134   -0.0022
          25   -0.0113    0.0245   -0.0170    0.0029    0.0088    0.0014   -0.0263   -0.0110
          26   -0.0082    0.0182   -0.0153    0.0308    0.0177    0.0049    0.0028   -0.0041
          27    0.0148   -0.0417    0.0159   -0.0035   -0.0284    0.0070    0.0118   -0.0282
          28   -0.0077    0.0022    0.0140   -0.0214    0.0157   -0.0167    0.0198    0.0250
          29   -0.0115    0.0073    0.0039    0.0627   -0.0205   -0.0138   -0.0046    0.0134
          30    0.0716   -0.0251   -0.0193    0.0102    0.0051   -0.0025   -0.0055   -0.0013
          31    0.0390    0.0349   -0.0248    0.0101    0.0157    0.0093    0.0318   -0.0101
          32    0.0201   -0.0058    0.0130   -0.0411   -0.0316   -0.0662   -0.0377   -0.0084
          33   -0.0043    0.0234   -0.0416   -0.0163   -0.0336    0.0057    0.0179    0.0023
          34   -0.0080   -0.0293    0.0396    0.0349    0.0562   -0.0240    0.0098   -0.0371
          35    0.0657    0.0604   -0.0129   -0.0413   -0.0241    0.0068    0.0901    0.0808
          36   -0.0763   -0.0647    0.0427    0.0254    0.0487   -0.0193   -0.0117   -0.0383
          37    0.0350    0.0351   -0.0323    0.0057   -0.0025    0.0316    0.0528    0.0087
          38   -0.0149   -0.0155    0.0021   -0.0061    0.0584    0.0033    0.0011   -0.0627
          39   -0.0977   -0.0851    0.0469    0.0352    0.0708   -0.0212   -0.0344   -0.0761
          40   -0.0231   -0.0436    0.0219   -0.0517   -0.0307    0.0979   -0.0382    0.0283
          41   -0.0179   -0.0477    0.0235   -0.0183   -0.0176    0.0855   -0.0087    0.0515
          42    0.0170    0.0708   -0.0547   -0.0180   -0.0018   -0.1032   -0.0089   -0.0231
          43    0.0100   -0.0240   -0.0043   -0.0039   -0.0390   -0.0209   -0.0500    0.0551
          44    0.0077   -0.0099   -0.0058   -0.0239    0.0119   -0.0014    0.0005   -0.0025
          45   -0.0140    0.0900    0.1057   -0.0245   -0.0140   -0.0708   -0.0719   -0.0889
          46    0.0199    0.0182    0.0317    0.0540   -0.0113    0.0643    0.0474   -0.0404
          47    0.0172    0.0192    0.0324    0.0203   -0.0251    0.0769    0.0144   -0.0396
          48   -0.0356   -0.0435   -0.0775    0.0038    0.0429   -0.1223   -0.0238    0.0162
          49   -0.0506   -0.0040   -0.0598   -0.0496   -0.0675   -0.0055    0.0321   -0.0333
          50   -0.0387   -0.0234   -0.0410    0.0133   -0.0482   -0.0183    0.0602   -0.0562
          51    0.0575    0.0186    0.0512    0.0259    0.0645    0.0495   -0.0596    0.0296
          52   -0.0161    0.0473   -0.0265    0.0151    0.0389    0.0214   -0.0455    0.0083
          53   -0.0092    0.0444   -0.0198    0.0618    0.0629    0.0230   -0.0133    0.0255
          54    0.0277   -0.0893    0.0394   -0.0161   -0.0834   -0.0373    0.0567   -0.0636
          55   -0.0150   -0.0028    0.0198   -0.1010    0.0800   -0.0040    0.0864    0.0107
          56   -0.0203    0.0016    0.0042    0.0846   -0.0364   -0.0190   -0.0107    0.0345
          57    0.1146    0.0029   -0.0255   -0.0108    0.0139    0.0068   -0.0396   -0.0743
          58   -0.0132    0.0132    0.0198    0.0248   -0.0264   -0.0293   -0.0116    0.0427
          59   -0.0171    0.0176    0.0084    0.1266   -0.0765   -0.0298   -0.0489    0.0380
          60    0.0926   -0.0817   -0.0607    0.0450    0.0101    0.0056   -0.0289    0.0189


   Root No.       9        10        11        12        13        14        15        16

                 9 A      10 A      11 A      12 A      13 A      14 A      15 A      16 A   

                 530.5     553.9     621.0     653.2     677.6     756.4     824.8     852.4
  
           1   -0.0069   -0.0445    0.0056   -0.0227    0.0280   -0.0053    0.0013   -0.0008
           2   -0.0044   -0.0110    0.0007   -0.0004    0.0187   -0.0064   -0.0064   -0.0048
           3   -0.0251    0.0035   -0.0012   -0.0267   -0.0308    0.0136    0.0058   -0.0197
           4   -0.0218   -0.0423    0.0054   -0.0094    0.0309   -0.0085    0.0190   -0.0315
           5    0.0024    0.0260   -0.0014    0.0203   -0.0142    0.0033   -0.0025    0.0098
           6   -0.0020    0.0008   -0.0028   -0.0005   -0.0065    0.0040   -0.0045   -0.0182
           7    0.0086    0.0190   -0.0038   -0.0507   -0.0165   -0.0022   -0.0077    0.0151
           8    0.0046   -0.0012   -0.0008    0.0009    0.0181   -0.0091    0.0094    0.0008
           9   -0.0151    0.0516    0.0026    0.0133    0.0579    0.0041    0.0058    0.0165
          10   -0.0358    0.0165    0.0072    0.0459   -0.0157    0.0040   -0.0018    0.0014
          11   -0.0071    0.0269    0.0020    0.0045   -0.0158    0.0033   -0.0006    0.0002
          12    0.0465   -0.0201   -0.0241    0.0029    0.0155   -0.0110    0.0004    0.0004
          13    0.0186   -0.0308   -0.0019    0.0137   -0.0127    0.0157   -0.0200    0.0160
          14   -0.0346   -0.0210    0.0015   -0.0493    0.0045    0.0197   -0.0164   -0.0295
          15   -0.0192   -0.0239    0.0052   -0.0143    0.0050   -0.0130    0.0102    0.0014
          16   -0.0060    0.0183   -0.0031   -0.0013    0.0022   -0.0046   -0.0019    0.0087
          17    0.0181    0.0217   -0.0046   -0.0502    0.0124   -0.0098   -0.0019    0.0193
          18   -0.0188    0.0057    0.0181   -0.0102   -0.0009    0.0070    0.0089    0.0261
          19    0.0130    0.0468   -0.0040   -0.0514   -0.0035    0.0108   -0.0012    0.0136
          20    0.0210   -0.0114    0.0002    0.0566    0.0087    0.0104    0.0335   -0.0302
          21    0.0296   -0.0024   -0.0059    0.0033   -0.0109   -0.0217   -0.0172   -0.0232
          22    0.0145   -0.0238    0.0014    0.0247    0.0008    0.0112   -0.0214    0.0192
          23   -0.0090   -0.0256    0.0038    0.0029    0.0018    0.0101   -0.0249    0.0237
          24    0.0171   -0.0415   -0.0007    0.0134   -0.0236   -0.0107    0.0043    0.0451
          25    0.0463    0.0312   -0.0093    0.0001   -0.0016    0.0062    0.0258   -0.0432
          26    0.0114   -0.0253   -0.0019    0.0031   -0.0151    0.0087    0.0097    0.0164
          27    0.0156    0.0234   -0.0006    0.0116    0.0094   -0.0138   -0.0160   -0.0199
          28   -0.0243    0.0162    0.0018    0.0526   -0.0168    0.0022   -0.0022    0.0035
          29   -0.0044    0.0143   -0.0008    0.0141   -0.0086    0.0009    0.0001   -0.0041
          30   -0.0149    0.0097    0.0014    0.0137   -0.0057    0.0005   -0.0002    0.0002
          31   -0.0295   -0.0584    0.0104   -0.0223    0.0661   -0.0205    0.0467   -0.0093
          32    0.0010   -0.0423    0.0083   -0.0254   -0.0288   -0.0464   -0.0063   -0.0317
          33   -0.0308   -0.0179    0.0046   -0.0383   -0.0376   -0.0123    0.0226   -0.0349
          34   -0.0142   -0.0618   -0.0024   -0.0006    0.0947   -0.0409    0.0403    0.0012
          35    0.0869    0.0086    0.0154    0.0058   -0.0343    0.0077   -0.0209   -0.0440
          36   -0.0237   -0.0018   -0.0115    0.0077    0.0264   -0.0110    0.0100    0.0111
          37   -0.0152   -0.0377    0.0159   -0.0469   -0.0122    0.0153    0.0238   -0.0848
          38   -0.0474    0.0388   -0.0099    0.0106   -0.0065    0.0036    0.0203    0.0293
          39   -0.0582    0.0098   -0.0182    0.0111    0.0294   -0.0106    0.0175    0.0340
          40    0.0036   -0.0085   -0.0031   -0.0109   -0.0748   -0.0678    0.0975    0.0016
          41   -0.0477   -0.0109    0.0022   -0.0704   -0.0578   -0.0607    0.0936   -0.0223
          42   -0.0014   -0.0212    0.0017    0.0115    0.0930    0.0966   -0.1364   -0.0395
          43   -0.0012    0.0058   -0.0215   -0.0020    0.0591   -0.0158    0.0226    0.0468
          44    0.0210    0.0257   -0.0138   -0.0477    0.0221   -0.0077    0.0028    0.0328
          45   -0.0558   -0.0348    0.1298   -0.0346   -0.1223   -0.0185   -0.0478   -0.1324
          46    0.0051    0.0550    0.0041   -0.0549   -0.0119   -0.0420   -0.1054    0.0073
          47    0.0082    0.0130    0.0109    0.0752    0.0308   -0.0560   -0.0633   -0.0637
          48    0.0572   -0.0644   -0.0280   -0.0568   -0.0857    0.1123    0.1473    0.0680
          49   -0.0394   -0.0288    0.0167    0.0075   -0.0057   -0.1021    0.0265    0.0721
          50   -0.0094    0.0230    0.0100    0.0273   -0.0054   -0.1120    0.0441    0.0475
          51    0.0530   -0.0711   -0.0152    0.0074   -0.0146    0.1473   -0.0750   -0.0050
          52    0.0521    0.0246   -0.0085    0.0013   -0.0210   -0.0800   -0.0307   -0.0508
          53    0.0157    0.0049   -0.0043   -0.0478   -0.0404   -0.0968   -0.0605   -0.0025
          54    0.0024    0.0626   -0.0047   -0.0303    0.0457    0.1603    0.0961   -0.0128
          55    0.0044    0.0219    0.0587    0.0468   -0.0194    0.0024    0.0096   -0.0313
          56    0.0141    0.0121    0.0585    0.0138    0.0012   -0.0003    0.0005    0.0101
          57   -0.1186    0.0165   -0.2941    0.0250   -0.0460    0.0057   -0.0134   -0.0258
          58   -0.0388    0.0081   -0.0631    0.0665   -0.0152   -0.0020   -0.0107    0.0231
          59   -0.0206    0.0059   -0.0615    0.0306   -0.0055   -0.0033   -0.0105    0.0250
          60    0.0129    0.0410    0.3316    0.0192   -0.0004    0.0195    0.0098    0.0328


   Root No.      17        18        19        20        21        22        23        24

                17 A      18 A      19 A      20 A      21 A      22 A      23 A      24 A   

                 883.5     919.8     927.5     952.0     964.1     983.9    1001.0    1006.3
  
           1    0.0050    0.0035   -0.0015    0.0068    0.0038   -0.0062    0.0016   -0.0046
           2   -0.0273    0.0013    0.0047    0.0221    0.0084    0.0054   -0.0023    0.0167
           3    0.0119   -0.0058   -0.0119   -0.0228   -0.0090   -0.0067   -0.0020   -0.0055
           4    0.0161   -0.0103   -0.0091    0.0012    0.0041   -0.0038   -0.0050    0.0134
           5   -0.0098    0.0309   -0.0217   -0.0044   -0.0132    0.0460   -0.0065    0.0091
           6    0.0353   -0.0018   -0.0104    0.0306    0.0095    0.0107   -0.0030    0.0120
           7    0.0063   -0.0051   -0.0020   -0.0067   -0.0012   -0.0003   -0.0014   -0.0081
           8    0.0271   -0.0076   -0.0015   -0.0104   -0.0026   -0.0016   -0.0003   -0.0054
           9    0.0138    0.0152    0.0286    0.0112    0.0064   -0.0044    0.0085    0.0218
          10   -0.0022   -0.0032   -0.0000    0.0031    0.0032   -0.0090   -0.0006    0.0008
          11   -0.0006   -0.0083    0.0028    0.0009    0.0033   -0.0127    0.0002   -0.0013
          12   -0.0135    0.0120    0.0113   -0.0149   -0.0037   -0.0044    0.0105   -0.0158
          13    0.0009   -0.0025    0.0020    0.0066   -0.0098   -0.0039   -0.0103    0.0006
          14   -0.0309    0.0038   -0.0032    0.0123   -0.0226   -0.0039   -0.0062   -0.0201
          15   -0.0219    0.0098    0.0066    0.0002    0.0096    0.0104    0.0127   -0.0063
          16    0.0193    0.0017    0.0132   -0.0105   -0.0102    0.0280   -0.0026    0.0015
          17    0.0341    0.0049    0.0008   -0.0104    0.0104   -0.0422    0.0079   -0.0154
          18   -0.0059   -0.0395   -0.0375   -0.0028    0.0036    0.0031   -0.0098   -0.0049
          19   -0.0175    0.0060    0.0066    0.0132   -0.0065    0.0015    0.0093    0.0160
          20    0.0049   -0.0038   -0.0094   -0.0007   -0.0169   -0.0105    0.0095   -0.0006
          21   -0.0072   -0.0021   -0.0062   -0.0084    0.0190    0.0088   -0.0209   -0.0208
          22   -0.0003   -0.0004    0.0040   -0.0121    0.0100    0.0048    0.0144    0.0077
          23    0.0070   -0.0005    0.0043   -0.0135    0.0115    0.0037    0.0153    0.0083
          24    0.0053    0.0042    0.0145    0.0178   -0.0091   -0.0037   -0.0168   -0.0113
          25   -0.0188    0.0043   -0.0046    0.0032    0.0025   -0.0029   -0.0099   -0.0178
          26    0.0029    0.0047    0.0079    0.0029    0.0146    0.0052   -0.0157   -0.0045
          27   -0.0074   -0.0091   -0.0148   -0.0019   -0.0209   -0.0068    0.0241    0.0148
          28   -0.0051    0.0066   -0.0084    0.0029    0.0092   -0.0264    0.0097   -0.0124
          29   -0.0048   -0.0357    0.0354   -0.0023   -0.0027    0.0071    0.0058   -0.0087
          30   -0.0054    0.0016    0.0120   -0.0159   -0.0073   -0.0222   -0.0251    0.0243
          31   -0.0193    0.0464   -0.0101   -0.0569   -0.0176    0.0166    0.0487   -0.0376
          32   -0.0682   -0.0502   -0.0102    0.0353    0.1135   -0.0138   -0.0210    0.1681
          33   -0.0205   -0.0130   -0.0214   -0.0405    0.0345   -0.0069    0.0084    0.0554
          34   -0.0485    0.0461    0.0078   -0.0154    0.0023    0.0584    0.0464    0.0060
          35    0.0879    0.0360   -0.0319    0.1079    0.0261    0.1125    0.0138    0.0473
          36   -0.0211    0.0214   -0.0006   -0.0095   -0.0032    0.0199    0.0130   -0.0017
          37    0.1309   -0.0399   -0.0756   -0.0028   -0.0106    0.0058   -0.0704    0.0421
          38   -0.0307    0.0478   -0.0640   -0.0924   -0.0608    0.0744   -0.0498    0.0086
          39   -0.0551    0.0333   -0.0142   -0.0599   -0.0309    0.0317   -0.0076   -0.0072
          40   -0.0574    0.0181    0.0142   -0.0118    0.0618    0.0429    0.0292    0.0294
          41   -0.0496    0.0192    0.0081   -0.0229    0.0496    0.0265    0.0348   -0.0016
          42   -0.0503   -0.0049   -0.0088    0.0735   -0.0936   -0.0104   -0.0467   -0.0184
          43    0.0839   -0.0475   -0.0069   -0.0578   -0.0465    0.1776   -0.0348    0.0063
          44    0.0259   -0.0126   -0.0166   -0.0095    0.0146   -0.0465    0.0047   -0.0173
          45    0.0978    0.1716    0.1690   -0.0144   -0.0360    0.0090    0.0357    0.0064
          46   -0.0627    0.0121    0.0028    0.0138    0.0618    0.0418   -0.0448    0.0048
          47   -0.0065   -0.0020   -0.0128   -0.0232    0.0492    0.0172   -0.0428   -0.0408
          48   -0.0259   -0.0006   -0.0012    0.0593   -0.0957   -0.0261    0.0692    0.0854
          49   -0.0218    0.0192    0.0333    0.0814   -0.0547   -0.0023   -0.0532   -0.0550
          50    0.0286   -0.0017    0.0075    0.0567   -0.0359   -0.0271   -0.0470   -0.0034
          51    0.0032   -0.0075   -0.0063   -0.0909    0.0657    0.0223    0.0704    0.0377
          52   -0.0186   -0.0253   -0.0401   -0.0025   -0.0555   -0.0176    0.0466    0.0208
          53   -0.0173   -0.0260   -0.0367    0.0125   -0.0496   -0.0025    0.0465    0.0707
          54   -0.0265    0.0550    0.0551    0.0227    0.0998    0.0301   -0.0940   -0.0434
          55   -0.0352   -0.1486    0.1641   -0.0372   -0.0236   -0.0107   -0.0180    0.0057
          56   -0.0098    0.0110   -0.0005   -0.0183   -0.0066   -0.0211   -0.0201    0.0170
          57    0.0414   -0.0555    0.0103    0.0841    0.0396    0.0708    0.1086   -0.1020
          58    0.0041    0.1112   -0.0911   -0.0023    0.0209   -0.0958   -0.0109    0.0102
          59    0.0082    0.1028   -0.0832   -0.0032    0.0159   -0.0767   -0.0121    0.0116
          60   -0.0031   -0.0154   -0.0891    0.0579    0.0403    0.0408    0.1024   -0.1122


   Root No.      25        26        27        28        29        30        31        32

                25 A      26 A      27 A      28 A      29 A      30 A      31 A      32 A   

                1033.0    1061.1    1076.3    1092.9    1118.8    1143.1    1169.5    1192.3
  
           1   -0.0075   -0.0144    0.0053   -0.0371   -0.0063    0.0086    0.0107    0.0234
           2   -0.0015    0.0013   -0.0121   -0.0228    0.0122   -0.0172    0.0038   -0.0324
           3    0.0211    0.0016    0.0167    0.0262    0.0044   -0.0045    0.0083   -0.0196
           4    0.0087    0.0178   -0.0161    0.0331    0.0055   -0.0073    0.0092   -0.0189
           5    0.0042   -0.0093   -0.0021   -0.0041   -0.0013    0.0008    0.0004   -0.0056
           6   -0.0208   -0.0095    0.0092   -0.0268    0.0018   -0.0022   -0.0040    0.0004
           7   -0.0042   -0.0003    0.0011    0.0096   -0.0051   -0.0025   -0.0234    0.0089
           8   -0.0001    0.0034    0.0026    0.0003    0.0076    0.0027   -0.0033   -0.0299
           9    0.0116    0.0042   -0.0076   -0.0032   -0.0101    0.0004   -0.0070    0.0046
          10   -0.0057   -0.0023    0.0049   -0.0002    0.0017   -0.0005   -0.0043   -0.0069
          11   -0.0048   -0.0004    0.0041    0.0044   -0.0034    0.0023    0.0127    0.0176
          12    0.0273    0.0106   -0.0199   -0.0089   -0.0012    0.0002    0.0007    0.0019
          13    0.0188    0.0059    0.0128    0.0021    0.0099    0.0029    0.0032   -0.0072
          14   -0.0063   -0.0177   -0.0051    0.0077   -0.0137    0.0027    0.0039    0.0099
          15   -0.0352    0.0005   -0.0197   -0.0029    0.0018    0.0029    0.0100    0.0001
          16    0.0012   -0.0004   -0.0004    0.0018   -0.0048   -0.0011   -0.0307   -0.0106
          17    0.0006    0.0132    0.0095    0.0096   -0.0058   -0.0025    0.0045    0.0099
          18   -0.0129   -0.0032    0.0096    0.0049    0.0008   -0.0006   -0.0045   -0.0022
          19    0.0015   -0.0048   -0.0088   -0.0020    0.0043    0.0020   -0.0011    0.0026
          20   -0.0048    0.0142    0.0096   -0.0015   -0.0207    0.0060   -0.0077    0.0120
          21   -0.0025    0.0055    0.0057    0.0018   -0.0061    0.0019   -0.0071    0.0022
          22   -0.0108    0.0008   -0.0078   -0.0012    0.0026    0.0033    0.0049   -0.0096
          23   -0.0086   -0.0239   -0.0190    0.0052    0.0061   -0.0059   -0.0029    0.0058
          24    0.0088   -0.0222   -0.0104    0.0096    0.0026   -0.0037   -0.0000   -0.0028
          25   -0.0026   -0.0326   -0.0122    0.0036    0.0022   -0.0018    0.0120   -0.0013
          26    0.0061    0.0202    0.0106   -0.0002    0.0041    0.0060   -0.0116    0.0096
          27   -0.0069    0.0002   -0.0032   -0.0019   -0.0013    0.0056   -0.0008    0.0069
          28    0.0062    0.0046   -0.0009   -0.0001    0.0000    0.0018    0.0108    0.0071
          29    0.0035    0.0003    0.0005   -0.0040    0.0006    0.0001   -0.0036   -0.0024
          30   -0.0239   -0.0054    0.0103    0.0023    0.0006    0.0004    0.0017    0.0010
          31    0.0258   -0.0694    0.1957   -0.2231    0.0371   -0.0369   -0.0718   -0.0349
          32    0.1670   -0.0556   -0.0016    0.0164   -0.0859    0.0539   -0.0164    0.1009
          33    0.1163   -0.0495    0.0993   -0.0280   -0.0270    0.0126   -0.0343    0.0244
          34    0.0102    0.0000    0.0859    0.2769   -0.0055    0.0050   -0.0222   -0.0414
          35   -0.0734   -0.0460    0.0775    0.1085   -0.0109    0.0103   -0.0443   -0.0078
          36    0.0028   -0.0073    0.0300    0.0451   -0.0007    0.0005   -0.0056   -0.0089
          37    0.0226    0.0631   -0.1397   -0.0929    0.0056   -0.0081   -0.0596   -0.0057
          38    0.0674    0.0309   -0.1080   -0.0434   -0.0093    0.0083   -0.0537    0.0024
          39    0.0372    0.0053   -0.0241    0.0054   -0.0057    0.0053   -0.0183   -0.0002
          40   -0.0591    0.1414    0.0121   -0.0005    0.1282   -0.1013   -0.0645    0.1447
          41   -0.0681    0.0080   -0.0319   -0.0075    0.0084   -0.0169   -0.0026    0.0326
          42    0.0309    0.1024    0.0493    0.0385    0.0970   -0.0857   -0.0600    0.1378
          43    0.0044    0.0041    0.0424   -0.0108   -0.0320    0.0066    0.2102    0.1605
          44   -0.0041    0.0123    0.0112    0.0115   -0.0052   -0.0025   -0.0022    0.0056
          45    0.0415    0.0180   -0.0084   -0.0057   -0.0069   -0.0036    0.0342    0.0227
          46    0.0002    0.1361    0.0564   -0.0571   -0.1336   -0.1364    0.0892   -0.1238
          47   -0.0075    0.0473    0.0305   -0.0114   -0.0475   -0.0237    0.0089   -0.0198
          48    0.0044    0.0854    0.0271   -0.0374   -0.0963   -0.0732    0.0513   -0.0569
          49   -0.0246    0.0522    0.0041   -0.0064   -0.1272    0.1931   -0.0504    0.0115
          50    0.0699   -0.0925   -0.0123    0.0192    0.1327   -0.1974    0.0519   -0.0145
          51   -0.0367   -0.0097   -0.0245    0.0043    0.0037    0.0031   -0.0008   -0.0023
          52   -0.0134   -0.0277   -0.0151   -0.0011    0.0055    0.0083    0.0159   -0.0037
          53    0.0177    0.0781    0.0374   -0.0364    0.1893    0.2229    0.0697   -0.0660
          54    0.0305    0.0243    0.0216   -0.0149    0.1181    0.1325    0.0494   -0.0420
          55   -0.0193   -0.0014    0.0139   -0.0077    0.0053    0.0021    0.0160    0.0089
          56   -0.0157   -0.0033    0.0056    0.0013   -0.0001    0.0002   -0.0021   -0.0013
          57    0.0785    0.0163   -0.0223   -0.0135   -0.0015    0.0012    0.0003    0.0034
          58   -0.0139    0.0062    0.0073    0.0097   -0.0017    0.0053    0.0421    0.0332
          59   -0.0144    0.0042    0.0078    0.0082   -0.0022    0.0046    0.0361    0.0313
          60    0.0938    0.0268   -0.0361   -0.0065   -0.0010    0.0015    0.0168    0.0117


   Root No.      33        34        35        36        37        38        39        40

                33 A      34 A      35 A      36 A      37 A      38 A      39 A      40 A   

                1229.2    1250.0    1324.6    1375.3    1379.3    1402.7    1418.9    1494.4
  
           1    0.0482   -0.0370    0.0114    0.0001   -0.0133    0.0444    0.0398   -0.0145
           2   -0.0094    0.0193    0.0145    0.0339   -0.0372    0.0006    0.0097   -0.0860
           3    0.0183    0.0058    0.0151    0.0068   -0.0220    0.0272    0.0316   -0.0383
           4    0.0043    0.0497    0.0167   -0.0284    0.0017   -0.0321   -0.0077    0.0147
           5    0.0282    0.0221    0.0225   -0.0104    0.0228    0.0359   -0.0455    0.0101
           6   -0.0027    0.0086    0.0030   -0.0023    0.0087    0.0038   -0.0137    0.0055
           7    0.0150    0.0015    0.0052    0.0114    0.0064   -0.0234   -0.0212   -0.0536
           8   -0.0049   -0.0067   -0.0003   -0.0166    0.0115    0.0260    0.0501    0.1019
           9    0.0057   -0.0050   -0.0013   -0.0001    0.0065   -0.0064   -0.0030   -0.0066
          10    0.0042   -0.0021   -0.0163   -0.0159   -0.0186    0.0175   -0.0291   -0.0000
          11    0.0015    0.0153   -0.0291    0.0379    0.0237   -0.0389    0.0722   -0.0034
          12    0.0041    0.0034   -0.0080    0.0032    0.0006   -0.0041    0.0070   -0.0020
          13    0.0068   -0.0077    0.0016    0.0169   -0.0045   -0.0149   -0.0152    0.0252
          14   -0.0061   -0.0119   -0.0113   -0.0040    0.0159   -0.0188   -0.0228    0.0277
          15    0.0066   -0.0179   -0.0053    0.0122    0.0065   -0.0232   -0.0281    0.0380
          16    0.0226   -0.0052   -0.0014    0.0096    0.0397   -0.0248    0.0262   -0.0232
          17   -0.0057   -0.0060   -0.0026   -0.0212   -0.0131    0.0025   -0.0518   -0.0234
          18    0.0024   -0.0010    0.0002   -0.0010    0.0043   -0.0031   -0.0014   -0.0068
          19   -0.0152    0.0183    0.0124    0.0174   -0.0253    0.0134    0.0104    0.0684
          20    0.0180   -0.0077    0.0006    0.0071    0.0032   -0.0148   -0.0174   -0.0294
          21    0.0022    0.0054    0.0061    0.0119   -0.0082   -0.0026   -0.0026    0.0179
          22   -0.0029   -0.0054   -0.0048    0.0069    0.0049   -0.0191   -0.0187    0.0150
          23   -0.0200    0.0133   -0.0060   -0.0303    0.0107    0.0233    0.0272   -0.0431
          24   -0.0184    0.0071   -0.0081   -0.0170    0.0116    0.0021    0.0055   -0.0182
          25   -0.0153    0.0014   -0.0088   -0.0232    0.0095    0.0130    0.0119   -0.0230
          26    0.0067    0.0093    0.0145    0.0274   -0.0259    0.0004   -0.0058    0.0507
          27   -0.0025    0.0058    0.0045    0.0051   -0.0111    0.0067    0.0017    0.0169
          28   -0.0104   -0.0028   -0.0284   -0.0007   -0.0174    0.0049   -0.0010    0.0122
          29   -0.0026   -0.0082   -0.0060   -0.0070   -0.0101    0.0089   -0.0132    0.0030
          30   -0.0033   -0.0023   -0.0072   -0.0014   -0.0056    0.0028   -0.0026    0.0033
          31   -0.1195    0.0510   -0.0207    0.0035    0.0064   -0.0587   -0.0267    0.0056
          32    0.0164   -0.0351   -0.0181   -0.0300    0.0393   -0.0044   -0.0274    0.0400
          33   -0.0353    0.0128   -0.0144   -0.0226    0.0238   -0.0173   -0.0150    0.0302
          34   -0.0870   -0.0813   -0.0501    0.1154    0.0224    0.1151   -0.0225   -0.0476
          35   -0.0464   -0.1156    0.0168   -0.0831   -0.1247   -0.1165    0.0750   -0.0123
          36   -0.0197   -0.0095   -0.0202    0.0664    0.0473    0.0898   -0.0437   -0.0140
          37   -0.1439   -0.0811   -0.0708    0.1115    0.0353    0.0842   -0.0545   -0.0285
          38   -0.0505   -0.1144    0.0022   -0.0451   -0.0879   -0.0525    0.0275   -0.0159
          39    0.0017   -0.0511    0.0287   -0.1045   -0.1099   -0.1309    0.0759    0.0036
          40   -0.0106    0.0197   -0.0052   -0.0643    0.0188    0.0578    0.0593   -0.0300
          41   -0.0060   -0.0098   -0.0119   -0.0162    0.0190   -0.0074   -0.0117    0.0162
          42   -0.0211    0.0118   -0.0158   -0.0647    0.0327    0.0380    0.0350   -0.0078
          43   -0.0679    0.0433   -0.0302    0.0312   -0.0469   -0.0174   -0.0247   -0.0366
          44   -0.0036   -0.0078   -0.0034   -0.0240   -0.0103    0.0013   -0.0538   -0.0240
          45   -0.0091    0.0080   -0.0052    0.0049   -0.0102   -0.0013   -0.0047   -0.0120
          46   -0.0234   -0.0533   -0.0392   -0.0707    0.0566    0.0214    0.0419   -0.0049
          47    0.0187   -0.0238   -0.0101   -0.0111    0.0225   -0.0150   -0.0110   -0.0466
          48   -0.0030   -0.0381   -0.0245   -0.0382    0.0367    0.0019    0.0113   -0.0266
          49   -0.0665    0.0791    0.0041   -0.0454   -0.0041    0.0534    0.0552   -0.0649
          50    0.0403   -0.0708   -0.0162    0.0193    0.0214   -0.0478   -0.0457    0.0321
          51   -0.0210    0.0096   -0.0091   -0.0203    0.0134    0.0026    0.0065   -0.0199
          52   -0.0159   -0.0009   -0.0111   -0.0274    0.0125    0.0140    0.0132   -0.0279
          53    0.0138   -0.0579   -0.0379   -0.0347    0.0536   -0.0321   -0.0222   -0.0760
          54   -0.0026   -0.0335   -0.0291   -0.0356    0.0387   -0.0125   -0.0077   -0.0635
          55   -0.0859   -0.0780    0.2489   -0.0091    0.0539    0.0065   -0.0264   -0.0151
          56    0.0116    0.0083   -0.0654   -0.0037   -0.0251    0.0073   -0.0050    0.0095
          57   -0.0150   -0.0177    0.0381   -0.0027    0.0064    0.0033   -0.0077   -0.0012
          58   -0.0609   -0.0256    0.1233    0.0258    0.0463   -0.0251    0.0392   -0.0025
          59   -0.0634   -0.0340    0.1830    0.0291    0.0734   -0.0322    0.0424   -0.0178
          60   -0.0224   -0.0095    0.0622    0.0110    0.0237   -0.0117    0.0173   -0.0045


   Root No.      41        42        43        44        45        46        47        48

                41 A      42 A      43 A      44 A      45 A      46 A      47 A      48 A   

                1802.2    1827.4    1870.8    1910.6    2854.8    2983.9    3055.2    3058.8
  
           1    0.0045   -0.0147   -0.0157   -0.0019    0.0236    0.0009    0.0001    0.0007
           2    0.0034   -0.0044   -0.0081   -0.0066    0.0295    0.0010    0.0000   -0.0003
           3    0.0029   -0.0161   -0.0110   -0.0017   -0.0588   -0.0020    0.0002    0.0003
           4    0.0007    0.0025   -0.0057   -0.0123    0.0011    0.0024   -0.0006    0.0252
           5   -0.0022   -0.0032   -0.0010   -0.0228   -0.0009    0.0121    0.0009   -0.0323
           6    0.0001   -0.0013   -0.0012   -0.0068    0.0034   -0.0582    0.0001   -0.0022
           7   -0.0373   -0.0772    0.1434   -0.0685    0.0003    0.0001   -0.0001   -0.0005
           8   -0.0319   -0.0432    0.0625   -0.0170    0.0013   -0.0000   -0.0002    0.0002
           9   -0.0066   -0.0196    0.0413   -0.0178    0.0001   -0.0001   -0.0001   -0.0000
          10    0.0073   -0.0138    0.0502    0.2095   -0.0003   -0.0002    0.0000   -0.0002
          11    0.0064   -0.0033    0.0170    0.0655   -0.0002   -0.0002   -0.0000   -0.0007
          12    0.0024   -0.0028    0.0126    0.0553   -0.0000   -0.0002   -0.0000   -0.0001
          13   -0.0451    0.1399    0.0555   -0.0054   -0.0010    0.0004   -0.0071    0.0002
          14    0.0182   -0.0360   -0.0161    0.0036   -0.0004   -0.0000    0.0159   -0.0002
          15   -0.0226    0.0815    0.0323   -0.0020   -0.0012    0.0001    0.0062   -0.0000
          16    0.0534    0.0691   -0.1071    0.0060   -0.0005    0.0000    0.0000   -0.0001
          17    0.0252    0.0385   -0.0561    0.0322   -0.0004   -0.0000    0.0000   -0.0003
          18    0.0119    0.0156   -0.0244    0.0044   -0.0004   -0.0002    0.0000   -0.0000
          19   -0.1033   -0.0079   -0.0683    0.0320   -0.0001   -0.0000   -0.0031   -0.0003
          20   -0.0994   -0.0198   -0.0205    0.0073   -0.0000   -0.0000    0.0064    0.0008
          21   -0.1033   -0.0167   -0.0414    0.0180   -0.0003   -0.0000    0.0018    0.0002
          22    0.0522   -0.1386   -0.0537    0.0061    0.0008   -0.0000   -0.0157   -0.0006
          23   -0.0553    0.0738    0.0259   -0.0017   -0.0004    0.0001   -0.0155   -0.0005
          24    0.0017   -0.0523   -0.0218    0.0033   -0.0000    0.0000   -0.0233   -0.0008
          25    0.0676    0.0318    0.0242   -0.0083   -0.0001    0.0000    0.0170    0.0017
          26    0.1459    0.0092    0.0255   -0.0124    0.0003    0.0000   -0.0037   -0.0004
          27    0.1161    0.0217    0.0269   -0.0112    0.0002    0.0000    0.0062    0.0006
          28   -0.0117    0.0067   -0.0328   -0.1553    0.0000    0.0001    0.0000    0.0001
          29   -0.0032    0.0038   -0.0136   -0.0532   -0.0000    0.0001    0.0000    0.0000
          30   -0.0030    0.0020   -0.0094   -0.0426   -0.0000   -0.0001    0.0000    0.0000
          31   -0.0055   -0.0014    0.0178   -0.0047   -0.2884   -0.0137    0.0000    0.0026
          32    0.0082   -0.0030   -0.0079    0.0022   -0.3570   -0.0111    0.0006    0.0014
          33   -0.0008   -0.0011    0.0011    0.0041    0.7236    0.0223    0.0001   -0.0036
          34    0.0007   -0.0028    0.0012    0.0145    0.0059   -0.1887    0.0036   -0.1333
          35    0.0007   -0.0011   -0.0011    0.0028   -0.0066    0.1253   -0.0016    0.0751
          36   -0.0001   -0.0057    0.0029    0.0006   -0.0240    0.4481   -0.0091    0.3669
          37    0.0012    0.0015    0.0036    0.0233   -0.0055    0.1564    0.0046   -0.1715
          38   -0.0013   -0.0008    0.0055    0.0125    0.0196   -0.2690   -0.0082    0.3110
          39    0.0013    0.0013   -0.0027    0.0087   -0.0188    0.2532    0.0089   -0.3396
          40   -0.0171    0.0074    0.0017    0.0007   -0.0001    0.0004    0.0905   -0.0002
          41    0.0297   -0.0795   -0.0354    0.0060    0.0030    0.0012   -0.1911    0.0018
          42    0.0097   -0.0558   -0.0254    0.0055   -0.0009    0.0002   -0.0710    0.0007
          43   -0.0165   -0.0197    0.0350    0.0186   -0.0001    0.0000   -0.0000   -0.0002
          44    0.0367    0.0567   -0.0850    0.0469   -0.0034   -0.0007   -0.0000    0.0097
          45    0.0040   -0.0043    0.0053    0.0077   -0.0011   -0.0002   -0.0000    0.0007
          46    0.0680    0.0151    0.0380   -0.0113    0.0004    0.0000    0.0327    0.0039
          47   -0.0872   -0.0256    0.0024   -0.0022   -0.0005   -0.0000   -0.0774   -0.0095
          48   -0.0237    0.0011    0.0038   -0.0011   -0.0003   -0.0000   -0.0254   -0.0031
          49    0.0234   -0.0083    0.0004   -0.0023    0.0018   -0.0001    0.1784    0.0062
          50   -0.0183   -0.0784   -0.0372    0.0076    0.0017   -0.0001    0.1852    0.0063
          51    0.0073   -0.0676   -0.0278    0.0041    0.0011   -0.0002    0.2714    0.0093
          52    0.0868    0.0350    0.0290   -0.0104   -0.0003   -0.0002   -0.1965   -0.0201
          53   -0.0544   -0.0548   -0.0197    0.0029    0.0001    0.0000    0.0469    0.0049
          54    0.0071   -0.0122   -0.0011   -0.0020   -0.0000   -0.0001   -0.0694   -0.0070
          55    0.0026   -0.0009    0.0042    0.0211   -0.0001    0.0004    0.0000   -0.0000
          56   -0.0078    0.0071   -0.0286   -0.1232   -0.0003    0.0013    0.0000    0.0005
          57   -0.0008    0.0011   -0.0048   -0.0199    0.0001   -0.0005    0.0000    0.0000
          58   -0.0050    0.0005   -0.0107   -0.0716   -0.0000    0.0008   -0.0001    0.0004
          59    0.0093   -0.0049    0.0233    0.1058    0.0001   -0.0005    0.0001   -0.0011
          60    0.0010   -0.0010    0.0029    0.0063   -0.0001    0.0005   -0.0000    0.0001


   Root No.      49        50        51        52        53        54

                49 A      50 A      51 A      52 A      53 A      54 A   

                3061.7    3075.2    3082.2    3126.1    3142.4    3147.4
  
           1   -0.0001    0.0001   -0.0004    0.0005   -0.0001   -0.0000
           2    0.0001   -0.0001    0.0002    0.0011   -0.0001    0.0000
           3   -0.0000    0.0002   -0.0003   -0.0001   -0.0000   -0.0000
           4    0.0006   -0.0003    0.0001   -0.0009    0.0000    0.0004
           5   -0.0007    0.0002    0.0000    0.0015    0.0000    0.0002
           6   -0.0001   -0.0000    0.0000    0.0001    0.0002    0.0001
           7   -0.0001   -0.0003   -0.0008    0.0056   -0.0004    0.0001
           8   -0.0000    0.0002   -0.0003    0.0030   -0.0002    0.0001
           9   -0.0000   -0.0000   -0.0004    0.0014   -0.0001    0.0000
          10    0.0000    0.0000    0.0000   -0.0013    0.0059   -0.0002
          11   -0.0000    0.0000   -0.0000    0.0002    0.0020   -0.0006
          12   -0.0000    0.0000   -0.0000   -0.0002    0.0016   -0.0002
          13   -0.0064    0.0153   -0.0081   -0.0000   -0.0000    0.0000
          14    0.0131   -0.0264    0.0136   -0.0000    0.0001   -0.0000
          15    0.0047   -0.0077    0.0037   -0.0000    0.0000   -0.0000
          16    0.0000    0.0001    0.0002   -0.0052    0.0004   -0.0006
          17   -0.0001   -0.0001    0.0000   -0.0755    0.0021   -0.0001
          18   -0.0000   -0.0000    0.0000   -0.0073    0.0003   -0.0001
          19    0.0083    0.0068    0.0077   -0.0003    0.0001    0.0000
          20   -0.0188   -0.0201   -0.0247    0.0001   -0.0001   -0.0000
          21   -0.0059   -0.0074   -0.0094   -0.0000   -0.0000    0.0000
          22   -0.0052   -0.0117    0.0091   -0.0000    0.0000   -0.0000
          23   -0.0060   -0.0075    0.0074    0.0001    0.0000   -0.0000
          24   -0.0083   -0.0145    0.0123    0.0000    0.0001   -0.0000
          25   -0.0254    0.0081    0.0222   -0.0001    0.0001   -0.0000
          26    0.0062   -0.0001   -0.0033   -0.0001   -0.0000    0.0000
          27   -0.0089    0.0039    0.0090   -0.0001    0.0000   -0.0000
          28   -0.0000   -0.0000    0.0001   -0.0015   -0.0406    0.0261
          29   -0.0000   -0.0000    0.0000   -0.0009   -0.0185   -0.0594
          30   -0.0000   -0.0000    0.0000   -0.0005   -0.0121   -0.0063
          31   -0.0002    0.0007   -0.0005   -0.0008   -0.0000   -0.0000
          32    0.0002   -0.0001   -0.0001   -0.0008   -0.0000   -0.0000
          33    0.0004   -0.0012    0.0008    0.0021    0.0001    0.0001
          34   -0.0028    0.0006    0.0001    0.0024    0.0006    0.0001
          35    0.0019   -0.0010    0.0003   -0.0012   -0.0003    0.0003
          36    0.0084   -0.0031    0.0004   -0.0066   -0.0012    0.0003
          37   -0.0036    0.0010   -0.0000    0.0035   -0.0001    0.0004
          38    0.0066   -0.0021    0.0002   -0.0060    0.0002    0.0005
          39   -0.0073    0.0023   -0.0002    0.0068   -0.0003   -0.0001
          40    0.0753   -0.1448    0.0723    0.0003    0.0003   -0.0001
          41   -0.1572    0.2984   -0.1484   -0.0007   -0.0006    0.0001
          42   -0.0578    0.1081   -0.0537   -0.0002   -0.0002    0.0000
          43    0.0001    0.0002    0.0002    0.0129   -0.0008   -0.0007
          44    0.0005    0.0008    0.0003    0.8425   -0.0219    0.0006
          45    0.0002    0.0001    0.0001    0.0722   -0.0019   -0.0001
          46   -0.0942   -0.0908   -0.1064    0.0000   -0.0004   -0.0000
          47    0.2273    0.2241    0.2635   -0.0010    0.0010    0.0000
          48    0.0751    0.0750    0.0886   -0.0006    0.0003    0.0000
          49    0.0633    0.1031   -0.0857   -0.0004   -0.0004    0.0000
          50    0.0700    0.1036   -0.0899   -0.0005   -0.0004    0.0000
          51    0.0996    0.1543   -0.1311   -0.0007   -0.0005    0.0000
          52    0.2981   -0.0851   -0.2367    0.0000   -0.0010    0.0001
          53   -0.0752    0.0187    0.0579    0.0001    0.0003   -0.0000
          54    0.1025   -0.0310   -0.0826   -0.0001   -0.0004    0.0000
          55   -0.0000    0.0000   -0.0002    0.0047    0.0813    0.0900
          56    0.0001    0.0000   -0.0010    0.0208    0.4680    0.4128
          57    0.0000    0.0000   -0.0002    0.0051    0.1093    0.1001
          58    0.0001    0.0001   -0.0008    0.0164    0.3319   -0.3959
          59   -0.0001   -0.0001    0.0006   -0.0130   -0.2716    0.2985
          60    0.0000    0.0000   -0.0000    0.0009    0.0152   -0.0230


           MASS-WEIGHTED COORDINATE ANALYSIS (NORMAL COORDINATES)


   Root No.       1         2         3         4         5         6         7         8

                 1 A       2 A       3 A       4 A       5 A       6 A       7 A       8 A   

                  83.8     151.8     213.9     270.4     401.6     417.9     474.7     500.3
  
           1    0.0977    0.0077    0.0320    0.0767    0.1418    0.0101    0.0735   -0.0744
           2    0.0644   -0.0405    0.0775   -0.2279   -0.0437   -0.1298   -0.2504    0.1024
           3   -0.1476    0.0783   -0.2617   -0.0848   -0.1954    0.2144    0.1198    0.1146
           4    0.0970    0.0144    0.0171    0.1378    0.1385   -0.0106    0.1343   -0.0362
           5    0.1150    0.0868   -0.0063   -0.1711    0.1701   -0.0116    0.1877    0.0092
           6   -0.3915   -0.2946    0.1859    0.0944    0.1692   -0.0511    0.0839   -0.0114
           7    0.0788   -0.0600    0.0693    0.0725   -0.0333   -0.1531    0.0144   -0.0215
           8    0.0615   -0.0581    0.0806   -0.2429   -0.1136   -0.1511   -0.2673    0.0765
           9   -0.1795    0.1935   -0.1863   -0.0079    0.1185    0.3291   -0.1279    0.1626
          10    0.0483   -0.0367    0.0109    0.0641    0.0065   -0.1157   -0.0427    0.1661
          11    0.0342    0.0153   -0.0147   -0.1015    0.2866    0.0082    0.2019   -0.1456
          12   -0.0053    0.0533    0.2524   -0.0167   -0.0908   -0.1463    0.3709    0.3793
          13   -0.1007   -0.1380    0.0418   -0.1749   -0.0713    0.3162   -0.1635   -0.0133
          14   -0.0793   -0.1656    0.0505   -0.0586   -0.0238    0.2216   -0.0461    0.2713
          15    0.0718    0.2591   -0.2407   -0.0685   -0.1115   -0.1688    0.0616   -0.0734
          16    0.0702   -0.1118    0.0009    0.0350   -0.1174   -0.1327   -0.1425    0.1916
          17    0.0586   -0.0550   -0.0093   -0.1969    0.0989   -0.0472   -0.0411   -0.0717
          18   -0.1216    0.4310    0.3948   -0.1010   -0.0737   -0.1046   -0.1241   -0.1261
          19    0.0633    0.0834    0.1088    0.1649   -0.0695    0.1047    0.1014   -0.1382
          20    0.0476    0.0609    0.0904    0.0563   -0.1506    0.1807   -0.0094   -0.2192
          21   -0.1281   -0.1470   -0.2935    0.0229    0.1962   -0.1894   -0.1771    0.0323
          22   -0.2025    0.0074   -0.2467   -0.1925   -0.2247    0.0074   -0.0017   -0.2151
          23   -0.1540   -0.0658   -0.1814    0.1024   -0.1039   -0.0415    0.2067   -0.1445
          24    0.2229    0.0416    0.1593    0.0769    0.1068    0.2771   -0.1146   -0.0188
          25   -0.0821    0.1880   -0.1341    0.0226    0.0789    0.0105   -0.2248   -0.0931
          26   -0.0597    0.1398   -0.1206    0.2390    0.1582    0.0368    0.0236   -0.0343
          27    0.1080   -0.3202    0.1251   -0.0270   -0.2539    0.0526    0.1007   -0.2377
          28   -0.0564    0.0166    0.1099   -0.1661    0.1407   -0.1262    0.1692    0.2108
          29   -0.0837    0.0558    0.0306    0.4868   -0.1834   -0.1044   -0.0393    0.1129
          30    0.5212   -0.1927   -0.1522    0.0795    0.0458   -0.0186   -0.0468   -0.0107
          31    0.0823    0.0778   -0.0567    0.0227    0.0407    0.0205    0.0787   -0.0246
          32    0.0423   -0.0129    0.0297   -0.0925   -0.0818   -0.1451   -0.0934   -0.0205
          33   -0.0091    0.0522   -0.0949   -0.0367   -0.0870    0.0124    0.0442    0.0056
          34   -0.0169   -0.0651    0.0903    0.0785    0.1456   -0.0526    0.0243   -0.0907
          35    0.1385    0.1345   -0.0295   -0.0929   -0.0624    0.0150    0.2230    0.1976
          36   -0.1607   -0.1441    0.0973    0.0571    0.1262   -0.0424   -0.0288   -0.0937
          37    0.0737    0.0781   -0.0738    0.0128   -0.0066    0.0692    0.1306    0.0214
          38   -0.0313   -0.0345    0.0047   -0.0137    0.1513    0.0072    0.0026   -0.1535
          39   -0.2059   -0.1895    0.1071    0.0793    0.1836   -0.0463   -0.0850   -0.1862
          40   -0.0487   -0.0971    0.0499   -0.1162   -0.0797    0.2144   -0.0946    0.0692
          41   -0.0378   -0.1061    0.0536   -0.0412   -0.0457    0.1873   -0.0216    0.1260
          42    0.0358    0.1577   -0.1249   -0.0405   -0.0045   -0.2260   -0.0220   -0.0566
          43    0.0211   -0.0535   -0.0099   -0.0088   -0.1011   -0.0458   -0.1237    0.1348
          44    0.0163   -0.0220   -0.0132   -0.0538    0.0308   -0.0030    0.0014   -0.0062
          45   -0.0295    0.2004    0.2411   -0.0551   -0.0364   -0.1551   -0.1778   -0.2175
          46    0.0419    0.0404    0.0723    0.1215   -0.0294    0.1408    0.1172   -0.0988
          47    0.0362    0.0427    0.0739    0.0456   -0.0650    0.1683    0.0356   -0.0968
          48   -0.0751   -0.0970   -0.1768    0.0086    0.1111   -0.2678   -0.0590    0.0397
          49   -0.1067   -0.0090   -0.1363   -0.1116   -0.1750   -0.0120    0.0794   -0.0813
          50   -0.0815   -0.0521   -0.0935    0.0298   -0.1250   -0.0401    0.1490   -0.1374
          51    0.1212    0.0415    0.1167    0.0582    0.1672    0.1085   -0.1475    0.0723
          52   -0.0339    0.1054   -0.0604    0.0339    0.1009    0.0468   -0.1125    0.0202
          53   -0.0195    0.0988   -0.0453    0.1390    0.1630    0.0503   -0.0329    0.0623
          54    0.0584   -0.1988    0.0898   -0.0363   -0.2162   -0.0816    0.1402   -0.1555
          55   -0.0316   -0.0062    0.0453   -0.2273    0.2072   -0.0088    0.2138    0.0262
          56   -0.0429    0.0036    0.0096    0.1903   -0.0944   -0.0417   -0.0264    0.0844
          57    0.2416    0.0064   -0.0582   -0.0243    0.0359    0.0148   -0.0980   -0.1817
          58   -0.0279    0.0294    0.0451    0.0559   -0.0685   -0.0642   -0.0288    0.1044
          59   -0.0361    0.0392    0.0193    0.2847   -0.1983   -0.0653   -0.1209    0.0930
          60    0.1953   -0.1820   -0.1384    0.1012    0.0262    0.0123   -0.0716    0.0461


   Root No.       9        10        11        12        13        14        15        16

                 9 A      10 A      11 A      12 A      13 A      14 A      15 A      16 A   

                 530.5     553.9     621.0     653.2     677.6     756.4     824.8     852.4
  
           1   -0.0528   -0.2945    0.0389   -0.1432    0.2234   -0.0453    0.0110   -0.0060
           2   -0.0332   -0.0731    0.0049   -0.0028    0.1491   -0.0548   -0.0541   -0.0370
           3   -0.1913    0.0235   -0.0084   -0.1678   -0.2459    0.1162    0.0490   -0.1521
           4   -0.1664   -0.2799    0.0373   -0.0594    0.2462   -0.0725    0.1611   -0.2433
           5    0.0185    0.1724   -0.0096    0.1276   -0.1128    0.0284   -0.0210    0.0757
           6   -0.0150    0.0054   -0.0194   -0.0033   -0.0517    0.0345   -0.0384   -0.1409
           7    0.0654    0.1256   -0.0262   -0.3192   -0.1315   -0.0191   -0.0655    0.1169
           8    0.0350   -0.0080   -0.0054    0.0055    0.1439   -0.0776    0.0795    0.0061
           9   -0.1151    0.3415    0.0180    0.0837    0.4613    0.0351    0.0496    0.1277
          10   -0.2735    0.1092    0.0503    0.2887   -0.1250    0.0343   -0.0149    0.0106
          11   -0.0539    0.1782    0.0136    0.0285   -0.1263    0.0285   -0.0048    0.0017
          12    0.3550   -0.1332   -0.1676    0.0180    0.1239   -0.0946    0.0034    0.0032
          13    0.1417   -0.2036   -0.0134    0.0861   -0.1013    0.1347   -0.1697    0.1239
          14   -0.2638   -0.1392    0.0103   -0.3105    0.0357    0.1690   -0.1394   -0.2278
          15   -0.1465   -0.1584    0.0363   -0.0899    0.0401   -0.1111    0.0862    0.0108
[...]
 TRAVEL (Ang.)       0.2942         C  2 -- H 13          +7.5% ( 37.3%)      0.9%
 REDUCED MASS        0.5664         C  2 -- H 12          +7.3% ( 37.0%)      1.0%
 EFFECTIVE MASS      7.0841
 FORCE CONSTANT      0.6312

 VIBRATION         37   37A           ATOM PAIR      ENERGY CONTRIBUTION    RADIAL
 FREQUENCY          1379.29         C  4 -- C  6         +10.5% ( 45.7%)     99.8%
 TRANSITION DIPOLE   0.0573         C  1 -- C  5          +7.7% ( 39.1%)     70.4%
 TRAVEL (Ang.)       0.2694         C  1 -- C  2          +7.6% ( 38.7%)      4.7%
 REDUCED MASS        0.6738         C  1 -- C  3          +7.1% ( 37.6%)     50.6%
 EFFECTIVE MASS      7.2543
 FORCE CONSTANT      0.7552

 VIBRATION         38   38A           ATOM PAIR      ENERGY CONTRIBUTION    RADIAL
 FREQUENCY          1402.72         C  1 -- C  2         +10.4% ( 46.7%)     76.6%
 TRANSITION DIPOLE   0.1775         C  2 -- H 12          +9.9% ( 45.7%)      4.7%
 TRAVEL (Ang.)       0.2480         C  1 -- C  5          +9.1% ( 43.7%)     84.7%
 REDUCED MASS        0.7815         C  2 -- C  4          +8.9% ( 43.4%)     44.1%
 EFFECTIVE MASS      7.8644
 FORCE CONSTANT      0.9060

 VIBRATION         39   39A           ATOM PAIR      ENERGY CONTRIBUTION    RADIAL
 FREQUENCY          1418.88         C  4 -- C  6         +14.9% ( 60.9%)     71.4%
 TRANSITION DIPOLE   0.1360         C  2 -- C  4         +11.4% ( 53.3%)     82.4%
 TRAVEL (Ang.)       0.1772         C  3 -- C  4          +9.7% ( 49.1%)      6.9%
 REDUCED MASS        1.5134         C  3 -- C  6          +9.0% ( 47.3%)      3.4%
 EFFECTIVE MASS     10.6401
 FORCE CONSTANT      1.7951

 VIBRATION         40   40A           ATOM PAIR      ENERGY CONTRIBUTION    RADIAL
 FREQUENCY          1494.41         C  1 -- C  3         +17.4% ( 66.8%)     97.2%
 TRANSITION DIPOLE   0.1367         C  3 -- C  7         +16.2% ( 64.3%)     72.4%
 TRAVEL (Ang.)       0.1404         C  3 -- C  6          +9.7% ( 49.9%)     14.0%
 REDUCED MASS        2.2901         C  1 -- C  5          +9.5% ( 49.2%)     83.4%
 EFFECTIVE MASS     11.4136
 FORCE CONSTANT      3.0133

 VIBRATION         41   41A           ATOM PAIR      ENERGY CONTRIBUTION    RADIAL
 FREQUENCY          1802.22         C  7 -- C  9         +37.0% ( 90.8%)     99.6%
 TRANSITION DIPOLE   0.1415         C  8 -- C  9         +15.8% ( 59.3%)     76.3%
 TRAVEL (Ang.)       0.0965         C  9 -- H 18         +12.4% ( 52.5%)      3.8%
 REDUCED MASS        4.0172         C  3 -- C  7         +10.1% ( 47.5%)     27.0%
 EFFECTIVE MASS     11.9394
 FORCE CONSTANT      7.6877

 VIBRATION         42   42A           ATOM PAIR      ENERGY CONTRIBUTION    RADIAL
 FREQUENCY          1827.37         C  5 -- C  8         +32.9% ( 86.5%)     99.9%
 TRANSITION DIPOLE   0.3970         C  8 -- C  9         +10.8% ( 49.6%)     26.4%
 TRAVEL (Ang.)       0.1035         C  1 -- C  5         +10.6% ( 49.0%)     47.0%
 REDUCED MASS        3.4439         C  5 -- H 14          +9.8% ( 47.2%)      5.1%
 EFFECTIVE MASS     11.8594
 FORCE CONSTANT      6.7757

 VIBRATION         43   43A           ATOM PAIR      ENERGY CONTRIBUTION    RADIAL
 FREQUENCY          1870.78         C  3 -- C  6         +25.0% ( 79.3%)     96.6%
 TRANSITION DIPOLE   0.3098         C  3 -- C  7         +15.3% ( 62.0%)     66.3%
 TRAVEL (Ang.)       0.1115         C  3 -- C  4         +11.3% ( 53.2%)     78.8%
 REDUCED MASS        2.8997         C  1 -- C  3         +10.9% ( 52.3%)      2.8%
 EFFECTIVE MASS     11.8930
 FORCE CONSTANT      5.9792

 VIBRATION         44   44A           ATOM PAIR      ENERGY CONTRIBUTION    RADIAL
 FREQUENCY          1910.65         C  4 -- C 10         +34.2% ( 94.4%)    100.0%
 TRANSITION DIPOLE   0.3423         C  3 -- C  4         +16.1% ( 64.9%)     90.3%
 TRAVEL (Ang.)       0.0845         C  2 -- C  4         +14.6% ( 61.7%)     38.3%
 REDUCED MASS        4.9377         C  4 -- C  6         +14.4% ( 61.3%)     51.2%
 EFFECTIVE MASS     11.9080
 FORCE CONSTANT     10.6203

 VIBRATION         45   45A           ATOM PAIR      ENERGY CONTRIBUTION    RADIAL
 FREQUENCY          2854.84         C  1 -- H 11         +96.9% ( 99.9%)    100.0%
 TRANSITION DIPOLE   0.1381         C  1 -- C  2          +1.0% ( 10.0%)      9.6%
 TRAVEL (Ang.)       0.1597         C  1 -- C  3          +1.0% ( 10.0%)      9.9%
 REDUCED MASS        0.9261         C  1 -- C  5          +1.0% ( 10.0%)      6.6%
 EFFECTIVE MASS      1.4321
 FORCE CONSTANT      4.4472

 VIBRATION         46   46A           ATOM PAIR      ENERGY CONTRIBUTION    RADIAL
 FREQUENCY          2983.93         C  2 -- H 12         +58.7% ( 79.4%)     97.6%
 TRANSITION DIPOLE   0.0764         C  2 -- H 13         +38.9% ( 64.6%)     95.3%
 TRAVEL (Ang.)       0.2053         C  2 -- C  4          +1.1% ( 11.0%)      0.1%
 REDUCED MASS        0.5362         C  1 -- C  2          +1.1% ( 10.9%)      0.1%
 EFFECTIVE MASS      1.5380
 FORCE CONSTANT      2.8127

 VIBRATION         47   47A           ATOM PAIR      ENERGY CONTRIBUTION    RADIAL
 FREQUENCY          3055.21         C  8 -- H 17         +56.0% ( 76.1%)    100.0%
 TRANSITION DIPOLE   0.1583         C  5 -- H 14         +19.9% ( 45.3%)    100.0%
 TRAVEL (Ang.)       0.2408         C  9 -- H 18         +18.3% ( 43.5%)    100.0%
 REDUCED MASS        0.3805         C  7 -- H 16          +3.1% ( 17.9%)     99.9%
 EFFECTIVE MASS      1.4800
 FORCE CONSTANT      2.0928

 VIBRATION         48   48A           ATOM PAIR      ENERGY CONTRIBUTION    RADIAL
 FREQUENCY          3058.77         C  2 -- H 13         +60.0% ( 76.5%)     98.6%
 TRANSITION DIPOLE   0.1084         C  2 -- H 12         +38.3% ( 61.1%)     95.8%
 TRAVEL (Ang.)       0.2096         C  1 -- C  2          +0.7% (  8.2%)     36.6%
 REDUCED MASS        0.5020         C  2 -- C  4          +0.7% (  8.2%)     34.8%
 EFFECTIVE MASS      1.2848
 FORCE CONSTANT      2.7671

 VIBRATION         49   49A           ATOM PAIR      ENERGY CONTRIBUTION    RADIAL
 FREQUENCY          3061.66         C  9 -- H 18         +45.7% ( 68.6%)    100.0%
 TRANSITION DIPOLE   0.3641         C  7 -- H 16         +28.8% ( 54.5%)    100.0%
 TRAVEL (Ang.)       0.2649         C  5 -- H 14         +14.7% ( 38.9%)    100.0%
 REDUCED MASS        0.3138         C  8 -- H 17          +8.1% ( 29.0%)     99.9%
 EFFECTIVE MASS      1.4629
 FORCE CONSTANT      1.7329

 VIBRATION         50   50A           ATOM PAIR      ENERGY CONTRIBUTION    RADIAL
 FREQUENCY          3075.20         C  5 -- H 14         +49.0% ( 71.1%)    100.0%
 TRANSITION DIPOLE   0.4785         C  7 -- H 16         +25.8% ( 51.6%)    100.0%
 TRAVEL (Ang.)       0.2537         C  8 -- H 17         +18.2% ( 43.4%)     99.8%
 REDUCED MASS        0.3408         C  9 -- H 18          +3.5% ( 18.9%)     99.4%
 EFFECTIVE MASS      1.5688
 FORCE CONSTANT      1.8987

 VIBRATION         51   51A           ATOM PAIR      ENERGY CONTRIBUTION    RADIAL
 FREQUENCY          3082.22         C  7 -- H 16         +39.2% ( 63.5%)     99.9%
 TRANSITION DIPOLE   0.3339         C  9 -- H 18         +29.3% ( 54.9%)     99.9%
 TRAVEL (Ang.)       0.2796         C  8 -- H 17         +14.4% ( 38.5%)    100.0%
 REDUCED MASS        0.2798         C  5 -- H 14         +13.3% ( 37.1%)     99.9%
 EFFECTIVE MASS      1.6078
 FORCE CONSTANT      1.5663

 VIBRATION         52   52A           ATOM PAIR      ENERGY CONTRIBUTION    RADIAL
 FREQUENCY          3126.13         C  6 -- H 15         +96.3% ( 99.9%)    100.0%
 TRANSITION DIPOLE   0.4174         C  3 -- C  6          +1.8% ( 13.7%)     48.6%
 TRAVEL (Ang.)       0.1525         C  4 -- C  6          +1.7% ( 13.2%)     26.3%
 REDUCED MASS        0.9273
 EFFECTIVE MASS      1.5600
 FORCE CONSTANT      5.3391

 VIBRATION         53   53A           ATOM PAIR      ENERGY CONTRIBUTION    RADIAL
 FREQUENCY          3142.42         C 10 -- H 19         +55.5% ( 74.5%)     96.3%
 TRANSITION DIPOLE   0.3992         C 10 -- H 20         +42.7% ( 65.4%)     93.8%
 TRAVEL (Ang.)       0.2088         C  4 -- C 10          +1.5% ( 12.3%)     99.4%
 REDUCED MASS        0.4920         C  6 -- H 15          +0.1% (  3.4%)     99.7%
 EFFECTIVE MASS      1.3859
 FORCE CONSTANT      2.8625

 VIBRATION         54   54A           ATOM PAIR      ENERGY CONTRIBUTION    RADIAL
 FREQUENCY          3147.43         C 10 -- H 20         +55.4% ( 76.3%)     97.7%
 TRANSITION DIPOLE   0.1983         C 10 -- H 19         +43.3% ( 67.4%)     96.2%
 TRAVEL (Ang.)       0.1988         C  4 -- C 10          +1.3% ( 11.7%)      0.3%
 REDUCED MASS        0.5419
 EFFECTIVE MASS      1.6056
 FORCE CONSTANT      3.1628

      SYMMETRY NUMBER FOR POINT-GROUP C1  =  1


          SYSTEM IS A GROUND STATE



 InChI=1S/C10H10/c1-8-6-9-4-2-3-5-10(9)7-8/h2-6,10H,1,7H2


          MOLECULE IS NOT LINEAR

          THERE ARE 54 GENUINE VIBRATIONS IN THIS SYSTEM
          THIS THERMODYNAMICS CALCULATION IS LIMITED TO
          MOLECULES WHICH HAVE NO INTERNAL ROTATIONS




                    CALCULATED THERMODYNAMIC PROPERTIES
                                          *
   TEMP. (K)   PARTITION FUNCTION   H.O.F.    ENTHALPY  HEAT CAPACITY ENTROPY
                                   KCAL/MOL   CAL/MOLE    CAL/K/MOL  CAL/K/MOL


 298.00  VIB.     0.3277D+02                  3209.8074    26.5778    17.7057
         ROT.     0.5134D+06                   888.2803     2.9808    29.1101
         INT.     0.1682D+08                  4098.0877    29.5586    46.8158
         TRA.     0.1436D+28                  1480.4672     4.9680    40.5022
         TOT.                       58.950    5578.5549    34.5266    87.3179

 200.00  VIB.     0.6404D+01                  1193.4213    14.7792     9.6572
         ROT.     0.2823D+06                   596.1613     2.9808    27.9214
         INT.     0.1808D+07                  1789.5826    17.7600    37.5786
         TRA.     0.7896D+27                   993.6021     4.9680    38.5210
         TOT.                       56.154    2783.1848    22.7280    76.0996

 210.00  VIB.     0.7455D+01                  1346.8247    15.9062    10.4054
         ROT.     0.3037D+06                   625.9693     2.9808    28.0669
         INT.     0.2264D+07                  1972.7941    18.8870    38.4722
         TRA.     0.8496D+27                  1043.2822     4.9680    38.7634
         TOT.                       56.387    3016.0763    23.8550    77.2357

 220.00  VIB.     0.8708D+01                  1511.6337    17.0598    11.1719
         ROT.     0.3256D+06                   655.7774     2.9808    28.2055
         INT.     0.2836D+07                  2167.4111    20.0406    39.3774
         TRA.     0.9110D+27                  1092.9623     4.9680    38.9945
         TOT.                       56.631    3260.3735    25.0086    78.3719

 230.00  VIB.     0.1021D+02                  1688.0978    18.2366    11.9561
         ROT.     0.3481D+06                   685.5855     2.9808    28.3380
         INT.     0.3553D+07                  2373.6833    21.2174    40.2941
         TRA.     0.9738D+27                  1142.6424     4.9680    39.2154
         TOT.                       56.887    3516.3257    26.1854    79.5095

 240.00  VIB.     0.1201D+02                  1876.4320    19.4332    12.7575
         ROT.     0.3710D+06                   715.3935     2.9808    28.4649
         INT.     0.4455D+07                  2591.8256    22.4140    41.2223
         TRA.     0.1038D+28                  1192.3226     4.9680    39.4268
         TOT.                       57.155    3784.1481    27.3820    80.6491

 250.00  VIB.     0.1417D+02                  2076.8156    20.6459    13.5753
         ROT.     0.3945D+06                   745.2016     2.9808    28.5866
         INT.     0.5589D+07                  2822.0172    23.6267    42.1619
         TRA.     0.1103D+28                  1242.0027     4.9680    39.6296
         TOT.                       57.435    4064.0198    28.5947    81.7915

 260.00  VIB.     0.1677D+02                  2289.3909    21.8710    14.4089
         ROT.     0.4184D+06                   775.0097     2.9808    28.7035
         INT.     0.7018D+07                  3064.4006    24.8518    43.1123
         TRA.     0.1170D+28                  1291.6828     4.9680    39.8245
         TOT.                       57.727    4356.0833    29.8198    82.9368

 270.00  VIB.     0.1992D+02                  2514.2642    23.1049    15.2574
         ROT.     0.4427D+06                   804.8177     2.9808    28.8160
         INT.     0.8820D+07                  3319.0819    26.0857    44.0734
         TRA.     0.1239D+28                  1341.3629     4.9680    40.0120
         TOT.                       58.032    4660.4448    31.0537    84.0853

 280.00  VIB.     0.2373D+02                  2751.5061    24.3441    16.1201
         ROT.     0.4676D+06                   834.6258     2.9808    28.9244
         INT.     0.1110D+08                  3586.1319    27.3249    45.0444
         TRA.     0.1308D+28                  1391.0430     4.9680    40.1926
         TOT.                       58.348    4977.1749    32.2929    85.2371

 290.00  VIB.     0.2836D+02                  3001.1535    25.5854    16.9960
         ROT.     0.4928D+06                   864.4339     2.9808    29.0290
         INT.     0.1398D+08                  3865.5873    28.5662    46.0250
         TRA.     0.1379D+28                  1440.7231     4.9680    40.3670
         TOT.                       58.677    5306.3104    33.5342    86.3919

 300.00  VIB.     0.3399D+02                  3263.2109    26.8257    17.8843
         ROT.     0.5186D+06                   894.2419     2.9808    29.1300
         INT.     0.1762D+08                  4157.4528    29.8065    47.0143
         TRA.     0.1451D+28                  1490.4032     4.9680    40.5354
         TOT.                       59.019    5647.8560    34.7745    87.5497

 310.00  VIB.     0.4085D+02                  3537.6534    28.0620    18.7841
         ROT.     0.5447D+06                   924.0500     2.9808    29.2278
         INT.     0.2225D+08                  4461.7034    31.0428    48.0118
         TRA.     0.1524D+28                  1540.0833     4.9680    40.6983
         TOT.                       59.373    6001.7867    36.0108    88.7101

 320.00  VIB.     0.4923D+02                  3824.4288    29.2918    19.6944
         ROT.     0.5713D+06                   953.8580     2.9808    29.3224
         INT.     0.2812D+08                  4778.2868    32.2726    49.0168
         TRA.     0.1598D+28                  1589.7634     4.9680    40.8560
         TOT.                       59.739    6368.0502    37.2406    89.8729

 330.00  VIB.     0.5948D+02                  4123.4599    30.5128    20.6145
         ROT.     0.5983D+06                   983.6661     2.9808    29.4141
         INT.     0.3559D+08                  5107.1260    33.4936    50.0286
         TRA.     0.1674D+28                  1639.4435     4.9680    41.0089
         TOT.                       60.118    6746.5695    38.4616    91.0375

 340.00  VIB.     0.7206D+02                  4434.6477    31.7228    21.5434
         ROT.     0.6256D+06                  1013.4742     2.9808    29.5031
         INT.     0.4509D+08                  5448.1219    34.7036    51.0465
         TRA.     0.1750D+28                  1689.1236     4.9680    41.1572
         TOT.                       60.508    7137.2455    39.6716    92.2037

 350.00  VIB.     0.8751D+02                  4757.8736    32.9201    22.4803
         ROT.     0.6535D+06                  1043.2822     2.9808    29.5895
         INT.     0.5719D+08                  5801.1558    35.9009    52.0698
         TRA.     0.1828D+28                  1738.8037     4.9680    41.3012
         TOT.                       60.911    7539.9596    40.8689    93.3710

 360.00  VIB.     0.1065D+03                  5093.0019    34.1031    23.4243
         ROT.     0.6817D+06                  1073.0903     2.9808    29.6735
         INT.     0.7261D+08                  6166.0922    37.0839    53.0978
         TRA.     0.1907D+28                  1788.4838     4.9680    41.4412
         TOT.                       61.326    7954.5760    42.0519    94.5389

 370.00  VIB.     0.1300D+03                  5439.8825    35.2703    24.3746
         ROT.     0.7103D+06                  1102.8984     2.9808    29.7552
         INT.     0.9231D+08                  6542.7808    38.2511    54.1298
         TRA.     0.1987D+28                  1838.1639     4.9680    41.5773
         TOT.                       61.752    8380.9448    43.2192    95.7071

 380.00  VIB.     0.1589D+03                  5798.3527    36.4208    25.3305
         ROT.     0.7392D+06                  1132.7064     2.9808    29.8347
         INT.     0.1175D+09                  6931.0591    39.4016    55.1652
         TRA.     0.2068D+28                  1887.8440     4.9680    41.7098
         TOT.                       62.190    8818.9031    44.3696    96.8750

 390.00  VIB.     0.1947D+03                  6168.2396    37.5536    26.2913
         ROT.     0.7686D+06                  1162.5145     2.9808    29.9121
         INT.     0.1496D+09                  7330.7541    40.5344    56.2033
         TRA.     0.2150D+28                  1937.5242     4.9680    41.8388
         TOT.                       62.639    9268.2783    45.5024    98.0422

 400.00  VIB.     0.2390D+03                  6549.3622    38.6678    27.2561
         ROT.     0.7984D+06                  1192.3226     2.9808    29.9876
         INT.     0.1908D+09                  7741.6847    41.6486    57.2437
         TRA.     0.2233D+28                  1987.2043     4.9680    41.9646
         TOT.                       63.100    9728.8890    46.6166    99.2083

   *: NOTE: HEATS OF FORMATION ARE RELATIVE TO THE
            ELEMENTS IN THEIR STANDARD STATE AT 298K
              (=  Standard Enthalpy of Formation).

            Hvib:  Zero-point energy is not included.
                   frequencies of less than zero cm-1 are not included.
            Hrot = (3/2)RT
            Htra = (3/2)RT + pV = (5/2)RT

            Heat capacity is Cp, not Cv

          For more information, see: HTTP://OpenMOPAC.net/Manual/thermochemistry.html


           FORCE CONSTANT IN CARTESIAN COORDINATES (Millidynes/A)

    ATOM   CHEMICAL       X               Y               Z
   NUMBER   SYMBOL  FORCE CONSTANT  FORCE CONSTANT  FORCE CONSTANT

      1       C        8.487303        9.168350        8.247386
      2       C        7.808613        8.966872        8.164935
      3       C       14.869904       10.325533        3.615887
      4       C       15.657389        9.153209        3.449967
      5       C       11.313832        8.743441        6.911760
      6       C       11.723516       13.147845        2.604845
      7       C       10.302937       10.811540        6.363771
      8       C       11.272239        8.793057        7.233838
      9       C       10.479144        9.999739        6.715338
     10       C       14.041710        9.514123        2.849878
     11       H        1.107747        1.273929        3.390895
     12       H        1.273127        0.873707        4.238090
     13       H        1.293664        2.522236        2.628066
     14       H        1.387193        3.887843        0.991444
     15       H        0.686861        5.323971        0.385513
     16       H        1.252279        4.146030        0.854518
     17       H        1.645093        1.731321        2.877659
     18       H        4.424740        0.892014        0.949566
     19       H        0.826897        5.012598        0.599409
     20       H        3.622766        2.452715        0.360951

 **********************
 *                    *
 * JOB ENDED NORMALLY *
 *                    *
 **********************



 TOTAL JOB TIME:             2.26 SECONDS

 == MOPAC DONE ==
