 *******************************************************************************
 **                                                                           **
 **                              MOPAC v23.1.2                                **
 **                                                                           **
 *******************************************************************************
 **          Digital Object Identifier (DOI): 10.5281/zenodo.6511958          **
 **    Visit the DOI location for information on how to cite this program.    **
 *******************************************************************************

                              PM3 CALCULATION RESULTS

 *******************************************************************************
 *  CALCULATION DONE: (MAX THREADS = 1)              Tue Jun  3 16:34:51 2025  *
 *  PM3        - The PM3 Hamiltonian to be used
 *  PRECISE    - TIGHTER CRITERIA TO BE USED
 *  NOSYM      - POINT-GROUP SYMMETRY SET TO C1
 *  THREADS=1  - MULTI-THREADING NOT USED
 *  T=         - A TIME OF 172800.0 SECONDS REQUESTED
 *  DUMP=N     - RESTART FILE WRITTEN EVERY 7200.0 SECONDS REQUESTED
 *******************************************************************************
pm3  precise nosym THREADS=1
 InChI=1S/C6H10/c1-2-6-4-3-5-6/h3-4,6H,2,5H2,1H3

   ATOM   CHEMICAL          X               Y               Z
  NUMBER   SYMBOL      (ANGSTROMS)     (ANGSTROMS)     (ANGSTROMS)

     1       C          0.26600000  *   0.41720000  *   0.40870000  *
     2       C         -0.87000000  *   0.36760000  *  -0.62890000  *
     3       C          1.02530000  *  -0.79790000  *   0.54840000  *
     4       C         -2.07940000  *  -0.39400000  *  -0.09250000  *
     5       C          1.48820000  *   1.08990000  *  -0.13100000  *
     6       C          2.22610000  *  -0.08340000  *   0.01950000  *
     7       H         -0.04520000  *   0.86210000  *   1.38100000  *
     8       H         -1.18500000  *   1.40700000  *  -0.86560000  *
     9       H         -0.52550000  *  -0.10690000  *  -1.57500000  *
    10       H          0.72110000  *  -1.63180000  *  -0.12280000  *
    11       H          1.16630000  *  -1.10630000  *   1.60760000  *
    12       H         -2.88930000  *  -0.38720000  *  -0.85200000  *
    13       H         -1.80900000  *  -1.44840000  *   0.12700000  *
    14       H         -2.45760000  *   0.08750000  *   0.83440000  *
    15       H          3.25540000  *  -0.36560000  *  -0.17330000  *
    16       H          1.71260000  *   2.09020000  *  -0.48560000  *



          CARTESIAN COORDINATES 

    NO.       ATOM           X           Y           Z

     1         C          0.2660      0.4172      0.4087
     2         C         -0.8700      0.3676     -0.6289
     3         C          1.0253     -0.7979      0.5484
     4         C         -2.0794     -0.3940     -0.0925
     5         C          1.4882      1.0899     -0.1310
     6         C          2.2261     -0.0834      0.0195
     7         H         -0.0452      0.8621      1.3810
     8         H         -1.1850      1.4070     -0.8656
     9         H         -0.5255     -0.1069     -1.5750
    10         H          0.7211     -1.6318     -0.1228
    11         H          1.1663     -1.1063      1.6076
    12         H         -2.8893     -0.3872     -0.8520
    13         H         -1.8090     -1.4484      0.1270
    14         H         -2.4576      0.0875      0.8344
    15         H          3.2554     -0.3656     -0.1733
    16         H          1.7126      2.0902     -0.4856

  H: (PM3): J. J. P. STEWART, J. COMP. CHEM. 10, 209 (1989).
  C: (PM3): J. J. P. STEWART, J. COMP. CHEM. 10, 209 (1989).

           Empirical Formula: C6 H10  =    16 atoms



      MOLECULAR POINT GROUP   :   C1  


      RHF CALCULATION, NO. OF DOUBLY OCCUPIED LEVELS = 17


          Geometry optimization using EF

          DIAGONAL MATRIX USED AS START HESSIAN

 CYCLE:     1 TIME:   0.004 TIME LEFT:  2.00D  GRAD.:   210.816 HEAT:  37.79507
 CYCLE:     2 TIME:   0.008 TIME LEFT:  2.00D  GRAD.:    63.792 HEAT:  28.91047
 CYCLE:     3 TIME:   0.008 TIME LEFT:  2.00D  GRAD.:    58.764 HEAT:  27.89485
 CYCLE:     4 TIME:   0.004 TIME LEFT:  2.00D  GRAD.:    55.366 HEAT:  27.41546
 CYCLE:     5 TIME:   0.004 TIME LEFT:  2.00D  GRAD.:    30.937 HEAT:  26.58474
 CYCLE:     6 TIME:   0.008 TIME LEFT:  2.00D  GRAD.:    29.030 HEAT:  26.36187
 CYCLE:     7 TIME:   0.004 TIME LEFT:  2.00D  GRAD.:    20.399 HEAT:  26.05725
 CYCLE:     8 TIME:   0.008 TIME LEFT:  2.00D  GRAD.:    22.602 HEAT:  26.01772
 CYCLE:     9 TIME:   0.008 TIME LEFT:  2.00D  GRAD.:    11.104 HEAT:  25.89719
 CYCLE:    10 TIME:   0.004 TIME LEFT:  2.00D  GRAD.:     7.285 HEAT:  25.86182
 CYCLE:    11 TIME:   0.004 TIME LEFT:  2.00D  GRAD.:     6.011 HEAT:  25.82982
 CYCLE:    12 TIME:   0.008 TIME LEFT:  2.00D  GRAD.:     7.999 HEAT:  25.81583
 CYCLE:    13 TIME:   0.004 TIME LEFT:  2.00D  GRAD.:     6.787 HEAT:  25.79696
 CYCLE:    14 TIME:   0.008 TIME LEFT:  2.00D  GRAD.:     6.103 HEAT:  25.78614
 CYCLE:    15 TIME:   0.004 TIME LEFT:  2.00D  GRAD.:     5.380 HEAT:  25.78074
 CYCLE:    16 TIME:   0.004 TIME LEFT:  2.00D  GRAD.:     5.671 HEAT:  25.77731
 CYCLE:    17 TIME:   0.004 TIME LEFT:  2.00D  GRAD.:     3.345 HEAT:  25.76926
 CYCLE:    18 TIME:   0.004 TIME LEFT:  2.00D  GRAD.:     3.197 HEAT:  25.76678
 CYCLE:    19 TIME:   0.004 TIME LEFT:  2.00D  GRAD.:     2.060 HEAT:  25.76191
 CYCLE:    20 TIME:   0.008 TIME LEFT:  2.00D  GRAD.:     1.884 HEAT:  25.75866
 CYCLE:    21 TIME:   0.004 TIME LEFT:  2.00D  GRAD.:     1.826 HEAT:  25.75494
 CYCLE:    22 TIME:   0.004 TIME LEFT:  2.00D  GRAD.:     1.659 HEAT:  25.75143
 CYCLE:    23 TIME:   0.004 TIME LEFT:  2.00D  GRAD.:     1.236 HEAT:  25.74996
 CYCLE:    24 TIME:   0.004 TIME LEFT:  2.00D  GRAD.:     0.831 HEAT:  25.74853
 CYCLE:    25 TIME:   0.008 TIME LEFT:  2.00D  GRAD.:     0.884 HEAT:  25.74645
 CYCLE:    26 TIME:   0.004 TIME LEFT:  2.00D  GRAD.:     1.112 HEAT:  25.74579
 CYCLE:    27 TIME:   0.004 TIME LEFT:  2.00D  GRAD.:     0.507 HEAT:  25.74494
 CYCLE:    28 TIME:   0.004 TIME LEFT:  2.00D  GRAD.:     0.494 HEAT:  25.74417
 CYCLE:    29 TIME:   0.004 TIME LEFT:  2.00D  GRAD.:     0.613 HEAT:  25.74350
 CYCLE:    30 TIME:   0.008 TIME LEFT:  2.00D  GRAD.:     0.537 HEAT:  25.74278
 CYCLE:    31 TIME:   0.004 TIME LEFT:  2.00D  GRAD.:     0.373 HEAT:  25.74223
 CYCLE:    32 TIME:   0.004 TIME LEFT:  2.00D  GRAD.:     0.292 HEAT:  25.74193
 CYCLE:    33 TIME:   0.008 TIME LEFT:  2.00D  GRAD.:     0.256 HEAT:  25.74179
 CYCLE:    34 TIME:   0.004 TIME LEFT:  2.00D  GRAD.:     0.261 HEAT:  25.74164
 CYCLE:    35 TIME:   0.008 TIME LEFT:  2.00D  GRAD.:     0.340 HEAT:  25.74132
 CYCLE:    36 TIME:   0.004 TIME LEFT:  2.00D  GRAD.:     0.405 HEAT:  25.74094
 CYCLE:    37 TIME:   0.008 TIME LEFT:  2.00D  GRAD.:     0.417 HEAT:  25.74054
 CYCLE:    38 TIME:   0.004 TIME LEFT:  2.00D  GRAD.:     0.408 HEAT:  25.74019
 CYCLE:    39 TIME:   0.008 TIME LEFT:  2.00D  GRAD.:     0.402 HEAT:  25.73985
 CYCLE:    40 TIME:   0.004 TIME LEFT:  2.00D  GRAD.:     0.391 HEAT:  25.73948
 CYCLE:    41 TIME:   0.008 TIME LEFT:  2.00D  GRAD.:     0.334 HEAT:  25.73916
 CYCLE:    42 TIME:   0.004 TIME LEFT:  2.00D  GRAD.:     0.273 HEAT:  25.73888
 CYCLE:    43 TIME:   0.008 TIME LEFT:  2.00D  GRAD.:     0.276 HEAT:  25.73863
 CYCLE:    44 TIME:   0.004 TIME LEFT:  2.00D  GRAD.:     0.325 HEAT:  25.73836
 CYCLE:    45 TIME:   0.004 TIME LEFT:  2.00D  GRAD.:     0.359 HEAT:  25.73807
 CYCLE:    46 TIME:   0.004 TIME LEFT:  2.00D  GRAD.:     0.398 HEAT:  25.73772
 CYCLE:    47 TIME:   0.008 TIME LEFT:  2.00D  GRAD.:     0.372 HEAT:  25.73749
 CYCLE:    48 TIME:   0.004 TIME LEFT:  2.00D  GRAD.:     0.435 HEAT:  25.73698
 CYCLE:    49 TIME:   0.004 TIME LEFT:  2.00D  GRAD.:     0.302 HEAT:  25.73679
 CYCLE:    50 TIME:   0.004 TIME LEFT:  2.00D  GRAD.:     0.280 HEAT:  25.73656
 CYCLE:    51 TIME:   0.008 TIME LEFT:  2.00D  GRAD.:     0.201 HEAT:  25.73649
 CYCLE:    52 TIME:   0.004 TIME LEFT:  2.00D  GRAD.:     0.188 HEAT:  25.73637
 CYCLE:    53 TIME:   0.004 TIME LEFT:  2.00D  GRAD.:     0.192 HEAT:  25.73627
 CYCLE:    54 TIME:   0.004 TIME LEFT:  2.00D  GRAD.:     0.142 HEAT:  25.73621
 CYCLE:    55 TIME:   0.004 TIME LEFT:  2.00D  GRAD.:     0.112 HEAT:  25.73618
 CYCLE:    56 TIME:   0.004 TIME LEFT:  2.00D  GRAD.:     0.100 HEAT:  25.73616
 CYCLE:    57 TIME:   0.008 TIME LEFT:  2.00D  GRAD.:     0.080 HEAT:  25.73612
 CYCLE:    58 TIME:   0.004 TIME LEFT:  2.00D  GRAD.:     0.067 HEAT:  25.73611
 CYCLE:    59 TIME:   0.004 TIME LEFT:  2.00D  GRAD.:     0.089 HEAT:  25.73609
 CYCLE:    60 TIME:   0.004 TIME LEFT:  2.00D  GRAD.:     0.064 HEAT:  25.73609
 CYCLE:    61 TIME:   0.004 TIME LEFT:  2.00D  GRAD.:     0.073 HEAT:  25.73608
 CYCLE:    62 TIME:   0.008 TIME LEFT:  2.00D  GRAD.:     0.064 HEAT:  25.73607
 CYCLE:    63 TIME:   0.004 TIME LEFT:  2.00D  GRAD.:     0.080 HEAT:  25.73604
 CYCLE:    64 TIME:   0.004 TIME LEFT:  2.00D  GRAD.:     0.077 HEAT:  25.73602
 CYCLE:    65 TIME:   0.004 TIME LEFT:  2.00D  GRAD.:     0.093 HEAT:  25.73598
 CYCLE:    66 TIME:   0.004 TIME LEFT:  2.00D  GRAD.:     0.100 HEAT:  25.73596
 CYCLE:    67 TIME:   0.004 TIME LEFT:  2.00D  GRAD.:     0.076 HEAT:  25.73593
 CYCLE:    68 TIME:   0.004 TIME LEFT:  2.00D  GRAD.:     0.048 HEAT:  25.73591

     GRADIENT =  0.04800 IS LESS THAN CUTOFF =  0.05000



 -------------------------------------------------------------------------------
 pm3  precise nosym THREADS=1
 InChI=1S/C6H10/c1-2-6-4-3-5-6/h3-4,6H,2,5H2,1H3



     GEOMETRY OPTIMISED USING EIGENVECTOR FOLLOWING (EF).     
     SCF FIELD WAS ACHIEVED                                   


                              PM3 CALCULATION
                                                       MOPAC v23.1.2 MacOS
                                                       Tue Jun  3 16:34:51 2025




          FINAL HEAT OF FORMATION =         25.73591 KCAL/MOL =     107.67903 KJ/MOL


          COSMO AREA              =        135.66 SQUARE ANGSTROMS
          COSMO VOLUME            =        127.31 CUBIC ANGSTROMS

          GRADIENT NORM           =          0.04800          =       0.01200 PER ATOM
          IONIZATION POTENTIAL    =          9.843635 EV
          HOMO LUMO ENERGIES (EV) =         -9.844  1.036
          NO. OF FILLED LEVELS    =         17
          MOLECULAR WEIGHT        =         82.1450         POINT GROUP:  C1  

          MOLECULAR DIMENSIONS (Angstroms)

            Atom       Atom       Distance
            H    15    H    12     6.22500
            H    16    H    11     3.92400
            H     9    H     7     2.91168


          SCF CALCULATIONS        =         76

          WALL-CLOCK TIME         =      0.363 SECONDS
          COMPUTATION TIME        =      0.179 SECONDS




   ATOM   CHEMICAL          X               Y               Z
  NUMBER   SYMBOL      (ANGSTROMS)     (ANGSTROMS)     (ANGSTROMS)

     1       C          0.22578697  *   0.44578243  *   0.37878397  *
     2       C         -0.89801376  *   0.38026767  *  -0.62931009  *
     3       C          1.08333819  *  -0.86560369  *   0.54771892  *
     4       C         -2.09393049  *  -0.36808554  *  -0.08440208  *
     5       C          1.51724804  *   1.07872524  *  -0.13066440  *
     6       C          2.24734943  *  -0.04276114  *   0.02833091  *
     7       H         -0.12752003  *   0.87054015  *   1.34107868  *
     8       H         -1.18831430  *   1.41126225  *  -0.91226730  *
     9       H         -0.54475849  *  -0.09841710  *  -1.56426027  *
    10       H          0.77945324  *  -1.70874878  *  -0.08973737  *
    11       H          1.18633322  *  -1.23231410  *   1.57836687  *
    12       H         -2.90537074  *  -0.41303122  *  -0.82175062  *
    13       H         -1.83257896  *  -1.40116455  *   0.18189955  *
    14       H         -2.49606405  *   0.10992574  *   0.81872706  *
    15       H          3.28023967  *  -0.32198317  *  -0.12849347  *
    16       H          1.70408183  *   2.08467943  *  -0.48042194  *

                             CARTESIAN COORDINATES

   1    C        0.225786970     0.445782429     0.378783967
   2    C       -0.898013756     0.380267674    -0.629310090
   3    C        1.083338185    -0.865603690     0.547718924
   4    C       -2.093930494    -0.368085539    -0.084402085
   5    C        1.517248042     1.078725241    -0.130664404
   6    C        2.247349427    -0.042761136     0.028330906
   7    H       -0.127520026     0.870540146     1.341078679
   8    H       -1.188314298     1.411262254    -0.912267299
   9    H       -0.544758486    -0.098417100    -1.564260267
  10    H        0.779453239    -1.708748778    -0.089737371
  11    H        1.186333225    -1.232314100     1.578366867
  12    H       -2.905370737    -0.413031217    -0.821750625
  13    H       -1.832578959    -1.401164551     0.181899549
  14    H       -2.496064052     0.109925740     0.818727056
  15    H        3.280239665    -0.321983169    -0.128493472
  16    H        1.704081834     2.084679428    -0.480421937


           Empirical Formula: C6 H10  =    16 atoms



      MOLECULAR POINT GROUP   :   C1  


                  EIGENVALUES  
 -40.25623 -33.03020 -24.96962 -24.54185 -20.96550 -17.78211 -17.48642 -16.03593
 -14.99628 -14.60699 -13.45218 -13.30403 -12.56600 -12.12517 -11.65366 -11.39673
  -9.84364   1.03565   3.21985   3.37027   3.39781   3.82077   3.84630   4.01629
   4.12985   4.28276   4.41313   4.52085   4.65434   4.83241   4.97972   5.16781
   5.20846   6.17477


              NET ATOMIC CHARGES AND DIPOLE CONTRIBUTIONS

  ATOM NO.   TYPE          CHARGE      No. of ELECS.   s-Pop       p-Pop       
    1          C          -0.069448        4.0694     1.18906     2.88039
    2          C          -0.085306        4.0853     1.15393     2.93138
    3          C          -0.085479        4.0855     1.17216     2.91332
    4          C          -0.109155        4.1092     1.13800     2.97116
    5          C          -0.164229        4.1642     1.22117     2.94306
    6          C          -0.157821        4.1578     1.21776     2.94006
    7          H           0.077527        0.9225     0.92247
    8          H           0.050563        0.9494     0.94944
    9          H           0.053649        0.9464     0.94635
   10          H           0.065852        0.9341     0.93415
   11          H           0.061078        0.9389     0.93892
   12          H           0.037436        0.9626     0.96256
   13          H           0.038764        0.9612     0.96124
   14          H           0.037651        0.9623     0.96235
   15          H           0.123863        0.8761     0.87614
   16          H           0.125056        0.8749     0.87494
 DIPOLE           X         Y         Z       TOTAL
 POINT-CHG.    -0.177    -0.090     0.011     0.198
 HYBRID         0.053     0.007     0.003     0.054
 SUM           -0.123    -0.083     0.014     0.149


          ATOMIC ORBITAL ELECTRON POPULATIONS

     Atom    s        px        py        pz   
    1  C   1.18906   0.93455   0.95916   0.98668
    2  C   1.15393   0.95071   1.00373   0.97694
    3  C   1.17216   0.95063   0.95788   1.00481
    4  C   1.13800   0.97103   0.99800   1.00213
    5  C   1.22117   0.96206   0.97460   1.00640
    6  C   1.21776   0.97431   0.96578   0.99998
    7  H   0.92247
    8  H   0.94944
    9  H   0.94635
   10  H   0.93415
   11  H   0.93892
   12  H   0.96256
   13  H   0.96124
   14  H   0.96235
   15  H   0.87614
   16  H   0.87494
 *******************************************************************************
 **                                                                           **
 **                              MOPAC v23.1.2                                **
 **                                                                           **
 *******************************************************************************
 **          Digital Object Identifier (DOI): 10.5281/zenodo.6511958          **
 **    Visit the DOI location for information on how to cite this program.    **
 *******************************************************************************

                              PM3 CALCULATION RESULTS

 *******************************************************************************
 *  CALCULATION DONE: (MAX THREADS = 1)              Tue Jun  3 16:34:51 2025  *
 *  PM3        - The PM3 Hamiltonian to be used
 *  OLDGEO     - PREVIOUS GEOMETRY TO BE USED
 *  PRECISE    - TIGHTER CRITERIA TO BE USED
 *  NOSYM      - POINT-GROUP SYMMETRY SET TO C1
 *  THREADS=1  - MULTI-THREADING NOT USED
 *  T=         - A TIME OF 172800.0 SECONDS REQUESTED
 *  DUMP=N     - RESTART FILE WRITTEN EVERY 7200.0 SECONDS REQUESTED
 *  THERMO     - THERMODYNAMIC QUANTITIES TO BE CALCULATED
 *******************************************************************************
oldgeo thermo nosym precise THREADS=1  pm3
 InChI=1S/C6H10/c1-2-6-4-3-5-6/h3-4,6H,2,5H2,1H3

   ATOM   CHEMICAL          X               Y               Z
  NUMBER   SYMBOL      (ANGSTROMS)     (ANGSTROMS)     (ANGSTROMS)

     1       C          0.22578697  *   0.44578243  *   0.37878397  *
     2       C         -0.89801376  *   0.38026767  *  -0.62931009  *
     3       C          1.08333819  *  -0.86560369  *   0.54771892  *
     4       C         -2.09393049  *  -0.36808554  *  -0.08440208  *
     5       C          1.51724804  *   1.07872524  *  -0.13066440  *
     6       C          2.24734943  *  -0.04276114  *   0.02833091  *
     7       H         -0.12752003  *   0.87054015  *   1.34107868  *
     8       H         -1.18831430  *   1.41126225  *  -0.91226730  *
     9       H         -0.54475849  *  -0.09841710  *  -1.56426027  *
    10       H          0.77945324  *  -1.70874878  *  -0.08973737  *
    11       H          1.18633322  *  -1.23231410  *   1.57836687  *
    12       H         -2.90537074  *  -0.41303122  *  -0.82175062  *
    13       H         -1.83257896  *  -1.40116455  *   0.18189955  *
    14       H         -2.49606405  *   0.10992574  *   0.81872706  *
    15       H          3.28023967  *  -0.32198317  *  -0.12849347  *
    16       H          1.70408183  *   2.08467943  *  -0.48042194  *



          CARTESIAN COORDINATES 

    NO.       ATOM           X           Y           Z

     1         C          0.2258      0.4458      0.3788
     2         C         -0.8980      0.3803     -0.6293
     3         C          1.0833     -0.8656      0.5477
     4         C         -2.0939     -0.3681     -0.0844
     5         C          1.5172      1.0787     -0.1307
     6         C          2.2473     -0.0428      0.0283
     7         H         -0.1275      0.8705      1.3411
     8         H         -1.1883      1.4113     -0.9123
     9         H         -0.5448     -0.0984     -1.5643
    10         H          0.7795     -1.7087     -0.0897
    11         H          1.1863     -1.2323      1.5784
    12         H         -2.9054     -0.4130     -0.8218
    13         H         -1.8326     -1.4012      0.1819
    14         H         -2.4961      0.1099      0.8187
    15         H          3.2802     -0.3220     -0.1285
    16         H          1.7041      2.0847     -0.4804

  H: (PM3): J. J. P. STEWART, J. COMP. CHEM. 10, 209 (1989).
  C: (PM3): J. J. P. STEWART, J. COMP. CHEM. 10, 209 (1989).

           Empirical Formula: C6 H10  =    16 atoms



      MOLECULAR POINT GROUP   :   C1  


      RHF CALCULATION, NO. OF DOUBLY OCCUPIED LEVELS = 17



          HEAT OF FORMATION =      25.735906 KCALS/MOLE


          CARTESIAN COORDINATE DERIVATIVES

   NUMBER  ATOM         X            Y            Z

     1       C      0.002945    -0.005779     0.000606
     2       C      0.018689    -0.008038     0.009244
     3       C     -0.009870    -0.001404    -0.002120
     4       C      0.016417    -0.008633     0.008091
     5       C      0.003653     0.009774     0.004176
     6       C     -0.009149     0.005593    -0.004274
     7       H     -0.005168     0.001248    -0.003891
     8       H     -0.000952     0.003499    -0.006267
     9       H     -0.003560    -0.002184    -0.003338
    10       H     -0.005892    -0.010207    -0.005752
    11       H      0.002723    -0.001762     0.000427
    12       H      0.004202     0.008805     0.002583
    13       H     -0.007114    -0.009549    -0.005409
    14       H      0.001751     0.008755     0.009721
    15       H     -0.002180     0.011005    -0.007915
    16       H     -0.006496    -0.001124     0.004118



          GRADIENT NORM =   0.04814

          MOLECULAR WEIGHT =   82.15



          ROTATIONAL CONSTANTS IN CM(-1)

          A =    0.28546065   B =    0.08012050   C =    0.06924528



           PRINCIPAL MOMENTS OF INERTIA IN UNITS OF 10**(-40)*GRAM-CM**2

          A =       98.0617   B =      349.3831   C =      404.2550


          ORIENTATION OF MOLECULE IN FORCE CALCULATION

    NO.       ATOM         X         Y         Z

     1          C      -0.2194   -0.4317    0.1784
     2          C       1.2917   -0.4317    0.1784
     3          C      -0.9130    0.9834    0.1784
     4          C       1.8501   -0.1242    1.5498
     5          C      -0.8674   -0.6141   -1.1909
     6          C      -1.4678    0.5923   -1.1785
     7          H      -0.6170   -1.1195    0.9531
     8          H       1.6517   -1.4204   -0.1684
     9          H       1.6735    0.3014   -0.5597
    10          H      -0.2252    1.8416    0.1777
    11          H      -1.6612    1.1419    0.9672
    12          H       2.9474   -0.1245    1.5423
    13          H       1.5228    0.8629    1.9033
    14          H       1.5259   -0.8620    2.2958
    15          H      -2.1192    1.1390   -1.8465
    16          H      -0.8166   -1.4499   -1.8750


    FIRST DERIVATIVES WILL BE USED IN THE CALCULATION OF SECOND DERIVATIVES

          ESTIMATED TIME TO COMPLETE CALCULATION =        0.75 SECONDS

    FOR POINT-GROUP C1   THERE ARE   1 UNIQUE SYMMETRY FUNCTIONS.

 STEP:   1 TIME =     0.01 SECS, INTEGRAL =      0.01 TIME LEFT: 172799.99
 STEP:   2 TIME =     0.01 SECS, INTEGRAL =      0.02 TIME LEFT: 172799.98
 STEP:   3 TIME =     0.01 SECS, INTEGRAL =      0.04 TIME LEFT: 172799.96
 STEP:   4 TIME =     0.01 SECS, INTEGRAL =      0.05 TIME LEFT: 172799.95
 STEP:   5 TIME =     0.01 SECS, INTEGRAL =      0.06 TIME LEFT: 172799.94
 STEP:   6 TIME =     0.01 SECS, INTEGRAL =      0.07 TIME LEFT: 172799.93
 STEP:   7 TIME =     0.01 SECS, INTEGRAL =      0.08 TIME LEFT: 172799.92
 STEP:   8 TIME =     0.01 SECS, INTEGRAL =      0.09 TIME LEFT: 172799.91
 STEP:   9 TIME =     0.01 SECS, INTEGRAL =      0.10 TIME LEFT: 172799.90
 STEP:  10 TIME =     0.01 SECS, INTEGRAL =      0.11 TIME LEFT: 172799.89
 STEP:  11 TIME =     0.01 SECS, INTEGRAL =      0.12 TIME LEFT: 172799.88
 STEP:  12 TIME =     0.01 SECS, INTEGRAL =      0.12 TIME LEFT: 172799.88
 STEP:  13 TIME =     0.01 SECS, INTEGRAL =      0.13 TIME LEFT: 172799.87
 STEP:  14 TIME =     0.01 SECS, INTEGRAL =      0.14 TIME LEFT: 172799.86
 STEP:  15 TIME =     0.01 SECS, INTEGRAL =      0.16 TIME LEFT: 172799.84
 STEP:  16 TIME =     0.01 SECS, INTEGRAL =      0.17 TIME LEFT: 172799.83
 STEP:  17 TIME =     0.01 SECS, INTEGRAL =      0.18 TIME LEFT: 172799.82
 STEP:  18 TIME =     0.01 SECS, INTEGRAL =      0.19 TIME LEFT: 172799.81
 STEP:  19 TIME =     0.01 SECS, INTEGRAL =      0.20 TIME LEFT: 172799.80
 STEP:  20 TIME =     0.01 SECS, INTEGRAL =      0.21 TIME LEFT: 172799.79
 STEP:  21 TIME =     0.01 SECS, INTEGRAL =      0.23 TIME LEFT: 172799.77
 STEP:  22 TIME =     0.01 SECS, INTEGRAL =      0.23 TIME LEFT: 172799.77
 STEP:  23 TIME =     0.01 SECS, INTEGRAL =      0.25 TIME LEFT: 172799.75
 STEP:  24 TIME =     0.01 SECS, INTEGRAL =      0.26 TIME LEFT: 172799.74
 STEP:  25 TIME =     0.01 SECS, INTEGRAL =      0.27 TIME LEFT: 172799.73
 STEP:  26 TIME =     0.01 SECS, INTEGRAL =      0.28 TIME LEFT: 172799.72
 STEP:  27 TIME =     0.01 SECS, INTEGRAL =      0.29 TIME LEFT: 172799.71
 STEP:  28 TIME =     0.01 SECS, INTEGRAL =      0.30 TIME LEFT: 172799.70
 STEP:  29 TIME =     0.01 SECS, INTEGRAL =      0.31 TIME LEFT: 172799.69
 STEP:  30 TIME =     0.01 SECS, INTEGRAL =      0.32 TIME LEFT: 172799.68
 STEP:  31 TIME =     0.01 SECS, INTEGRAL =      0.33 TIME LEFT: 172799.67
 STEP:  32 TIME =     0.01 SECS, INTEGRAL =      0.34 TIME LEFT: 172799.66
 STEP:  33 TIME =     0.01 SECS, INTEGRAL =      0.35 TIME LEFT: 172799.65
 STEP:  34 TIME =     0.01 SECS, INTEGRAL =      0.36 TIME LEFT: 172799.64
 STEP:  35 TIME =     0.02 SECS, INTEGRAL =      0.38 TIME LEFT: 172799.62
 STEP:  36 TIME =     0.01 SECS, INTEGRAL =      0.39 TIME LEFT: 172799.61
 STEP:  37 TIME =     0.01 SECS, INTEGRAL =      0.40 TIME LEFT: 172799.60
 STEP:  38 TIME =     0.01 SECS, INTEGRAL =      0.41 TIME LEFT: 172799.59
 STEP:  39 TIME =     0.01 SECS, INTEGRAL =      0.42 TIME LEFT: 172799.58
 STEP:  40 TIME =     0.01 SECS, INTEGRAL =      0.43 TIME LEFT: 172799.57
 STEP:  41 TIME =     0.01 SECS, INTEGRAL =      0.44 TIME LEFT: 172799.56
 STEP:  42 TIME =     0.01 SECS, INTEGRAL =      0.45 TIME LEFT: 172799.55
 STEP:  43 TIME =     0.01 SECS, INTEGRAL =      0.46 TIME LEFT: 172799.54
 STEP:  44 TIME =     0.01 SECS, INTEGRAL =      0.47 TIME LEFT: 172799.53
 STEP:  45 TIME =     0.01 SECS, INTEGRAL =      0.48 TIME LEFT: 172799.52
 STEP:  46 TIME =     0.01 SECS, INTEGRAL =      0.49 TIME LEFT: 172799.51
 STEP:  47 TIME =     0.01 SECS, INTEGRAL =      0.50 TIME LEFT: 172799.50
 STEP:  48 TIME =     0.01 SECS, INTEGRAL =      0.51 TIME LEFT: 172799.49

(To convert to Hartree/Bohr^2, multiply by (10^(-21) x N x a0^2)/(4.184 x 627.51) =  0.0642)


           FORCE MATRIX IN MILLIDYNES/ANGSTROM


                  C  1       C  2       C  3       C  4       C  5       C  6
 ------------------------------------------------------------------------------
     C    1  14.424157
     C    2   4.392578  14.516206
     C    3   2.855724   0.493488  14.268182
     C    4   0.670235   4.463983   0.028137  14.373531
     C    5   3.880737   0.549188   2.263382   0.050014  18.332444
     C    6   2.243510   0.049990   4.161318   0.008951  10.345908  18.417459
     H    7   4.430991   0.436267   0.415212   0.028341   0.413908   0.043198
     H    8   0.432958   4.464033   0.045097   0.440453   0.015798   0.003911
     H    9   0.450423   4.456459   0.020806   0.437015   0.015101   0.003453
     H   10   0.434423   0.021125   4.687795   0.007346   0.040657   0.434466
     H   11   0.421012   0.027577   4.720895   0.001879   0.040132   0.435010
     H   12   0.052789   0.450702   0.001704   4.755143   0.008996   0.001511
     H   13   0.020315   0.462892   0.005415   4.717033   0.001512   0.001027
     H   14   0.024225   0.464199   0.002014   4.725057   0.001362   0.000774
     H   15   0.118589   0.017049   0.341048   0.002668   0.423502   5.281373
     H   16   0.339130   0.010880   0.116786   0.002364   5.284412   0.422373


                  H  7       H  8       H  9       H 10       H 11       H 12
 ------------------------------------------------------------------------------
     H    7   4.945454
     H    8   0.024004   5.069845
     H    9   0.043730   0.570098   5.066676
     H   10   0.024502   0.002611   0.019310   5.308839
     H   11   0.026204   0.005168   0.001585   0.532041   5.337688
     H   12   0.002025   0.028722   0.030390   0.000530   0.000276   5.490259
     H   13   0.001951   0.049286   0.024519   0.008513   0.000719   0.572034
     H   14   0.020321   0.024221   0.048348   0.000522   0.000351   0.573722
     H   15   0.014726   0.001209   0.001376   0.006160   0.005973   0.000644
     H   16   0.005732   0.004149   0.002100   0.015742   0.015428   0.000590


                  H 13       H 14       H 15       H 16
 ------------------------------------------------------
     H   13   5.454559
     H   14   0.576745   5.467804
     H   15   0.000419   0.000208   5.666425
     H   16   0.000635   0.000668   0.030765   5.669564


          HEAT OF FORMATION =      25.735906 KCALS/MOLE

          ZERO POINT ENERGY      89.341 KCAL/MOL


           NORMAL COORDINATE ANALYSIS (Total motion = 1 Angstrom)


   Root No.       1         2         3         4         5         6         7         8

                 1 A       2 A       3 A       4 A       5 A       6 A       7 A       8 A   

                  81.5     173.6     202.4     284.1     431.0     477.5     753.4     792.6
  
           1   -0.0060   -0.0072   -0.0310    0.0020   -0.0165   -0.0301    0.0008   -0.0004
           2   -0.0296   -0.0102   -0.0028   -0.0255   -0.0310   -0.0220   -0.0159    0.0272
           3   -0.0074    0.0050    0.0343    0.0008   -0.0234    0.0226    0.0128   -0.0161
           4   -0.0060   -0.0070   -0.0295    0.0026   -0.0108   -0.0400    0.0263   -0.0171
           5   -0.0415   -0.0117    0.0102    0.0385    0.0208    0.0155   -0.0095    0.0341
           6    0.0029   -0.0014    0.0019   -0.0286    0.0449    0.0003   -0.0071   -0.0015
           7    0.0083    0.0146   -0.0405    0.0323    0.0173    0.0323   -0.0203    0.0125
           8   -0.0226    0.0011   -0.0074   -0.0129   -0.0191    0.0034   -0.0058   -0.0129
           9    0.0266    0.0009    0.0130    0.0098   -0.0159   -0.0005   -0.0074    0.0154
          10   -0.0133   -0.0090    0.0355   -0.0383    0.0505   -0.0104    0.0089   -0.0060
          11    0.0533    0.0109   -0.0049    0.0063    0.0111    0.0021   -0.0001    0.0053
          12   -0.0155   -0.0057   -0.0238   -0.0041    0.0314   -0.0156    0.0056   -0.0004
          13    0.0026   -0.0098    0.0148   -0.0330   -0.0435    0.0416   -0.0256   -0.0087
          14    0.0152   -0.0038   -0.0053   -0.0254   -0.0020    0.0057    0.0047   -0.0211
          15   -0.0176    0.0055    0.0119    0.0193   -0.0303   -0.0119    0.0173   -0.0121
          16    0.0164    0.0188    0.0479    0.0382   -0.0118   -0.0038   -0.0278    0.0020
          17    0.0218    0.0105    0.0111    0.0106    0.0141   -0.0172    0.0035   -0.0153
          18    0.0108   -0.0032   -0.0291    0.0013   -0.0115    0.0196   -0.0017    0.0113
          19   -0.0168   -0.0080   -0.0231    0.0333   -0.0294   -0.0563    0.0317    0.0209
          20   -0.0461   -0.0036   -0.0043   -0.0271   -0.0459   -0.0226   -0.0079    0.0249
          21   -0.0278    0.0095    0.0348    0.0141   -0.0445    0.0056    0.0338   -0.0047
          22   -0.0106   -0.0001   -0.0389    0.0566    0.0290   -0.0129    0.0536   -0.1073
          23   -0.0683   -0.0123    0.0153    0.0763    0.0424    0.0418    0.0067   -0.0478
          24    0.0748    0.0087   -0.0239   -0.0770    0.0251   -0.0453   -0.0227    0.1270
          25    0.0037   -0.0148   -0.0600   -0.0354   -0.0323   -0.0904    0.0143    0.0664
          26   -0.0960   -0.0170    0.0199    0.0960    0.0512    0.0545    0.0105   -0.0939
          27   -0.0462   -0.0111   -0.0052    0.0084    0.0623    0.0101    0.0067   -0.0802
          28    0.0172    0.0271   -0.0506    0.0472    0.0472    0.0977    0.0085    0.0062
          29   -0.0296   -0.0087    0.0001   -0.0244   -0.0419   -0.0449   -0.0263   -0.0063
          30    0.0572    0.0081    0.0820    0.0349   -0.0215   -0.0865   -0.1055   -0.0049
          31    0.0030    0.0103   -0.1000    0.0227    0.0342    0.0854    0.0353    0.0489
          32   -0.0377    0.0113   -0.0341   -0.0104    0.0056    0.1103    0.0627   -0.0222
          33    0.0247   -0.0052   -0.0374    0.0004   -0.0054    0.0246    0.0274    0.0523
          34   -0.0132   -0.0094    0.0355   -0.0385    0.0516   -0.0105    0.0088   -0.0057
          35    0.0307    0.2558   -0.0341   -0.0387   -0.0076   -0.0132    0.0166   -0.0444
          36   -0.0047   -0.0579   -0.0749    0.0455   -0.0381   -0.0472    0.0548   -0.0343
          37    0.0032   -0.2121    0.0788   -0.0144    0.0944    0.0133   -0.0210    0.0456
          38    0.0875   -0.0876    0.0036    0.0167    0.0150    0.0048    0.0007   -0.0171
          39   -0.0951    0.0824   -0.0082   -0.0104    0.0589   -0.0016   -0.0223    0.1011
          40   -0.0360    0.1900    0.0505   -0.1023    0.0874   -0.0009   -0.0126   -0.0098
          41    0.1179   -0.1166    0.0030    0.0138    0.0125    0.0017    0.0085   -0.0544
          42    0.0384   -0.0458   -0.0098   -0.0239    0.0474   -0.0122    0.0051   -0.0583
          43    0.0288    0.0379    0.1112    0.0809   -0.0086   -0.0316    0.1842    0.0981
          44    0.0482    0.0242    0.0300    0.0443    0.0423   -0.0300    0.1062    0.0548
          45    0.0203   -0.0106   -0.0755   -0.0126    0.0080    0.0367   -0.1252   -0.0241
          46   -0.0018   -0.0273    0.0314   -0.0952   -0.0981    0.1297    0.1456    0.0489
          47    0.0337   -0.0086   -0.0115   -0.0452   -0.0004    0.0469    0.0997   -0.0010
          48   -0.0404    0.0100    0.0207    0.0390   -0.0361   -0.0558   -0.0862   -0.0324


   Root No.       9        10        11        12        13        14        15        16

                 9 A      10 A      11 A      12 A      13 A      14 A      15 A      16 A   

                 855.8     897.1     913.0     948.4     976.0     994.7    1019.7    1032.1
  
           1    0.0071    0.0010   -0.0079   -0.0167    0.0000   -0.0184   -0.0040   -0.0025
           2    0.0221    0.0126   -0.0220    0.0275    0.0033    0.0068   -0.0015    0.0022
           3   -0.0253    0.0158   -0.0126    0.0106   -0.0236   -0.0116   -0.0030   -0.0138
           4   -0.0165   -0.0045    0.0106    0.0078    0.0021   -0.0021   -0.0029    0.0014
           5   -0.0160    0.0010   -0.0010    0.0064    0.0065   -0.0049    0.0009   -0.0055
           6    0.0105    0.0000   -0.0054   -0.0059   -0.0031    0.0013   -0.0019    0.0022
           7    0.0107    0.0414   -0.0140   -0.0095   -0.0088    0.0186   -0.0207   -0.0103
           8    0.0175   -0.0273    0.0512   -0.0203    0.0098    0.0152   -0.0040   -0.0010
           9    0.0099   -0.0216    0.0002    0.0151    0.0186    0.0134    0.0200   -0.0076
          10   -0.0079   -0.0025    0.0099    0.0203   -0.0095    0.0285    0.0069    0.0028
          11   -0.0080   -0.0004    0.0065   -0.0086   -0.0069    0.0057   -0.0006    0.0027
          12    0.0016    0.0022    0.0031    0.0045    0.0042   -0.0014    0.0036   -0.0022
          13   -0.0046   -0.0315   -0.0211   -0.0054   -0.0122   -0.0027   -0.0248   -0.0106
          14   -0.0221   -0.0021   -0.0345   -0.0142   -0.0050   -0.0010   -0.0117   -0.0122
          15   -0.0121    0.0143   -0.0122   -0.0312    0.0200    0.0013    0.0110    0.0087
          16    0.0050   -0.0084    0.0316    0.0117    0.0031   -0.0148    0.0481    0.0134
          17   -0.0173    0.0119   -0.0102   -0.0061    0.0029   -0.0075    0.0231    0.0097
          18    0.0201   -0.0225    0.0331    0.0001   -0.0114   -0.0088   -0.0308   -0.0005
          19   -0.0175    0.0224   -0.0294   -0.0052    0.0416   -0.1018    0.0175   -0.0360
          20    0.0483    0.0898    0.0060    0.0587   -0.0880   -0.0294    0.0012   -0.0778
          21   -0.0127    0.0975   -0.0022    0.0433   -0.0844   -0.0852    0.0117   -0.1021
          22   -0.0062   -0.0223    0.0580   -0.0915   -0.0341    0.0060   -0.0139    0.0358
          23    0.0243    0.0018   -0.0006   -0.0079   -0.0056    0.0046   -0.0034    0.0043
          24   -0.0864   -0.0182    0.0407   -0.0625   -0.0085   -0.0132   -0.0006    0.0090
          25   -0.0187   -0.0037   -0.0135    0.0616    0.0934   -0.0608   -0.0061   -0.0135
          26    0.0685    0.0095   -0.0194    0.0064    0.0014    0.0025   -0.0039    0.0034
          27    0.0887    0.0087   -0.0342    0.0222    0.0381   -0.0210   -0.0074    0.0030
          28   -0.0668    0.0109   -0.0183    0.0622    0.1048    0.0157   -0.0918   -0.0522
          29    0.0780   -0.0075    0.0528   -0.0729   -0.0785    0.0160    0.0553    0.0327
          30    0.0149    0.1360    0.0580   -0.0085    0.0720    0.0977   -0.1674   -0.0861
          31    0.0270   -0.0429   -0.1055   -0.0114   -0.0190    0.0338    0.1658   -0.0180
          32   -0.0661   -0.1397    0.0777    0.0899    0.0910   -0.0561   -0.0452    0.0222
          33    0.0458   -0.0723   -0.0900   -0.0100   -0.0108    0.0450    0.2024   -0.0208
          34   -0.0075   -0.0026    0.0101    0.0190   -0.0083    0.0270    0.0067    0.0029
          35    0.0228    0.0031   -0.0090    0.0522    0.0040    0.0263    0.0079   -0.0029
          36   -0.0692   -0.0065    0.0480    0.1149   -0.0702    0.1541    0.0337    0.0083
          37   -0.0074   -0.0016    0.0089   -0.0677    0.0118   -0.0439   -0.0104    0.0028
          38    0.0213    0.0034   -0.0093    0.0003    0.0116   -0.0141   -0.0019   -0.0024
          39   -0.0738   -0.0060    0.0430   -0.0919   -0.0257   -0.0102   -0.0082    0.0106
          40    0.0548    0.0061   -0.0259   -0.0186    0.0483   -0.0667   -0.0064   -0.0093
          41    0.0563    0.0081   -0.0269    0.0322    0.0293   -0.0200    0.0023   -0.0090
          42    0.0878    0.0141   -0.0431    0.0271    0.0619   -0.0653    0.0012   -0.0187
          43    0.0885   -0.1071   -0.0301   -0.0171   -0.0313    0.0231   -0.1384   -0.0367
          44    0.0339   -0.0033   -0.0418    0.0463   -0.0886   -0.0578   -0.1438    0.1965
          45   -0.0185    0.0609    0.0674    0.0714   -0.0524   -0.0868    0.0145    0.2008
          46    0.0281    0.1943    0.0353   -0.0311    0.0929    0.0587    0.0443    0.1950
          47   -0.0034    0.0848    0.0900   -0.0215   -0.0032   -0.0412    0.0558   -0.1187
          48   -0.0331   -0.0743   -0.1617   -0.0245    0.0249    0.0540   -0.0668    0.1533


   Root No.      17        18        19        20        21        22        23        24

                17 A      18 A      19 A      20 A      21 A      22 A      23 A      24 A   

                1053.1    1118.1    1122.9    1153.4    1169.3    1188.3    1205.8    1270.2
  
           1   -0.0064   -0.0050   -0.0079   -0.0278    0.0308   -0.0262   -0.0006   -0.0342
           2    0.0193   -0.0196   -0.0052   -0.0614   -0.0058    0.0027    0.0073    0.0275
           3   -0.0090   -0.0119    0.0004   -0.0191   -0.0363    0.0539    0.0102   -0.0198
           4    0.0143   -0.0118    0.0047    0.0039   -0.0363    0.0070    0.0041   -0.0421
           5   -0.0272    0.0024    0.0417    0.0138   -0.0096   -0.0108   -0.0028   -0.0147
           6   -0.0038   -0.0523    0.0146   -0.0057    0.0391    0.0008   -0.0018   -0.0322
           7   -0.0132   -0.0025    0.0003   -0.0116   -0.0173    0.0247   -0.0278    0.0075
           8   -0.0053    0.0165    0.0061    0.0271    0.0077    0.0325    0.0291   -0.0160
           9    0.0242   -0.0008    0.0016   -0.0167   -0.0060    0.0238   -0.0292   -0.0074
          10   -0.0108    0.0087   -0.0016    0.0043    0.0125   -0.0049   -0.0021    0.0129
          11    0.0138   -0.0050   -0.0478    0.0046    0.0022    0.0049    0.0006    0.0008
          12    0.0010    0.0572   -0.0169   -0.0083   -0.0213   -0.0077    0.0021    0.0010
          13   -0.0040    0.0071   -0.0005    0.0139    0.0024   -0.0136    0.0192    0.0186
          14   -0.0054    0.0039   -0.0011    0.0057    0.0002   -0.0032   -0.0157    0.0017
          15   -0.0178   -0.0096   -0.0067   -0.0025    0.0039   -0.0554    0.0240    0.0268
          16   -0.0002   -0.0046   -0.0034   -0.0044    0.0023   -0.0165   -0.0040    0.0061
          17   -0.0011    0.0016   -0.0003    0.0092    0.0072   -0.0169   -0.0191   -0.0010
          18   -0.0135    0.0027   -0.0033    0.0127    0.0061   -0.0302   -0.0244    0.0128
          19   -0.0406    0.1006   -0.0157   -0.0311    0.2447    0.2415    0.0000    0.0838
          20    0.1391    0.0195    0.0338    0.1240    0.0213   -0.1691   -0.0590   -0.0298
          21    0.0790    0.0738    0.0301    0.1452    0.0958    0.0351   -0.0486   -0.0105
          22    0.1681   -0.0443    0.1715   -0.0512   -0.0398    0.0627    0.0019    0.1618
          23    0.0249   -0.0109    0.0267   -0.0103   -0.0049    0.0041    0.0012    0.0241
          24    0.0087   -0.0503    0.2304    0.0043    0.0253    0.0116   -0.0173    0.0692
          25   -0.0507   -0.1282   -0.0392    0.2316   -0.1262    0.0797   -0.0112    0.1036
          26    0.0211   -0.0579   -0.0334    0.0099    0.0317    0.0032   -0.0060    0.0122
          27    0.0082   -0.1719   -0.0822    0.1100    0.0370    0.0543   -0.0139    0.0698
          28    0.0673    0.0025    0.0058   -0.0006    0.0563   -0.0607    0.1046    0.0073
          29   -0.0664    0.0121    0.0020    0.0152   -0.0489    0.1024   -0.0754   -0.0179
          30    0.0435    0.0263    0.0276    0.0517    0.0245    0.0489    0.1445   -0.0543
          31    0.0284    0.0127    0.0194    0.0543    0.0051    0.0213    0.1243   -0.0250
          32    0.0599   -0.0044   -0.0100   -0.0655    0.0330    0.0095   -0.0754   -0.0487
          33    0.0509    0.0179    0.0240    0.0666    0.0071    0.0287    0.1368   -0.0341
          34   -0.0091    0.0096   -0.0020    0.0059    0.0098   -0.0039   -0.0021    0.0182
          35   -0.0340    0.0229    0.0323    0.0015    0.0007   -0.0135   -0.0007    0.0247
          36   -0.0564    0.0385   -0.0202    0.0164    0.0672   -0.0096   -0.0086    0.1114
          37    0.0564    0.0314   -0.0778    0.0033   -0.0468    0.0114    0.0056    0.0289
          38    0.0026    0.0112   -0.0086    0.0000   -0.0137   -0.0003    0.0017   -0.0076
          39    0.0877    0.0375   -0.1919    0.0053   -0.0321    0.0201    0.0068    0.0492
          40    0.0075    0.0728    0.0252   -0.0015   -0.0648   -0.0010    0.0038    0.0255
          41   -0.0256    0.0545    0.0462   -0.0047   -0.0281   -0.0113    0.0012    0.0250
          42   -0.0287    0.1444    0.0848   -0.0201   -0.0818   -0.0204    0.0050    0.0359
          43   -0.0125    0.0024   -0.0018    0.0018    0.0013   -0.0156   -0.0095    0.0083
          44   -0.0036    0.0072    0.0082    0.0087    0.0032    0.0228    0.1481   -0.0046
          45   -0.0041   -0.0005    0.0015    0.0047    0.0033   -0.0021    0.1168    0.0117
          46    0.0281    0.0368    0.0143    0.0471    0.0263    0.0162   -0.0839   -0.0407
          47   -0.0485   -0.0526   -0.0200   -0.0672   -0.0171   -0.0572    0.0724    0.0430
          48    0.0361    0.0602    0.0168    0.0872    0.0261    0.0088   -0.0927   -0.0249


   Root No.      25        26        27        28        29        30        31        32

                25 A      26 A      27 A      28 A      29 A      30 A      31 A      32 A   

                1295.7    1376.2    1406.3    1406.4    1411.2    1418.7    1439.4    1775.1
  
           1   -0.0089    0.0305   -0.0017    0.0064    0.0025   -0.0333    0.0715    0.0154
           2    0.0283   -0.0046   -0.0034    0.0026   -0.0015    0.0083   -0.0109    0.0023
           3    0.0340    0.0180   -0.0008    0.0010    0.0010   -0.0098    0.0343    0.0183
           4    0.0131   -0.0038    0.0079   -0.0163    0.0048    0.0293   -0.0674   -0.0064
           5   -0.0051   -0.0022    0.0008    0.0003    0.0009   -0.0095   -0.0052   -0.0011
           6    0.0039   -0.0187    0.0046    0.0044    0.0015   -0.0312   -0.0425   -0.0043
           7   -0.0283   -0.0064    0.0010   -0.0015   -0.0002    0.0038   -0.0100    0.0075
           8   -0.0028   -0.0029    0.0207   -0.0271    0.0073   -0.0109    0.0159    0.0051
           9   -0.0624   -0.0082    0.0197   -0.0254    0.0066   -0.0097    0.0093    0.0184
          10   -0.0050   -0.0091   -0.0070   -0.0040   -0.0355    0.0086    0.0232   -0.0001
          11    0.0004   -0.0090   -0.0266   -0.0115    0.0085    0.0044    0.0093    0.0003
          12    0.0000   -0.0295   -0.0004    0.0096    0.0007    0.0338    0.0444    0.0010
          13   -0.0204   -0.0092   -0.0009    0.0004   -0.0012    0.0085   -0.0167    0.0918
          14   -0.0027    0.0006   -0.0001    0.0003   -0.0000   -0.0007    0.0038   -0.1856
          15   -0.0394   -0.0116   -0.0023    0.0024   -0.0016    0.0086   -0.0206   -0.0031
          16    0.0253    0.0004   -0.0020    0.0022   -0.0007    0.0018   -0.0012   -0.0932
          17    0.0263    0.0021   -0.0052    0.0070   -0.0018    0.0023   -0.0051    0.1856
          18    0.0711    0.0006   -0.0081    0.0098   -0.0030    0.0079   -0.0109    0.0005
          19    0.0309   -0.0478    0.0049    0.0007   -0.0065    0.0348   -0.0877   -0.0160
          20   -0.0742   -0.0008    0.0050   -0.0044    0.0023   -0.0154    0.0126   -0.0278
          21   -0.0399   -0.0182    0.0102   -0.0075   -0.0008    0.0034   -0.0242   -0.0147
          22    0.0351   -0.0597   -0.0209    0.0455   -0.0251   -0.0809    0.0593    0.0028
          23    0.0111   -0.0610   -0.0084    0.0348   -0.0127   -0.0950    0.0043   -0.0006
          24   -0.0247    0.1253    0.0031   -0.0494    0.0180    0.1500    0.0638    0.0020
          25   -0.0088   -0.0462   -0.0160    0.0451   -0.0252   -0.0927    0.0853    0.0054
          26   -0.0149    0.1092    0.0073   -0.0567    0.0210    0.1547    0.0200    0.0009
          27   -0.0199    0.0859    0.0005   -0.0282    0.0093    0.0931    0.0618    0.0034
          28    0.0942   -0.0175    0.0761   -0.1051    0.0276   -0.0308    0.0527    0.0007
          29   -0.1019    0.0102   -0.0491    0.0686   -0.0180    0.0203   -0.0376    0.0159
          30   -0.0011    0.0518   -0.1014    0.1359   -0.0328    0.0261   -0.0218   -0.0364
          31    0.0433    0.0308   -0.0628    0.0837   -0.0207    0.0210   -0.0201   -0.0372
          32   -0.1479    0.0539   -0.1184    0.1626   -0.0392    0.0269   -0.0299   -0.0005
          33    0.0329    0.0194   -0.0233    0.0313   -0.0071    0.0029    0.0038   -0.0171
          34   -0.0054   -0.0008   -0.0035   -0.0001   -0.0105    0.0020    0.0140   -0.0004
          35   -0.0053    0.0452    0.2585    0.1375   -0.0450    0.0101   -0.0115   -0.0000
          36   -0.0256    0.1106   -0.0297   -0.0003    0.1794   -0.1108   -0.0661   -0.0001
          37    0.0033    0.0592    0.1823    0.1182    0.1602   -0.0129   -0.0533   -0.0004
          38    0.0031   -0.0273    0.0457    0.0529    0.1162    0.0322    0.0270    0.0005
          39   -0.0016    0.1195    0.0191   -0.0452   -0.1601   -0.0853   -0.1046   -0.0002
          40    0.0001    0.0393   -0.1246   -0.0417    0.2610   -0.0560   -0.0557   -0.0002
          41   -0.0054    0.0814    0.0137   -0.0432   -0.1870   -0.0609   -0.0675   -0.0005
          42   -0.0046    0.0943   -0.0322   -0.0545   -0.0698   -0.0747   -0.0807    0.0001
          43    0.0311    0.0003   -0.0028    0.0031   -0.0008    0.0025   -0.0024   -0.1160
          44   -0.1229   -0.0061    0.0107   -0.0132    0.0037   -0.0065    0.0056    0.0667
          45   -0.0547   -0.0073    0.0053   -0.0073    0.0013    0.0018   -0.0038   -0.1515
          46    0.0639    0.0132   -0.0013    0.0030    0.0008   -0.0091    0.0159   -0.0176
          47   -0.0710   -0.0130   -0.0009    0.0003   -0.0012    0.0079   -0.0164   -0.1317
          48    0.0522    0.0063   -0.0025    0.0040   -0.0005   -0.0021    0.0051   -0.1522


   Root No.      33        34        35        36        37        38        39        40

                33 A      34 A      35 A      36 A      37 A      38 A      39 A      40 A   

                2952.2    2962.5    3034.3    3047.2    3077.3    3084.7    3103.7    3179.9
  
           1    0.0073    0.0135    0.0008   -0.0010    0.0001    0.0002    0.0004    0.0000
           2    0.0130    0.0244    0.0004   -0.0018    0.0001    0.0000   -0.0009   -0.0001
           3   -0.0149   -0.0275   -0.0005    0.0018   -0.0002    0.0003   -0.0004    0.0001
           4   -0.0007    0.0005    0.0208    0.0011    0.0002   -0.0017    0.0001   -0.0004
           5   -0.0397    0.0248   -0.0079   -0.0009   -0.0029    0.0003    0.0002   -0.0000
           6    0.0095   -0.0056   -0.0304   -0.0013    0.0002    0.0025   -0.0003   -0.0003
           7   -0.0013   -0.0023    0.0017   -0.0447    0.0010   -0.0002    0.0056    0.0001
           8   -0.0002   -0.0007    0.0012   -0.0244   -0.0001    0.0000   -0.0304    0.0002
           9    0.0003    0.0010   -0.0008    0.0227   -0.0010    0.0003   -0.0274    0.0000
          10    0.0001    0.0001   -0.0043    0.0002    0.0055   -0.0438   -0.0006   -0.0110
          11    0.0022   -0.0012    0.0005   -0.0011   -0.0512   -0.0014    0.0011   -0.0042
          12   -0.0005    0.0003    0.0010    0.0000    0.0089    0.0193   -0.0002   -0.0216
          13   -0.0001   -0.0002    0.0002   -0.0003    0.0000   -0.0000   -0.0001    0.0000
          14    0.0002    0.0004   -0.0000   -0.0002    0.0000    0.0000   -0.0000    0.0000
          15   -0.0002   -0.0004    0.0000    0.0002   -0.0000   -0.0000   -0.0002    0.0000
          16    0.0002    0.0004    0.0000   -0.0002    0.0000   -0.0000    0.0001   -0.0000
          17   -0.0001   -0.0003    0.0000   -0.0002   -0.0000    0.0000   -0.0007    0.0000
          18    0.0001    0.0001    0.0000    0.0001   -0.0000    0.0000   -0.0005   -0.0000
          19   -0.0883   -0.1697   -0.0039    0.0089   -0.0001    0.0008   -0.0003    0.0003
          20   -0.1616   -0.2968   -0.0062    0.0231   -0.0019    0.0004   -0.0017    0.0010
          21    0.1804    0.3336    0.0058   -0.0217    0.0023    0.0003    0.0007   -0.0015
          22   -0.0999    0.0664   -0.1242   -0.0062   -0.0075    0.0070   -0.0004    0.0005
          23    0.2695   -0.1733    0.3882    0.0200    0.0244   -0.0269    0.0010   -0.0029
          24    0.0987   -0.0641    0.1102    0.0059    0.0118   -0.0084    0.0000   -0.0017
          25    0.1102   -0.0697   -0.1298   -0.0041    0.0048    0.0088   -0.0012    0.0005
          26    0.2071   -0.1241   -0.2923   -0.0122    0.0087    0.0230   -0.0033    0.0019
          27   -0.2141    0.1285    0.2595    0.0098   -0.0135   -0.0227    0.0027   -0.0027
          28    0.0060    0.0142   -0.0127    0.2810   -0.0008   -0.0001    0.2695   -0.0023
          29    0.0070    0.0139   -0.0171    0.3626   -0.0011   -0.0000    0.3162   -0.0026
          30    0.0003    0.0000   -0.0003    0.0057   -0.0008    0.0003   -0.0170   -0.0001
          31    0.0041    0.0121   -0.0084    0.2590   -0.0123    0.0035   -0.3408    0.0007
          32    0.0003   -0.0008    0.0025   -0.0668    0.0025   -0.0006    0.0536   -0.0001
          33   -0.0054   -0.0148    0.0091   -0.2807    0.0128   -0.0036    0.3446   -0.0007
          34    0.0001    0.0013    0.0400   -0.0008   -0.0481    0.4195    0.0071    0.3375
          35    0.0005   -0.0002   -0.0007   -0.0006   -0.0264   -0.0033    0.0006   -0.0038
          36    0.0001    0.0000   -0.0041   -0.0001    0.0063   -0.0039   -0.0003   -0.0205
          37    0.0068   -0.0040    0.0052   -0.0034   -0.1418    0.0376    0.0031   -0.1004
          38   -0.0156    0.0095   -0.0190    0.0102    0.3947   -0.1757   -0.0089    0.2769
          39   -0.0032    0.0018   -0.0055    0.0041    0.1454   -0.0484   -0.0029    0.0833
          40   -0.0066    0.0043    0.0036    0.0020    0.1244    0.0654   -0.0029   -0.1032
          41   -0.0133    0.0065    0.0117    0.0037    0.2445    0.1954   -0.0052   -0.2210
          42    0.0104   -0.0039   -0.0099   -0.0042   -0.2575   -0.1796    0.0056    0.2022
          43    0.0014    0.0029   -0.0001   -0.0011    0.0000   -0.0001    0.0009    0.0001
          44   -0.0010   -0.0021    0.0001   -0.0000   -0.0000    0.0000   -0.0007   -0.0001
          45    0.0013    0.0027   -0.0001    0.0001    0.0000   -0.0001    0.0008    0.0001
          46    0.0004    0.0003    0.0003   -0.0004    0.0000   -0.0000   -0.0008    0.0000
          47    0.0003    0.0006    0.0001    0.0005    0.0002   -0.0002    0.0136   -0.0002
          48    0.0002    0.0000    0.0002    0.0007    0.0002   -0.0002    0.0111   -0.0002


   Root No.      41        42

                41 A      42 A   

                3195.0    3215.4
  
           1   -0.0003    0.0011
           2    0.0004   -0.0010
           3   -0.0006    0.0015
           4    0.0000   -0.0000
           5    0.0000   -0.0000
           6    0.0000   -0.0000
           7   -0.0000   -0.0000
           8    0.0008    0.0020
           9    0.0007    0.0019
          10   -0.0000   -0.0000
          11   -0.0000   -0.0000
          12   -0.0000    0.0000
          13    0.0017    0.0050
          14   -0.0287   -0.0372
          15   -0.0234   -0.0255
          16    0.0237   -0.0262
          17   -0.0200    0.0255
          18    0.0242   -0.0237
          19   -0.0009    0.0011
          20   -0.0020    0.0013
          21    0.0019   -0.0019
          22    0.0001   -0.0002
          23   -0.0005   -0.0000
          24   -0.0002   -0.0001
          25    0.0000    0.0001
          26    0.0001    0.0000
          27   -0.0001   -0.0001
          28   -0.0044   -0.0051
          29   -0.0058   -0.0055
          30    0.0003    0.0002
          31    0.0053    0.0058
          32   -0.0011   -0.0007
          33   -0.0050   -0.0062
          34    0.0002    0.0002
          35   -0.0000    0.0000
          36   -0.0000    0.0000
          37   -0.0001   -0.0000
          38    0.0002   -0.0000
          39    0.0000   -0.0000
          40   -0.0000    0.0000
          41   -0.0001    0.0001
          42    0.0001   -0.0001
          43   -0.2785    0.2604
          44    0.2337   -0.2187
          45   -0.2859    0.2670
          46   -0.0203   -0.0212
          47    0.3404    0.3513
          48    0.2788    0.2875


           MASS-WEIGHTED COORDINATE ANALYSIS (NORMAL COORDINATES)


   Root No.       1         2         3         4         5         6         7         8

                 1 A       2 A       3 A       4 A       5 A       6 A       7 A       8 A   

                  81.5     173.6     202.4     284.1     431.0     477.5     753.4     792.6
  
           1   -0.0497   -0.0552   -0.2443    0.0164   -0.1251   -0.2459    0.0069   -0.0039
           2   -0.2434   -0.0781   -0.0223   -0.2059   -0.2356   -0.1795   -0.1330    0.2475
           3   -0.0607    0.0381    0.2698    0.0063   -0.1777    0.1843    0.1072   -0.1463
           4   -0.0498   -0.0534   -0.2319    0.0206   -0.0817   -0.3269    0.2197   -0.1556
           5   -0.3420   -0.0895    0.0804    0.3106    0.1578    0.1269   -0.0796    0.3102
           6    0.0235   -0.0108    0.0147   -0.2310    0.3414    0.0025   -0.0593   -0.0136
           7    0.0684    0.1123   -0.3187    0.2604    0.1313    0.2641   -0.1695    0.1133
           8   -0.1858    0.0086   -0.0581   -0.1038   -0.1454    0.0274   -0.0485   -0.1169
           9    0.2194    0.0071    0.1025    0.0791   -0.1207   -0.0043   -0.0616    0.1395
          10   -0.1092   -0.0689    0.2792   -0.3088    0.3835   -0.0847    0.0746   -0.0549
          11    0.4386    0.0836   -0.0382    0.0504    0.0846    0.0169   -0.0009    0.0482
          12   -0.1275   -0.0439   -0.1874   -0.0334    0.2383   -0.1277    0.0470   -0.0040
          13    0.0210   -0.0748    0.1162   -0.2659   -0.3304    0.3395   -0.2136   -0.0787
          14    0.1250   -0.0292   -0.0415   -0.2052   -0.0151    0.0462    0.0389   -0.1918
          15   -0.1446    0.0421    0.0940    0.1557   -0.2299   -0.0975    0.1447   -0.1098
          16    0.1347    0.1441    0.3766    0.3078   -0.0894   -0.0307   -0.2321    0.0180
          17    0.1798    0.0809    0.0877    0.0853    0.1071   -0.1405    0.0289   -0.1390
          18    0.0891   -0.0247   -0.2292    0.0106   -0.0871    0.1602   -0.0141    0.1023
          19   -0.0401   -0.0177   -0.0527    0.0777   -0.0648   -0.1333    0.0767    0.0550
          20   -0.1099   -0.0080   -0.0099   -0.0634   -0.1009   -0.0535   -0.0190    0.0654
          21   -0.0663    0.0210    0.0793    0.0330   -0.0980    0.0131    0.0818   -0.0124
          22   -0.0253   -0.0001   -0.0887    0.1323    0.0638   -0.0306    0.1295   -0.2825
          23   -0.1630   -0.0274    0.0349    0.1782    0.0934    0.0990    0.0162   -0.1258
          24    0.1785    0.0194   -0.0546   -0.1798    0.0551   -0.1070   -0.0549    0.3345
          25    0.0088   -0.0329   -0.1367   -0.0827   -0.0711   -0.2138    0.0345    0.1749
          26   -0.2291   -0.0378    0.0453    0.2243    0.1127    0.1290    0.0254   -0.2471
          27   -0.1103   -0.0248   -0.0118    0.0196    0.1372    0.0238    0.0162   -0.2110
          28    0.0411    0.0601   -0.1154    0.1103    0.1039    0.2312    0.0207    0.0163
          29   -0.0706   -0.0194    0.0002   -0.0571   -0.0922   -0.1061   -0.0636   -0.0167
          30    0.1365    0.0181    0.1869    0.0816   -0.0474   -0.2046   -0.2551   -0.0128
          31    0.0072    0.0230   -0.2279    0.0529    0.0753    0.2020    0.0854    0.1287
          32   -0.0899    0.0250   -0.0777   -0.0243    0.0124    0.2610    0.1516   -0.0584
          33    0.0589   -0.0115   -0.0852    0.0009   -0.0120    0.0581    0.0662    0.1378
          34   -0.0316   -0.0208    0.0809   -0.0899    0.1136   -0.0248    0.0212   -0.0149
          35    0.0733    0.5686   -0.0778   -0.0904   -0.0166   -0.0311    0.0402   -0.1169
          36   -0.0112   -0.1287   -0.1707    0.1064   -0.0838   -0.1116    0.1324   -0.0903
          37    0.0076   -0.4715    0.1796   -0.0336    0.2076    0.0313   -0.0508    0.1199
          38    0.2087   -0.1948    0.0083    0.0391    0.0329    0.0115    0.0017   -0.0449
          39   -0.2269    0.1832   -0.0187   -0.0242    0.1295   -0.0037   -0.0540    0.2663
          40   -0.0858    0.4224    0.1150   -0.2391    0.1923   -0.0022   -0.0304   -0.0259
          41    0.2812   -0.2593    0.0068    0.0322    0.0274    0.0041    0.0207   -0.1433
          42    0.0916   -0.1019   -0.0224   -0.0558    0.1042   -0.0289    0.0123   -0.1534
          43    0.0688    0.0842    0.2536    0.1889   -0.0189   -0.0748    0.4453    0.2583
          44    0.1151    0.0539    0.0683    0.1036    0.0930   -0.0709    0.2567    0.1442
          45    0.0483   -0.0236   -0.1722   -0.0294    0.0176    0.0869   -0.3026   -0.0635
          46   -0.0042   -0.0608    0.0717   -0.2223   -0.2158    0.3068    0.3519    0.1286
          47    0.0803   -0.0191   -0.0262   -0.1056   -0.0010    0.1110    0.2410   -0.0026
          48   -0.0965    0.0223    0.0473    0.0910   -0.0794   -0.1320   -0.2083   -0.0854


   Root No.       9        10        11        12        13        14        15        16

                 9 A      10 A      11 A      12 A      13 A      14 A      15 A      16 A   

                 855.8     897.1     913.0     948.4     976.0     994.7    1019.7    1032.1
  
           1    0.0695    0.0079   -0.0636   -0.1615    0.0005   -0.1797   -0.0290   -0.0195
           2    0.2162    0.0993   -0.1779    0.2662    0.0336    0.0661   -0.0107    0.0168
           3   -0.2481    0.1240   -0.1017    0.1024   -0.2380   -0.1129   -0.0213   -0.1062
           4   -0.1620   -0.0356    0.0858    0.0757    0.0213   -0.0210   -0.0206    0.0104
           5   -0.1569    0.0078   -0.0080    0.0620    0.0658   -0.0477    0.0064   -0.0421
           6    0.1025    0.0003   -0.0432   -0.0569   -0.0318    0.0125   -0.0135    0.0166
           7    0.1053    0.3247   -0.1127   -0.0918   -0.0887    0.1819   -0.1493   -0.0795
           8    0.1715   -0.2141    0.4136   -0.1970    0.0985    0.1479   -0.0285   -0.0079
           9    0.0974   -0.1695    0.0015    0.1458    0.1881    0.1303    0.1440   -0.0583
          10   -0.0778   -0.0193    0.0803    0.1969   -0.0954    0.2783    0.0500    0.0214
          11   -0.0784   -0.0032    0.0527   -0.0836   -0.0700    0.0552   -0.0043    0.0209
          12    0.0154    0.0173    0.0250    0.0434    0.0422   -0.0136    0.0259   -0.0168
          13   -0.0453   -0.2472   -0.1702   -0.0519   -0.1229   -0.0260   -0.1788   -0.0820
          14   -0.2165   -0.0164   -0.2788   -0.1378   -0.0504   -0.0102   -0.0842   -0.0937
          15   -0.1182    0.1126   -0.0985   -0.3021    0.2014    0.0126    0.0793    0.0672
          16    0.0492   -0.0658    0.2552    0.1136    0.0312   -0.1445    0.3474    0.1035
          17   -0.1693    0.0937   -0.0826   -0.0592    0.0296   -0.0727    0.1670    0.0748
          18    0.1974   -0.1769    0.2671    0.0013   -0.1152   -0.0857   -0.2224   -0.0041
          19   -0.0497    0.0510   -0.0687   -0.0147    0.1217   -0.2877    0.0365   -0.0804
          20    0.1371    0.2042    0.0139    0.1647   -0.2572   -0.0831    0.0026   -0.1737
          21   -0.0361    0.2217   -0.0052    0.1214   -0.2468   -0.2408    0.0246   -0.2279
          22   -0.0176   -0.0507    0.1355   -0.2566   -0.0998    0.0170   -0.0290    0.0800
          23    0.0691    0.0041   -0.0014   -0.0222   -0.0164    0.0131   -0.0070    0.0097
          24   -0.2451   -0.0413    0.0951   -0.1754   -0.0247   -0.0374   -0.0012    0.0201
          25   -0.0531   -0.0083   -0.0316    0.1730    0.2730   -0.1719   -0.0128   -0.0302
          26    0.1944    0.0216   -0.0453    0.0181    0.0041    0.0072   -0.0082    0.0076
          27    0.2519    0.0198   -0.0801    0.0623    0.1113   -0.0594   -0.0155    0.0068
          28   -0.1897    0.0247   -0.0427    0.1745    0.3064    0.0445   -0.1919   -0.1165
          29    0.2213   -0.0171    0.1234   -0.2045   -0.2294    0.0452    0.1157    0.0731
          30    0.0422    0.3092    0.1357   -0.0238    0.2105    0.2762   -0.3501   -0.1922
          31    0.0767   -0.0977   -0.2467   -0.0319   -0.0555    0.0955    0.3468   -0.0401
          32   -0.1877   -0.3176    0.1817    0.2522    0.2662   -0.1586   -0.0946    0.0497
          33    0.1301   -0.1645   -0.2105   -0.0281   -0.0314    0.1271    0.4232   -0.0465
          34   -0.0213   -0.0060    0.0236    0.0533   -0.0242    0.0762    0.0139    0.0065
          35    0.0647    0.0071   -0.0210    0.1466    0.0117    0.0742    0.0166   -0.0066
          36   -0.1965   -0.0147    0.1123    0.3222   -0.2054    0.4357    0.0706    0.0185
          37   -0.0211   -0.0035    0.0209   -0.1900    0.0344   -0.1240   -0.0218    0.0063
          38    0.0604    0.0078   -0.0218    0.0009    0.0338   -0.0398   -0.0039   -0.0054
          39   -0.2093   -0.0137    0.1006   -0.2580   -0.0753   -0.0288   -0.0172    0.0236
          40    0.1555    0.0139   -0.0605   -0.0522    0.1413   -0.1885   -0.0133   -0.0207
          41    0.1599    0.0184   -0.0629    0.0903    0.0858   -0.0565    0.0048   -0.0201
          42    0.2493    0.0320   -0.1009    0.0759    0.1810   -0.1846    0.0024   -0.0418
          43    0.2513   -0.2435   -0.0704   -0.0480   -0.0916    0.0654   -0.2894   -0.0820
          44    0.0964   -0.0076   -0.0977    0.1299   -0.2590   -0.1634   -0.3006    0.4385
          45   -0.0525    0.1384    0.1576    0.2003   -0.1531   -0.2452    0.0302    0.4482
          46    0.0798    0.4418    0.0826   -0.0872    0.2716    0.1660    0.0927    0.4351
          47   -0.0097    0.1929    0.2105   -0.0603   -0.0094   -0.1165    0.1167   -0.2648
          48   -0.0941   -0.1690   -0.3781   -0.0687    0.0727    0.1527   -0.1396    0.3421


   Root No.      17        18        19        20        21        22        23        24

                17 A      18 A      19 A      20 A      21 A      22 A      23 A      24 A   

                1053.1    1118.1    1122.9    1153.4    1169.3    1188.3    1205.8    1270.2
  
           1   -0.0605   -0.0383   -0.0596   -0.2056    0.2413   -0.1795   -0.0048   -0.2850
           2    0.1814   -0.1512   -0.0395   -0.4539   -0.0454    0.0187    0.0563    0.2291
           3   -0.0844   -0.0923    0.0029   -0.1414   -0.2837    0.3689    0.0790   -0.1654
           4    0.1341   -0.0914    0.0352    0.0290   -0.2838    0.0477    0.0316   -0.3508
           5   -0.2554    0.0187    0.3153    0.1019   -0.0754   -0.0740   -0.0215   -0.1224
           6   -0.0354   -0.4044    0.1106   -0.0419    0.3058    0.0057   -0.0142   -0.2684
           7   -0.1241   -0.0196    0.0026   -0.0861   -0.1353    0.1692   -0.2154    0.0627
           8   -0.0494    0.1277    0.0464    0.2000    0.0605    0.2223    0.2253   -0.1332
           9    0.2268   -0.0065    0.0123   -0.1232   -0.0466    0.1629   -0.2266   -0.0614
          10   -0.1011    0.0674   -0.0123    0.0315    0.0980   -0.0334   -0.0165    0.1073
          11    0.1295   -0.0386   -0.3611    0.0344    0.0175    0.0332    0.0047    0.0065
          12    0.0091    0.4424   -0.1275   -0.0612   -0.1666   -0.0525    0.0164    0.0083
          13   -0.0379    0.0547   -0.0038    0.1030    0.0184   -0.0933    0.1488    0.1547
          14   -0.0503    0.0299   -0.0081    0.0421    0.0019   -0.0219   -0.1217    0.0141
          15   -0.1667   -0.0743   -0.0504   -0.0184    0.0302   -0.3791    0.1861    0.2237
          16   -0.0018   -0.0352   -0.0255   -0.0328    0.0181   -0.1127   -0.0307    0.0512
          17   -0.0104    0.0125   -0.0020    0.0683    0.0561   -0.1156   -0.1484   -0.0083
          18   -0.1265    0.0210   -0.0246    0.0936    0.0478   -0.2067   -0.1895    0.1070
          19   -0.1102    0.2251   -0.0343   -0.0666    0.5548    0.4789    0.0001    0.2023
          20    0.3779    0.0437    0.0741    0.2656    0.0483   -0.3353   -0.1326   -0.0721
          21    0.2147    0.1652    0.0660    0.3110    0.2172    0.0695   -0.1091   -0.0255
          22    0.4568   -0.0992    0.3756   -0.1096   -0.0903    0.1242    0.0043    0.3907
          23    0.0676   -0.0245    0.0584   -0.0221   -0.0112    0.0081    0.0026    0.0582
          24    0.0236   -0.1126    0.5043    0.0092    0.0574    0.0231   -0.0389    0.1670
          25   -0.1377   -0.2870   -0.0858    0.4960   -0.2861    0.1581   -0.0252    0.2500
          26    0.0573   -0.1297   -0.0732    0.0212    0.0720    0.0063   -0.0136    0.0294
          27    0.0222   -0.3848   -0.1799    0.2357    0.0840    0.1078   -0.0313    0.1685
          28    0.1827    0.0057    0.0128   -0.0013    0.1277   -0.1203    0.2350    0.0175
          29   -0.1804    0.0272    0.0044    0.0326   -0.1110    0.2030   -0.1693   -0.0432
          30    0.1182    0.0588    0.0604    0.1108    0.0556    0.0969    0.3245   -0.1310
          31    0.0773    0.0284    0.0424    0.1163    0.0115    0.0423    0.2791   -0.0604
          32    0.1628   -0.0099   -0.0220   -0.1402    0.0748    0.0188   -0.1693   -0.1176
          33    0.1382    0.0400    0.0525    0.1427    0.0162    0.0568    0.3074   -0.0823
          34   -0.0248    0.0216   -0.0043    0.0127    0.0221   -0.0077   -0.0047    0.0439
          35   -0.0923    0.0513    0.0706    0.0031    0.0016   -0.0269   -0.0015    0.0597
          36   -0.1532    0.0863   -0.0443    0.0352    0.1523   -0.0190   -0.0194    0.2690
          37    0.1533    0.0704   -0.1703    0.0071   -0.1062    0.0225    0.0126    0.0698
          38    0.0070    0.0250   -0.0189    0.0000   -0.0311   -0.0006    0.0037   -0.0183
          39    0.2384    0.0838   -0.4202    0.0114   -0.0729    0.0398    0.0152    0.1188
          40    0.0205    0.1631    0.0551   -0.0032   -0.1468   -0.0020    0.0085    0.0616
          41   -0.0695    0.1220    0.1012   -0.0100   -0.0638   -0.0224    0.0026    0.0603
          42   -0.0780    0.3234    0.1856   -0.0430   -0.1855   -0.0405    0.0112    0.0867
          43   -0.0340    0.0054   -0.0040    0.0038    0.0029   -0.0309   -0.0213    0.0202
          44   -0.0099    0.0161    0.0179    0.0187    0.0073    0.0453    0.3327   -0.0111
          45   -0.0111   -0.0011    0.0033    0.0100    0.0075   -0.0041    0.2623    0.0281
          46    0.0763    0.0823    0.0314    0.1009    0.0597    0.0320   -0.1884   -0.0983
          47   -0.1318   -0.1177   -0.0437   -0.1439   -0.0389   -0.1133    0.1627    0.1037
          48    0.0982    0.1347    0.0369    0.1867    0.0592    0.0175   -0.2082   -0.0602


   Root No.      25        26        27        28        29        30        31        32

                25 A      26 A      27 A      28 A      29 A      30 A      31 A      32 A   

                1295.7    1376.2    1406.3    1406.4    1411.2    1418.7    1439.4    1775.1
  
           1   -0.0589    0.2807   -0.0140    0.0568    0.0181   -0.2745    0.4783    0.0500
           2    0.1883   -0.0423   -0.0274    0.0232   -0.0110    0.0684   -0.0730    0.0074
           3    0.2264    0.1659   -0.0063    0.0085    0.0071   -0.0805    0.2295    0.0595
           4    0.0871   -0.0354    0.0643   -0.1449    0.0343    0.2413   -0.4509   -0.0209
           5   -0.0338   -0.0204    0.0064    0.0025    0.0067   -0.0784   -0.0347   -0.0037
           6    0.0263   -0.1721    0.0376    0.0393    0.0105   -0.2570   -0.2844   -0.0141
           7   -0.1883   -0.0587    0.0084   -0.0136   -0.0014    0.0310   -0.0672    0.0245
           8   -0.0188   -0.0267    0.1689   -0.2413    0.0527   -0.0900    0.1064    0.0166
           9   -0.4151   -0.0753    0.1608   -0.2265    0.0477   -0.0796    0.0620    0.0598
          10   -0.0331   -0.0838   -0.0567   -0.0360   -0.2545    0.0706    0.1552   -0.0002
          11    0.0030   -0.0833   -0.2167   -0.1028    0.0610    0.0361    0.0625    0.0008
          12    0.0001   -0.2716   -0.0034    0.0859    0.0051    0.2784    0.2968    0.0033
          13   -0.1355   -0.0844   -0.0073    0.0038   -0.0087    0.0701   -0.1118    0.2991
          14   -0.0181    0.0056   -0.0007    0.0022   -0.0003   -0.0061    0.0255   -0.6043
          15   -0.2622   -0.1067   -0.0191    0.0216   -0.0111    0.0707   -0.1375   -0.0100
          16    0.1680    0.0041   -0.0161    0.0200   -0.0051    0.0151   -0.0080   -0.3036
          17    0.1750    0.0190   -0.0427    0.0627   -0.0127    0.0185   -0.0344    0.6043
          18    0.4729    0.0059   -0.0663    0.0871   -0.0213    0.0649   -0.0728    0.0017
          19    0.0596   -0.1274    0.0116    0.0019   -0.0135    0.0831   -0.1700   -0.0151
          20   -0.1430   -0.0022    0.0119   -0.0113    0.0047   -0.0368    0.0244   -0.0262
          21   -0.0768   -0.0484    0.0241   -0.0195   -0.0016    0.0082   -0.0468   -0.0139
          22    0.0676   -0.1591   -0.0494    0.1173   -0.0523   -0.1931    0.1149    0.0027
          23    0.0213   -0.1627   -0.0199    0.0897   -0.0264   -0.2267    0.0083   -0.0006
          24   -0.0476    0.3340    0.0074   -0.1274    0.0375    0.3581    0.1236    0.0018
          25   -0.0169   -0.1230   -0.0377    0.1163   -0.0525   -0.2212    0.1654    0.0051
          26   -0.0288    0.2911    0.0172   -0.1464    0.0437    0.3693    0.0388    0.0008
          27   -0.0383    0.2290    0.0012   -0.0727    0.0193    0.2223    0.1198    0.0032
          28    0.1815   -0.0467    0.1797   -0.2711    0.0574   -0.0735    0.1022    0.0007
          29   -0.1964    0.0273   -0.1159    0.1770   -0.0374    0.0484   -0.0729    0.0150
          30   -0.0020    0.1382   -0.2395    0.3507   -0.0682    0.0623   -0.0423   -0.0344
          31    0.0834    0.0821   -0.1482    0.2160   -0.0431    0.0501   -0.0390   -0.0351
          32   -0.2850    0.1436   -0.2794    0.4194   -0.0816    0.0641   -0.0580   -0.0005
          33    0.0634    0.0518   -0.0549    0.0807   -0.0147    0.0069    0.0074   -0.0161
          34   -0.0103   -0.0020   -0.0084   -0.0002   -0.0219    0.0047    0.0271   -0.0004
          35   -0.0103    0.1205    0.6102    0.3548   -0.0936    0.0242   -0.0222   -0.0000
          36   -0.0493    0.2949   -0.0700   -0.0008    0.3731   -0.2646   -0.1281   -0.0001
          37    0.0064    0.1579    0.4302    0.3049    0.3331   -0.0309   -0.1033   -0.0004
          38    0.0059   -0.0729    0.1078    0.1366    0.2416    0.0769    0.0522    0.0005
          39   -0.0031    0.3186    0.0451   -0.1166   -0.3330   -0.2037   -0.2026   -0.0002
          40    0.0002    0.1047   -0.2942   -0.1076    0.5427   -0.1337   -0.1080   -0.0002
          41   -0.0105    0.2171    0.0324   -0.1115   -0.3889   -0.1455   -0.1308   -0.0005
          42   -0.0088    0.2513   -0.0761   -0.1405   -0.1452   -0.1784   -0.1565    0.0001
          43    0.0600    0.0007   -0.0066    0.0081   -0.0017    0.0060   -0.0047   -0.1094
          44   -0.2369   -0.0163    0.0252   -0.0340    0.0076   -0.0154    0.0109    0.0629
          45   -0.1053   -0.0195    0.0124   -0.0189    0.0028    0.0044   -0.0074   -0.1429
          46    0.1232    0.0353   -0.0031    0.0078    0.0018   -0.0218    0.0308   -0.0166
          47   -0.1369   -0.0347   -0.0022    0.0007   -0.0025    0.0188   -0.0317   -0.1242
          48    0.1006    0.0169   -0.0060    0.0102   -0.0009   -0.0049    0.0099   -0.1436


   Root No.      33        34        35        36        37        38        39        40

                33 A      34 A      35 A      36 A      37 A      38 A      39 A      40 A   

                2952.2    2962.5    3034.3    3047.2    3077.3    3084.7    3103.7    3179.9
  
           1    0.0473    0.0810    0.0047   -0.0055    0.0004    0.0015    0.0020    0.0002
           2    0.0838    0.1462    0.0025   -0.0098    0.0003    0.0003   -0.0047   -0.0005
           3   -0.0960   -0.1653   -0.0030    0.0098   -0.0012    0.0018   -0.0022    0.0008
           4   -0.0045    0.0027    0.1186    0.0062    0.0014   -0.0105    0.0005   -0.0022
           5   -0.2562    0.1492   -0.0447   -0.0052   -0.0165    0.0017    0.0011   -0.0003
           6    0.0614   -0.0337   -0.1728   -0.0071    0.0011    0.0151   -0.0013   -0.0016
           7   -0.0084   -0.0140    0.0095   -0.2439    0.0056   -0.0015    0.0296    0.0007
           8   -0.0013   -0.0040    0.0071   -0.1330   -0.0005    0.0003   -0.1595    0.0013
           9    0.0018    0.0058   -0.0044    0.1238   -0.0059    0.0018   -0.1439    0.0003
          10    0.0006    0.0005   -0.0242    0.0010    0.0309   -0.2695   -0.0031   -0.0676
          11    0.0143   -0.0070    0.0030   -0.0062   -0.2884   -0.0085    0.0059   -0.0260
          12   -0.0033    0.0015    0.0059    0.0001    0.0500    0.1187   -0.0009   -0.1326
          13   -0.0009   -0.0014    0.0011   -0.0015    0.0000   -0.0000   -0.0003    0.0001
          14    0.0012    0.0026   -0.0001   -0.0008    0.0000    0.0000   -0.0001    0.0001
          15   -0.0015   -0.0023    0.0000    0.0012   -0.0000   -0.0002   -0.0010    0.0001
          16    0.0014    0.0026    0.0002   -0.0013    0.0000   -0.0000    0.0003   -0.0001
          17   -0.0008   -0.0015    0.0001   -0.0009   -0.0000    0.0000   -0.0034    0.0001
          18    0.0004    0.0006    0.0000    0.0007   -0.0001    0.0000   -0.0029   -0.0000
          19   -0.1652   -0.2951   -0.0064    0.0140   -0.0002    0.0015   -0.0004    0.0005
          20   -0.3024   -0.5162   -0.0102    0.0365   -0.0032    0.0006   -0.0026    0.0018
          21    0.3375    0.5802    0.0096   -0.0343    0.0038    0.0005    0.0010   -0.0026
          22   -0.1869    0.1155   -0.2047   -0.0098   -0.0122    0.0124   -0.0007    0.0008
          23    0.5043   -0.3014    0.6399    0.0316    0.0398   -0.0479    0.0015   -0.0052
          24    0.1847   -0.1114    0.1816    0.0094    0.0192   -0.0149    0.0001   -0.0030
          25    0.2061   -0.1213   -0.2140   -0.0065    0.0079    0.0157   -0.0018    0.0010
          26    0.3876   -0.2158   -0.4817   -0.0193    0.0141    0.0409   -0.0051    0.0033
          27   -0.4005    0.2234    0.4277    0.0154   -0.0221   -0.0404    0.0041   -0.0049
          28    0.0113    0.0246   -0.0209    0.4443   -0.0013   -0.0002    0.4102   -0.0040
          29    0.0131    0.0243   -0.0282    0.5734   -0.0019   -0.0001    0.4813   -0.0047
          30    0.0006    0.0001   -0.0006    0.0090   -0.0013    0.0006   -0.0259   -0.0002
          31    0.0078    0.0211   -0.0138    0.4096   -0.0201    0.0062   -0.5188    0.0012
          32    0.0006   -0.0013    0.0041   -0.1056    0.0041   -0.0012    0.0815   -0.0001
          33   -0.0102   -0.0257    0.0151   -0.4438    0.0208   -0.0064    0.5246   -0.0012
          34    0.0002    0.0022    0.0660   -0.0012   -0.0784    0.7477    0.0107    0.6007
          35    0.0009   -0.0003   -0.0012   -0.0010   -0.0430   -0.0058    0.0008   -0.0068
          36    0.0002    0.0001   -0.0068   -0.0002    0.0102   -0.0069   -0.0005   -0.0364
          37    0.0127   -0.0070    0.0086   -0.0054   -0.2313    0.0670    0.0048   -0.1787
          38   -0.0292    0.0166   -0.0314    0.0161    0.6439   -0.3132   -0.0136    0.4929
          39   -0.0060    0.0031   -0.0090    0.0064    0.2372   -0.0862   -0.0045    0.1483
          40   -0.0123    0.0075    0.0060    0.0032    0.2030    0.1166   -0.0044   -0.1836
          41   -0.0249    0.0113    0.0193    0.0059    0.3989    0.3483   -0.0080   -0.3934
          42    0.0195   -0.0069   -0.0163   -0.0066   -0.4201   -0.3201    0.0085    0.3598
          43    0.0027    0.0051   -0.0001   -0.0017    0.0001   -0.0002    0.0014    0.0002
          44   -0.0018   -0.0037    0.0002   -0.0001   -0.0000    0.0001   -0.0011   -0.0001
          45    0.0024    0.0046   -0.0002    0.0001    0.0000   -0.0002    0.0013    0.0002
          46    0.0007    0.0006    0.0005   -0.0006    0.0000   -0.0001   -0.0012    0.0000
          47    0.0005    0.0010    0.0001    0.0007    0.0004   -0.0004    0.0206   -0.0004
          48    0.0004    0.0000    0.0003    0.0011    0.0003   -0.0004    0.0169   -0.0003


   Root No.      41        42

                41 A      42 A   

                3195.0    3215.4
  
           1   -0.0016    0.0056
           2    0.0021   -0.0051
           3   -0.0030    0.0076
           4    0.0002   -0.0002
           5    0.0000   -0.0001
           6    0.0000   -0.0001
           7   -0.0002   -0.0002
           8    0.0044    0.0104
           9    0.0036    0.0098
          10   -0.0000   -0.0001
          11   -0.0000   -0.0000
          12   -0.0000    0.0000
          13    0.0090    0.0257
          14   -0.1487   -0.1936
          15   -0.1216   -0.1324
          16    0.1227   -0.1361
          17   -0.1037    0.1327
          18    0.1254   -0.1232
          19   -0.0013    0.0017
          20   -0.0030    0.0020
          21    0.0029   -0.0029
          22    0.0001   -0.0003
          23   -0.0007   -0.0000
          24   -0.0004   -0.0002
          25    0.0000    0.0002
          26    0.0002    0.0000
          27   -0.0001   -0.0001
          28   -0.0066   -0.0077
          29   -0.0087   -0.0083
          30    0.0004    0.0003
          31    0.0080    0.0087
          32   -0.0017   -0.0010
          33   -0.0075   -0.0093
          34    0.0003    0.0003
          35   -0.0000    0.0000
          36   -0.0000    0.0000
          37   -0.0001   -0.0000
          38    0.0003   -0.0001
          39    0.0001   -0.0000
          40   -0.0001    0.0000
          41   -0.0002    0.0001
          42    0.0002   -0.0001
          43   -0.4185    0.3922
          44    0.3512   -0.3293
          45   -0.4296    0.4021
          46   -0.0305   -0.0319
          47    0.5116    0.5291
          48    0.4189    0.4330


          DESCRIPTION OF VIBRATIONS


 VIBRATION          1    1A           ATOM PAIR      ENERGY CONTRIBUTION    RADIAL
 FREQUENCY            81.49         C  2 -- C  4         +18.6% (815.1%)      0.0%
 TRANSITION DIPOLE   0.0046         C  4 -- H 12          +9.9% (595.0%)      3.9%
 TRAVEL (Ang.)       0.9164         C  4 -- H 14          +9.8% (593.2%)     83.7%
 REDUCED MASS        0.9855         C  4 -- H 13          +9.5% (581.8%)     97.9%
 EFFECTIVE MASS    484.8424
 FORCE CONSTANT      0.0039

 VIBRATION          2    2A           ATOM PAIR      ENERGY CONTRIBUTION    RADIAL
 FREQUENCY           173.62         C  4 -- H 12         +28.9% (346.5%)      1.0%
[...]
 TRANSITION DIPOLE   0.1042         C  2 -- H  9         +12.4% ( 52.5%)      0.0%
 TRAVEL (Ang.)       0.2336         C  1 -- C  5         +10.5% ( 48.2%)     66.6%
 REDUCED MASS        0.9725         C  1 -- C  2         +10.0% ( 47.0%)      3.1%
 EFFECTIVE MASS      6.0703
 FORCE CONSTANT      0.9245

 VIBRATION         25   25A           ATOM PAIR      ENERGY CONTRIBUTION    RADIAL
 FREQUENCY          1295.71         C  3 -- C  6         +20.0% ( 69.9%)     99.6%
 TRANSITION DIPOLE   0.1793         C  5 -- C  6         +11.6% ( 53.3%)      0.3%
 TRAVEL (Ang.)       0.1754         C  1 -- C  6         +10.2% ( 49.9%)     79.7%
 REDUCED MASS        1.6910         C  6 -- H 15         +10.2% ( 49.9%)      8.9%
 EFFECTIVE MASS      8.4048
 FORCE CONSTANT      1.6727

 VIBRATION         26   26A           ATOM PAIR      ENERGY CONTRIBUTION    RADIAL
 FREQUENCY          1376.16         C  4 -- H 13         +12.1% ( 40.6%)      4.0%
 TRANSITION DIPOLE   0.0211         C  4 -- H 14         +11.8% ( 40.1%)      2.4%
 TRAVEL (Ang.)       0.3772         C  4 -- H 12         +10.8% ( 38.3%)      1.6%
 REDUCED MASS        0.3445         C  2 -- H  8         +10.0% ( 36.9%)      1.8%
 EFFECTIVE MASS      3.3303
 FORCE CONSTANT      0.3844

 VIBRATION         27   27A           ATOM PAIR      ENERGY CONTRIBUTION    RADIAL
 FREQUENCY          1406.32         C  4 -- H 12         +30.2% ( 53.3%)      0.3%
 TRANSITION DIPOLE   0.0309         C  4 -- H 13         +16.3% ( 39.2%)      7.6%
 TRAVEL (Ang.)       0.4136         C  3 -- H 10         +12.1% ( 33.7%)      4.9%
 REDUCED MASS        0.2802         C  3 -- H 11         +12.0% ( 33.7%)      4.7%
 EFFECTIVE MASS      2.1407
 FORCE CONSTANT      0.3265

 VIBRATION         28   28A           ATOM PAIR      ENERGY CONTRIBUTION    RADIAL
 FREQUENCY          1406.39         C  3 -- H 11         +21.5% ( 49.3%)      4.4%
 TRANSITION DIPOLE   0.0353         C  3 -- H 10         +21.4% ( 49.2%)      4.7%
 TRAVEL (Ang.)       0.4005         C  3 -- C  6          +9.1% ( 32.0%)     71.8%
 REDUCED MASS        0.2990         C  4 -- H 12          +8.3% ( 30.7%)      0.6%
 EFFECTIVE MASS      2.6602
 FORCE CONSTANT      0.3484

 VIBRATION         29   29A           ATOM PAIR      ENERGY CONTRIBUTION    RADIAL
 FREQUENCY          1411.18         C  4 -- H 14         +45.4% ( 59.6%)      0.1%
 TRANSITION DIPOLE   0.0472         C  4 -- H 13         +28.1% ( 46.9%)      3.0%
 TRAVEL (Ang.)       0.3555         C  4 -- H 12         +15.1% ( 34.3%)     24.8%
 REDUCED MASS        0.3780         C  2 -- C  4          +5.6% ( 20.9%)     11.7%
 EFFECTIVE MASS      1.6859
 FORCE CONSTANT      0.4435

 VIBRATION         30   30A           ATOM PAIR      ENERGY CONTRIBUTION    RADIAL
 FREQUENCY          1418.66         C  2 -- H  9         +16.8% ( 49.9%)      5.2%
 TRANSITION DIPOLE   0.0530         C  2 -- H  8         +15.4% ( 47.9%)      6.9%
 TRAVEL (Ang.)       0.3089         C  1 -- C  2         +11.6% ( 41.4%)     83.5%
 REDUCED MASS        0.4983         C  2 -- C  4         +10.5% ( 39.4%)     60.4%
 EFFECTIVE MASS      4.4267
 FORCE CONSTANT      0.5909

 VIBRATION         31   31A           ATOM PAIR      ENERGY CONTRIBUTION    RADIAL
 FREQUENCY          1439.43         C  1 -- C  2         +18.8% ( 69.4%)     76.5%
 TRANSITION DIPOLE   0.0660         C  2 -- C  4         +12.2% ( 56.0%)     83.1%
 TRAVEL (Ang.)       0.1474         C  1 -- C  5          +9.5% ( 49.3%)     65.6%
 REDUCED MASS        2.1554         C  1 -- H  7          +9.2% ( 48.6%)      0.1%
 EFFECTIVE MASS      8.9489
 FORCE CONSTANT      2.6312

 VIBRATION         32   32A           ATOM PAIR      ENERGY CONTRIBUTION    RADIAL
 FREQUENCY          1775.12         C  5 -- C  6         +36.3% (102.1%)    100.0%
 TRANSITION DIPOLE   0.0741         C  1 -- C  6         +11.2% ( 56.7%)     59.3%
 TRAVEL (Ang.)       0.0872         C  3 -- C  5         +11.1% ( 56.4%)     58.7%
 REDUCED MASS        4.9992         C  3 -- C  6         +10.9% ( 56.0%)      0.1%
 EFFECTIVE MASS     11.9874         C  1 -- C  5         +10.9% ( 56.0%)      0.2%
 FORCE CONSTANT      9.2813

 VIBRATION         33   33A           ATOM PAIR      ENERGY CONTRIBUTION    RADIAL
 FREQUENCY          2952.20         C  2 -- H  9         +38.2% ( 64.0%)     96.7%
 TRANSITION DIPOLE   0.0366         C  2 -- H  8         +35.2% ( 61.5%)     96.2%
 TRAVEL (Ang.)       0.2563         C  1 -- H  7         +23.5% ( 50.2%)    100.0%
 REDUCED MASS        0.3476         C  1 -- C  2          +1.2% ( 11.4%)      1.9%
 EFFECTIVE MASS      1.5241
 FORCE CONSTANT      1.7849

 VIBRATION         34   34A           ATOM PAIR      ENERGY CONTRIBUTION    RADIAL
 FREQUENCY          2962.50         C  1 -- H  7         +71.0% ( 86.3%)    100.0%
 TRANSITION DIPOLE   0.0949         C  2 -- H  8         +12.8% ( 36.7%)     96.7%
 TRAVEL (Ang.)       0.2035         C  2 -- H  9         +12.3% ( 35.9%)     96.6%
 REDUCED MASS        0.5496         C  1 -- C  2          +1.0% ( 10.0%)     26.1%
 EFFECTIVE MASS      1.4602
 FORCE CONSTANT      2.8422

 VIBRATION         35   35A           ATOM PAIR      ENERGY CONTRIBUTION    RADIAL
 FREQUENCY          3034.25         C  2 -- H  8         +50.2% ( 69.8%)     97.9%
 TRANSITION DIPOLE   0.0367         C  2 -- H  9         +47.6% ( 68.0%)     97.5%
 TRAVEL (Ang.)       0.2161         C  2 -- C  4          +0.6% (  7.8%)     26.0%
 REDUCED MASS        0.4758         C  1 -- C  2          +0.6% (  7.7%)     29.5%
 EFFECTIVE MASS      1.2757
 FORCE CONSTANT      2.5809

 VIBRATION         36   36A           ATOM PAIR      ENERGY CONTRIBUTION    RADIAL
 FREQUENCY          3047.21         C  3 -- H 10         +55.5% ( 77.5%)     97.8%
 TRANSITION DIPOLE   0.0753         C  3 -- H 11         +40.7% ( 66.4%)     96.0%
 TRAVEL (Ang.)       0.2054         C  3 -- C  5          +1.1% ( 10.9%)      0.3%
 REDUCED MASS        0.5243         C  3 -- C  6          +1.1% ( 10.9%)      0.2%
 EFFECTIVE MASS      1.5381
 FORCE CONSTANT      2.8686

 VIBRATION         37   37A           ATOM PAIR      ENERGY CONTRIBUTION    RADIAL
 FREQUENCY          3077.33         C  4 -- H 13         +56.2% ( 77.3%)     97.9%
 TRANSITION DIPOLE   0.0082         C  4 -- H 14         +40.8% ( 65.9%)     95.7%
 TRAVEL (Ang.)       0.2072         C  4 -- H 12          +1.6% ( 13.1%)     16.2%
 REDUCED MASS        0.5105         C  2 -- C  4          +1.0% ( 10.2%)      0.0%
 EFFECTIVE MASS      1.5013
 FORCE CONSTANT      2.8483

 VIBRATION         38   38A           ATOM PAIR      ENERGY CONTRIBUTION    RADIAL
 FREQUENCY          3084.68         C  4 -- H 12         +60.4% ( 80.1%)     98.7%
 TRANSITION DIPOLE   0.0037         C  4 -- H 14         +25.7% ( 52.3%)     90.6%
 TRAVEL (Ang.)       0.2146         C  4 -- H 13         +12.3% ( 36.1%)     78.1%
 REDUCED MASS        0.4746         C  2 -- C  4          +1.0% ( 10.3%)      0.0%
 EFFECTIVE MASS      1.5034
 FORCE CONSTANT      2.6606

 VIBRATION         39   39A           ATOM PAIR      ENERGY CONTRIBUTION    RADIAL
 FREQUENCY          3103.74         C  3 -- H 11         +57.0% ( 75.0%)     97.9%
 TRANSITION DIPOLE   0.1223         C  3 -- H 10         +40.8% ( 63.4%)     95.6%
 TRAVEL (Ang.)       0.2096         C  3 -- C  5          +0.7% (  8.3%)     98.6%
 REDUCED MASS        0.4943         C  1 -- C  3          +0.7% (  8.3%)     51.0%
 EFFECTIVE MASS      1.2823
 FORCE CONSTANT      2.8055

 VIBRATION         40   40A           ATOM PAIR      ENERGY CONTRIBUTION    RADIAL
 FREQUENCY          3179.90         C  4 -- H 12         +37.3% ( 58.8%)     97.7%
 TRANSITION DIPOLE   0.0145         C  4 -- H 14         +32.4% ( 54.7%)     96.9%
 TRAVEL (Ang.)       0.2538         C  4 -- H 13         +30.0% ( 52.7%)     96.5%
 REDUCED MASS        0.3292         C  2 -- C  4          +0.3% (  5.1%)     99.3%
 EFFECTIVE MASS      1.1367
 FORCE CONSTANT      1.9613

 VIBRATION         41   41A           ATOM PAIR      ENERGY CONTRIBUTION    RADIAL
 FREQUENCY          3194.98         C  6 -- H 15         +50.2% ( 72.6%)    100.0%
 TRANSITION DIPOLE   0.4771         C  5 -- H 16         +45.5% ( 69.1%)    100.0%
 TRAVEL (Ang.)       0.2129         C  5 -- C  6          +1.1% ( 10.6%)      0.1%
 REDUCED MASS        0.4658         C  1 -- C  6          +0.8% (  9.4%)     99.9%
 EFFECTIVE MASS      1.4642
 FORCE CONSTANT      2.8015

 VIBRATION         42   42A           ATOM PAIR      ENERGY CONTRIBUTION    RADIAL
 FREQUENCY          3215.38         C  5 -- H 16         +48.6% ( 72.1%)     99.9%
 TRANSITION DIPOLE   0.3703         C  6 -- H 15         +44.0% ( 68.6%)     99.9%
 TRAVEL (Ang.)       0.2110         C  5 -- C  6          +3.0% ( 17.9%)    100.0%
 REDUCED MASS        0.4712         C  3 -- C  5          +1.1% ( 11.1%)     98.3%
 EFFECTIVE MASS      1.7371
 FORCE CONSTANT      2.8701

      SYMMETRY NUMBER FOR POINT-GROUP C1  =  1


          SYSTEM IS A GROUND STATE



 InChI=1S/C6H10/c1-2-6-4-3-5-6/h3-4,6H,2,5H2,1H3


          MOLECULE IS NOT LINEAR

          THERE ARE 42 GENUINE VIBRATIONS IN THIS SYSTEM
          THIS THERMODYNAMICS CALCULATION IS LIMITED TO
          MOLECULES WHICH HAVE NO INTERNAL ROTATIONS




                    CALCULATED THERMODYNAMIC PROPERTIES
                                          *
   TEMP. (K)   PARTITION FUNCTION   H.O.F.    ENTHALPY  HEAT CAPACITY ENTROPY
                                   KCAL/MOL   CAL/MOLE    CAL/K/MOL  CAL/K/MOL


 298.00  VIB.     0.1754D+02                  2283.7373    17.6172    13.3562
         ROT.     0.1328D+06                   888.2803     2.9808    26.4225
         INT.     0.2329D+07                  3172.0177    20.5980    39.7786
         TRA.     0.7198D+27                  1480.4672     4.9680    39.1295
         TOT.                       25.736    4652.4848    25.5660    78.9081

 200.00  VIB.     0.5224D+01                   941.7898    10.1539     7.9943
         ROT.     0.7299D+05                   596.1613     2.9808    25.2338
         INT.     0.3813D+06                  1537.9511    13.1347    33.2281
         TRA.     0.3957D+27                   993.6021     4.9680    37.1484
         TOT.                       23.615    2531.5532    18.1027    70.3765

 210.00  VIB.     0.5884D+01                  1046.5161    10.7967     8.5052
         ROT.     0.7854D+05                   625.9693     2.9808    25.3792
         INT.     0.4621D+06                  1672.4855    13.7775    33.8844
         TRA.     0.4258D+27                  1043.2822     4.9680    37.3907
         TOT.                       23.799    2715.7677    18.7455    71.2751

 220.00  VIB.     0.6633D+01                  1157.8291    11.4712     9.0229
         ROT.     0.8421D+05                   655.7774     2.9808    25.5179
         INT.     0.5586D+06                  1813.6065    14.4520    34.5408
         TRA.     0.4566D+27                  1092.9623     4.9680    37.6219
         TOT.                       23.990    2906.5688    19.4200    72.1626

 230.00  VIB.     0.7486D+01                  1276.0425    12.1766     9.5482
         ROT.     0.9002D+05                   685.5855     2.9808    25.6504
         INT.     0.6739D+06                  1961.6280    15.1574    35.1986
         TRA.     0.4880D+27                  1142.6424     4.9680    37.8427
         TOT.                       24.188    3104.2705    20.1254    73.0413

 240.00  VIB.     0.8456D+01                  1401.4580    12.9112    10.0819
         ROT.     0.9595D+05                   715.3935     2.9808    25.7773
         INT.     0.8114D+06                  2116.8515    15.8920    35.8592
         TRA.     0.5202D+27                  1192.3226     4.9680    38.0541
         TOT.                       24.393    3309.1741    20.8601    73.9133

 250.00  VIB.     0.9563D+01                  1534.3578    13.6730    10.6243
         ROT.     0.1020D+06                   745.2016     2.9808    25.8989
         INT.     0.9755D+06                  2279.5594    16.6538    36.5233
         TRA.     0.5531D+27                  1242.0027     4.9680    38.2569
         TOT.                       24.605    3521.5621    21.6218    74.7802

 260.00  VIB.     0.1083D+02                  1675.0001    14.4593    11.1758
         ROT.     0.1082D+06                   775.0097     2.9808    26.0159
         INT.     0.1171D+07                  2450.0098    17.4401    37.1917
         TRA.     0.5866D+27                  1291.6828     4.9680    38.4518
         TOT.                       24.825    3741.6926    22.4081    75.6435

 270.00  VIB.     0.1227D+02                  1823.6153    15.2671    11.7366
         ROT.     0.1145D+06                   804.8177     2.9808    26.1283
         INT.     0.1405D+07                  2628.4330    18.2479    37.8649
         TRA.     0.6208D+27                  1341.3629     4.9680    38.6393
         TOT.                       25.053    3969.7959    23.2159    76.5042

 280.00  VIB.     0.1393D+02                  1980.4034    16.0934    12.3067
         ROT.     0.1209D+06                   834.6258     2.9808    26.2368
         INT.     0.1684D+07                  2815.0292    19.0742    38.5435
         TRA.     0.6556D+27                  1391.0430     4.9680    38.8200
         TOT.                       25.289    4206.0721    24.0422    77.3634

 290.00  VIB.     0.1582D+02                  2145.5335    16.9350    12.8861
         ROT.     0.1275D+06                   864.4339     2.9808    26.3414
         INT.     0.2017D+07                  3009.9673    19.9158    39.2274
         TRA.     0.6910D+27                  1440.7231     4.9680    38.9943
         TOT.                       25.534    4450.6904    24.8838    78.2217

 300.00  VIB.     0.1800D+02                  2319.1433    17.7888    13.4746
         ROT.     0.1341D+06                   894.2419     2.9808    26.4424
         INT.     0.2414D+07                  3213.3852    20.7696    39.9170
         TRA.     0.7270D+27                  1490.4032     4.9680    39.1627
         TOT.                       25.787    4703.7884    25.7376    79.0797

 310.00  VIB.     0.2051D+02                  2501.3398    18.6518    14.0719
         ROT.     0.1409D+06                   924.0500     2.9808    26.5401
         INT.     0.2889D+07                  3425.3898    21.6326    40.6121
         TRA.     0.7637D+27                  1540.0833     4.9680    39.3256
         TOT.                       26.049    4965.4731    26.6006    79.9377

 320.00  VIB.     0.2339D+02                  2692.2006    19.5212    14.6778
         ROT.     0.1477D+06                   953.8580     2.9808    26.6348
         INT.     0.3456D+07                  3646.0586    22.5020    41.3126
         TRA.     0.8009D+27                  1589.7634     4.9680    39.4834
         TOT.                       26.319    5235.8220    27.4700    80.7959

 330.00  VIB.     0.2672D+02                  2891.7754    20.3942    15.2919
         ROT.     0.1547D+06                   983.6661     2.9808    26.7265
         INT.     0.4134D+07                  3875.4415    23.3750    42.0184
         TRA.     0.8388D+27                  1639.4435     4.9680    39.6362
         TOT.                       26.598    5514.8850    28.3430    81.6546

 340.00  VIB.     0.3056D+02                  3100.0879    21.2683    15.9137
         ROT.     0.1618D+06                  1013.4742     2.9808    26.8155
         INT.     0.4945D+07                  4113.5621    24.2491    42.7292
         TRA.     0.8772D+27                  1689.1236     4.9680    39.7845
         TOT.                       26.886    5802.6857    29.2171    82.5137

 350.00  VIB.     0.3500D+02                  3317.1382    22.1414    16.5428
         ROT.     0.1690D+06                  1043.2822     2.9808    26.9019
         INT.     0.5915D+07                  4360.4205    25.1222    43.4447
         TRA.     0.9162D+27                  1738.8037     4.9680    39.9285
         TOT.                       27.183    6099.2242    30.0902    83.3732

 360.00  VIB.     0.4014D+02                  3542.9046    23.0112    17.1787
         ROT.     0.1763D+06                  1073.0903     2.9808    26.9859
         INT.     0.7075D+07                  4615.9949    25.9920    44.1646
         TRA.     0.9557D+27                  1788.4838     4.9680    40.0685
         TOT.                       27.488    6404.4787    30.9600    84.2331

 370.00  VIB.     0.4609D+02                  3777.3460    23.8761    17.8210
         ROT.     0.1837D+06                  1102.8984     2.9808    27.0675
         INT.     0.8465D+07                  4880.2444    26.8569    44.8886
         TRA.     0.9958D+27                  1838.1639     4.9680    40.2046
         TOT.                       27.802    6718.4083    31.8249    85.0932

 380.00  VIB.     0.5298D+02                  4020.4043    24.7343    18.4692
         ROT.     0.1912D+06                  1132.7064     2.9808    27.1470
         INT.     0.1013D+08                  5153.1107    27.7152    45.6162
         TRA.     0.1036D+28                  1887.8440     4.9680    40.3371
         TOT.                       28.124    7040.9548    32.6832    85.9533

 390.00  VIB.     0.6099D+02                  4272.0063    25.5846    19.1227
         ROT.     0.1988D+06                  1162.5145     2.9808    27.2245
         INT.     0.1212D+08                  5434.5207    28.5654    46.3471
         TRA.     0.1078D+28                  1937.5242     4.9680    40.4662
         TOT.                       28.455    7372.0449    33.5334    86.8133

 400.00  VIB.     0.7029D+02                  4532.0656    26.4256    19.7810
         ROT.     0.2065D+06                  1192.3226     2.9808    27.2999
         INT.     0.1451D+08                  5724.3882    29.4065    47.0810
         TRA.     0.1119D+28                  1987.2043     4.9680    40.5919
         TOT.                       28.795    7711.5924    34.3745    87.6729

   *: NOTE: HEATS OF FORMATION ARE RELATIVE TO THE
            ELEMENTS IN THEIR STANDARD STATE AT 298K
              (=  Standard Enthalpy of Formation).

            Hvib:  Zero-point energy is not included.
                   frequencies of less than zero cm-1 are not included.
            Hrot = (3/2)RT
            Htra = (3/2)RT + pV = (5/2)RT

            Heat capacity is Cp, not Cv

          For more information, see: HTTP://OpenMOPAC.net/Manual/thermochemistry.html


           FORCE CONSTANT IN CARTESIAN COORDINATES (Millidynes/A)

    ATOM   CHEMICAL       X               Y               Z
   NUMBER   SYMBOL  FORCE CONSTANT  FORCE CONSTANT  FORCE CONSTANT

      1       C        9.055185        6.925396        8.389954
      2       C        8.407215        8.279563        8.454851
      3       C        7.401547        8.282149        8.314259
      4       C        8.459158        8.193378        8.240305
      5       C        4.871038       13.861955        7.729452
      6       C        6.997143       11.817982        7.803585
      7       H        1.267409        2.273198        2.684598
      8       H        1.116282        4.180793        1.073050
      9       H        1.197948        2.662252        2.531186
     10       H        2.464621        3.442834        0.648044
     11       H        2.801253        0.789781        2.984898
     12       H        5.397626        0.668675        0.726033
     13       H        1.120947        4.486964        1.143608
     14       H        1.124972        2.872724        2.778634
     15       H        2.253673        1.859481        2.476536
     16       H        0.446980        3.567444        2.572433

 **********************
 *                    *
 * JOB ENDED NORMALLY *
 *                    *
 **********************



 TOTAL JOB TIME:             1.34 SECONDS

 == MOPAC DONE ==
