 *******************************************************************************
 **                                                                           **
 **                              MOPAC v23.1.2                                **
 **                                                                           **
 *******************************************************************************
 **          Digital Object Identifier (DOI): 10.5281/zenodo.6511958          **
 **    Visit the DOI location for information on how to cite this program.    **
 *******************************************************************************

                              PM3 CALCULATION RESULTS

 *******************************************************************************
 *  CALCULATION DONE: (MAX THREADS = 1)              Tue Jun  3 16:28:11 2025  *
 *  PM3        - The PM3 Hamiltonian to be used
 *  PRECISE    - TIGHTER CRITERIA TO BE USED
 *  NOSYM      - POINT-GROUP SYMMETRY SET TO C1
 *  THREADS=1  - MULTI-THREADING NOT USED
 *  T=         - A TIME OF 172800.0 SECONDS REQUESTED
 *  DUMP=N     - RESTART FILE WRITTEN EVERY 7200.0 SECONDS REQUESTED
 *******************************************************************************
pm3  precise nosym THREADS=1
 InChI=1S/C7H10/c1-7-5-3-2-4-6-7/h3-7H,2H2,1H3

   ATOM   CHEMICAL          X               Y               Z
  NUMBER   SYMBOL      (ANGSTROMS)     (ANGSTROMS)     (ANGSTROMS)

     1       C          0.93700000  *  -0.05700000  *  -0.60770000  *
     2       C         -1.76180000  *   0.04400000  *   0.49090000  *
     3       C          1.89190000  *   0.06030000  *   0.58070000  *
     4       C          0.08970000  *  -1.30340000  *  -0.47500000  *
     5       C          0.08450000  *   1.18820000  *  -0.71670000  *
     6       C         -1.16040000  *   1.23170000  *  -0.21670000  *
     7       C         -1.15520000  *  -1.25510000  *   0.02460000  *
     8       H          1.54030000  *  -0.14590000  *  -1.53680000  *
     9       H         -1.59060000  *   0.15020000  *   1.58270000  *
    10       H         -2.85640000  *   0.02370000  *   0.30570000  *
    11       H          2.54420000  *  -0.83750000  *   0.63630000  *
    12       H          1.32430000  *   0.15140000  *   1.53220000  *
    13       H          2.54050000  *   0.95460000  *   0.46250000  *
    14       H          0.50520000  *   2.07800000  *  -1.17550000  *
    15       H          0.51430000  *  -2.26310000  *  -0.75440000  *
    16       H         -1.72820000  *   2.15510000  *  -0.27640000  *
    17       H         -1.71920000  *  -2.17510000  *   0.14370000  *



          CARTESIAN COORDINATES 

    NO.       ATOM           X           Y           Z

     1         C          0.9370     -0.0570     -0.6077
     2         C         -1.7618      0.0440      0.4909
     3         C          1.8919      0.0603      0.5807
     4         C          0.0897     -1.3034     -0.4750
     5         C          0.0845      1.1882     -0.7167
     6         C         -1.1604      1.2317     -0.2167
     7         C         -1.1552     -1.2551      0.0246
     8         H          1.5403     -0.1459     -1.5368
     9         H         -1.5906      0.1502      1.5827
    10         H         -2.8564      0.0237      0.3057
    11         H          2.5442     -0.8375      0.6363
    12         H          1.3243      0.1514      1.5322
    13         H          2.5405      0.9546      0.4625
    14         H          0.5052      2.0780     -1.1755
    15         H          0.5143     -2.2631     -0.7544
    16         H         -1.7282      2.1551     -0.2764
    17         H         -1.7192     -2.1751      0.1437

  H: (PM3): J. J. P. STEWART, J. COMP. CHEM. 10, 209 (1989).
  C: (PM3): J. J. P. STEWART, J. COMP. CHEM. 10, 209 (1989).

           Empirical Formula: C7 H10  =    17 atoms



      MOLECULAR POINT GROUP   :   C1  


      RHF CALCULATION, NO. OF DOUBLY OCCUPIED LEVELS = 19


          Geometry optimization using EF

          DIAGONAL MATRIX USED AS START HESSIAN

 CYCLE:     1 TIME:   0.008 TIME LEFT:  2.00D  GRAD.:    61.425 HEAT:  17.87027
 CYCLE:     2 TIME:   0.008 TIME LEFT:  2.00D  GRAD.:    41.423 HEAT:  16.90052
 CYCLE:     3 TIME:   0.004 TIME LEFT:  2.00D  GRAD.:    42.835 HEAT:  16.58857
 CYCLE:     4 TIME:   0.008 TIME LEFT:  2.00D  GRAD.:    36.685 HEAT:  16.51793
 CYCLE:     5 TIME:   0.004 TIME LEFT:  2.00D  GRAD.:    16.576 HEAT:  16.17063
 CYCLE:     6 TIME:   0.008 TIME LEFT:  2.00D  GRAD.:    11.717 HEAT:  16.08108
 CYCLE:     7 TIME:   0.008 TIME LEFT:  2.00D  GRAD.:    11.171 HEAT:  16.01844
 CYCLE:     8 TIME:   0.004 TIME LEFT:  2.00D  GRAD.:    13.800 HEAT:  15.97330
 CYCLE:     9 TIME:   0.004 TIME LEFT:  2.00D  GRAD.:    10.243 HEAT:  15.91131
 CYCLE:    10 TIME:   0.008 TIME LEFT:  2.00D  GRAD.:     8.847 HEAT:  15.89085
 CYCLE:    11 TIME:   0.008 TIME LEFT:  2.00D  GRAD.:     7.280 HEAT:  15.88051
 CYCLE:    12 TIME:   0.004 TIME LEFT:  2.00D  GRAD.:     4.615 HEAT:  15.86343
 CYCLE:    13 TIME:   0.004 TIME LEFT:  2.00D  GRAD.:     4.462 HEAT:  15.85255
 CYCLE:    14 TIME:   0.004 TIME LEFT:  2.00D  GRAD.:     5.148 HEAT:  15.84093
 CYCLE:    15 TIME:   0.004 TIME LEFT:  2.00D  GRAD.:     5.802 HEAT:  15.83133
 CYCLE:    16 TIME:   0.004 TIME LEFT:  2.00D  GRAD.:     3.730 HEAT:  15.81466
 CYCLE:    17 TIME:   0.008 TIME LEFT:  2.00D  GRAD.:     6.478 HEAT:  15.79962
 CYCLE:    18 TIME:   0.004 TIME LEFT:  2.00D  GRAD.:     7.011 HEAT:  15.77338
 CYCLE:    19 TIME:   0.004 TIME LEFT:  2.00D  GRAD.:     6.875 HEAT:  15.71421
 CYCLE:    20 TIME:   0.004 TIME LEFT:  2.00D  GRAD.:     5.680 HEAT:  15.64380
 CYCLE:    21 TIME:   0.004 TIME LEFT:  2.00D  GRAD.:     8.997 HEAT:  15.55198
 CYCLE:    22 TIME:   0.004 TIME LEFT:  2.00D  GRAD.:    11.188 HEAT:  15.46885
 CYCLE:    23 TIME:   0.008 TIME LEFT:  2.00D  GRAD.:    14.176 HEAT:  15.40811
 CYCLE:    24 TIME:   0.004 TIME LEFT:  2.00D  GRAD.:     8.892 HEAT:  15.30945
 CYCLE:    25 TIME:   0.004 TIME LEFT:  2.00D  GRAD.:    10.976 HEAT:  15.23440
 CYCLE:    26 TIME:   0.004 TIME LEFT:  2.00D  GRAD.:     7.125 HEAT:  15.15840
 CYCLE:    27 TIME:   0.004 TIME LEFT:  2.00D  GRAD.:     7.579 HEAT:  15.09316
 CYCLE:    28 TIME:   0.008 TIME LEFT:  2.00D  GRAD.:     7.997 HEAT:  15.04130
 CYCLE:    29 TIME:   0.004 TIME LEFT:  2.00D  GRAD.:     6.619 HEAT:  14.97286
 CYCLE:    30 TIME:   0.004 TIME LEFT:  2.00D  GRAD.:     7.789 HEAT:  14.86794
 CYCLE:    31 TIME:   0.004 TIME LEFT:  2.00D  GRAD.:     7.773 HEAT:  14.80150
 CYCLE:    32 TIME:   0.004 TIME LEFT:  2.00D  GRAD.:     6.949 HEAT:  14.74806
 CYCLE:    33 TIME:   0.008 TIME LEFT:  2.00D  GRAD.:     5.871 HEAT:  14.69990
 CYCLE:    34 TIME:   0.004 TIME LEFT:  2.00D  GRAD.:     5.703 HEAT:  14.64964
 CYCLE:    35 TIME:   0.004 TIME LEFT:  2.00D  GRAD.:     4.045 HEAT:  14.62420
 CYCLE:    36 TIME:   0.004 TIME LEFT:  2.00D  GRAD.:     4.671 HEAT:  14.59673
 CYCLE:    37 TIME:   0.004 TIME LEFT:  2.00D  GRAD.:     3.607 HEAT:  14.57106
 CYCLE:    38 TIME:   0.004 TIME LEFT:  2.00D  GRAD.:     2.771 HEAT:  14.55361
 CYCLE:    39 TIME:   0.008 TIME LEFT:  2.00D  GRAD.:     2.539 HEAT:  14.54207
 CYCLE:    40 TIME:   0.004 TIME LEFT:  2.00D  GRAD.:     2.156 HEAT:  14.53198
 CYCLE:    41 TIME:   0.004 TIME LEFT:  2.00D  GRAD.:     1.573 HEAT:  14.52660
 CYCLE:    42 TIME:   0.004 TIME LEFT:  2.00D  GRAD.:     0.921 HEAT:  14.52453
 CYCLE:    43 TIME:   0.004 TIME LEFT:  2.00D  GRAD.:     1.156 HEAT:  14.52305
 CYCLE:    44 TIME:   0.004 TIME LEFT:  2.00D  GRAD.:     0.994 HEAT:  14.52187
 CYCLE:    45 TIME:   0.004 TIME LEFT:  2.00D  GRAD.:     0.822 HEAT:  14.52063
 CYCLE:    46 TIME:   0.004 TIME LEFT:  2.00D  GRAD.:     0.645 HEAT:  14.52009
 CYCLE:    47 TIME:   0.008 TIME LEFT:  2.00D  GRAD.:     0.661 HEAT:  14.51917
 CYCLE:    48 TIME:   0.004 TIME LEFT:  2.00D  GRAD.:     0.633 HEAT:  14.51865
 CYCLE:    49 TIME:   0.004 TIME LEFT:  2.00D  GRAD.:     1.051 HEAT:  14.51598
 CYCLE:    50 TIME:   0.004 TIME LEFT:  2.00D  GRAD.:     0.761 HEAT:  14.51506
 CYCLE:    51 TIME:   0.004 TIME LEFT:  2.00D  GRAD.:     0.491 HEAT:  14.51419
 CYCLE:    52 TIME:   0.004 TIME LEFT:  2.00D  GRAD.:     0.220 HEAT:  14.51398
 CYCLE:    53 TIME:   0.004 TIME LEFT:  2.00D  GRAD.:     0.152 HEAT:  14.51390
 CYCLE:    54 TIME:   0.004 TIME LEFT:  2.00D  GRAD.:     0.115 HEAT:  14.51385
 CYCLE:    55 TIME:   0.008 TIME LEFT:  2.00D  GRAD.:     0.158 HEAT:  14.51386
 CYCLE:    56 TIME:   0.004 TIME LEFT:  2.00D  GRAD.:     0.067 HEAT:  14.51383
 CYCLE:    57 TIME:   0.004 TIME LEFT:  2.00D  GRAD.:     0.050 HEAT:  14.51382

     GRADIENT =  0.04963 IS LESS THAN CUTOFF =  0.05000



 -------------------------------------------------------------------------------
 pm3  precise nosym THREADS=1
 InChI=1S/C7H10/c1-7-5-3-2-4-6-7/h3-7H,2H2,1H3



     GEOMETRY OPTIMISED USING EIGENVECTOR FOLLOWING (EF).     
     SCF FIELD WAS ACHIEVED                                   


                              PM3 CALCULATION
                                                       MOPAC v23.1.2 MacOS
                                                       Tue Jun  3 16:28:11 2025




          FINAL HEAT OF FORMATION =         14.51382 KCAL/MOL =      60.72584 KJ/MOL


          COSMO AREA              =        141.48 SQUARE ANGSTROMS
          COSMO VOLUME            =        134.53 CUBIC ANGSTROMS

          GRADIENT NORM           =          0.04963          =       0.01204 PER ATOM
          IONIZATION POTENTIAL    =          9.299146 EV
          HOMO LUMO ENERGIES (EV) =         -9.299  1.073
          NO. OF FILLED LEVELS    =         19
          MOLECULAR WEIGHT        =         94.1560         POINT GROUP:  C1  

          MOLECULAR DIMENSIONS (Angstroms)

            Atom       Atom       Distance
            H    11    H    10     5.68650
            H    17    H    14     4.75063
            H     9    H     8     3.05263


          SCF CALCULATIONS        =         64

          WALL-CLOCK TIME         =      0.289 SECONDS
          COMPUTATION TIME        =      0.186 SECONDS




   ATOM   CHEMICAL          X               Y               Z
  NUMBER   SYMBOL      (ANGSTROMS)     (ANGSTROMS)     (ANGSTROMS)

     1       C          0.88874008  *  -0.05083910  *  -0.54444534  *
     2       C         -1.99301457  *   0.01048227  *   0.14982948  *
     3       C          2.16262040  *   0.03191678  *   0.28623833  *
     4       C          0.10748293  *  -1.26782734  *  -0.17028708  *
     5       C          0.10226543  *   1.21211317  *  -0.41083453  *
     6       C         -1.19465841  *   1.23702225  *  -0.10503152  *
     7       C         -1.18935361  *  -1.23877992  *   0.13548947  *
     8       H          1.16381466  *  -0.15489114  *  -1.62490240  *
     9       H         -2.50525955  *   0.10452286  *   1.12908425  *
    10       H         -2.79739610  *  -0.06516335  *  -0.61067540  *
    11       H          2.77917492  *  -0.86757162  *   0.16020494  *
    12       H          1.94042929  *   0.13176355  *   1.35629692  *
    13       H          2.77313491  *   0.89625374  *  -0.00579324  *
    14       H          0.65847132  *   2.14050746  *  -0.58532023  *
    15       H          0.66780452  *  -2.21003444  *  -0.16323641  *
    16       H         -1.73574225  *   2.18691608  *  -0.02934110  *
    17       H         -1.72636393  *  -2.15854495  *   0.39317717  *

                             CARTESIAN COORDINATES

   1    C        0.888740082    -0.050839104    -0.544445339
   2    C       -1.993014565     0.010482273     0.149829479
   3    C        2.162620397     0.031916780     0.286238325
   4    C        0.107482928    -1.267827337    -0.170287075
   5    C        0.102265432     1.212113171    -0.410834527
   6    C       -1.194658410     1.237022252    -0.105031520
   7    C       -1.189353612    -1.238779920     0.135489468
   8    H        1.163814664    -0.154891138    -1.624902400
   9    H       -2.505259545     0.104522861     1.129084252
  10    H       -2.797396104    -0.065163353    -0.610675403
  11    H        2.779174921    -0.867571623     0.160204936
  12    H        1.940429286     0.131763547     1.356296924
  13    H        2.773134914     0.896253745    -0.005793239
  14    H        0.658471322     2.140507457    -0.585320230
  15    H        0.667804518    -2.210034436    -0.163236406
  16    H       -1.735742250     2.186916084    -0.029341103
  17    H       -1.726363926    -2.158544947     0.393177167


           Empirical Formula: C7 H10  =    17 atoms



      MOLECULAR POINT GROUP   :   C1  


                  EIGENVALUES  
 -40.09757 -32.84430 -29.87254 -25.90036 -21.55285 -20.75935 -17.64813 -16.18795
 -15.88716 -15.27643 -14.53543 -14.36048 -13.65458 -13.12612 -12.93861 -12.08316
 -11.50467 -10.35975  -9.29915   1.07280   1.17803   3.36884   3.46790   3.51129
   3.74656   3.78707   3.96518   4.15658   4.30769   4.41533   4.50407   4.73155
   4.82123   4.89524   5.37033   5.39701   5.98064   6.21357


              NET ATOMIC CHARGES AND DIPOLE CONTRIBUTIONS

  ATOM NO.   TYPE          CHARGE      No. of ELECS.   s-Pop       p-Pop       
    1          C          -0.000994        4.0010     1.14755     2.85344
    2          C          -0.021368        4.0214     1.13127     2.89010
    3          C          -0.102878        4.1029     1.14019     2.96269
    4          C          -0.145276        4.1453     1.19563     2.94965
    5          C          -0.145248        4.1452     1.19563     2.94962
    6          C          -0.144899        4.1449     1.19285     2.95205
    7          C          -0.144881        4.1449     1.19284     2.95204
    8          H           0.069596        0.9304     0.93040
    9          H           0.059559        0.9404     0.94044
   10          H           0.060901        0.9391     0.93910
   11          H           0.038387        0.9616     0.96161
   12          H           0.043859        0.9561     0.95614
   13          H           0.038440        0.9616     0.96156
   14          H           0.099982        0.9000     0.90002
   15          H           0.099996        0.9000     0.90000
   16          H           0.097417        0.9026     0.90258
   17          H           0.097407        0.9026     0.90259
 DIPOLE           X         Y         Z       TOTAL
 POINT-CHG.    -0.051    -0.004    -0.044     0.068
 HYBRID        -0.009     0.003     0.034     0.035
 SUM           -0.060    -0.001    -0.010     0.061


          ATOMIC ORBITAL ELECTRON POPULATIONS

     Atom    s        px        py        pz   
    1  C   1.14755   0.94418   0.92108   0.98818
    2  C   1.13127   0.96486   0.92140   1.00383
    3  C   1.14019   0.95833   1.00683   0.99753
    4  C   1.19563   0.96021   0.97927   1.01016
    5  C   1.19563   0.96009   0.97782   1.01170
    6  C   1.19285   0.96213   0.97947   1.01046
    7  C   1.19284   0.96203   0.97876   1.01125
    8  H   0.93040
    9  H   0.94044
   10  H   0.93910
   11  H   0.96161
   12  H   0.95614
   13  H   0.96156
   14  H   0.90002
   15  H   0.90000
   16  H   0.90258
   17  H   0.90259
 *******************************************************************************
 **                                                                           **
 **                              MOPAC v23.1.2                                **
 **                                                                           **
 *******************************************************************************
 **          Digital Object Identifier (DOI): 10.5281/zenodo.6511958          **
 **    Visit the DOI location for information on how to cite this program.    **
 *******************************************************************************

                              PM3 CALCULATION RESULTS

 *******************************************************************************
 *  CALCULATION DONE: (MAX THREADS = 1)              Tue Jun  3 16:28:11 2025  *
 *  PM3        - The PM3 Hamiltonian to be used
 *  OLDGEO     - PREVIOUS GEOMETRY TO BE USED
 *  PRECISE    - TIGHTER CRITERIA TO BE USED
 *  NOSYM      - POINT-GROUP SYMMETRY SET TO C1
 *  THREADS=1  - MULTI-THREADING NOT USED
 *  T=         - A TIME OF 172800.0 SECONDS REQUESTED
 *  DUMP=N     - RESTART FILE WRITTEN EVERY 7200.0 SECONDS REQUESTED
 *  THERMO     - THERMODYNAMIC QUANTITIES TO BE CALCULATED
 *******************************************************************************
oldgeo thermo nosym precise THREADS=1  pm3
 InChI=1S/C7H10/c1-7-5-3-2-4-6-7/h3-7H,2H2,1H3

   ATOM   CHEMICAL          X               Y               Z
  NUMBER   SYMBOL      (ANGSTROMS)     (ANGSTROMS)     (ANGSTROMS)

     1       C          0.88874008  *  -0.05083910  *  -0.54444534  *
     2       C         -1.99301457  *   0.01048227  *   0.14982948  *
     3       C          2.16262040  *   0.03191678  *   0.28623833  *
     4       C          0.10748293  *  -1.26782734  *  -0.17028708  *
     5       C          0.10226543  *   1.21211317  *  -0.41083453  *
     6       C         -1.19465841  *   1.23702225  *  -0.10503152  *
     7       C         -1.18935361  *  -1.23877992  *   0.13548947  *
     8       H          1.16381466  *  -0.15489114  *  -1.62490240  *
     9       H         -2.50525955  *   0.10452286  *   1.12908425  *
    10       H         -2.79739610  *  -0.06516335  *  -0.61067540  *
    11       H          2.77917492  *  -0.86757162  *   0.16020494  *
    12       H          1.94042929  *   0.13176355  *   1.35629692  *
    13       H          2.77313491  *   0.89625374  *  -0.00579324  *
    14       H          0.65847132  *   2.14050746  *  -0.58532023  *
    15       H          0.66780452  *  -2.21003444  *  -0.16323641  *
    16       H         -1.73574225  *   2.18691608  *  -0.02934110  *
    17       H         -1.72636393  *  -2.15854495  *   0.39317717  *



          CARTESIAN COORDINATES 

    NO.       ATOM           X           Y           Z

     1         C          0.8887     -0.0508     -0.5444
     2         C         -1.9930      0.0105      0.1498
     3         C          2.1626      0.0319      0.2862
     4         C          0.1075     -1.2678     -0.1703
     5         C          0.1023      1.2121     -0.4108
     6         C         -1.1947      1.2370     -0.1050
     7         C         -1.1894     -1.2388      0.1355
     8         H          1.1638     -0.1549     -1.6249
     9         H         -2.5053      0.1045      1.1291
    10         H         -2.7974     -0.0652     -0.6107
    11         H          2.7792     -0.8676      0.1602
    12         H          1.9404      0.1318      1.3563
    13         H          2.7731      0.8963     -0.0058
    14         H          0.6585      2.1405     -0.5853
    15         H          0.6678     -2.2100     -0.1632
    16         H         -1.7357      2.1869     -0.0293
    17         H         -1.7264     -2.1585      0.3932

  H: (PM3): J. J. P. STEWART, J. COMP. CHEM. 10, 209 (1989).
  C: (PM3): J. J. P. STEWART, J. COMP. CHEM. 10, 209 (1989).

           Empirical Formula: C7 H10  =    17 atoms



      MOLECULAR POINT GROUP   :   C1  


      RHF CALCULATION, NO. OF DOUBLY OCCUPIED LEVELS = 19



          HEAT OF FORMATION =      14.513825 KCALS/MOLE


          CARTESIAN COORDINATE DERIVATIVES

   NUMBER  ATOM         X            Y            Z

     1       C      0.004609     0.002405    -0.001332
     2       C      0.006259     0.005757     0.001468
     3       C      0.002456    -0.008814    -0.007557
     4       C      0.003361    -0.002898     0.003050
     5       C      0.007298    -0.002371    -0.000795
     6       C      0.003813    -0.002369     0.001573
     7       C     -0.000190     0.007442     0.009274
     8       H     -0.018163     0.006785     0.000359
     9       H     -0.010335     0.000703    -0.001441
    10       H      0.004883    -0.008215    -0.001719
    11       H     -0.003442    -0.003720     0.001846
    12       H      0.005329    -0.003028    -0.017747
    13       H     -0.008422     0.004792    -0.001364
    14       H      0.007622    -0.002038    -0.000429
    15       H     -0.016948     0.004059    -0.001144
    16       H      0.010285    -0.005152     0.009515
    17       H      0.001584     0.006663     0.006442



          GRADIENT NORM =   0.04725

          MOLECULAR WEIGHT =   94.16



          ROTATIONAL CONSTANTS IN CM(-1)

          A =    0.15617590   B =    0.08392383   C =    0.05947465



           PRINCIPAL MOMENTS OF INERTIA IN UNITS OF 10**(-40)*GRAM-CM**2

          A =      179.2386   B =      333.5495   C =      470.6669


          ORIENTATION OF MOLECULE IN FORCE CALCULATION

    NO.       ATOM         X         Y         Z

     1          C      -1.0983   -0.2103   -0.0000
     2          C       1.8666   -0.2103   -0.0000
     3          C      -2.1402    0.9006   -0.0000
     4          C      -0.2764   -0.1462   -1.2458
     5          C      -0.2764   -0.1473    1.2458
     6          C       1.0563   -0.1540    1.2438
     7          C       1.0563   -0.1525   -1.2437
     8          H      -1.6208   -1.2006   -0.0003
     9          H       2.5957    0.6255    0.0005
    10          H       2.4688   -1.1422   -0.0006
    11          H      -2.7876    0.8391   -0.8844
    12          H      -1.6716    1.8930   -0.0031
    13          H      -2.7841    0.8428    0.8872
    14          H      -0.8387   -0.0982    2.1856
    15          H      -0.8389   -0.0961   -2.1854
    16          H       1.6196   -0.1188    2.1831
    17          H       1.6195   -0.1158   -2.1829


    FIRST DERIVATIVES WILL BE USED IN THE CALCULATION OF SECOND DERIVATIVES

          ESTIMATED TIME TO COMPLETE CALCULATION =        0.80 SECONDS

    FOR POINT-GROUP C1   THERE ARE   1 UNIQUE SYMMETRY FUNCTIONS.

 STEP:   1 TIME =     0.01 SECS, INTEGRAL =      0.01 TIME LEFT: 172799.98
 STEP:   2 TIME =     0.02 SECS, INTEGRAL =      0.03 TIME LEFT: 172799.97
 STEP:   3 TIME =     0.01 SECS, INTEGRAL =      0.04 TIME LEFT: 172799.96
 STEP:   4 TIME =     0.01 SECS, INTEGRAL =      0.05 TIME LEFT: 172799.95
 STEP:   5 TIME =     0.02 SECS, INTEGRAL =      0.07 TIME LEFT: 172799.93
 STEP:   6 TIME =     0.01 SECS, INTEGRAL =      0.08 TIME LEFT: 172799.92
 STEP:   7 TIME =     0.01 SECS, INTEGRAL =      0.09 TIME LEFT: 172799.91
 STEP:   8 TIME =     0.01 SECS, INTEGRAL =      0.10 TIME LEFT: 172799.89
 STEP:   9 TIME =     0.02 SECS, INTEGRAL =      0.12 TIME LEFT: 172799.88
 STEP:  10 TIME =     0.01 SECS, INTEGRAL =      0.13 TIME LEFT: 172799.87
 STEP:  11 TIME =     0.02 SECS, INTEGRAL =      0.14 TIME LEFT: 172799.85
 STEP:  12 TIME =     0.02 SECS, INTEGRAL =      0.16 TIME LEFT: 172799.84
 STEP:  13 TIME =     0.02 SECS, INTEGRAL =      0.18 TIME LEFT: 172799.82
 STEP:  14 TIME =     0.02 SECS, INTEGRAL =      0.19 TIME LEFT: 172799.80
 STEP:  15 TIME =     0.01 SECS, INTEGRAL =      0.20 TIME LEFT: 172799.79
 STEP:  16 TIME =     0.01 SECS, INTEGRAL =      0.21 TIME LEFT: 172799.78
 STEP:  17 TIME =     0.02 SECS, INTEGRAL =      0.23 TIME LEFT: 172799.77
 STEP:  18 TIME =     0.02 SECS, INTEGRAL =      0.25 TIME LEFT: 172799.75
 STEP:  19 TIME =     0.02 SECS, INTEGRAL =      0.27 TIME LEFT: 172799.72
 STEP:  20 TIME =     0.03 SECS, INTEGRAL =      0.30 TIME LEFT: 172799.70
 STEP:  21 TIME =     0.02 SECS, INTEGRAL =      0.32 TIME LEFT: 172799.68
 STEP:  22 TIME =     0.03 SECS, INTEGRAL =      0.35 TIME LEFT: 172799.65
 STEP:  23 TIME =     0.02 SECS, INTEGRAL =      0.37 TIME LEFT: 172799.62
 STEP:  24 TIME =     0.02 SECS, INTEGRAL =      0.39 TIME LEFT: 172799.60
 STEP:  25 TIME =     0.02 SECS, INTEGRAL =      0.41 TIME LEFT: 172799.58
 STEP:  26 TIME =     0.02 SECS, INTEGRAL =      0.43 TIME LEFT: 172799.56
 STEP:  27 TIME =     0.02 SECS, INTEGRAL =      0.45 TIME LEFT: 172799.54
 STEP:  28 TIME =     0.02 SECS, INTEGRAL =      0.47 TIME LEFT: 172799.53
 STEP:  29 TIME =     0.02 SECS, INTEGRAL =      0.48 TIME LEFT: 172799.51
 STEP:  30 TIME =     0.02 SECS, INTEGRAL =      0.50 TIME LEFT: 172799.49
 STEP:  31 TIME =     0.01 SECS, INTEGRAL =      0.52 TIME LEFT: 172799.48
 STEP:  32 TIME =     0.02 SECS, INTEGRAL =      0.53 TIME LEFT: 172799.46
 STEP:  33 TIME =     0.01 SECS, INTEGRAL =      0.54 TIME LEFT: 172799.45
 STEP:  34 TIME =     0.01 SECS, INTEGRAL =      0.55 TIME LEFT: 172799.44
 STEP:  35 TIME =     0.01 SECS, INTEGRAL =      0.57 TIME LEFT: 172799.43
 STEP:  36 TIME =     0.01 SECS, INTEGRAL =      0.58 TIME LEFT: 172799.42
 STEP:  37 TIME =     0.01 SECS, INTEGRAL =      0.59 TIME LEFT: 172799.41
 STEP:  38 TIME =     0.02 SECS, INTEGRAL =      0.61 TIME LEFT: 172799.39
 STEP:  39 TIME =     0.02 SECS, INTEGRAL =      0.62 TIME LEFT: 172799.38
 STEP:  40 TIME =     0.01 SECS, INTEGRAL =      0.63 TIME LEFT: 172799.36
 STEP:  41 TIME =     0.02 SECS, INTEGRAL =      0.65 TIME LEFT: 172799.35
 STEP:  42 TIME =     0.01 SECS, INTEGRAL =      0.66 TIME LEFT: 172799.34
 STEP:  43 TIME =     0.01 SECS, INTEGRAL =      0.67 TIME LEFT: 172799.32
 STEP:  44 TIME =     0.02 SECS, INTEGRAL =      0.69 TIME LEFT: 172799.31
 STEP:  45 TIME =     0.01 SECS, INTEGRAL =      0.70 TIME LEFT: 172799.30
 STEP:  46 TIME =     0.01 SECS, INTEGRAL =      0.71 TIME LEFT: 172799.29
 STEP:  47 TIME =     0.02 SECS, INTEGRAL =      0.73 TIME LEFT: 172799.27
 STEP:  48 TIME =     0.02 SECS, INTEGRAL =      0.74 TIME LEFT: 172799.25
 STEP:  49 TIME =     0.01 SECS, INTEGRAL =      0.75 TIME LEFT: 172799.24
 STEP:  50 TIME =     0.02 SECS, INTEGRAL =      0.77 TIME LEFT: 172799.23
 STEP:  51 TIME =     0.01 SECS, INTEGRAL =      0.78 TIME LEFT: 172799.21

(To convert to Hartree/Bohr^2, multiply by (10^(-21) x N x a0^2)/(4.184 x 627.51) =  0.0642)


           FORCE MATRIX IN MILLIDYNES/ANGSTROM


                  C  1       C  2       C  3       C  4       C  5       C  6
 ------------------------------------------------------------------------------
     C    1  15.079312
     C    2   0.203463  15.142619
     C    3   4.072205   0.014816  14.321317
     C    4   4.750779   0.846890   0.708972  18.295977
     C    5   4.750385   0.846975   0.708102   0.713173  18.295155
     C    6   0.813870   5.037165   0.043338   0.055880  10.745082  18.281002
     C    7   0.813984   5.037078   0.043350  10.745414   0.055906   0.740793
     H    8   4.122962   0.013681   0.434321   0.394624   0.394531   0.034606
     H    9   0.014980   4.400722   0.002021   0.039505   0.039495   0.421789
     H   10   0.014172   4.380329   0.003382   0.035961   0.035970   0.421174
     H   11   0.455923   0.001806   4.737657   0.032539   0.050710   0.007835
     H   12   0.464844   0.001212   4.756272   0.016191   0.015858   0.002639
     H   13   0.456033   0.001802   4.737836   0.050697   0.032775   0.002578
     H   14   0.430659   0.127646   0.028240   0.044150   4.806268   0.444335
     H   15   0.430666   0.127622   0.028339   4.805838   0.044152   0.003405
     H   16   0.124520   0.425588   0.017253   0.004042   0.444645   4.820927
     H   17   0.124491   0.425585   0.017251   0.444650   0.004042   0.046175


                  C  7       H  8       H  9       H 10       H 11       H 12
 ------------------------------------------------------------------------------
     C    7  18.281654
     H    8   0.034609   4.573171
     H    9   0.421792   0.002662   4.983371
     H   10   0.421149   0.002463   0.565256   4.966215
     H   11   0.002565   0.027518   0.000298   0.000631   5.477000
     H   12   0.002664   0.046792   0.000478   0.000474   0.573333   5.489898
     H   13   0.007832   0.027260   0.000297   0.000633   0.568016   0.573082
     H   14   0.003403   0.023108   0.016093   0.017230   0.001944   0.002615
     H   15   0.444349   0.023081   0.016086   0.017226   0.022724   0.002637
     H   16   0.046175   0.016291   0.030638   0.024463   0.002872   0.000636
     H   17   4.821486   0.016283   0.030656   0.024465   0.000740   0.000641


                  H 13       H 14       H 15       H 16       H 17
 ------------------------------------------------------------------
     H   13   5.477139
     H   14   0.022885   5.186284
     H   15   0.001947   0.006519   5.185890
     H   16   0.000747   0.071334   0.000923   5.197631
     H   17   0.002874   0.000923   0.071297   0.006798   5.198171


          HEAT OF FORMATION =      14.513825 KCALS/MOLE

          ZERO POINT ENERGY      93.027 KCAL/MOL


           NORMAL COORDINATE ANALYSIS (Total motion = 1 Angstrom)


   Root No.       1         2         3         4         5         6         7         8

                 1 A       2 A       3 A       4 A       5 A       6 A       7 A       8 A   

                  53.0     172.0     268.1     300.3     434.1     483.5     553.0     590.7
  
           1   -0.0087   -0.0000   -0.0041   -0.0000    0.0000   -0.0398    0.0347    0.0000
           2   -0.0086   -0.0000   -0.0390    0.0000   -0.0000    0.0204    0.0459    0.0000
           3   -0.0000   -0.0014   -0.0000   -0.0300   -0.0236   -0.0000    0.0000   -0.0434
           4   -0.0047   -0.0000   -0.0121    0.0000   -0.0000    0.0525   -0.0310   -0.0000
           5    0.0553   -0.0000   -0.0206   -0.0000   -0.0000   -0.0032    0.0060   -0.0000
           6    0.0000   -0.0029   -0.0000    0.0101    0.0094    0.0000    0.0000    0.0453
           7    0.0389    0.0000    0.0398   -0.0000    0.0000   -0.0508   -0.0100   -0.0000
           8    0.0365   -0.0000    0.0042   -0.0000   -0.0000    0.0271    0.0032    0.0000
           9    0.0000    0.0122    0.0000    0.0532    0.0404    0.0000    0.0000   -0.0143
          10   -0.0078   -0.0005   -0.0073    0.0145    0.0081    0.0093    0.0047   -0.0741
          11   -0.0395   -0.0070   -0.0175    0.0175   -0.0502   -0.0300   -0.0188    0.0083
          12   -0.0008   -0.0021   -0.0017   -0.0207   -0.0230    0.0305   -0.0258   -0.0682
          13   -0.0078    0.0005   -0.0073   -0.0145   -0.0081    0.0093    0.0047    0.0741
          14   -0.0395    0.0070   -0.0175   -0.0175    0.0502   -0.0299   -0.0188   -0.0083
          15    0.0008   -0.0021    0.0017   -0.0207   -0.0229   -0.0306    0.0258   -0.0681
          16   -0.0078    0.0005   -0.0075   -0.0154   -0.0106    0.0138    0.0033    0.0758
          17   -0.0082    0.0141    0.0435    0.0430   -0.0290    0.0129    0.0103    0.0041
          18    0.0007   -0.0031    0.0001   -0.0029    0.0014   -0.0285    0.0248    0.0758
          19   -0.0078   -0.0005   -0.0075    0.0154    0.0106    0.0138    0.0033   -0.0758
          20   -0.0082   -0.0140    0.0435   -0.0430    0.0290    0.0129    0.0103   -0.0042
          21   -0.0007   -0.0031   -0.0001   -0.0029    0.0014    0.0285   -0.0248    0.0758
          22   -0.0499   -0.0000   -0.0242    0.0000    0.0000   -0.0790    0.0346   -0.0000
          23    0.0134   -0.0000   -0.0264    0.0000   -0.0000    0.0401    0.0432    0.0000
          24    0.0000   -0.0055   -0.0000   -0.0707    0.0102    0.0000    0.0000   -0.0031
          25   -0.0715    0.0001    0.0779    0.0000   -0.0000    0.1057    0.0352   -0.0001
          26    0.1138   -0.0001   -0.1007    0.0000    0.0000   -0.0509   -0.0546    0.0001
          27    0.0001   -0.0136   -0.0001   -0.0193    0.0542   -0.0000   -0.0000   -0.0233
          28    0.0698   -0.0001   -0.1128    0.0000    0.0000   -0.0018   -0.1086    0.0001
          29    0.1035   -0.0001   -0.0869   -0.0000    0.0000   -0.0400   -0.0464    0.0000
          30    0.0001    0.0083   -0.0001    0.0621   -0.0240   -0.0000   -0.0000    0.0020
          31    0.0366    0.1646    0.0371   -0.0620   -0.0438   -0.0500   -0.0070   -0.0086
          32    0.0643    0.1716    0.0354    0.0171    0.0317    0.0164   -0.0434    0.0146
          33   -0.0002   -0.1201    0.0001    0.0985    0.0722   -0.0002    0.0003   -0.0096
          34    0.0818    0.0007    0.0880   -0.0002   -0.0001   -0.0703   -0.0817   -0.0001
          35    0.0162    0.0005   -0.0179    0.0000    0.0001    0.0353    0.0357    0.0001
          36    0.0001    0.2929   -0.0002    0.0416    0.0570    0.0001    0.0000   -0.0036
          37    0.0367   -0.1650    0.0375    0.0621    0.0439   -0.0501   -0.0073    0.0086
          38    0.0641   -0.1722    0.0355   -0.0171   -0.0318    0.0163   -0.0433   -0.0146
          39    0.0002   -0.1187    0.0001    0.0983    0.0721    0.0002   -0.0003   -0.0096
          40   -0.0087   -0.0007   -0.0097   -0.0265   -0.0171    0.0339   -0.0147    0.0335
          41   -0.0864    0.0143   -0.0159   -0.0461    0.1305   -0.0937   -0.1337   -0.0262
          42    0.0028   -0.0034    0.0001   -0.0260   -0.0319   -0.0122    0.0198   -0.0906
          43   -0.0087    0.0007   -0.0097    0.0265    0.0171    0.0339   -0.0147   -0.0335
          44   -0.0864   -0.0142   -0.0159    0.0461   -0.1304   -0.0938   -0.1336    0.0264
          45   -0.0029   -0.0034   -0.0002   -0.0259   -0.0320    0.0121   -0.0200   -0.0906
          46   -0.0091    0.0010   -0.0062   -0.0299   -0.0259   -0.0097    0.0243    0.0379
          47   -0.0283    0.0286    0.1173    0.0987   -0.0728    0.0235   -0.0381    0.0059
          48    0.0023   -0.0039   -0.0036    0.0037    0.0120   -0.0142    0.0138    0.0973
          49   -0.0091   -0.0010   -0.0062    0.0299    0.0259   -0.0098    0.0243   -0.0379
          50   -0.0283   -0.0284    0.1173   -0.0987    0.0728    0.0236   -0.0380   -0.0059
          51   -0.0023   -0.0040    0.0038    0.0035    0.0121    0.0143   -0.0138    0.0973


   Root No.       9        10        11        12        13        14        15        16

                 9 A      10 A      11 A      12 A      13 A      14 A      15 A      16 A   

                 745.7     775.8     852.8     905.2     946.8     964.9     970.5     992.8
  
           1    0.0066    0.0000   -0.0304    0.0126   -0.0065   -0.0000   -0.0000    0.0108
           2    0.0131    0.0000   -0.0307    0.0104   -0.0075   -0.0000   -0.0000    0.0113
           3    0.0000   -0.0008   -0.0000    0.0000   -0.0001    0.0203    0.0048   -0.0000
           4   -0.0117   -0.0000   -0.0309    0.0116    0.0281    0.0001    0.0000    0.0239
           5   -0.0246   -0.0001    0.0241    0.0428    0.0068    0.0000    0.0000    0.0220
           6   -0.0000    0.0005    0.0000    0.0000   -0.0000    0.0107    0.0032   -0.0000
           7   -0.0146   -0.0000   -0.0343    0.0148   -0.0308   -0.0001   -0.0000   -0.0108
           8    0.0158    0.0000    0.0134    0.0036    0.0022    0.0000   -0.0000   -0.0045
           9    0.0000   -0.0001   -0.0000    0.0000   -0.0001    0.0386    0.0013   -0.0000
          10    0.0065    0.0010    0.0226   -0.0070   -0.0088   -0.0030   -0.0006   -0.0060
          11   -0.0225   -0.0263   -0.0061   -0.0233   -0.0023    0.0079   -0.0274    0.0075
          12   -0.0102   -0.0024    0.0098   -0.0050   -0.0614   -0.0250   -0.0078    0.0078
          13    0.0065   -0.0010    0.0226   -0.0070   -0.0088    0.0029    0.0006   -0.0060
          14   -0.0225    0.0263   -0.0061   -0.0233   -0.0024   -0.0079    0.0274    0.0076
          15    0.0102   -0.0023   -0.0098    0.0050    0.0616   -0.0249   -0.0076   -0.0077
          16    0.0072   -0.0020    0.0264   -0.0078   -0.0005   -0.0065   -0.0032   -0.0040
          17   -0.0060    0.0236   -0.0024   -0.0131   -0.0035    0.0033   -0.0246   -0.0261
          18    0.0141   -0.0022    0.0430   -0.0102   -0.0139   -0.0117   -0.0026    0.0182
          19    0.0073    0.0020    0.0264   -0.0078   -0.0005    0.0065    0.0032   -0.0040
          20   -0.0059   -0.0237   -0.0024   -0.0131   -0.0035   -0.0033    0.0246   -0.0261
          21   -0.0141   -0.0023   -0.0429    0.0101    0.0140   -0.0117   -0.0025   -0.0182
          22   -0.0311   -0.0001   -0.0498   -0.0317    0.0426    0.0003   -0.0001    0.1092
          23    0.0331    0.0001   -0.0183    0.0326   -0.0294   -0.0002    0.0000   -0.0403
          24   -0.0000    0.0457   -0.0001    0.0002   -0.0005    0.1072    0.1007   -0.0005
          25   -0.1009   -0.0002    0.0182    0.1145    0.0574    0.0002    0.0001    0.0820
          26    0.0564    0.0001   -0.0219   -0.0497   -0.0164   -0.0001   -0.0001   -0.0302
          27    0.0001   -0.0383   -0.0001   -0.0000   -0.0002    0.0429    0.0897   -0.0001
          28    0.0860    0.0002   -0.1001   -0.0987    0.0200    0.0001   -0.0000   -0.0244
          29    0.0418    0.0001   -0.0212   -0.0316   -0.0012   -0.0000    0.0000   -0.0103
          30   -0.0001    0.0551   -0.0000    0.0000   -0.0001    0.0699   -0.0684   -0.0003
          31   -0.0156   -0.0105   -0.0407    0.0154   -0.0367    0.1326    0.0007   -0.0117
          32   -0.0113    0.0122    0.0786   -0.0580    0.0901   -0.1330    0.0001    0.0477
          33    0.0017    0.0073    0.0009    0.0022   -0.0003   -0.0537    0.0009   -0.0013
          34   -0.0634   -0.0001    0.0491   -0.0784    0.0862    0.0008    0.0001    0.0712
          35    0.0376    0.0001   -0.0244    0.0455   -0.0501   -0.0007   -0.0001   -0.0410
          36   -0.0000    0.0111    0.0001   -0.0001    0.0002   -0.0550    0.0048    0.0001
          37   -0.0158    0.0105   -0.0403    0.0149   -0.0357   -0.1332   -0.0008   -0.0113
          38   -0.0112   -0.0124    0.0781   -0.0576    0.0891    0.1341    0.0000    0.0475
          39   -0.0017    0.0073   -0.0009   -0.0022    0.0005   -0.0536    0.0010    0.0013
          40    0.0030   -0.0041    0.0216   -0.0061    0.0391    0.0067    0.0017   -0.0645
          41    0.0647   -0.1712    0.0762    0.1583    0.0168    0.0194   -0.1573   -0.0424
          42    0.0035    0.0061   -0.0150   -0.0037    0.0896   -0.0239    0.0029   -0.0387
          43    0.0029    0.0041    0.0216   -0.0061    0.0391   -0.0067   -0.0015   -0.0644
          44    0.0642    0.1713    0.0763    0.1583    0.0166   -0.0195    0.1574   -0.0422
          45   -0.0034    0.0063    0.0152    0.0038   -0.0894   -0.0242    0.0028    0.0387
          46    0.0213   -0.0036    0.0451   -0.0171    0.0601   -0.0535   -0.0189   -0.0667
          47    0.1756   -0.1843   -0.0510   -0.0038    0.0033   -0.0210    0.1503    0.1051
          48   -0.0008    0.0065    0.0347   -0.0054   -0.0487    0.0167    0.0000    0.0502
          49    0.0212    0.0036    0.0450   -0.0171    0.0597    0.0537    0.0193   -0.0670
          50    0.1750    0.1850   -0.0507   -0.0037    0.0035    0.0212   -0.1503    0.1050
          51    0.0010    0.0068   -0.0348    0.0054    0.0486    0.0168    0.0000   -0.0502


   Root No.      17        18        19        20        21        22        23        24

                17 A      18 A      19 A      20 A      21 A      22 A      23 A      24 A   

                1010.3    1032.0    1047.9    1065.3    1078.0    1106.4    1150.7    1157.9
  
           1    0.0029   -0.0001    0.0292    0.0000    0.0000    0.0014    0.0000   -0.0128
           2   -0.0107   -0.0001    0.0229    0.0000    0.0001   -0.0687   -0.0000    0.0069
           3   -0.0000    0.0084    0.0000    0.0039    0.0025   -0.0000    0.0130    0.0000
           4    0.0527    0.0001   -0.0171   -0.0000   -0.0000    0.0018    0.0000   -0.0046
           5   -0.0273    0.0001   -0.0134   -0.0000   -0.0000    0.0047    0.0000   -0.0020
           6   -0.0000    0.0164    0.0001    0.0091   -0.0146   -0.0000    0.0005    0.0000
           7   -0.0022    0.0001   -0.0202   -0.0000   -0.0000   -0.0015   -0.0000    0.0043
           8    0.0083   -0.0001    0.0037    0.0000   -0.0001    0.0689   -0.0000    0.0022
           9    0.0000   -0.0222   -0.0001   -0.0061   -0.0060   -0.0000   -0.0039   -0.0000
          10   -0.0131   -0.0081    0.0028   -0.0056    0.0102   -0.0014   -0.0015    0.0042
          11   -0.0115    0.0130   -0.0293    0.0111    0.0153    0.0113   -0.0029   -0.0036
          12   -0.0174   -0.0078    0.0170   -0.0021   -0.0031   -0.0039   -0.0044   -0.0004
          13   -0.0131    0.0080    0.0029    0.0056   -0.0102   -0.0014    0.0015    0.0042
          14   -0.0115   -0.0127   -0.0293   -0.0111   -0.0154    0.0112    0.0029   -0.0036
          15    0.0174   -0.0077   -0.0170   -0.0021   -0.0032    0.0039   -0.0044    0.0003
          16   -0.0021   -0.0020   -0.0044    0.0013   -0.0065    0.0001   -0.0026   -0.0034
          17    0.0285   -0.0034    0.0193    0.0333    0.0081   -0.0066   -0.0012    0.0016
          18    0.0352   -0.0169   -0.0181   -0.0082    0.0125   -0.0019   -0.0022    0.0054
          19   -0.0021    0.0020   -0.0044   -0.0013    0.0065    0.0002    0.0027   -0.0034
          20    0.0285    0.0033    0.0193   -0.0332   -0.0080   -0.0066    0.0012    0.0016
          21   -0.0352   -0.0171    0.0179   -0.0083    0.0126    0.0019   -0.0022   -0.0054
          22   -0.0385   -0.0008    0.2157    0.0001    0.0002    0.2153   -0.0002    0.0732
          23    0.0108    0.0003   -0.0735   -0.0001    0.0000   -0.1798    0.0001   -0.0367
          24    0.0001    0.1672    0.0003   -0.0062    0.2546    0.0009   -0.0830   -0.0002
          25    0.0249    0.0003   -0.0565   -0.0000   -0.0001    0.0130    0.0000   -0.0186
          26   -0.0006   -0.0002    0.0205   -0.0002    0.0001   -0.0046    0.0001    0.0068
          27    0.0000    0.0629    0.0004    0.3512   -0.1181   -0.0002   -0.1168   -0.0003
          28    0.1327   -0.0000    0.0064    0.0000    0.0000   -0.0064    0.0000   -0.0113
          29    0.0243   -0.0001    0.0030    0.0002    0.0001   -0.0013    0.0001   -0.0037
          30   -0.0000    0.1830    0.0013   -0.2486   -0.1635   -0.0002   -0.0821   -0.0002
          31   -0.0075   -0.0708   -0.0222   -0.0158   -0.0262   -0.0116   -0.0078    0.0152
          32   -0.0060    0.0725    0.0648    0.0167    0.0254   -0.0407    0.0092   -0.0163
          33    0.0037    0.0275   -0.0006    0.0046    0.0134    0.0130    0.0010   -0.0054
          34   -0.0362   -0.0002    0.0691   -0.0000    0.0005   -0.2182   -0.0000   -0.0046
          35    0.0236    0.0002   -0.0355    0.0000   -0.0002    0.1688    0.0000    0.0063
          36    0.0000    0.0345    0.0003    0.0054    0.0187    0.0001    0.0009   -0.0000
          37   -0.0076    0.0712   -0.0212    0.0158    0.0262   -0.0121    0.0078    0.0151
          38   -0.0059   -0.0730    0.0638   -0.0167   -0.0250   -0.0403   -0.0092   -0.0162
          39   -0.0037    0.0275    0.0009    0.0046    0.0134   -0.0129    0.0010    0.0054
          40   -0.0883    0.0757   -0.0204    0.0471   -0.0764   -0.0150    0.1157    0.1860
          41    0.0478    0.0287    0.0749    0.0197    0.0263   -0.0387   -0.0021    0.0079
          42   -0.0274    0.0300   -0.0375    0.0204   -0.0421   -0.0017    0.0637    0.1073
          43   -0.0883   -0.0757   -0.0215   -0.0472    0.0763   -0.0147   -0.1165    0.1854
          44    0.0479   -0.0294    0.0748   -0.0197   -0.0260   -0.0388    0.0020    0.0080
          45    0.0274    0.0298    0.0381    0.0204   -0.0420    0.0016    0.0642   -0.1070
          46   -0.0823   -0.0265   -0.0077   -0.0154   -0.0347    0.0295   -0.1704   -0.1512
          47   -0.0964    0.0023   -0.0562   -0.0571   -0.0127    0.0032    0.0028    0.0030
          48    0.0884   -0.0016   -0.0149    0.0060    0.0281   -0.0197    0.0963    0.0938
          49   -0.0823    0.0264   -0.0076    0.0153    0.0346    0.0299    0.1711   -0.1505
          50   -0.0965   -0.0015   -0.0565    0.0570    0.0126    0.0031   -0.0029    0.0031
          51   -0.0886   -0.0019    0.0147    0.0060    0.0280    0.0199    0.0966   -0.0933


   Root No.      25        26        27        28        29        30        31        32

                25 A      26 A      27 A      28 A      29 A      30 A      31 A      32 A   

                1228.1    1245.9    1346.4    1389.0    1390.1    1407.3    1408.7    1409.7
  
           1    0.0000    0.0558    0.0380   -0.0123   -0.0003    0.0402    0.0020    0.0242
           2   -0.0000   -0.0345   -0.0101   -0.0031   -0.0001   -0.0147   -0.0010   -0.0151
           3    0.0220   -0.0000    0.0000   -0.0011    0.0829    0.0002   -0.0083    0.0005
           4   -0.0000   -0.0126   -0.0231   -0.0347   -0.0008    0.0255    0.0010    0.0074
           5    0.0000    0.0020    0.0021    0.0023    0.0000   -0.0012   -0.0000   -0.0000
           6   -0.0221    0.0000    0.0000   -0.0009    0.0659    0.0002   -0.0118    0.0007
           7    0.0000   -0.0205   -0.0043   -0.0134   -0.0002   -0.0181   -0.0029   -0.0615
           8   -0.0000    0.0067   -0.0053    0.0281    0.0006    0.0345    0.0014    0.0133
           9   -0.0075    0.0000    0.0000    0.0002   -0.0173    0.0005   -0.0369    0.0017
          10   -0.0153    0.0139   -0.0081    0.0139   -0.0055   -0.0133    0.0013   -0.0042
          11   -0.0013    0.0071    0.0009    0.0006    0.0001    0.0012    0.0002    0.0011
          12    0.0116   -0.0095    0.0182   -0.0128   -0.0286    0.0150    0.0026    0.0039
          13    0.0153    0.0139   -0.0081    0.0138    0.0061   -0.0132   -0.0024   -0.0039
          14    0.0013    0.0071    0.0009    0.0006   -0.0000    0.0012   -0.0001    0.0011
          15    0.0116    0.0095   -0.0182    0.0136   -0.0280   -0.0150    0.0014   -0.0042
          16    0.0148    0.0026   -0.0146    0.0121   -0.0108   -0.0153    0.0006   -0.0053
          17   -0.0009   -0.0031   -0.0000   -0.0009   -0.0007    0.0003    0.0002   -0.0002
          18   -0.0116   -0.0263    0.0093   -0.0160   -0.0199    0.0138    0.0049    0.0028
          19   -0.0148    0.0026   -0.0146    0.0118    0.0114   -0.0152   -0.0019   -0.0052
          20    0.0009   -0.0031   -0.0000   -0.0009    0.0007    0.0003   -0.0002   -0.0001
          21   -0.0116    0.0263   -0.0093    0.0165   -0.0191   -0.0140    0.0039   -0.0033
          22   -0.0000   -0.1268   -0.0351   -0.0004    0.0001   -0.0355   -0.0022   -0.0295
          23    0.0000    0.0628    0.0287   -0.0091   -0.0002    0.0257    0.0012    0.0124
          24   -0.0569    0.0001    0.0000    0.0013   -0.0952   -0.0001    0.0008   -0.0002
          25   -0.0000   -0.0529    0.1553    0.0792    0.0018   -0.0410   -0.0015   -0.0106
          26   -0.0000    0.0313   -0.1329   -0.0842   -0.0019    0.0492    0.0018    0.0137
          27    0.0795   -0.0000   -0.0001    0.0012   -0.0958   -0.0002    0.0157   -0.0009
          28   -0.0000   -0.0626    0.1712    0.0911    0.0021   -0.0499   -0.0018   -0.0143
          29   -0.0001   -0.0253    0.1091    0.0716    0.0017   -0.0427   -0.0016   -0.0121
          30    0.0773   -0.0001    0.0000    0.0012   -0.0884   -0.0003    0.0143   -0.0009
          31   -0.0220   -0.0496   -0.0203    0.0059   -0.0426   -0.0533   -0.0431    0.2927
          32    0.0204    0.0768    0.0623   -0.1229    0.0103   -0.1063   -0.2292    0.0089
          33    0.0084    0.0133    0.0046    0.0030    0.0179    0.0395    0.0359   -0.2308
          34   -0.0001   -0.0376   -0.0420    0.1260    0.0027    0.1425    0.0053    0.0110
          35    0.0001    0.0178    0.0176   -0.0528   -0.0009   -0.0594   -0.0013   -0.0101
          36    0.0080    0.0000    0.0001   -0.0011    0.0530   -0.0059    0.3774   -0.0168
          37    0.0220   -0.0497   -0.0203    0.0047    0.0422   -0.0550    0.0616    0.2892
          38   -0.0203    0.0767    0.0623   -0.1228   -0.0158   -0.1134    0.2227   -0.0106
          39    0.0083   -0.0135   -0.0047   -0.0031    0.0170   -0.0402    0.0493    0.2259
          40   -0.1429   -0.0285    0.0685   -0.0463   -0.0469    0.0563    0.0118    0.0075
          41   -0.0012   -0.0144   -0.0029    0.0000   -0.0031   -0.0027    0.0006    0.0008
          42   -0.0808   -0.0155    0.0255   -0.0218   -0.0606    0.0254    0.0100    0.0031
          43    0.1429   -0.0286    0.0685   -0.0475    0.0447    0.0567   -0.0081    0.0088
          44    0.0013   -0.0144   -0.0029   -0.0001    0.0032   -0.0027   -0.0008    0.0008
          45   -0.0808    0.0156   -0.0255    0.0234   -0.0596   -0.0258    0.0083   -0.0042
          46   -0.1133   -0.1141    0.0344   -0.0542    0.0479    0.0457   -0.0021    0.0123
          47    0.0025   -0.0007   -0.0018    0.0008   -0.0044   -0.0027    0.0003   -0.0024
          48    0.0638    0.0407   -0.0207    0.0222   -0.0573   -0.0221    0.0070   -0.0079
          49    0.1131   -0.1141    0.0344   -0.0528   -0.0504    0.0456    0.0054    0.0119
          50   -0.0026   -0.0007   -0.0018    0.0007    0.0045   -0.0027   -0.0007   -0.0024
          51    0.0638   -0.0407    0.0207   -0.0207   -0.0583    0.0218    0.0087    0.0070


   Root No.      33        34        35        36        37        38        39        40

                33 A      34 A      35 A      36 A      37 A      38 A      39 A      40 A   

                1468.8    1875.4    1894.6    2845.7    2932.1    3009.9    3042.4    3043.8
  
           1   -0.0000    0.0000   -0.0297   -0.0331    0.0001    0.0002   -0.0000    0.0001
           2    0.0001   -0.0000    0.0001   -0.0619    0.0003    0.0001   -0.0000    0.0003
           3   -0.0836    0.0272    0.0000   -0.0000    0.0000    0.0000   -0.0003   -0.0000
           4   -0.0000   -0.0000    0.0288   -0.0000   -0.0032    0.0383    0.0000    0.0019
           5   -0.0001   -0.0000   -0.0012   -0.0000   -0.0606   -0.0011   -0.0000    0.0001
           6    0.1052    0.0294    0.0000    0.0000   -0.0000   -0.0000    0.0002    0.0000
           7    0.0000   -0.0000   -0.0018    0.0019   -0.0000   -0.0000   -0.0000    0.0004
           8   -0.0000    0.0000    0.0008    0.0006   -0.0000   -0.0000   -0.0000    0.0003
           9    0.0078    0.0019    0.0000    0.0000    0.0000    0.0000   -0.0003   -0.0000
          10   -0.0259    0.1355    0.1368   -0.0003   -0.0001   -0.0001   -0.0112    0.0107
          11   -0.0009   -0.0004   -0.0004   -0.0000   -0.0003    0.0000    0.0010   -0.0009
          12    0.0472   -0.0217   -0.0190    0.0013    0.0000   -0.0000   -0.0181    0.0175
          13    0.0259   -0.1358    0.1366   -0.0003   -0.0001   -0.0001    0.0111    0.0107
          14    0.0008    0.0004   -0.0005   -0.0000   -0.0003    0.0000   -0.0009   -0.0009
          15    0.0472   -0.0218    0.0189   -0.0013   -0.0000    0.0000   -0.0178   -0.0175
          16    0.0228    0.1358   -0.1364    0.0006    0.0002   -0.0021    0.0084    0.0079
          17   -0.0020   -0.0016    0.0017   -0.0003   -0.0000   -0.0002    0.0006    0.0005
          18   -0.0551   -0.0233    0.0199   -0.0000    0.0001   -0.0042    0.0146    0.0140
          19   -0.0228   -0.1356   -0.1366    0.0006    0.0002   -0.0021   -0.0084    0.0077
          20    0.0020    0.0016    0.0017   -0.0003   -0.0000   -0.0002   -0.0006    0.0005
          21   -0.0551   -0.0233   -0.0200    0.0000   -0.0001    0.0042    0.0146   -0.0137
          22    0.0000   -0.0000   -0.0044    0.3962   -0.0005   -0.0005    0.0000   -0.0022
          23    0.0000   -0.0000   -0.0061    0.7602   -0.0014   -0.0009    0.0000   -0.0041
          24    0.0651    0.0217    0.0000    0.0002   -0.0000    0.0000   -0.0021   -0.0000
          25    0.0000   -0.0000    0.0182    0.0006    0.3016   -0.2624   -0.0001   -0.0153
          26    0.0001   -0.0000    0.0019    0.0002    0.3338   -0.3452   -0.0001   -0.0192
          27   -0.0995    0.0285    0.0000   -0.0000    0.0002   -0.0002    0.0022    0.0000
          28    0.0000   -0.0000    0.0131   -0.0015   -0.2647   -0.1966   -0.0000   -0.0104
          29    0.0001   -0.0000   -0.0045    0.0020    0.3994    0.3587    0.0001    0.0186
          30   -0.0940    0.0244    0.0000    0.0000    0.0003    0.0002    0.0019    0.0000
          31    0.0243   -0.0006   -0.0003   -0.0037   -0.0000   -0.0000    0.0010   -0.0023
          32   -0.0392    0.0039   -0.0015   -0.0038    0.0000    0.0000   -0.0000    0.0001
          33   -0.0077    0.0044   -0.0019   -0.0088    0.0000    0.0000    0.0005   -0.0027
          34    0.0002   -0.0000   -0.0016   -0.0112    0.0000    0.0001    0.0000   -0.0013
          35   -0.0001    0.0000   -0.0001   -0.0126    0.0000    0.0001    0.0000   -0.0030
          36    0.0086   -0.0007    0.0000    0.0001   -0.0000   -0.0000   -0.0001    0.0000
          37   -0.0246    0.0006   -0.0003   -0.0036   -0.0000   -0.0000   -0.0009   -0.0024
          38    0.0393   -0.0039   -0.0014   -0.0037    0.0000    0.0000    0.0000    0.0001
          39   -0.0080    0.0044    0.0019    0.0087   -0.0000   -0.0000    0.0005    0.0027
          40   -0.0549   -0.0197    0.0066   -0.0070    0.0000   -0.0017   -0.1260   -0.1214
          41    0.0010    0.0022   -0.0033   -0.0016   -0.0008    0.0001    0.0111    0.0107
          42   -0.0017    0.0742   -0.0856    0.0070    0.0001    0.0018    0.2165    0.2082
          43    0.0549    0.0198    0.0066   -0.0070    0.0000   -0.0017    0.1275   -0.1214
          44   -0.0010   -0.0022   -0.0034   -0.0016   -0.0008    0.0001   -0.0114    0.0109
          45   -0.0018    0.0741    0.0857   -0.0070   -0.0001   -0.0018    0.2190   -0.2081
          46   -0.0515    0.0187   -0.0056    0.0017   -0.0015    0.0289   -0.1032   -0.0965
          47   -0.0005    0.0027   -0.0040   -0.0009   -0.0018    0.0015   -0.0067   -0.0062
          48   -0.0118    0.0730   -0.0845    0.0023   -0.0017    0.0427   -0.1773   -0.1660
          49    0.0514   -0.0187   -0.0057    0.0017   -0.0016    0.0288    0.1031   -0.0950
          50    0.0005   -0.0028   -0.0041   -0.0009   -0.0018    0.0016    0.0070   -0.0064
          51   -0.0118    0.0729    0.0846   -0.0023    0.0017   -0.0425   -0.1771    0.1633


   Root No.      41        42        43        44        45

                41 A      42 A      43 A      44 A      45 A   

                3062.3    3065.1    3083.6    3085.3    3181.4
  
           1    0.0000   -0.0007   -0.0000   -0.0006    0.0006
           2    0.0000   -0.0003   -0.0000   -0.0010   -0.0004
           3   -0.0001   -0.0000   -0.0004    0.0000   -0.0000
           4   -0.0000    0.0032   -0.0000   -0.0001   -0.0000
           5    0.0000    0.0000   -0.0000   -0.0000    0.0000
           6   -0.0000   -0.0000   -0.0000    0.0000   -0.0000
           7    0.0000   -0.0006   -0.0011   -0.0363    0.0159
           8    0.0000   -0.0006   -0.0011   -0.0333   -0.0187
           9   -0.0001    0.0000   -0.0573    0.0014    0.0000
          10   -0.0118   -0.0111   -0.0003    0.0006   -0.0002
          11    0.0008    0.0007    0.0002   -0.0002    0.0000
          12   -0.0143   -0.0136    0.0002    0.0006   -0.0001
          13    0.0121   -0.0110    0.0004    0.0006   -0.0002
          14   -0.0008    0.0007   -0.0002   -0.0001    0.0000
          15   -0.0147    0.0135    0.0002   -0.0006    0.0001
          16   -0.0140    0.0129   -0.0001   -0.0002    0.0000
          17   -0.0007    0.0006   -0.0000   -0.0000   -0.0000
          18   -0.0180    0.0167   -0.0001   -0.0002    0.0000
          19    0.0138    0.0132    0.0001   -0.0003    0.0000
          20    0.0007    0.0006    0.0000   -0.0000   -0.0000
          21   -0.0178   -0.0171   -0.0001    0.0002   -0.0000
          22   -0.0000    0.0024    0.0001    0.0028    0.0001
          23   -0.0001    0.0049    0.0005    0.0135   -0.0013
          24   -0.0014   -0.0000   -0.0013    0.0000   -0.0000
          25    0.0002   -0.0202    0.0000    0.0004    0.0000
          26    0.0002   -0.0253    0.0000    0.0005    0.0000
          27   -0.0025   -0.0000    0.0000   -0.0000   -0.0000
          28    0.0001   -0.0138    0.0000    0.0002    0.0000
          29   -0.0002    0.0247   -0.0000   -0.0004   -0.0000
          30   -0.0020   -0.0000    0.0000   -0.0000    0.0000
          31    0.0002    0.0029    0.2778    0.1172   -0.1781
          32   -0.0001   -0.0001    0.0360    0.0007   -0.0326
          33   -0.0004    0.0039    0.3618    0.1912   -0.2599
          34   -0.0000    0.0026    0.0054    0.1895    0.1592
          35   -0.0001    0.0057    0.0113    0.3963    0.2942
          36   -0.0001   -0.0000   -0.0296   -0.0006   -0.0009
          37   -0.0002    0.0030   -0.2694    0.1280   -0.1771
          38    0.0001   -0.0001   -0.0344    0.0013   -0.0315
          39   -0.0003   -0.0040    0.3517   -0.2069    0.2607
          40   -0.1058    0.0946    0.0014   -0.0051    0.0015
          41    0.0091   -0.0082   -0.0005    0.0004   -0.0003
          42    0.1772   -0.1580   -0.0003    0.0078   -0.0018
          43    0.1029    0.0957   -0.0017   -0.0050    0.0015
          44   -0.0091   -0.0084    0.0006    0.0004   -0.0003
          45    0.1722    0.1598   -0.0006   -0.0078    0.0018
          46    0.1296   -0.1176    0.0006    0.0018   -0.0001
          47    0.0081   -0.0074    0.0001    0.0001   -0.0000
          48    0.2170   -0.1968    0.0010    0.0029   -0.0001
          49   -0.1279   -0.1205   -0.0005    0.0018   -0.0001
          50   -0.0084   -0.0079   -0.0001    0.0001   -0.0000
          51    0.2141    0.2017    0.0009   -0.0029    0.0001


           MASS-WEIGHTED COORDINATE ANALYSIS (NORMAL COORDINATES)


   Root No.       1         2         3         4         5         6         7         8

                 1 A       2 A       3 A       4 A       5 A       6 A       7 A       8 A   

                  53.0     172.0     268.1     300.3     434.1     483.5     553.0     590.7
  
           1   -0.0697   -0.0000   -0.0334   -0.0000    0.0001   -0.2887    0.2908    0.0000
           2   -0.0694   -0.0003   -0.3187    0.0000   -0.0001    0.1476    0.3848    0.0000
           3   -0.0000   -0.0100   -0.0002   -0.2409   -0.1841   -0.0000    0.0001   -0.1917
           4   -0.0374   -0.0001   -0.0991    0.0001   -0.0001    0.3809   -0.2601   -0.0000
           5    0.4435   -0.0002   -0.1686   -0.0000   -0.0000   -0.0230    0.0500   -0.0001
           6    0.0002   -0.0204   -0.0001    0.0809    0.0734    0.0000    0.0001    0.2004
           7    0.3118    0.0003    0.3246   -0.0002    0.0001   -0.3684   -0.0836   -0.0000
           8    0.2929   -0.0002    0.0346   -0.0001   -0.0002    0.1967    0.0269    0.0001
           9    0.0001    0.0866    0.0000    0.4270    0.3147    0.0000    0.0001   -0.0634
          10   -0.0627   -0.0038   -0.0594    0.1160    0.0629    0.0673    0.0393   -0.3277
          11   -0.3167   -0.0492   -0.1430    0.1408   -0.3911   -0.2173   -0.1580    0.0369
          12   -0.0068   -0.0147   -0.0141   -0.1661   -0.1791    0.2213   -0.2166   -0.3012
          13   -0.0627    0.0036   -0.0595   -0.1159   -0.0629    0.0674    0.0393    0.3277
          14   -0.3165    0.0494   -0.1430   -0.1406    0.3914   -0.2168   -0.1580   -0.0365
          15    0.0065   -0.0147    0.0139   -0.1662   -0.1788   -0.2215    0.2164   -0.3012
          16   -0.0625    0.0037   -0.0611   -0.1232   -0.0829    0.1003    0.0278    0.3349
          17   -0.0660    0.0994    0.3550    0.3453   -0.2263    0.0939    0.0862    0.0181
          18    0.0053   -0.0218    0.0011   -0.0230    0.0108   -0.2063    0.2081    0.3349
          19   -0.0626   -0.0039   -0.0612    0.1234    0.0827    0.1002    0.0278   -0.3349
          20   -0.0661   -0.0989    0.3551   -0.3453    0.2262    0.0938    0.0865   -0.0186
          21   -0.0054   -0.0219   -0.0007   -0.0234    0.0110    0.2066   -0.2079    0.3348
          22   -0.1160   -0.0001   -0.0572    0.0001    0.0000   -0.1658    0.0840   -0.0000
          23    0.0310   -0.0000   -0.0624    0.0000   -0.0001    0.0842    0.1049    0.0000
          24    0.0000   -0.0114   -0.0001   -0.1642    0.0230    0.0001    0.0001   -0.0039
          25   -0.1661    0.0001    0.1842    0.0000   -0.0001    0.2219    0.0857   -0.0001
          26    0.2646   -0.0002   -0.2383    0.0000    0.0000   -0.1069   -0.1327    0.0001
          27    0.0001   -0.0279   -0.0001   -0.0448    0.1223   -0.0000   -0.0001   -0.0298
          28    0.1623   -0.0002   -0.2669    0.0000    0.0001   -0.0037   -0.2639    0.0001
          29    0.2406   -0.0002   -0.2056   -0.0001    0.0001   -0.0840   -0.1128    0.0001
          30    0.0001    0.0171   -0.0001    0.1443   -0.0541   -0.0001   -0.0001    0.0025
          31    0.0850    0.3372    0.0879   -0.1440   -0.0990   -0.1050   -0.0171   -0.0110
          32    0.1496    0.3517    0.0838    0.0397    0.0716    0.0345   -0.1056    0.0187
          33   -0.0004   -0.2460    0.0002    0.2290    0.1630   -0.0004    0.0007   -0.0123
          34    0.1902    0.0014    0.2081   -0.0005   -0.0002   -0.1476   -0.1985   -0.0001
          35    0.0378    0.0011   -0.0425    0.0001    0.0001    0.0742    0.0867    0.0001
          36    0.0002    0.6001   -0.0004    0.0967    0.1287    0.0002    0.0001   -0.0047
          37    0.0853   -0.3380    0.0888    0.1443    0.0992   -0.1051   -0.0177    0.0111
          38    0.1490   -0.3529    0.0839   -0.0398   -0.0718    0.0342   -0.1052   -0.0187
          39    0.0004   -0.2432    0.0003    0.2285    0.1629    0.0004   -0.0007   -0.0123
          40   -0.0202   -0.0015   -0.0230   -0.0615   -0.0387    0.0711   -0.0358    0.0429
          41   -0.2009    0.0293   -0.0375   -0.1072    0.2946   -0.1968   -0.3248   -0.0335
          42    0.0065   -0.0070    0.0003   -0.0604   -0.0719   -0.0257    0.0482   -0.1160
          43   -0.0202    0.0015   -0.0230    0.0615    0.0387    0.0711   -0.0357   -0.0429
          44   -0.2009   -0.0291   -0.0375    0.1072   -0.2943   -0.1970   -0.3248    0.0339
          45   -0.0067   -0.0070   -0.0004   -0.0603   -0.0722    0.0255   -0.0486   -0.1160
          46   -0.0212    0.0021   -0.0146   -0.0695   -0.0586   -0.0205    0.0591    0.0486
          47   -0.0658    0.0586    0.2774    0.2294   -0.1644    0.0494   -0.0926    0.0075
          48    0.0053   -0.0080   -0.0085    0.0085    0.0271   -0.0299    0.0336    0.1246
          49   -0.0212   -0.0021   -0.0146    0.0696    0.0585   -0.0205    0.0592   -0.0485
          50   -0.0658   -0.0582    0.2775   -0.2295    0.1643    0.0496   -0.0924   -0.0075
          51   -0.0054   -0.0081    0.0089    0.0082    0.0273    0.0300   -0.0336    0.1246


   Root No.       9        10        11        12        13        14        15        16

                 9 A      10 A      11 A      12 A      13 A      14 A      15 A      16 A   

                 745.7     775.8     852.8     905.2     946.8     964.9     970.5     992.8
  
           1    0.0609    0.0002   -0.2404    0.1132   -0.0523   -0.0003   -0.0003    0.1036
           2    0.1210    0.0002   -0.2428    0.0936   -0.0598   -0.0001   -0.0001    0.1087
           3    0.0001   -0.0066   -0.0002    0.0001   -0.0004    0.1797    0.0419   -0.0002
           4   -0.1074   -0.0001   -0.2443    0.1046    0.2244    0.0006    0.0000    0.2289
           5   -0.2264   -0.0005    0.1906    0.3858    0.0544    0.0001    0.0002    0.2106
           6   -0.0002    0.0043    0.0001    0.0003   -0.0002    0.0951    0.0286   -0.0001
           7   -0.1344   -0.0001   -0.2715    0.1334   -0.2466   -0.0010   -0.0003   -0.1033
           8    0.1455    0.0001    0.1064    0.0326    0.0174    0.0000   -0.0001   -0.0432
           9    0.0000   -0.0007   -0.0002    0.0002   -0.0008    0.3416    0.0111   -0.0001
          10    0.0595    0.0083    0.1792   -0.0633   -0.0702   -0.0262   -0.0053   -0.0571
          11   -0.2066   -0.2239   -0.0486   -0.2097   -0.0187    0.0702   -0.2421    0.0719
          12   -0.0936   -0.0204    0.0779   -0.0451   -0.4910   -0.2215   -0.0686    0.0744
          13    0.0593   -0.0082    0.1792   -0.0634   -0.0703    0.0260    0.0053   -0.0573
          14   -0.2074    0.2235   -0.0483   -0.2100   -0.0193   -0.0702    0.2422    0.0729
          15    0.0937   -0.0199   -0.0777    0.0447    0.4923   -0.2198   -0.0672   -0.0737
          16    0.0667   -0.0169    0.2090   -0.0705   -0.0037   -0.0576   -0.0279   -0.0381
          17   -0.0551    0.2012   -0.0191   -0.1179   -0.0278    0.0290   -0.2173   -0.2505
          18    0.1298   -0.0189    0.3401   -0.0916   -0.1113   -0.1032   -0.0231    0.1748
          19    0.0668    0.0170    0.2089   -0.0703   -0.0041    0.0579    0.0280   -0.0383
          20   -0.0543   -0.2013   -0.0190   -0.1183   -0.0283   -0.0292    0.2171   -0.2500
          21   -0.1299   -0.0193   -0.3401    0.0914    0.1118   -0.1037   -0.0224   -0.1745
          22   -0.0828   -0.0001   -0.1142   -0.0828    0.0987    0.0008   -0.0003    0.3034
          23    0.0883    0.0001   -0.0419    0.0850   -0.0680   -0.0005    0.0000   -0.1119
          24   -0.0001    0.1126   -0.0002    0.0004   -0.0012    0.2745    0.2576   -0.0013
          25   -0.2689   -0.0005    0.0417    0.2990    0.1329    0.0004    0.0001    0.2277
          26    0.1504    0.0004   -0.0502   -0.1298   -0.0379   -0.0002   -0.0002   -0.0840
          27    0.0003   -0.0943   -0.0001   -0.0001   -0.0005    0.1099    0.2294   -0.0002
          28    0.2291    0.0005   -0.2297   -0.2578    0.0463    0.0001   -0.0001   -0.0678
          29    0.1113    0.0001   -0.0487   -0.0826   -0.0028   -0.0001    0.0001   -0.0285
          30   -0.0001    0.1359   -0.0000    0.0001   -0.0003    0.1791   -0.1749   -0.0007
          31   -0.0417   -0.0259   -0.0935    0.0401   -0.0851    0.3398    0.0019   -0.0324
          32   -0.0301    0.0302    0.1804   -0.1514    0.2088   -0.3408    0.0003    0.1326
          33    0.0044    0.0180    0.0021    0.0058   -0.0007   -0.1375    0.0024   -0.0037
          34   -0.1690   -0.0003    0.1127   -0.2047    0.1998    0.0020    0.0003    0.1978
          35    0.1003    0.0002   -0.0560    0.1188   -0.1161   -0.0017   -0.0002   -0.1139
          36   -0.0000    0.0274    0.0002   -0.0001    0.0004   -0.1409    0.0124    0.0002
          37   -0.0422    0.0260   -0.0924    0.0389   -0.0827   -0.3413   -0.0020   -0.0315
          38   -0.0298   -0.0305    0.1793   -0.1503    0.2065    0.3435    0.0000    0.1319
          39   -0.0045    0.0180   -0.0020   -0.0058    0.0012   -0.1374    0.0024    0.0037
          40    0.0079   -0.0102    0.0495   -0.0160    0.0906    0.0171    0.0044   -0.1792
          41    0.1726   -0.4219    0.1748    0.4133    0.0390    0.0498   -0.4022   -0.1178
          42    0.0093    0.0151   -0.0345   -0.0095    0.2075   -0.0613    0.0075   -0.1075
          43    0.0078    0.0101    0.0495   -0.0160    0.0906   -0.0172   -0.0038   -0.1788
          44    0.1711    0.4223    0.1750    0.4132    0.0385   -0.0500    0.4025   -0.1172
          45   -0.0091    0.0155    0.0348    0.0099   -0.2072   -0.0619    0.0072    0.1074
          46    0.0567   -0.0088    0.1034   -0.0447    0.1391   -0.1370   -0.0484   -0.1853
          47    0.4679   -0.4543   -0.1170   -0.0098    0.0076   -0.0538    0.3843    0.2920
          48   -0.0021    0.0161    0.0797   -0.0142   -0.1127    0.0428    0.0001    0.1396
          49    0.0565    0.0088    0.1033   -0.0445    0.1384    0.1375    0.0492   -0.1860
          50    0.4665    0.4560   -0.1164   -0.0095    0.0082    0.0543   -0.3842    0.2917
          51    0.0026    0.0168   -0.0799    0.0142    0.1125    0.0430    0.0000   -0.1394


   Root No.      17        18        19        20        21        22        23        24

                17 A      18 A      19 A      20 A      21 A      22 A      23 A      24 A   

                1010.3    1032.0    1047.9    1065.3    1078.0    1106.4    1150.7    1157.9
  
           1    0.0224   -0.0010    0.2487    0.0002    0.0004    0.0091    0.0002   -0.1080
           2   -0.0823   -0.0006    0.1951    0.0001    0.0012   -0.4461   -0.0001    0.0579
           3   -0.0001    0.0804    0.0004    0.0279    0.0229   -0.0001    0.1185    0.0003
           4    0.4071    0.0010   -0.1453   -0.0000   -0.0002    0.0118    0.0002   -0.0391
           5   -0.2112    0.0007   -0.1143   -0.0001   -0.0001    0.0304    0.0001   -0.0172
           6   -0.0001    0.1574    0.0008    0.0653   -0.1310   -0.0001    0.0048    0.0001
           7   -0.0169    0.0006   -0.1722   -0.0001   -0.0004   -0.0095   -0.0000    0.0360
           8    0.0638   -0.0005    0.0318    0.0000   -0.0009    0.4475   -0.0000    0.0186
           9    0.0000   -0.2128   -0.0011   -0.0435   -0.0543   -0.0001   -0.0353   -0.0000
          10   -0.1011   -0.0777    0.0237   -0.0400    0.0919   -0.0092   -0.0138    0.0354
          11   -0.0889    0.1249   -0.2491    0.0793    0.1376    0.0732   -0.0263   -0.0300
          12   -0.1347   -0.0752    0.1444   -0.0149   -0.0278   -0.0250   -0.0402   -0.0030
          13   -0.1011    0.0772    0.0246    0.0400   -0.0919   -0.0094    0.0136    0.0354
          14   -0.0887   -0.1223   -0.2493   -0.0795   -0.1385    0.0727    0.0264   -0.0299
          15    0.1347   -0.0739   -0.1451   -0.0152   -0.0284    0.0250   -0.0403    0.0027
          16   -0.0166   -0.0191   -0.0376    0.0094   -0.0583    0.0009   -0.0242   -0.0289
          17    0.2199   -0.0331    0.1639    0.2380    0.0725   -0.0428   -0.0113    0.0136
          18    0.2720   -0.1622   -0.1542   -0.0589    0.1128   -0.0121   -0.0198    0.0452
          19   -0.0166    0.0192   -0.0378   -0.0094    0.0582    0.0012    0.0243   -0.0287
          20    0.2205    0.0312    0.1647   -0.2377   -0.0721   -0.0429    0.0112    0.0137
          21   -0.2717   -0.1641    0.1527   -0.0590    0.1130    0.0122   -0.0197   -0.0453
          22   -0.0861   -0.0023    0.5321    0.0003    0.0004    0.4049   -0.0005    0.1785
          23    0.0241    0.0008   -0.1812   -0.0001    0.0000   -0.3381    0.0003   -0.0893
          24    0.0001    0.4652    0.0009   -0.0128    0.6631    0.0017   -0.2195   -0.0005
          25    0.0556    0.0010   -0.1394   -0.0000   -0.0002    0.0245    0.0001   -0.0454
          26   -0.0013   -0.0005    0.0505   -0.0004    0.0003   -0.0086    0.0001    0.0165
          27    0.0001    0.1751    0.0010    0.7278   -0.3076   -0.0004   -0.3090   -0.0007
          28    0.2969   -0.0001    0.0158    0.0000    0.0000   -0.0120    0.0001   -0.0277
          29    0.0544   -0.0004    0.0074    0.0003    0.0003   -0.0024    0.0002   -0.0091
          30   -0.0001    0.5093    0.0033   -0.5153   -0.4259   -0.0005   -0.2173   -0.0005
          31   -0.0168   -0.1970   -0.0548   -0.0327   -0.0682   -0.0218   -0.0207    0.0370
          32   -0.0133    0.2016    0.1599    0.0346    0.0660   -0.0765    0.0243   -0.0397
          33    0.0083    0.0764   -0.0015    0.0096    0.0349    0.0244    0.0026   -0.0132
          34   -0.0809   -0.0007    0.1705   -0.0000    0.0012   -0.4104   -0.0001   -0.0112
          35    0.0527    0.0007   -0.0876    0.0001   -0.0006    0.3176    0.0001    0.0152
          36    0.0000    0.0959    0.0007    0.0112    0.0487    0.0003    0.0023   -0.0000
          37   -0.0171    0.1980   -0.0523    0.0327    0.0681   -0.0228    0.0207    0.0369
          38   -0.0132   -0.2031    0.1574   -0.0346   -0.0651   -0.0759   -0.0244   -0.0396
          39   -0.0083    0.0764    0.0021    0.0096    0.0350   -0.0242    0.0025    0.0131
          40   -0.1975    0.2107   -0.0503    0.0976   -0.1989   -0.0282    0.3062    0.4533
          41    0.1068    0.0798    0.1847    0.0409    0.0686   -0.0728   -0.0055    0.0192
          42   -0.0612    0.0835   -0.0924    0.0422   -0.1098   -0.0033    0.1686    0.2616
          43   -0.1974   -0.2106   -0.0530   -0.0978    0.1987   -0.0277   -0.3081    0.4518
          44    0.1071   -0.0819    0.1846   -0.0408   -0.0677   -0.0729    0.0052    0.0196
          45    0.0614    0.0828    0.0939    0.0423   -0.1095    0.0030    0.1697   -0.2609
          46   -0.1841   -0.0737   -0.0190   -0.0319   -0.0905    0.0555   -0.4509   -0.3686
          47   -0.2156    0.0063   -0.1387   -0.1184   -0.0331    0.0060    0.0075    0.0073
          48    0.1979   -0.0044   -0.0368    0.0124    0.0731   -0.0371    0.2547    0.2286
          49   -0.1841    0.0733   -0.0186    0.0318    0.0901    0.0561    0.4525   -0.3668
          50   -0.2158   -0.0043   -0.1393    0.1182    0.0328    0.0059   -0.0077    0.0075
          51   -0.1982   -0.0052    0.0363    0.0125    0.0730    0.0374    0.2557   -0.2275


   Root No.      25        26        27        28        29        30        31        32

                25 A      26 A      27 A      28 A      29 A      30 A      31 A      32 A   

                1228.1    1245.9    1346.4    1389.0    1390.1    1407.3    1408.7    1409.7
  
           1    0.0002    0.4779    0.3366   -0.1156   -0.0024    0.3614    0.0133    0.1439
           2   -0.0001   -0.2951   -0.0896   -0.0288   -0.0006   -0.1323   -0.0064   -0.0899
           3    0.2064   -0.0001    0.0000   -0.0105    0.6024    0.0014   -0.0549    0.0030
           4   -0.0000   -0.1075   -0.2044   -0.3271   -0.0059    0.2288    0.0063    0.0442
           5    0.0001    0.0174    0.0186    0.0215    0.0001   -0.0105   -0.0002   -0.0001
           6   -0.2081    0.0001    0.0001   -0.0083    0.4790    0.0018   -0.0780    0.0042
           7    0.0001   -0.1754   -0.0378   -0.1264   -0.0015   -0.1627   -0.0188   -0.3665
           8   -0.0001    0.0577   -0.0470    0.2643    0.0044    0.3099    0.0094    0.0792
           9   -0.0702    0.0002    0.0001    0.0022   -0.1260    0.0046   -0.2432    0.0102
          10   -0.1440    0.1191   -0.0716    0.1311   -0.0399   -0.1192    0.0088   -0.0247
          11   -0.0122    0.0610    0.0081    0.0061    0.0006    0.0109    0.0016    0.0064
          12    0.1090   -0.0813    0.1613   -0.1207   -0.2080    0.1343    0.0168    0.0233
          13    0.1441    0.1190   -0.0716    0.1297    0.0447   -0.1187   -0.0155   -0.0234
          14    0.0120    0.0609    0.0082    0.0060   -0.0003    0.0110   -0.0006    0.0065
          15    0.1090    0.0812   -0.1614    0.1279   -0.2034   -0.1350    0.0095   -0.0247
          16    0.1394    0.0221   -0.1298    0.1138   -0.0785   -0.1373    0.0042   -0.0318
          17   -0.0082   -0.0262   -0.0004   -0.0083   -0.0049    0.0026    0.0013   -0.0010
          18   -0.1089   -0.2249    0.0823   -0.1507   -0.1445    0.1240    0.0323    0.0165
          19   -0.1394    0.0222   -0.1298    0.1109    0.0827   -0.1369   -0.0122   -0.0310
          20    0.0083   -0.0265   -0.0003   -0.0087    0.0049    0.0027   -0.0013   -0.0008
          21   -0.1088    0.2249   -0.0823    0.1555   -0.1390   -0.1253    0.0259   -0.0196
          22   -0.0001   -0.3145   -0.0901   -0.0011    0.0001   -0.0923   -0.0043   -0.0509
          23    0.0001    0.1558    0.0736   -0.0247   -0.0005    0.0670    0.0024    0.0215
          24   -0.1551    0.0002    0.0000    0.0034   -0.2005   -0.0002    0.0016   -0.0004
          25   -0.0000   -0.1313    0.3987    0.2162    0.0038   -0.1065   -0.0028   -0.0183
          26   -0.0001    0.0777   -0.3414   -0.2299   -0.0040    0.1281    0.0034    0.0236
          27    0.2166   -0.0000   -0.0002    0.0034   -0.2017   -0.0006    0.0299   -0.0016
          28   -0.0000   -0.1553    0.4397    0.2488    0.0044   -0.1299   -0.0035   -0.0247
          29   -0.0001   -0.0629    0.2802    0.1956    0.0036   -0.1112   -0.0030   -0.0208
          30    0.2107   -0.0001    0.0001    0.0033   -0.1862   -0.0007    0.0274   -0.0015
          31   -0.0600   -0.1230   -0.0521    0.0162   -0.0896   -0.1386   -0.0823    0.5051
          32    0.0555    0.1905    0.1601   -0.3356    0.0216   -0.2767   -0.4373    0.0153
          33    0.0229    0.0330    0.0117    0.0083    0.0377    0.1029    0.0685   -0.3982
          34   -0.0003   -0.0933   -0.1079    0.3439    0.0056    0.3707    0.0101    0.0190
          35    0.0003    0.0440    0.0452   -0.1442   -0.0019   -0.1546   -0.0025   -0.0174
          36    0.0219    0.0000    0.0002   -0.0030    0.1117   -0.0154    0.7202   -0.0290
          37    0.0600   -0.1232   -0.0520    0.0128    0.0888   -0.1431    0.1175    0.4990
          38   -0.0554    0.1902    0.1599   -0.3353   -0.0333   -0.2951    0.4250   -0.0183
          39    0.0227   -0.0334   -0.0122   -0.0084    0.0359   -0.1045    0.0940    0.3899
          40   -0.3892   -0.0706    0.1758   -0.1263   -0.0988    0.1465    0.0226    0.0130
          41   -0.0032   -0.0356   -0.0075    0.0001   -0.0065   -0.0071    0.0012    0.0014
          42   -0.2200   -0.0385    0.0654   -0.0594   -0.1277    0.0661    0.0190    0.0053
          43    0.3893   -0.0710    0.1758   -0.1295    0.0941    0.1475   -0.0155    0.0152
          44    0.0035   -0.0357   -0.0074   -0.0003    0.0067   -0.0070   -0.0014    0.0014
          45   -0.2201    0.0386   -0.0655    0.0638   -0.1254   -0.0671    0.0158   -0.0072
          46   -0.3086   -0.2829    0.0883   -0.1479    0.1008    0.1190   -0.0039    0.0213
          47    0.0068   -0.0017   -0.0045    0.0023   -0.0093   -0.0071    0.0006   -0.0042
          48    0.1739    0.1009   -0.0533    0.0607   -0.1206   -0.0574    0.0134   -0.0136
          49    0.3082   -0.2829    0.0882   -0.1443   -0.1061    0.1186    0.0103    0.0205
          50   -0.0070   -0.0017   -0.0046    0.0020    0.0095   -0.0071   -0.0012   -0.0041
          51    0.1737   -0.1009    0.0532   -0.0564   -0.1227    0.0567    0.0166    0.0120


   Root No.      33        34        35        36        37        38        39        40

                33 A      34 A      35 A      36 A      37 A      38 A      39 A      40 A   

                1468.8    1875.4    1894.6    2845.7    2932.1    3009.9    3042.4    3043.8
  
           1   -0.0001    0.0001   -0.1049   -0.1280    0.0004    0.0009   -0.0000    0.0007
           2    0.0003   -0.0001    0.0003   -0.2397    0.0013    0.0005   -0.0000    0.0020
           3   -0.4516    0.0966    0.0001   -0.0001    0.0000    0.0000   -0.0024   -0.0000
           4   -0.0000   -0.0001    0.1017   -0.0001   -0.0160    0.2151    0.0001    0.0144
           5   -0.0003   -0.0001   -0.0041   -0.0001   -0.3034   -0.0061   -0.0000    0.0005
           6    0.5677    0.1042    0.0001    0.0000   -0.0002   -0.0000    0.0013    0.0000
           7    0.0002   -0.0000   -0.0062    0.0073   -0.0000   -0.0001   -0.0000    0.0027
           8   -0.0001    0.0000    0.0029    0.0024   -0.0000   -0.0000   -0.0000    0.0023
           9    0.0419    0.0069    0.0000    0.0000    0.0000    0.0000   -0.0020   -0.0000
          10   -0.1400    0.4810    0.4826   -0.0013   -0.0003   -0.0008   -0.0808    0.0813
          11   -0.0048   -0.0013   -0.0015   -0.0001   -0.0013    0.0000    0.0069   -0.0070
          12    0.2551   -0.0772   -0.0669    0.0051    0.0001   -0.0002   -0.1303    0.1331
          13    0.1400   -0.4819    0.4818   -0.0013   -0.0003   -0.0008    0.0798    0.0812
          14    0.0046    0.0015   -0.0017   -0.0001   -0.0013    0.0000   -0.0067   -0.0068
          15    0.2550   -0.0773    0.0667   -0.0052   -0.0001    0.0003   -0.1288   -0.1331
          16    0.1229    0.4821   -0.4810    0.0022    0.0011   -0.0118    0.0608    0.0597
          17   -0.0106   -0.0057    0.0060   -0.0011   -0.0001   -0.0009    0.0040    0.0040
          18   -0.2972   -0.0828    0.0703   -0.0001    0.0006   -0.0236    0.1057    0.1061
          19   -0.1229   -0.4812   -0.4819    0.0022    0.0011   -0.0117   -0.0606    0.0586
          20    0.0109    0.0057    0.0060   -0.0011   -0.0001   -0.0009   -0.0042    0.0041
          21   -0.2972   -0.0827   -0.0705    0.0001   -0.0006    0.0235    0.1056   -0.1045
          22    0.0000   -0.0000   -0.0045    0.4446   -0.0007   -0.0008    0.0000   -0.0050
          23    0.0000   -0.0000   -0.0062    0.8529   -0.0020   -0.0015    0.0001   -0.0090
          24    0.1018    0.0223    0.0000    0.0002   -0.0000    0.0000   -0.0043   -0.0000
          25    0.0000   -0.0000    0.0186    0.0007    0.4372   -0.4264   -0.0001   -0.0336
          26    0.0001   -0.0000    0.0019    0.0003    0.4838   -0.5610   -0.0002   -0.0424
[...]
 TRANSITION DIPOLE   0.1066         C  2 -- H 10         +16.7% ( 46.1%)      3.5%
 TRAVEL (Ang.)       0.3580         C  1 -- C  5         +10.1% ( 35.8%)     62.3%
 REDUCED MASS        0.3908         C  1 -- C  4         +10.1% ( 35.8%)     62.3%
 EFFECTIVE MASS      3.6692
 FORCE CONSTANT      0.4174

 VIBRATION         28   28A           ATOM PAIR      ENERGY CONTRIBUTION    RADIAL
 FREQUENCY          1388.97         C  3 -- H 12         +11.0% ( 39.5%)      7.3%
 TRANSITION DIPOLE   0.0104         C  3 -- H 11         +10.4% ( 38.5%)      0.8%
 TRAVEL (Ang.)       0.3703         C  3 -- H 13         +10.4% ( 38.4%)      0.9%
 REDUCED MASS        0.3540         C  2 -- H 10          +9.9% ( 37.5%)      7.6%
 EFFECTIVE MASS      4.4035
 FORCE CONSTANT      0.4024

 VIBRATION         29   29A           ATOM PAIR      ENERGY CONTRIBUTION    RADIAL
 FREQUENCY          1390.08         C  1 -- C  4         +14.4% ( 58.4%)     65.2%
 TRANSITION DIPOLE   0.0527         C  1 -- C  5         +14.3% ( 58.1%)     64.1%
 TRAVEL (Ang.)       0.1456         C  1 -- H  8         +13.0% ( 55.5%)      0.0%
 REDUCED MASS        2.2886         C  1 -- C  3         +11.5% ( 52.1%)      0.0%
 EFFECTIVE MASS      8.9895
 FORCE CONSTANT      2.6056

 VIBRATION         30   30A           ATOM PAIR      ENERGY CONTRIBUTION    RADIAL
 FREQUENCY          1407.33         C  1 -- C  3         +13.4% ( 47.2%)     98.6%
 TRANSITION DIPOLE   0.0636         C  3 -- H 12         +11.6% ( 44.0%)      7.4%
 TRAVEL (Ang.)       0.2859         C  3 -- H 13          +9.5% ( 39.7%)      1.2%
 REDUCED MASS        0.5863         C  3 -- H 11          +9.0% ( 38.6%)      1.0%
 EFFECTIVE MASS      5.7192
 FORCE CONSTANT      0.6841

 VIBRATION         31   31A           ATOM PAIR      ENERGY CONTRIBUTION    RADIAL
 FREQUENCY          1408.74         C  3 -- H 12         +50.4% ( 62.0%)      0.0%
 TRANSITION DIPOLE   0.0530         C  3 -- H 13         +20.3% ( 39.3%)      9.5%
 TRAVEL (Ang.)       0.3470         C  3 -- H 11         +20.1% ( 39.1%)     11.8%
 REDUCED MASS        0.3976         C  1 -- C  3          +4.7% ( 19.0%)      3.1%
 EFFECTIVE MASS      1.6322
 FORCE CONSTANT      0.4649

 VIBRATION         32   32A           ATOM PAIR      ENERGY CONTRIBUTION    RADIAL
 FREQUENCY          1409.71         C  3 -- H 11         +36.3% ( 61.3%)      3.5%
 TRANSITION DIPOLE   0.0269         C  3 -- H 13         +35.3% ( 60.5%)      4.2%
 TRAVEL (Ang.)       0.2865         C  1 -- C  3         +12.3% ( 35.8%)     77.2%
 REDUCED MASS        0.5829         C  3 -- H 12          +8.2% ( 29.1%)      3.8%
 EFFECTIVE MASS      2.6995
 FORCE CONSTANT      0.6825

 VIBRATION         33   33A           ATOM PAIR      ENERGY CONTRIBUTION    RADIAL
 FREQUENCY          1468.79         C  2 -- C  7         +14.8% ( 60.6%)     82.1%
 TRANSITION DIPOLE   0.0478         C  2 -- C  6         +14.8% ( 60.6%)     82.1%
 TRAVEL (Ang.)       0.1452         C  1 -- C  4         +10.1% ( 50.0%)     85.6%
 REDUCED MASS        2.1786         C  1 -- C  5         +10.1% ( 50.0%)     85.6%
 EFFECTIVE MASS     10.9111
 FORCE CONSTANT      2.7692

 VIBRATION         34   34A           ATOM PAIR      ENERGY CONTRIBUTION    RADIAL
 FREQUENCY          1875.38         C  5 -- C  6         +22.2% ( 69.9%)    100.0%
 TRANSITION DIPOLE   0.0672         C  4 -- C  7         +22.2% ( 69.8%)    100.0%
 TRAVEL (Ang.)       0.1147         C  2 -- C  6          +7.2% ( 39.9%)     65.9%
 REDUCED MASS        2.7310         C  2 -- C  7          +7.2% ( 39.8%)     65.9%
 EFFECTIVE MASS     11.9029
 FORCE CONSTANT      5.6592

 VIBRATION         35   35A           ATOM PAIR      ENERGY CONTRIBUTION    RADIAL
 FREQUENCY          1894.62         C  4 -- C  7         +22.2% ( 69.2%)    100.0%
 TRANSITION DIPOLE   0.1603         C  5 -- C  6         +22.1% ( 69.0%)    100.0%
 TRAVEL (Ang.)       0.1148         C  1 -- C  4          +7.2% ( 39.5%)     41.1%
 REDUCED MASS        2.6989         C  1 -- C  5          +7.2% ( 39.4%)     41.0%
 EFFECTIVE MASS     11.8560
 FORCE CONSTANT      5.7080

 VIBRATION         36   36A           ATOM PAIR      ENERGY CONTRIBUTION    RADIAL
 FREQUENCY          2845.75         C  1 -- H  8         +96.9% ( 99.9%)    100.0%
 TRANSITION DIPOLE   0.0595         C  1 -- C  3          +1.0% ( 10.1%)      9.2%
 TRAVEL (Ang.)       0.1598         C  1 -- C  5          +1.0% ( 10.1%)      7.8%
 REDUCED MASS        0.9281         C  1 -- C  4          +1.0% ( 10.1%)      7.8%
 EFFECTIVE MASS      1.4355
 FORCE CONSTANT      4.4283

 VIBRATION         37   37A           ATOM PAIR      ENERGY CONTRIBUTION    RADIAL
 FREQUENCY          2932.07         C  2 -- H 10         +51.7% ( 74.6%)     96.8%
 TRANSITION DIPOLE   0.0314         C  2 -- H  9         +46.1% ( 70.4%)     96.2%
 TRAVEL (Ang.)       0.2105         C  2 -- C  7          +1.1% ( 10.8%)      0.0%
 REDUCED MASS        0.5192         C  2 -- C  6          +1.1% ( 10.8%)      0.0%
 EFFECTIVE MASS      1.5349
 FORCE CONSTANT      2.6298

 VIBRATION         38   38A           ATOM PAIR      ENERGY CONTRIBUTION    RADIAL
 FREQUENCY          3009.94         C  2 -- H  9         +51.5% ( 70.8%)     98.0%
 TRANSITION DIPOLE   0.0816         C  2 -- H 10         +45.5% ( 66.5%)     97.4%
 TRAVEL (Ang.)       0.2181         C  6 -- H 16          +0.8% (  8.9%)     99.9%
 REDUCED MASS        0.4710         C  7 -- H 17          +0.8% (  8.9%)     99.9%
 EFFECTIVE MASS      1.2837
 FORCE CONSTANT      2.5143

 VIBRATION         39   39A           ATOM PAIR      ENERGY CONTRIBUTION    RADIAL
 FREQUENCY          3042.44         C  4 -- H 15         +29.7% ( 55.3%)    100.0%
 TRANSITION DIPOLE   0.0384         C  5 -- H 14         +29.1% ( 54.7%)    100.0%
 TRAVEL (Ang.)       0.3025         C  6 -- H 16         +19.5% ( 44.8%)    100.0%
 REDUCED MASS        0.2422         C  7 -- H 17         +19.4% ( 44.7%)    100.0%
 EFFECTIVE MASS      1.4473
 FORCE CONSTANT      1.3210

 VIBRATION         40   40A           ATOM PAIR      ENERGY CONTRIBUTION    RADIAL
 FREQUENCY          3043.76         C  5 -- H 14         +29.9% ( 55.5%)    100.0%
 TRANSITION DIPOLE   0.3857         C  4 -- H 15         +29.9% ( 55.5%)    100.0%
 TRAVEL (Ang.)       0.3023         C  6 -- H 16         +18.9% ( 44.2%)    100.0%
 REDUCED MASS        0.2424         C  7 -- H 17         +18.3% ( 43.5%)    100.0%
 EFFECTIVE MASS      1.4672
 FORCE CONSTANT      1.3229

 VIBRATION         41   41A           ATOM PAIR      ENERGY CONTRIBUTION    RADIAL
 FREQUENCY          3062.31         C  6 -- H 16         +29.5% ( 55.1%)     99.9%
 TRANSITION DIPOLE   0.3832         C  7 -- H 17         +28.7% ( 54.4%)     99.9%
 TRAVEL (Ang.)       0.3012         C  5 -- H 14         +19.7% ( 45.0%)     99.9%
 REDUCED MASS        0.2428         C  4 -- H 15         +18.6% ( 43.8%)     99.9%
 EFFECTIVE MASS      1.5724
 FORCE CONSTANT      1.3414

 VIBRATION         42   42A           ATOM PAIR      ENERGY CONTRIBUTION    RADIAL
 FREQUENCY          3065.06         C  7 -- H 17         +29.8% ( 55.4%)     99.9%
 TRANSITION DIPOLE   0.0588         C  6 -- H 16         +28.4% ( 54.0%)     99.9%
 TRAVEL (Ang.)       0.3031         C  4 -- H 15         +18.8% ( 44.0%)     99.9%
 REDUCED MASS        0.2395         C  5 -- H 14         +18.3% ( 43.4%)     99.9%
 EFFECTIVE MASS      1.6026
 FORCE CONSTANT      1.3255

 VIBRATION         43   43A           ATOM PAIR      ENERGY CONTRIBUTION    RADIAL
 FREQUENCY          3083.57         C  3 -- H 11         +50.4% ( 73.2%)     97.3%
 TRANSITION DIPOLE   0.0008         C  3 -- H 13         +47.6% ( 71.2%)     96.9%
 TRAVEL (Ang.)       0.2071         C  1 -- C  3          +1.0% ( 10.5%)      0.0%
 REDUCED MASS        0.5100         C  3 -- H 12          +1.0% ( 10.4%)      1.0%
 EFFECTIVE MASS      1.5079
 FORCE CONSTANT      2.8569

 VIBRATION         44   44A           ATOM PAIR      ENERGY CONTRIBUTION    RADIAL
 FREQUENCY          3085.35         C  3 -- H 12         +62.6% ( 81.6%)     98.8%
 TRANSITION DIPOLE   0.0259         C  3 -- H 13         +19.5% ( 45.6%)     86.6%
 TRAVEL (Ang.)       0.2117         C  3 -- H 11         +16.7% ( 42.2%)     84.0%
 REDUCED MASS        0.4875         C  1 -- C  3          +1.0% ( 10.3%)      0.0%
 EFFECTIVE MASS      1.5043
 FORCE CONSTANT      2.7341

 VIBRATION         45   45A           ATOM PAIR      ENERGY CONTRIBUTION    RADIAL
 FREQUENCY          3181.39         C  3 -- H 12         +35.9% ( 57.7%)     97.5%
 TRANSITION DIPOLE   0.0331         C  3 -- H 11         +31.9% ( 54.4%)     96.9%
 TRAVEL (Ang.)       0.2542         C  3 -- H 13         +31.9% ( 54.3%)     96.9%
 REDUCED MASS        0.3279         C  1 -- C  3          +0.3% (  5.0%)     99.7%
 EFFECTIVE MASS      1.1341
 FORCE CONSTANT      1.9556

      SYMMETRY NUMBER FOR POINT-GROUP C1  =  1


          SYSTEM IS A GROUND STATE



 InChI=1S/C7H10/c1-7-5-3-2-4-6-7/h3-7H,2H2,1H3


          MOLECULE IS NOT LINEAR

          THERE ARE 45 GENUINE VIBRATIONS IN THIS SYSTEM
          THIS THERMODYNAMICS CALCULATION IS LIMITED TO
          MOLECULES WHICH HAVE NO INTERNAL ROTATIONS




                    CALCULATED THERMODYNAMIC PROPERTIES
                                          *
   TEMP. (K)   PARTITION FUNCTION   H.O.F.    ENTHALPY  HEAT CAPACITY ENTROPY
                                   KCAL/MOL   CAL/MOLE    CAL/K/MOL  CAL/K/MOL


 298.00  VIB.     0.2428D+02                  2475.7208    19.7962    14.6459
         ROT.     0.1892D+06                   888.2803     2.9808    27.1268
         INT.     0.4594D+07                  3364.0011    22.7770    41.7727
         TRA.     0.8833D+27                  1480.4672     4.9680    39.5363
         TOT.                       14.514    4844.4682    27.7451    81.3090

 200.00  VIB.     0.6694D+01                   976.7040    11.0937     8.6615
         ROT.     0.1040D+06                   596.1613     2.9808    25.9381
         INT.     0.6964D+06                  1572.8652    14.0745    34.5996
         TRA.     0.4856D+27                   993.6021     4.9680    37.5551
         TOT.                       12.236    2566.4674    19.0426    72.1547

 210.00  VIB.     0.7575D+01                  1091.5746    11.8851     9.2218
         ROT.     0.1119D+06                   625.9693     2.9808    26.0835
         INT.     0.8480D+06                  1717.5439    14.8660    35.3053
         TRA.     0.5225D+27                  1043.2822     4.9680    37.7975
         TOT.                       12.430    2760.8262    19.8340    73.1029

 220.00  VIB.     0.8587D+01                  1214.5000    12.7045     9.7935
         ROT.     0.1200D+06                   655.7774     2.9808    26.2222
         INT.     0.1031D+07                  1870.2774    15.6853    36.0157
         TRA.     0.5603D+27                  1092.9623     4.9680    38.0286
         TOT.                       12.633    2963.2398    20.6533    74.0443

 230.00  VIB.     0.9751D+01                  1345.7516    13.5501    10.3768
         ROT.     0.1283D+06                   685.5855     2.9808    26.3547
         INT.     0.1251D+07                  2031.3371    16.5309    36.7315
         TRA.     0.5989D+27                  1142.6424     4.9680    38.2495
         TOT.                       12.843    3173.9795    21.4989    74.9810

 240.00  VIB.     0.1109D+02                  1485.5813    14.4197    10.9718
         ROT.     0.1368D+06                   715.3935     2.9808    26.4816
         INT.     0.1517D+07                  2200.9748    17.4005    37.4533
         TRA.     0.6384D+27                  1192.3226     4.9680    38.4609
         TOT.                       13.063    3393.2974    22.3685    75.9143

 250.00  VIB.     0.1264D+02                  1634.2171    15.3108    11.5784
         ROT.     0.1454D+06                   745.2016     2.9808    26.6033
         INT.     0.1838D+07                  2379.4187    18.2916    38.1817
         TRA.     0.6787D+27                  1242.0027     4.9680    38.6637
         TOT.                       13.291    3621.4213    23.2596    76.8454

 260.00  VIB.     0.1443D+02                  1791.8603    16.2207    12.1966
         ROT.     0.1542D+06                   775.0097     2.9808    26.7202
         INT.     0.2226D+07                  2566.8699    19.2015    38.9167
         TRA.     0.7198D+27                  1291.6828     4.9680    38.8586
         TOT.                       13.528    3858.5527    24.1695    77.7753

 270.00  VIB.     0.1651D+02                  1958.6831    17.1463    12.8261
         ROT.     0.1632D+06                   804.8177     2.9808    26.8327
         INT.     0.2694D+07                  2763.5008    20.1271    39.6587
         TRA.     0.7618D+27                  1341.3629     4.9680    39.0461
         TOT.                       13.774    4104.8637    25.0951    78.7048

 280.00  VIB.     0.1891D+02                  2134.8280    18.0846    13.4665
         ROT.     0.1723D+06                   834.6258     2.9808    26.9411
         INT.     0.3260D+07                  2969.4538    21.0654    40.4076
         TRA.     0.8045D+27                  1391.0430     4.9680    39.2267
         TOT.                       14.030    4360.4968    26.0334    79.6344

 290.00  VIB.     0.2171D+02                  2320.4075    19.0327    14.1177
         ROT.     0.1817D+06                   864.4339     2.9808    27.0457
         INT.     0.3944D+07                  3184.8414    22.0135    41.1633
         TRA.     0.8479D+27                  1440.7231     4.9680    39.4011
         TOT.                       14.295    4625.5645    26.9815    80.5644

 300.00  VIB.     0.2497D+02                  2515.5046    19.9876    14.7790
         ROT.     0.1911D+06                   894.2419     2.9808    27.1467
         INT.     0.4772D+07                  3409.7465    22.9685    41.9257
         TRA.     0.8922D+27                  1490.4032     4.9680    39.5695
         TOT.                       14.570    4900.1497    27.9365    81.4952

 310.00  VIB.     0.2876D+02                  2720.1741    20.9467    15.4500
         ROT.     0.2008D+06                   924.0500     2.9808    27.2445
         INT.     0.5775D+07                  3644.2241    23.9275    42.6945
         TRA.     0.9372D+27                  1540.0833     4.9680    39.7324
         TOT.                       14.854    5184.3074    28.8955    82.4269

 320.00  VIB.     0.3320D+02                  2934.4441    21.9073    16.1302
         ROT.     0.2106D+06                   953.8580     2.9808    27.3391
         INT.     0.6990D+07                  3888.3021    24.8881    43.4693
         TRA.     0.9829D+27                  1589.7634     4.9680    39.8901
         TOT.                       15.147    5478.0655    29.8561    83.3594

 330.00  VIB.     0.3838D+02                  3158.3177    22.8671    16.8190
         ROT.     0.2205D+06                   983.6661     2.9808    27.4308
         INT.     0.8463D+07                  4141.9838    25.8479    44.2499
         TRA.     0.1029D+28                  1639.4435     4.9680    40.0430
         TOT.                       15.451    5781.4273    30.8159    84.2929

 340.00  VIB.     0.4445D+02                  3391.7753    23.8238    17.5159
         ROT.     0.2306D+06                  1013.4742     2.9808    27.5198
         INT.     0.1025D+08                  4405.2494    26.8046    45.0357
         TRA.     0.1076D+28                  1689.1236     4.9680    40.1913
         TOT.                       15.764    6094.3731    31.7726    85.2270

 350.00  VIB.     0.5156D+02                  3634.7764    24.7755    18.2202
         ROT.     0.2409D+06                  1043.2822     2.9808    27.6062
         INT.     0.1242D+08                  4678.0586    27.7563    45.8265
         TRA.     0.1124D+28                  1738.8037     4.9680    40.3353
         TOT.                       16.086    6416.8624    32.7243    86.1618

 360.00  VIB.     0.5992D+02                  3887.2621    25.7204    18.9314
         ROT.     0.2513D+06                  1073.0903     2.9808    27.6902
         INT.     0.1505D+08                  4960.3524    28.7012    46.6216
         TRA.     0.1173D+28                  1788.4838     4.9680    40.4753
         TOT.                       16.418    6748.8362    33.6692    87.0969

 370.00  VIB.     0.6973D+02                  4149.1570    26.6571    19.6490
         ROT.     0.2618D+06                  1102.8984     2.9808    27.7719
         INT.     0.1826D+08                  5252.0553    29.6379    47.4208
         TRA.     0.1222D+28                  1838.1639     4.9680    40.6114
         TOT.                       16.760    7090.2193    34.6059    88.0322

 380.00  VIB.     0.8128D+02                  4420.3712    27.5841    20.3722
         ROT.     0.2725D+06                  1132.7064     2.9808    27.8513
         INT.     0.2215D+08                  5553.0776    30.5649    48.2235
         TRA.     0.1272D+28                  1887.8440     4.9680    40.7439
         TOT.                       17.110    7440.9217    35.5329    88.9674

 390.00  VIB.     0.9489D+02                  4700.8026    28.5003    21.1006
         ROT.     0.2833D+06                  1162.5145     2.9808    27.9288
         INT.     0.2688D+08                  5863.3171    31.4811    49.0293
         TRA.     0.1322D+28                  1937.5242     4.9680    40.8729
         TOT.                       17.470    7800.8413    36.4491    89.9023

 400.00  VIB.     0.1109D+03                  4990.3386    29.4048    21.8336
         ROT.     0.2943D+06                  1192.3226     2.9808    28.0042
         INT.     0.3265D+08                  6182.6611    32.3856    49.8378
         TRA.     0.1374D+28                  1987.2043     4.9680    40.9987
         TOT.                       17.839    8169.8654    37.3537    90.8365

   *: NOTE: HEATS OF FORMATION ARE RELATIVE TO THE
            ELEMENTS IN THEIR STANDARD STATE AT 298K
              (=  Standard Enthalpy of Formation).

            Hvib:  Zero-point energy is not included.
                   frequencies of less than zero cm-1 are not included.
            Hrot = (3/2)RT
            Htra = (3/2)RT + pV = (5/2)RT

            Heat capacity is Cp, not Cv

          For more information, see: HTTP://OpenMOPAC.net/Manual/thermochemistry.html


           FORCE CONSTANT IN CARTESIAN COORDINATES (Millidynes/A)

    ATOM   CHEMICAL       X               Y               Z
   NUMBER   SYMBOL  FORCE CONSTANT  FORCE CONSTANT  FORCE CONSTANT

      1       C        8.887886        7.752929        9.395661
      2       C        9.054209        7.660522        9.414690
      3       C        8.270843        8.078189        8.451267
      4       C       15.494943        2.457568        9.395442
      5       C       15.493581        2.456775        9.396568
      6       C       15.376187        2.372226        9.587156
      7       C       15.376873        2.372871        9.586613
      8       H        1.473149        3.668665        0.645307
      9       H        2.360767        3.158794        0.680894
     10       H        1.777356        3.728748        0.657837
     11       H        2.280607        0.731600        3.778887
     12       H        1.644765        4.471404        0.666129
     13       H        2.263459        0.729059        3.798815
     14       H        1.890174        0.358818        3.993505
     15       H        1.890680        0.359312        3.992229
     16       H        1.897397        0.354001        3.994203
     17       H        1.897475        0.354474        3.994161

 **********************
 *                    *
 * JOB ENDED NORMALLY *
 *                    *
 **********************



 TOTAL JOB TIME:             1.47 SECONDS

 == MOPAC DONE ==
