 *******************************************************************************
 **                                                                           **
 **                              MOPAC v23.1.2                                **
 **                                                                           **
 *******************************************************************************
 **          Digital Object Identifier (DOI): 10.5281/zenodo.6511958          **
 **    Visit the DOI location for information on how to cite this program.    **
 *******************************************************************************

                              PM3 CALCULATION RESULTS

 *******************************************************************************
 *  CALCULATION DONE: (MAX THREADS = 1)              Tue Jun  3 16:29:12 2025  *
 *  PM3        - The PM3 Hamiltonian to be used
 *  PRECISE    - TIGHTER CRITERIA TO BE USED
 *  NOSYM      - POINT-GROUP SYMMETRY SET TO C1
 *  THREADS=1  - MULTI-THREADING NOT USED
 *  T=         - A TIME OF 172800.0 SECONDS REQUESTED
 *  DUMP=N     - RESTART FILE WRITTEN EVERY 7200.0 SECONDS REQUESTED
 *******************************************************************************
pm3  precise nosym THREADS=1
 InChI=1S/C7H10/c1-6-3-4-7(2)5-6/h3-4,7H,1,5H2,2H3

   ATOM   CHEMICAL          X               Y               Z
  NUMBER   SYMBOL      (ANGSTROMS)     (ANGSTROMS)     (ANGSTROMS)

     1       C          0.94290000  *   0.13060000  *  -0.39750000  *
     2       C         -0.13810000  *  -0.95290000  *  -0.19020000  *
     3       C          2.17720000  *  -0.10420000  *   0.47610000  *
     4       C         -1.31980000  *  -0.16960000  *   0.26560000  *
     5       C          0.26420000  *   1.41640000  *  -0.02550000  *
     6       C         -0.99120000  *   1.23810000  *   0.33710000  *
     7       C         -2.50830000  *  -0.68740000  *   0.56390000  *
     8       H          1.24560000  *   0.17220000  *  -1.46680000  *
     9       H         -0.36640000  *  -1.46850000  *  -1.14830000  *
    10       H          0.14580000  *  -1.70030000  *   0.58320000  *
    11       H          2.65030000  *  -1.07250000  *   0.20730000  *
    12       H          1.89990000  *  -0.12440000  *   1.55240000  *
    13       H          2.91890000  *   0.70620000  *   0.31090000  *
    14       H          0.73970000  *   2.38820000  *  -0.06180000  *
    15       H         -1.66250000  *   2.03240000  *   0.63760000  *
    16       H         -3.32130000  *  -0.05060000  *   0.88920000  *
    17       H         -2.67680000  *  -1.75370000  *   0.48490000  *



          CARTESIAN COORDINATES 

    NO.       ATOM           X           Y           Z

     1         C          0.9429      0.1306     -0.3975
     2         C         -0.1381     -0.9529     -0.1902
     3         C          2.1772     -0.1042      0.4761
     4         C         -1.3198     -0.1696      0.2656
     5         C          0.2642      1.4164     -0.0255
     6         C         -0.9912      1.2381      0.3371
     7         C         -2.5083     -0.6874      0.5639
     8         H          1.2456      0.1722     -1.4668
     9         H         -0.3664     -1.4685     -1.1483
    10         H          0.1458     -1.7003      0.5832
    11         H          2.6503     -1.0725      0.2073
    12         H          1.8999     -0.1244      1.5524
    13         H          2.9189      0.7062      0.3109
    14         H          0.7397      2.3882     -0.0618
    15         H         -1.6625      2.0324      0.6376
    16         H         -3.3213     -0.0506      0.8892
    17         H         -2.6768     -1.7537      0.4849

  H: (PM3): J. J. P. STEWART, J. COMP. CHEM. 10, 209 (1989).
  C: (PM3): J. J. P. STEWART, J. COMP. CHEM. 10, 209 (1989).

           Empirical Formula: C7 H10  =    17 atoms



      MOLECULAR POINT GROUP   :   C1  


      RHF CALCULATION, NO. OF DOUBLY OCCUPIED LEVELS = 19


          Geometry optimization using EF

          DIAGONAL MATRIX USED AS START HESSIAN

 CYCLE:     1 TIME:   0.004 TIME LEFT:  2.00D  GRAD.:    68.759 HEAT:  20.93478
 CYCLE:     2 TIME:   0.012 TIME LEFT:  2.00D  GRAD.:    58.366 HEAT:  20.08293
 CYCLE:     3 TIME:   0.008 TIME LEFT:  2.00D  GRAD.:    22.409 HEAT:  19.23997
 CYCLE:     4 TIME:   0.008 TIME LEFT:  2.00D  GRAD.:    29.334 HEAT:  19.01864
 CYCLE:     5 TIME:   0.004 TIME LEFT:  2.00D  GRAD.:    16.479 HEAT:  18.64670
 CYCLE:     6 TIME:   0.012 TIME LEFT:  2.00D  GRAD.:    24.154 HEAT:  18.54463
 CYCLE:     7 TIME:   0.004 TIME LEFT:  2.00D  GRAD.:    18.881 HEAT:  18.40624
 CYCLE:     8 TIME:   0.004 TIME LEFT:  2.00D  GRAD.:    22.710 HEAT:  18.40092
 CYCLE:     9 TIME:   0.008 TIME LEFT:  2.00D  GRAD.:     8.627 HEAT:  18.25927
 CYCLE:    10 TIME:   0.008 TIME LEFT:  2.00D  GRAD.:    11.234 HEAT:  18.25569
 CYCLE:    11 TIME:   0.008 TIME LEFT:  2.00D  GRAD.:     4.503 HEAT:  18.22565
 CYCLE:    12 TIME:   0.008 TIME LEFT:  2.00D  GRAD.:     2.778 HEAT:  18.21904
 CYCLE:    13 TIME:   0.008 TIME LEFT:  2.00D  GRAD.:     3.173 HEAT:  18.21610
 CYCLE:    14 TIME:   0.008 TIME LEFT:  2.00D  GRAD.:     4.164 HEAT:  18.21316
 CYCLE:    15 TIME:   0.004 TIME LEFT:  2.00D  GRAD.:     1.579 HEAT:  18.20845
 CYCLE:    16 TIME:   0.004 TIME LEFT:  2.00D  GRAD.:     3.467 HEAT:  18.21009
 CYCLE:    17 TIME:   0.004 TIME LEFT:  2.00D  GRAD.:     0.869 HEAT:  18.20651
 CYCLE:    18 TIME:   0.004 TIME LEFT:  2.00D  GRAD.:     0.928 HEAT:  18.20585
 CYCLE:    19 TIME:   0.004 TIME LEFT:  2.00D  GRAD.:     1.156 HEAT:  18.20487
 CYCLE:    20 TIME:   0.008 TIME LEFT:  2.00D  GRAD.:     2.214 HEAT:  18.20446
 CYCLE:    21 TIME:   0.008 TIME LEFT:  2.00D  GRAD.:     1.508 HEAT:  18.20330
 CYCLE:    22 TIME:   0.004 TIME LEFT:  2.00D  GRAD.:     1.061 HEAT:  18.20247
 CYCLE:    23 TIME:   0.004 TIME LEFT:  2.00D  GRAD.:     0.661 HEAT:  18.20175
 CYCLE:    24 TIME:   0.008 TIME LEFT:  2.00D  GRAD.:     1.223 HEAT:  18.20097
 CYCLE:    25 TIME:   0.004 TIME LEFT:  2.00D  GRAD.:     1.172 HEAT:  18.19995
 CYCLE:    26 TIME:   0.004 TIME LEFT:  2.00D  GRAD.:     0.690 HEAT:  18.19887
 CYCLE:    27 TIME:   0.004 TIME LEFT:  2.00D  GRAD.:     0.535 HEAT:  18.19791
 CYCLE:    28 TIME:   0.004 TIME LEFT:  2.00D  GRAD.:     0.710 HEAT:  18.19722
 CYCLE:    29 TIME:   0.008 TIME LEFT:  2.00D  GRAD.:     0.632 HEAT:  18.19659
 CYCLE:    30 TIME:   0.004 TIME LEFT:  2.00D  GRAD.:     0.564 HEAT:  18.19587
 CYCLE:    31 TIME:   0.004 TIME LEFT:  2.00D  GRAD.:     0.656 HEAT:  18.19485
 CYCLE:    32 TIME:   0.008 TIME LEFT:  2.00D  GRAD.:     0.815 HEAT:  18.19364
 CYCLE:    33 TIME:   0.004 TIME LEFT:  2.00D  GRAD.:     0.859 HEAT:  18.19238
 CYCLE:    34 TIME:   0.008 TIME LEFT:  2.00D  GRAD.:     0.836 HEAT:  18.19080
 CYCLE:    35 TIME:   0.004 TIME LEFT:  2.00D  GRAD.:     0.741 HEAT:  18.18952
 CYCLE:    36 TIME:   0.008 TIME LEFT:  2.00D  GRAD.:     0.583 HEAT:  18.18863
 CYCLE:    37 TIME:   0.004 TIME LEFT:  2.00D  GRAD.:     0.488 HEAT:  18.18797
 CYCLE:    38 TIME:   0.004 TIME LEFT:  2.00D  GRAD.:     0.477 HEAT:  18.18729
 CYCLE:    39 TIME:   0.004 TIME LEFT:  2.00D  GRAD.:     0.481 HEAT:  18.18656
 CYCLE:    40 TIME:   0.008 TIME LEFT:  2.00D  GRAD.:     0.390 HEAT:  18.18613
 CYCLE:    41 TIME:   0.004 TIME LEFT:  2.00D  GRAD.:     0.281 HEAT:  18.18590
 CYCLE:    42 TIME:   0.008 TIME LEFT:  2.00D  GRAD.:     0.269 HEAT:  18.18566
 CYCLE:    43 TIME:   0.004 TIME LEFT:  2.00D  GRAD.:     0.244 HEAT:  18.18553
 CYCLE:    44 TIME:   0.004 TIME LEFT:  2.00D  GRAD.:     0.176 HEAT:  18.18540
 CYCLE:    45 TIME:   0.004 TIME LEFT:  2.00D  GRAD.:     0.162 HEAT:  18.18534
 CYCLE:    46 TIME:   0.008 TIME LEFT:  2.00D  GRAD.:     0.162 HEAT:  18.18529
 CYCLE:    47 TIME:   0.004 TIME LEFT:  2.00D  GRAD.:     0.178 HEAT:  18.18521
 CYCLE:    48 TIME:   0.004 TIME LEFT:  2.00D  GRAD.:     0.126 HEAT:  18.18516
 CYCLE:    49 TIME:   0.012 TIME LEFT:  2.00D  GRAD.:     0.082 HEAT:  18.18513
 CYCLE:    50 TIME:   0.020 TIME LEFT:  2.00D  GRAD.:     0.094 HEAT:  18.18512
 CYCLE:    51 TIME:   0.004 TIME LEFT:  2.00D  GRAD.:     0.089 HEAT:  18.18511
 CYCLE:    52 TIME:   0.004 TIME LEFT:  2.00D  GRAD.:     0.089 HEAT:  18.18509
 CYCLE:    53 TIME:   0.004 TIME LEFT:  2.00D  GRAD.:     0.057 HEAT:  18.18508
 CYCLE:    54 TIME:   0.008 TIME LEFT:  2.00D  GRAD.:     0.051 HEAT:  18.18507
 CYCLE:    55 TIME:   0.008 TIME LEFT:  2.00D  GRAD.:     0.071 HEAT:  18.18506
 CYCLE:    56 TIME:   0.004 TIME LEFT:  2.00D  GRAD.:     0.056 HEAT:  18.18505
 CYCLE:    57 TIME:   0.008 TIME LEFT:  2.00D  GRAD.:     0.124 HEAT:  18.18504
 CYCLE:    58 TIME:   0.004 TIME LEFT:  2.00D  GRAD.:     0.060 HEAT:  18.18502
 CYCLE:    59 TIME:   0.004 TIME LEFT:  2.00D  GRAD.:     0.049 HEAT:  18.18501

     GRADIENT =  0.04875 IS LESS THAN CUTOFF =  0.05000



 -------------------------------------------------------------------------------
 pm3  precise nosym THREADS=1
 InChI=1S/C7H10/c1-6-3-4-7(2)5-6/h3-4,7H,1,5H2,2H3



     GEOMETRY OPTIMISED USING EIGENVECTOR FOLLOWING (EF).     
     SCF FIELD WAS ACHIEVED                                   


                              PM3 CALCULATION
                                                       MOPAC v23.1.2 MacOS
                                                       Tue Jun  3 16:29:13 2025




          FINAL HEAT OF FORMATION =         18.18501 KCAL/MOL =      76.08609 KJ/MOL


          COSMO AREA              =        146.21 SQUARE ANGSTROMS
          COSMO VOLUME            =        139.82 CUBIC ANGSTROMS

          GRADIENT NORM           =          0.04875          =       0.01182 PER ATOM
          IONIZATION POTENTIAL    =          9.084542 EV
          HOMO LUMO ENERGIES (EV) =         -9.085  0.318
          NO. OF FILLED LEVELS    =         19
          MOLECULAR WEIGHT        =         94.1560         POINT GROUP:  C1  

          MOLECULAR DIMENSIONS (Angstroms)

            Atom       Atom       Distance
            H    16    H    13     6.40070
            H    15    H     9     4.01929
            H    12    H     8     2.93544


          SCF CALCULATIONS        =         66

          WALL-CLOCK TIME         =      0.371 SECONDS
          COMPUTATION TIME        =      0.191 SECONDS




   ATOM   CHEMICAL          X               Y               Z
  NUMBER   SYMBOL      (ANGSTROMS)     (ANGSTROMS)     (ANGSTROMS)

     1       C          0.95697466  *   0.13749786  *  -0.38770122  *
     2       C         -0.13201720  *  -0.93752902  *  -0.15947618  *
     3       C          2.19981266  *  -0.10432035  *   0.44376917  *
     4       C         -1.35363441  *  -0.17569277  *   0.27215887  *
     5       C          0.28300345  *   1.43121825  *  -0.01732623  *
     6       C         -0.99718241  *   1.24597636  *   0.34003604  *
     7       C         -2.54723861  *  -0.69570922  *   0.54321432  *
     8       H          1.24024527  *   0.17592023  *  -1.46587472  *
     9       H         -0.33062933  *  -1.51917888  *  -1.07754397  *
    10       H          0.16807896  *  -1.67000123  *   0.61313321  *
    11       H          2.67905682  *  -1.05371316  *   0.17230045  *
    12       H          1.97110713  *  -0.14597420  *   1.51693325  *
    13       H          2.93694422  *   0.69540308  *   0.29583324  *
    14       H          0.82195702  *   2.37751561  *  -0.05274451  *
    15       H         -1.71229494  *   2.01002628  *   0.64457598  *
    16       H         -3.39159238  *  -0.08648606  *   0.85008425  *
    17       H         -2.75035963  *  -1.75959681  *   0.47403912  *

                             CARTESIAN COORDINATES

   1    C        0.956974660     0.137497865    -0.387701218
   2    C       -0.132017202    -0.937529023    -0.159476178
   3    C        2.199812660    -0.104320352     0.443769167
   4    C       -1.353634408    -0.175692766     0.272158872
   5    C        0.283003452     1.431218246    -0.017326228
   6    C       -0.997182412     1.245976357     0.340036036
   7    C       -2.547238607    -0.695709218     0.543214317
   8    H        1.240245271     0.175920231    -1.465874717
   9    H       -0.330629334    -1.519178882    -1.077543974
  10    H        0.168078961    -1.670001234     0.613133208
  11    H        2.679056823    -1.053713164     0.172300448
  12    H        1.971107135    -0.145974200     1.516933250
  13    H        2.936944223     0.695403081     0.295833241
  14    H        0.821957017     2.377515605    -0.052744511
  15    H       -1.712294940     2.010026284     0.644575983
  16    H       -3.391592385    -0.086486058     0.850084245
  17    H       -2.750359627    -1.759596811     0.474039116


           Empirical Formula: C7 H10  =    17 atoms



      MOLECULAR POINT GROUP   :   C1  


                  EIGENVALUES  
 -40.54041 -32.48692 -29.07162 -26.25850 -22.15670 -19.45412 -18.38603 -17.12750
 -15.88087 -14.83443 -14.46050 -13.88517 -13.58904 -12.94608 -12.51011 -12.02972
 -12.00101 -11.26814  -9.08454   0.31817   2.03084   3.25970   3.36104   3.53345
   3.76006   3.90923   3.95396   3.98119   4.21521   4.34961   4.41352   4.54640
   4.83755   4.99977   5.03113   5.67651   5.89468   6.20717


              NET ATOMIC CHARGES AND DIPOLE CONTRIBUTIONS

  ATOM NO.   TYPE          CHARGE      No. of ELECS.   s-Pop       p-Pop       
    1          C          -0.050316        4.0503     1.17153     2.87878
    2          C          -0.062953        4.0630     1.15633     2.90663
    3          C          -0.103183        4.1032     1.13885     2.96434
    4          C          -0.086116        4.0861     1.19224     2.89388
    5          C          -0.136544        4.1365     1.20701     2.92954
    6          C          -0.111425        4.1114     1.18822     2.92320
    7          C          -0.161155        4.1612     1.17631     2.98484
    8          H           0.069469        0.9305     0.93053
    9          H           0.059285        0.9407     0.94072
   10          H           0.064257        0.9357     0.93574
   11          H           0.039092        0.9609     0.96091
   12          H           0.044184        0.9558     0.95582
   13          H           0.039547        0.9605     0.96045
   14          H           0.112577        0.8874     0.88742
   15          H           0.114466        0.8855     0.88553
   16          H           0.085110        0.9149     0.91489
   17          H           0.083706        0.9163     0.91629
 DIPOLE           X         Y         Z       TOTAL
 POINT-CHG.     0.460    -0.031    -0.114     0.475
 HYBRID        -0.021     0.005     0.017     0.028
 SUM            0.438    -0.025    -0.097     0.450


          ATOMIC ORBITAL ELECTRON POPULATIONS

     Atom    s        px        py        pz   
    1  C   1.17153   0.95069   0.93467   0.99342
    2  C   1.15633   0.93507   0.96309   1.00847
    3  C   1.13885   0.96297   1.00594   0.99543
    4  C   1.19224   0.95727   0.94469   0.99192
    5  C   1.20701   0.96333   0.97623   0.98998
    6  C   1.18822   0.96603   0.94940   1.00777
    7  C   1.17631   0.95945   1.00224   1.02316
    8  H   0.93053
    9  H   0.94072
   10  H   0.93574
   11  H   0.96091
   12  H   0.95582
   13  H   0.96045
   14  H   0.88742
   15  H   0.88553
   16  H   0.91489
   17  H   0.91629
 *******************************************************************************
 **                                                                           **
 **                              MOPAC v23.1.2                                **
 **                                                                           **
 *******************************************************************************
 **          Digital Object Identifier (DOI): 10.5281/zenodo.6511958          **
 **    Visit the DOI location for information on how to cite this program.    **
 *******************************************************************************

                              PM3 CALCULATION RESULTS

 *******************************************************************************
 *  CALCULATION DONE: (MAX THREADS = 1)              Tue Jun  3 16:29:13 2025  *
 *  PM3        - The PM3 Hamiltonian to be used
 *  OLDGEO     - PREVIOUS GEOMETRY TO BE USED
 *  PRECISE    - TIGHTER CRITERIA TO BE USED
 *  NOSYM      - POINT-GROUP SYMMETRY SET TO C1
 *  THREADS=1  - MULTI-THREADING NOT USED
 *  T=         - A TIME OF 172800.0 SECONDS REQUESTED
 *  DUMP=N     - RESTART FILE WRITTEN EVERY 7200.0 SECONDS REQUESTED
 *  THERMO     - THERMODYNAMIC QUANTITIES TO BE CALCULATED
 *******************************************************************************
oldgeo thermo nosym precise THREADS=1  pm3
 InChI=1S/C7H10/c1-6-3-4-7(2)5-6/h3-4,7H,1,5H2,2H3

   ATOM   CHEMICAL          X               Y               Z
  NUMBER   SYMBOL      (ANGSTROMS)     (ANGSTROMS)     (ANGSTROMS)

     1       C          0.95697466  *   0.13749786  *  -0.38770122  *
     2       C         -0.13201720  *  -0.93752902  *  -0.15947618  *
     3       C          2.19981266  *  -0.10432035  *   0.44376917  *
     4       C         -1.35363441  *  -0.17569277  *   0.27215887  *
     5       C          0.28300345  *   1.43121825  *  -0.01732623  *
     6       C         -0.99718241  *   1.24597636  *   0.34003604  *
     7       C         -2.54723861  *  -0.69570922  *   0.54321432  *
     8       H          1.24024527  *   0.17592023  *  -1.46587472  *
     9       H         -0.33062933  *  -1.51917888  *  -1.07754397  *
    10       H          0.16807896  *  -1.67000123  *   0.61313321  *
    11       H          2.67905682  *  -1.05371316  *   0.17230045  *
    12       H          1.97110713  *  -0.14597420  *   1.51693325  *
    13       H          2.93694422  *   0.69540308  *   0.29583324  *
    14       H          0.82195702  *   2.37751561  *  -0.05274451  *
    15       H         -1.71229494  *   2.01002628  *   0.64457598  *
    16       H         -3.39159238  *  -0.08648606  *   0.85008425  *
    17       H         -2.75035963  *  -1.75959681  *   0.47403912  *



          CARTESIAN COORDINATES 

    NO.       ATOM           X           Y           Z

     1         C          0.9570      0.1375     -0.3877
     2         C         -0.1320     -0.9375     -0.1595
     3         C          2.1998     -0.1043      0.4438
     4         C         -1.3536     -0.1757      0.2722
     5         C          0.2830      1.4312     -0.0173
     6         C         -0.9972      1.2460      0.3400
     7         C         -2.5472     -0.6957      0.5432
     8         H          1.2402      0.1759     -1.4659
     9         H         -0.3306     -1.5192     -1.0775
    10         H          0.1681     -1.6700      0.6131
    11         H          2.6791     -1.0537      0.1723
    12         H          1.9711     -0.1460      1.5169
    13         H          2.9369      0.6954      0.2958
    14         H          0.8220      2.3775     -0.0527
    15         H         -1.7123      2.0100      0.6446
    16         H         -3.3916     -0.0865      0.8501
    17         H         -2.7504     -1.7596      0.4740

  H: (PM3): J. J. P. STEWART, J. COMP. CHEM. 10, 209 (1989).
  C: (PM3): J. J. P. STEWART, J. COMP. CHEM. 10, 209 (1989).

           Empirical Formula: C7 H10  =    17 atoms



      MOLECULAR POINT GROUP   :   C1  


      RHF CALCULATION, NO. OF DOUBLY OCCUPIED LEVELS = 19



          HEAT OF FORMATION =      18.185013 KCALS/MOLE


          CARTESIAN COORDINATE DERIVATIVES

   NUMBER  ATOM         X            Y            Z

     1       C     -0.006550    -0.004151     0.004650
     2       C     -0.001281     0.001860     0.002066
     3       C      0.000753     0.003193    -0.000810
     4       C      0.006201    -0.002022    -0.000562
     5       C      0.009130    -0.006230     0.000528
     6       C      0.004765    -0.008861     0.002521
     7       C      0.001016     0.001922     0.000435
     8       H      0.000812     0.015801    -0.015549
     9       H     -0.000303    -0.010130     0.007022
    10       H     -0.014330     0.004309    -0.001762
    11       H     -0.012367     0.008173    -0.005173
    12       H      0.004858     0.008951    -0.011602
    13       H      0.007944    -0.005683     0.009040
    14       H      0.002941    -0.005297     0.000264
    15       H      0.007401     0.004655     0.004424
    16       H     -0.016919    -0.000555    -0.002448
    17       H      0.005929    -0.005935     0.006957



          GRADIENT NORM =   0.04957

          MOLECULAR WEIGHT =   94.16



          ROTATIONAL CONSTANTS IN CM(-1)

          A =    0.18587546   B =    0.06981948   C =    0.05549001



           PRINCIPAL MOMENTS OF INERTIA IN UNITS OF 10**(-40)*GRAM-CM**2

          A =      150.5995   B =      400.9304   C =      504.4647


          ORIENTATION OF MOLECULE IN FORCE CALCULATION

    NO.       ATOM         X         Y         Z

     1          C      -0.9067    0.3095   -0.8250
     2          C       0.6404    0.3095   -0.8250
     3          C      -1.4909    1.7071   -0.8250
     4          C       1.0346   -0.4872    0.3871
     5          C      -1.2767   -0.4480    0.4219
     6          C      -0.1941   -0.8893    1.0809
     7          C       2.2760   -0.7785    0.7646
     8          H      -1.2919   -0.2477   -1.7112
     9          H       1.0489   -0.1420   -1.7469
    10          H       1.0521    1.3348   -0.7727
    11          H      -1.2086    2.2540   -1.7337
    12          H      -1.1426    2.2949    0.0346
    13          H      -2.5872    1.6780   -0.7805
    14          H      -2.3188   -0.5890    0.7070
    15          H      -0.1768   -1.4690    2.0037
    16          H       2.4923   -1.3618    1.6541
    17          H       3.1480   -0.4518    0.2071


    FIRST DERIVATIVES WILL BE USED IN THE CALCULATION OF SECOND DERIVATIVES

          ESTIMATED TIME TO COMPLETE CALCULATION =        1.59 SECONDS

    FOR POINT-GROUP C1   THERE ARE   1 UNIQUE SYMMETRY FUNCTIONS.

 STEP:   1 TIME =     0.02 SECS, INTEGRAL =      0.02 TIME LEFT: 172799.98
 STEP:   2 TIME =     0.01 SECS, INTEGRAL =      0.03 TIME LEFT: 172799.96
 STEP:   3 TIME =     0.01 SECS, INTEGRAL =      0.04 TIME LEFT: 172799.95
 STEP:   4 TIME =     0.01 SECS, INTEGRAL =      0.05 TIME LEFT: 172799.94
 STEP:   5 TIME =     0.01 SECS, INTEGRAL =      0.06 TIME LEFT: 172799.93
 STEP:   6 TIME =     0.01 SECS, INTEGRAL =      0.07 TIME LEFT: 172799.92
 STEP:   7 TIME =     0.01 SECS, INTEGRAL =      0.09 TIME LEFT: 172799.91
 STEP:   8 TIME =     0.01 SECS, INTEGRAL =      0.10 TIME LEFT: 172799.89
 STEP:   9 TIME =     0.02 SECS, INTEGRAL =      0.11 TIME LEFT: 172799.88
 STEP:  10 TIME =     0.01 SECS, INTEGRAL =      0.12 TIME LEFT: 172799.87
 STEP:  11 TIME =     0.01 SECS, INTEGRAL =      0.14 TIME LEFT: 172799.86
 STEP:  12 TIME =     0.01 SECS, INTEGRAL =      0.15 TIME LEFT: 172799.84
 STEP:  13 TIME =     0.01 SECS, INTEGRAL =      0.16 TIME LEFT: 172799.83
 STEP:  14 TIME =     0.02 SECS, INTEGRAL =      0.18 TIME LEFT: 172799.82
 STEP:  15 TIME =     0.01 SECS, INTEGRAL =      0.19 TIME LEFT: 172799.80
 STEP:  16 TIME =     0.01 SECS, INTEGRAL =      0.20 TIME LEFT: 172799.79
 STEP:  17 TIME =     0.01 SECS, INTEGRAL =      0.21 TIME LEFT: 172799.78
 STEP:  18 TIME =     0.01 SECS, INTEGRAL =      0.22 TIME LEFT: 172799.77
 STEP:  19 TIME =     0.01 SECS, INTEGRAL =      0.23 TIME LEFT: 172799.76
 STEP:  20 TIME =     0.01 SECS, INTEGRAL =      0.25 TIME LEFT: 172799.75
 STEP:  21 TIME =     0.01 SECS, INTEGRAL =      0.26 TIME LEFT: 172799.73
 STEP:  22 TIME =     0.01 SECS, INTEGRAL =      0.27 TIME LEFT: 172799.72
 STEP:  23 TIME =     0.01 SECS, INTEGRAL =      0.28 TIME LEFT: 172799.71
 STEP:  24 TIME =     0.01 SECS, INTEGRAL =      0.29 TIME LEFT: 172799.70
 STEP:  25 TIME =     0.01 SECS, INTEGRAL =      0.30 TIME LEFT: 172799.69
 STEP:  26 TIME =     0.02 SECS, INTEGRAL =      0.32 TIME LEFT: 172799.67
 STEP:  27 TIME =     0.01 SECS, INTEGRAL =      0.33 TIME LEFT: 172799.66
 STEP:  28 TIME =     0.01 SECS, INTEGRAL =      0.34 TIME LEFT: 172799.65
 STEP:  29 TIME =     0.01 SECS, INTEGRAL =      0.36 TIME LEFT: 172799.64
 STEP:  30 TIME =     0.02 SECS, INTEGRAL =      0.37 TIME LEFT: 172799.62
 STEP:  31 TIME =     0.01 SECS, INTEGRAL =      0.38 TIME LEFT: 172799.61
 STEP:  32 TIME =     0.01 SECS, INTEGRAL =      0.39 TIME LEFT: 172799.60
 STEP:  33 TIME =     0.01 SECS, INTEGRAL =      0.41 TIME LEFT: 172799.59
 STEP:  34 TIME =     0.01 SECS, INTEGRAL =      0.42 TIME LEFT: 172799.57
 STEP:  35 TIME =     0.01 SECS, INTEGRAL =      0.43 TIME LEFT: 172799.56
 STEP:  36 TIME =     0.01 SECS, INTEGRAL =      0.44 TIME LEFT: 172799.55
 STEP:  37 TIME =     0.01 SECS, INTEGRAL =      0.45 TIME LEFT: 172799.54
 STEP:  38 TIME =     0.01 SECS, INTEGRAL =      0.46 TIME LEFT: 172799.53
 STEP:  39 TIME =     0.02 SECS, INTEGRAL =      0.48 TIME LEFT: 172799.51
 STEP:  40 TIME =     0.01 SECS, INTEGRAL =      0.49 TIME LEFT: 172799.50
 STEP:  41 TIME =     0.01 SECS, INTEGRAL =      0.50 TIME LEFT: 172799.49
 STEP:  42 TIME =     0.01 SECS, INTEGRAL =      0.52 TIME LEFT: 172799.48
 STEP:  43 TIME =     0.02 SECS, INTEGRAL =      0.53 TIME LEFT: 172799.46
 STEP:  44 TIME =     0.01 SECS, INTEGRAL =      0.54 TIME LEFT: 172799.45
 STEP:  45 TIME =     0.01 SECS, INTEGRAL =      0.55 TIME LEFT: 172799.44
 STEP:  46 TIME =     0.01 SECS, INTEGRAL =      0.57 TIME LEFT: 172799.43
 STEP:  47 TIME =     0.01 SECS, INTEGRAL =      0.58 TIME LEFT: 172799.41
 STEP:  48 TIME =     0.01 SECS, INTEGRAL =      0.59 TIME LEFT: 172799.40
 STEP:  49 TIME =     0.01 SECS, INTEGRAL =      0.60 TIME LEFT: 172799.39
 STEP:  50 TIME =     0.02 SECS, INTEGRAL =      0.62 TIME LEFT: 172799.38
 STEP:  51 TIME =     0.01 SECS, INTEGRAL =      0.63 TIME LEFT: 172799.36

(To convert to Hartree/Bohr^2, multiply by (10^(-21) x N x a0^2)/(4.184 x 627.51) =  0.0642)


           FORCE MATRIX IN MILLIDYNES/ANGSTROM


                  C  1       C  2       C  3       C  4       C  5       C  6
 ------------------------------------------------------------------------------
     C    1  14.657909
     C    2   3.432170  14.498129
     C    3   4.331383   0.582124  14.413776
     C    4   0.820139   4.436478   0.040950  19.386127
     C    5   4.388269   0.873215   0.662992   1.440713  18.193655
     C    6   1.130554   0.892829   0.042810   5.179867  10.299590  18.612406
     C    7   0.058263   0.692634   0.008059  10.726849   0.102042   0.908100
     H    8   4.267229   0.421502   0.428664   0.028026   0.402926   0.037552
     H    9   0.437384   4.552443   0.026096   0.436331   0.029654   0.029909
     H   10   0.451205   4.508622   0.057774   0.433227   0.024640   0.027563
     H   11   0.454884   0.017076   4.744320   0.003677   0.049995   0.006934
     H   12   0.466827   0.020793   4.735714   0.002402   0.014925   0.002668
     H   13   0.453426   0.047136   4.744867   0.005942   0.022234   0.002535
     H   14   0.414892   0.041155   0.010823   0.118197   5.022043   0.445514
     H   15   0.114167   0.040322   0.017557   0.432747   0.445972   5.012559
     H   16   0.007267   0.120347   0.002399   0.476671   0.009226   0.092712
     H   17   0.006444   0.084601   0.001416   0.477471   0.010806   0.130313


                  C  7       H  8       H  9       H 10       H 11       H 12
 ------------------------------------------------------------------------------
     C    7  17.997441
     H    8   0.004641   4.733378
     H    9   0.020670   0.030358   5.151311
     H   10   0.020475   0.026516   0.565890   5.121953
     H   11   0.001356   0.028523   0.001611   0.014423   5.476375
     H   12   0.000984   0.046878   0.001520   0.023231   0.571938   5.471736
     H   13   0.001999   0.029749   0.004365   0.002769   0.567743   0.572872
     H   14   0.009869   0.013600   0.003412   0.003063   0.001683   0.002355
     H   15   0.014281   0.015218   0.003005   0.002682   0.002915   0.000810
     H   16   5.110303   0.001909   0.012299   0.013274   0.000285   0.000224
     H   17   5.115421   0.001105   0.010570   0.011123   0.000230   0.000219


                  H 13       H 14       H 15       H 16       H 17
 ------------------------------------------------------------------
     H   13   5.476693
     H   14   0.007905   5.415700
     H   15   0.000708   0.047088   5.405606
     H   16   0.000376   0.005507   0.009833   5.487754
     H   17   0.000262   0.008947   0.002277   0.406538   5.491641


          HEAT OF FORMATION =      18.185013 KCALS/MOLE

          ZERO POINT ENERGY      93.130 KCAL/MOL


           NORMAL COORDINATE ANALYSIS (Total motion = 1 Angstrom)


   Root No.       1         2         3         4         5         6         7         8

                 1 A       2 A       3 A       4 A       5 A       6 A       7 A       8 A   

                  75.2     177.4     223.3     317.3     406.3     441.2     542.2     617.6
  
           1   -0.0094    0.0046    0.0088    0.0059   -0.0280   -0.0017    0.0168    0.0345
           2   -0.0029    0.0059   -0.0134    0.0156   -0.0094   -0.0356   -0.0171    0.0102
           3   -0.0060    0.0004   -0.0282   -0.0043    0.0158   -0.0193   -0.0026    0.0253
           4   -0.0094    0.0048    0.0096    0.0118   -0.0236   -0.0030    0.0116    0.0228
           5   -0.0469    0.0086    0.0006   -0.0078    0.0235    0.0235    0.0130    0.0121
           6   -0.0368    0.0066   -0.0109   -0.0317   -0.0111   -0.0028   -0.0102   -0.0193
           7    0.0358   -0.0052   -0.0048   -0.0484    0.0237    0.0298    0.0152    0.0069
           8    0.0167    0.0016   -0.0174   -0.0064    0.0123   -0.0272   -0.0302   -0.0102
           9    0.0413   -0.0061    0.0416    0.0145   -0.0153    0.0173    0.0091    0.0021
          10   -0.0064    0.0004    0.0005    0.0182    0.0091   -0.0093   -0.0133   -0.0278
          11   -0.0006   -0.0026    0.0329   -0.0093    0.0379   -0.0239    0.0558    0.0089
          12   -0.0075    0.0014    0.0136   -0.0305   -0.0151   -0.0363    0.0204   -0.0153
          13   -0.0068    0.0009   -0.0006    0.0178    0.0043   -0.0063   -0.0048    0.0035
          14   -0.0139    0.0001   -0.0225    0.0327   -0.0360    0.0181    0.0266   -0.0063
          15   -0.0118   -0.0043   -0.0367    0.0072    0.0106    0.0127    0.0182    0.0142
          16   -0.0055   -0.0019   -0.0036    0.0201    0.0278   -0.0022   -0.0084   -0.0041
          17   -0.0111   -0.0111    0.0615    0.0033    0.0012    0.0103   -0.0216   -0.0147
          18   -0.0121   -0.0077    0.0228   -0.0212   -0.0049   -0.0027   -0.0136    0.0136
          19   -0.0037   -0.0020   -0.0081   -0.0086   -0.0155   -0.0150   -0.0199   -0.0362
          20    0.0542   -0.0027   -0.0308   -0.0219   -0.0202    0.0120   -0.0020    0.0103
          21    0.0259    0.0093   -0.0075    0.0499    0.0207    0.0052   -0.0129   -0.0118
          22   -0.0458    0.0074    0.0180   -0.0040   -0.0433    0.0016    0.0200    0.0372
          23    0.0303    0.0014    0.0170    0.0078   -0.0123   -0.0473   -0.0450   -0.0067
          24   -0.0106    0.0017   -0.0497    0.0044    0.0243   -0.0107    0.0139    0.0333
          25   -0.0431    0.0096    0.0238   -0.0163   -0.0332    0.0510    0.0135    0.0145
          26   -0.1095    0.0175   -0.0217   -0.0251    0.0283    0.1421   -0.0710    0.0226
          27   -0.0214    0.0044    0.0062   -0.0357   -0.0175   -0.0347    0.0296   -0.0288
          28    0.0232    0.0039    0.0010    0.0243   -0.0433   -0.0553    0.0139    0.0437
          29   -0.0569    0.0084    0.0051   -0.0131    0.0327    0.0416    0.0159    0.0039
          30   -0.1015    0.0172   -0.0344   -0.0508   -0.0264    0.1135   -0.1059   -0.0057
          31    0.0259   -0.2337   -0.0477   -0.0713    0.0654    0.0307    0.0066   -0.0044
          32    0.0271   -0.0938    0.0214    0.0274   -0.0288   -0.0069   -0.0118   -0.0220
          33    0.0445   -0.1341    0.0522    0.0287   -0.0284    0.0304    0.0183   -0.0085
          34    0.0817    0.1991    0.0231   -0.0837    0.0454    0.0649    0.0194   -0.0259
          35   -0.0133    0.0991   -0.0476   -0.0088    0.0198   -0.0665   -0.0481    0.0225
          36    0.0433   -0.1551    0.0514    0.0300   -0.0291    0.0318    0.0203   -0.0079
          37    0.0363    0.0056   -0.0028   -0.0481    0.0226    0.0305    0.0158    0.0071
          38    0.0519   -0.0040   -0.0316   -0.0629    0.0734    0.0058   -0.0388   -0.0543
          39    0.0744    0.2664    0.0856    0.0075   -0.0291    0.0398    0.0180   -0.0110
          40   -0.0064   -0.0001   -0.0046    0.0213    0.0136   -0.0042   -0.0080   -0.0052
          41   -0.0199    0.0012   -0.0669    0.0686   -0.0980    0.0869    0.0801   -0.0382
          42   -0.0132   -0.0070   -0.0731    0.0382    0.0121    0.0541    0.0325   -0.0352
          43   -0.0039   -0.0052   -0.0086    0.0264    0.0647    0.0111   -0.0004    0.0221
          44   -0.0133   -0.0227    0.1176   -0.0012   -0.0131    0.0556   -0.0958   -0.0725
          45   -0.0136   -0.0149    0.0581   -0.0238   -0.0140    0.0254   -0.0606   -0.0233
          46   -0.0009   -0.0087   -0.0244   -0.0931   -0.0994   -0.0363   -0.0323   -0.0418
          47    0.0881   -0.0107   -0.0248   -0.0165   -0.0441    0.0311   -0.1251    0.1842
          48    0.0475    0.0058    0.0006    0.0755    0.0271    0.0230   -0.0908    0.1027
          49   -0.0041    0.0024   -0.0002    0.0438    0.0340   -0.0018   -0.0161   -0.0423
          50    0.0685    0.0049   -0.0972   -0.0494   -0.0700    0.0295    0.0494   -0.1624
          51    0.0337    0.0206   -0.0340    0.1178    0.0716    0.0367    0.0239   -0.1211


   Root No.       9        10        11        12        13        14        15        16

                 9 A      10 A      11 A      12 A      13 A      14 A      15 A      16 A   

                 640.6     738.2     808.5     908.9     915.0     934.5     962.8     967.0
  
           1    0.0273   -0.0080    0.0018    0.0024   -0.0130   -0.0077   -0.0088    0.0038
           2    0.0152    0.0019    0.0014    0.0069   -0.0022   -0.0051   -0.0060    0.0010
           3    0.0241   -0.0596    0.0090   -0.0043   -0.0027   -0.0129    0.0058    0.0028
           4    0.0175   -0.0263    0.0037   -0.0323    0.0179    0.0324    0.0284    0.0016
           5    0.0069   -0.0043    0.0152    0.0326    0.0353   -0.0096    0.0047    0.0064
           6   -0.0158   -0.0045    0.0107    0.0407   -0.0077    0.0176   -0.0163   -0.0178
           7    0.0013   -0.0104   -0.0010    0.0082   -0.0142   -0.0168   -0.0335    0.0006
           8    0.0027    0.0273    0.0027   -0.0214   -0.0055    0.0189   -0.0046    0.0061
           9   -0.0016   -0.0124    0.0023   -0.0053   -0.0044   -0.0190    0.0148   -0.0134
          10   -0.0247   -0.0316    0.0012    0.0003   -0.0026   -0.0047    0.0011    0.0054
          11   -0.0209    0.0046    0.0114   -0.0219   -0.0148    0.0000   -0.0021    0.0027
          12   -0.0284    0.0216    0.0032   -0.0148   -0.0017   -0.0083    0.0040    0.0070
          13    0.0078    0.0857   -0.0087    0.0160    0.0027   -0.0229    0.0106   -0.0033
          14   -0.0260    0.0016   -0.0351    0.0178    0.0028   -0.0120    0.0012    0.0204
          15    0.0030   -0.0088   -0.0145   -0.0082    0.0044    0.0239   -0.0126    0.0169
          16    0.0010    0.0290   -0.0012   -0.0001    0.0070    0.0039   -0.0147   -0.0140
          17    0.0051   -0.0461   -0.0297   -0.0014    0.0040    0.0036   -0.0062   -0.0408
          18    0.0300    0.0551   -0.0218    0.0089   -0.0083   -0.0042    0.0212   -0.0066
          19   -0.0306   -0.0354    0.0003    0.0070   -0.0135   -0.0039    0.0120    0.0146
          20    0.0086    0.0017    0.0017    0.0009   -0.0248    0.0082    0.0086    0.0125
          21   -0.0091   -0.0004   -0.0015   -0.0210    0.0286   -0.0177   -0.0135    0.0073
          22    0.0329   -0.0387    0.0295    0.0577    0.0057    0.0575   -0.0244   -0.0274
          23    0.0216    0.0202    0.0352   -0.0156   -0.0459   -0.0220   -0.0354   -0.0766
          24    0.0162   -0.0560   -0.0245   -0.0165    0.0176   -0.0267    0.0319    0.0657
          25   -0.0114    0.0435   -0.0232   -0.1402   -0.0311    0.0893    0.0396   -0.0051
          26   -0.0096    0.0065   -0.0530   -0.1139   -0.0324   -0.0543    0.0200    0.0363
          27   -0.0223    0.0224    0.0303    0.0610    0.0016    0.0639   -0.0189   -0.0357
          28    0.0564   -0.0477    0.0262    0.0552    0.0564    0.0601    0.0338   -0.0200
          29   -0.0086    0.0032    0.0084    0.0007    0.0224   -0.0221    0.0022    0.0164
          30   -0.0276    0.0314   -0.0636   -0.1014   -0.0958    0.0195   -0.0060   -0.0216
          31   -0.0033   -0.0316    0.0136    0.0111    0.0306   -0.0336    0.0932   -0.0357
          32   -0.0205    0.0912   -0.0283    0.0022   -0.0022    0.1067   -0.1123    0.0822
          33   -0.0177    0.0200   -0.0131    0.0107    0.0113    0.0302   -0.0138    0.0234
          34   -0.0325    0.0183   -0.0090    0.0417    0.0574    0.0432    0.0496    0.0193
          35    0.0454   -0.0328    0.0321   -0.0689   -0.0659   -0.0778   -0.0002   -0.0599
          36   -0.0186    0.0184   -0.0155    0.0148    0.0099    0.0258   -0.0210    0.0262
          37    0.0011   -0.0093   -0.0018    0.0099   -0.0143   -0.0157   -0.0370    0.0023
          38   -0.0341    0.0419    0.0103   -0.0076    0.0989    0.0713    0.1929   -0.0077
          39   -0.0207    0.0194   -0.0147    0.0153    0.0109    0.0303   -0.0199    0.0260
          40    0.0017    0.0887    0.0007    0.0052    0.0123   -0.0037   -0.0061   -0.0202
          41   -0.0496    0.0693    0.2163   -0.0252   -0.0492   -0.0561    0.0527   -0.1002
          42   -0.0325    0.0320    0.1446   -0.0698    0.0130    0.0717   -0.0446   -0.1011
          43    0.0297    0.0157    0.0163   -0.0367    0.0204    0.0812   -0.0935   -0.0497
          44    0.0935   -0.0353    0.1946   -0.0023    0.0167   -0.0039   -0.0340    0.1452
          45    0.0850    0.0630    0.1187    0.0086   -0.0005   -0.0092    0.0053    0.1112
          46   -0.0447   -0.0198   -0.0078   -0.0885    0.1734   -0.0768   -0.0621   -0.0015
          47   -0.1128   -0.0028    0.0348    0.0736    0.0373    0.0190   -0.0023   -0.0524
          48   -0.0859   -0.0081    0.0224    0.0518    0.0206    0.0075   -0.0009   -0.0298
          49   -0.0251   -0.0565    0.0034    0.0674   -0.1232    0.0327    0.0644    0.0337
          50    0.1748   -0.0024   -0.0632   -0.0045    0.0826   -0.0085   -0.0298   -0.0816
          51    0.0983   -0.0335   -0.0343    0.0736   -0.0855    0.0323    0.0470   -0.0190


   Root No.      17        18        19        20        21        22        23        24

                17 A      18 A      19 A      20 A      21 A      22 A      23 A      24 A   

                 986.5    1003.4    1043.9    1070.3    1077.1    1115.1    1145.0    1217.2
  
           1    0.0074   -0.0035    0.0059    0.0054   -0.0211    0.0227    0.0108    0.0215
           2   -0.0043   -0.0074    0.0140    0.0073    0.0077   -0.0039    0.0322    0.0282
           3   -0.0009   -0.0033    0.0193   -0.0110   -0.0094    0.0168    0.0411   -0.0100
           4    0.0008    0.0056   -0.0049   -0.0087    0.0211   -0.0223   -0.0055   -0.0028
           5    0.0209   -0.0052   -0.0231   -0.0074    0.0130   -0.0200   -0.0120   -0.0024
           6   -0.0293   -0.0008    0.0038   -0.0162   -0.0076   -0.0049   -0.0020   -0.0033
           7    0.0063    0.0023   -0.0044   -0.0085    0.0127   -0.0093   -0.0044   -0.0037
           8    0.0175    0.0055   -0.0072   -0.0158   -0.0138    0.0145   -0.0324   -0.0104
           9   -0.0170    0.0116   -0.0126   -0.0012   -0.0025    0.0042   -0.0275    0.0043
          10    0.0100   -0.0007   -0.0014    0.0036   -0.0034    0.0012    0.0014   -0.0133
          11   -0.0025    0.0140    0.0267    0.0177    0.0009    0.0032   -0.0033   -0.0176
          12    0.0054    0.0089    0.0140    0.0118    0.0106   -0.0021   -0.0075    0.0257
          13   -0.0179    0.0030    0.0093   -0.0140    0.0055    0.0081    0.0053   -0.0035
          14   -0.0314    0.0169   -0.0051    0.0112    0.0023    0.0019   -0.0053    0.0101
          15    0.0048    0.0062   -0.0193    0.0276    0.0028   -0.0036   -0.0061   -0.0260
          16   -0.0202    0.0004    0.0072   -0.0059   -0.0035    0.0070    0.0061   -0.0252
          17    0.0008   -0.0154    0.0040   -0.0213   -0.0013    0.0066    0.0079    0.0005
          18    0.0367   -0.0140   -0.0150    0.0075   -0.0021   -0.0125   -0.0047    0.0032
          19    0.0234   -0.0032   -0.0101    0.0083    0.0010   -0.0079   -0.0048    0.0085
          20   -0.0203   -0.0331   -0.0165   -0.0126    0.0014   -0.0011    0.0013    0.0041
          21   -0.0056   -0.0242   -0.0130   -0.0019   -0.0072    0.0003    0.0015   -0.0064
          22    0.0030   -0.0516   -0.0193    0.1257   -0.0865    0.2657   -0.0848   -0.0323
          23   -0.0208   -0.0008   -0.0881    0.1798    0.0828   -0.0986    0.1768   -0.0506
          24    0.0122    0.0142    0.0936   -0.1729   -0.0286   -0.0282   -0.0063    0.0625
          25   -0.0217    0.1123   -0.1009   -0.0806   -0.0375    0.0051    0.1158   -0.0272
          26    0.0470   -0.0234    0.0528    0.0690    0.0231    0.0215   -0.0148    0.0436
          27   -0.0541    0.0566   -0.0737   -0.0869   -0.0382   -0.0150    0.0553   -0.0374
          28   -0.0416   -0.0757    0.0858    0.0296    0.1098   -0.1260   -0.1388   -0.0923
          29    0.0425    0.0294   -0.0665   -0.0241   -0.0249    0.0243    0.0455    0.0392
          30   -0.0827   -0.0214    0.1297    0.0369    0.0255   -0.0305   -0.0281   -0.0657
          31   -0.0612    0.0059   -0.0064    0.0353   -0.0083    0.0102    0.0099    0.0334
          32    0.1120   -0.0368    0.0420   -0.0420   -0.0085    0.0066    0.0296   -0.0488
          33    0.0206   -0.0138    0.0191   -0.0057   -0.0054    0.0051    0.0157   -0.0068
          34   -0.0055   -0.0364    0.0429    0.0357   -0.0108    0.0117    0.0825    0.0226
          35   -0.0280    0.0640   -0.0851   -0.0289   -0.0065    0.0129   -0.1595   -0.0252
          36    0.0203   -0.0143    0.0236   -0.0102    0.0001   -0.0010    0.0267    0.0036
          37    0.0082    0.0010   -0.0029   -0.0091    0.0131   -0.0083   -0.0027   -0.0025
          38   -0.0417   -0.0176    0.0185    0.0545   -0.0705    0.0582    0.0289    0.0125
          39    0.0210   -0.0158    0.0234   -0.0064   -0.0026    0.0029    0.0290   -0.0005
          40   -0.0307    0.0027    0.0052   -0.0259    0.0805    0.0512    0.0014    0.0617
          41    0.0947   -0.0600    0.0520   -0.0300   -0.1339   -0.0687    0.0271   -0.0888
          42    0.0269   -0.0333   -0.0078   -0.0351    0.2063    0.1110   -0.0056    0.1573
          43   -0.0545   -0.0051    0.0072    0.0775   -0.1981   -0.1693   -0.0636    0.2041
          44   -0.0876    0.0692    0.0260    0.0180    0.0078    0.0115    0.0043   -0.0029
          45   -0.0165    0.0390   -0.0025    0.0327    0.0069   -0.0083   -0.0070   -0.0016
          46    0.0374   -0.0045   -0.0135    0.0299   -0.0252   -0.0111   -0.0079    0.0018
          47    0.0610    0.1421    0.0548    0.0255    0.0084    0.0002   -0.0045    0.0012
          48    0.0466    0.0908    0.0333    0.0191    0.0038    0.0005   -0.0025   -0.0036
          49    0.0491    0.0048   -0.0182    0.0161    0.0161   -0.0245   -0.0174    0.0517
          50    0.0520    0.1283    0.0807    0.0273    0.0002    0.0157    0.0048   -0.0287
          51    0.0739    0.0834    0.0327    0.0318    0.0166   -0.0142   -0.0152    0.0409


   Root No.      25        26        27        28        29        30        31        32

                25 A      26 A      27 A      28 A      29 A      30 A      31 A      32 A   

                1238.9    1294.4    1325.2    1373.6    1387.5    1402.3    1410.4    1420.5
  
           1   -0.0079    0.0851   -0.0129   -0.0062    0.0141    0.0017   -0.0071    0.0197
           2    0.0375   -0.0201   -0.0246   -0.0301    0.0040   -0.0074    0.0088   -0.0596
           3   -0.0052   -0.0259    0.0242    0.0387   -0.0121    0.0015   -0.0026    0.0314
           4   -0.0403   -0.0339    0.0230   -0.0227   -0.0287   -0.0005    0.0091   -0.0111
           5    0.0131    0.0099   -0.0102    0.0158   -0.0126    0.0004   -0.0023    0.0227
           6   -0.0331    0.0013    0.0169   -0.0230    0.0215    0.0004    0.0017   -0.0264
           7    0.0045   -0.0166    0.0035    0.0117   -0.0079   -0.0291   -0.0220   -0.0269
           8   -0.0093   -0.0009    0.0005   -0.0238    0.0032   -0.0012   -0.0192    0.0621
           9    0.0042    0.0027   -0.0051   -0.0057    0.0045   -0.0332    0.0235   -0.0010
          10   -0.0024    0.0027   -0.0241   -0.0049   -0.0163    0.0004    0.0037   -0.0124
          11    0.0064    0.0079    0.0120   -0.0132   -0.0137    0.0004    0.0046   -0.0183
          12   -0.0089   -0.0132   -0.0173    0.0215    0.0224   -0.0007   -0.0076    0.0293
          13   -0.0047   -0.0162    0.0168    0.0125   -0.0034    0.0005   -0.0002    0.0084
          14   -0.0071   -0.0096    0.0111    0.0173   -0.0114    0.0012   -0.0001    0.0111
          15    0.0015    0.0209   -0.0151   -0.0253    0.0182   -0.0014   -0.0007   -0.0109
          16   -0.0064    0.0001   -0.0008   -0.0100    0.0298   -0.0014   -0.0043    0.0020
          17   -0.0046    0.0033    0.0016    0.0037    0.0128   -0.0002   -0.0029    0.0092
          18    0.0099   -0.0064   -0.0034   -0.0061   -0.0216    0.0001    0.0050   -0.0163
          19    0.0087   -0.0019   -0.0325    0.0106   -0.0113    0.0001    0.0002    0.0020
          20   -0.0048   -0.0022    0.0069   -0.0001    0.0049   -0.0001   -0.0008    0.0028
          21    0.0067    0.0038   -0.0087   -0.0006   -0.0070    0.0002    0.0012   -0.0045
          22    0.0743   -0.1518    0.0122    0.0282   -0.0312   -0.0056    0.0005   -0.0155
          23   -0.0689    0.0414    0.0341    0.0442   -0.0007    0.0050   -0.0130    0.0671
          24    0.0251    0.0393   -0.0228   -0.0228    0.0106   -0.0041    0.0078   -0.0325
          25    0.1589   -0.0491   -0.0468    0.0779    0.1182    0.0011   -0.0218   -0.0077
          26   -0.0696   -0.0751   -0.0100    0.0158    0.2087    0.0028   -0.0253   -0.0522
          27    0.0967    0.0400   -0.0118    0.0184   -0.0428   -0.0007    0.0025    0.0163
          28    0.1068    0.0115   -0.0375    0.0943    0.1340    0.0064   -0.0378    0.0300
          29   -0.0540   -0.0156    0.0123   -0.0305   -0.0478   -0.0016    0.0133   -0.0029
          30    0.1012    0.0827    0.0057   -0.0044   -0.2066   -0.0043    0.0238    0.0556
          31    0.0342   -0.0082   -0.0323   -0.0731    0.0161    0.3660    0.0364    0.0486
          32   -0.0548    0.0358    0.0500    0.1366   -0.0032    0.0708    0.1627   -0.0787
          33   -0.0113    0.0205    0.0122    0.0543    0.0059    0.1472    0.1234   -0.0506
          34    0.0258   -0.0170   -0.0240   -0.0599    0.0450   -0.0412    0.2821    0.1295
          35   -0.0307    0.0554    0.0176    0.0924    0.0015    0.1262    0.1147   -0.1227
          36    0.0080   -0.0304   -0.0029   -0.0442   -0.0189   -0.0832   -0.1921    0.0424
          37    0.0083   -0.0230    0.0006    0.0003   -0.0053    0.0070   -0.0115   -0.0091
          38   -0.0525    0.1440    0.0228    0.1087   -0.0207   -0.1200   -0.1108   -0.1594
          39   -0.0017   -0.0093    0.0079    0.0020   -0.0315    0.3390   -0.2134   -0.0440
          40   -0.0005   -0.0033    0.0226    0.0300   -0.0224    0.0013    0.0002    0.0163
          41   -0.0007   -0.0383   -0.0009   -0.0147    0.0229   -0.0015   -0.0006   -0.0088
          42    0.0217    0.0504   -0.0054    0.0173   -0.0362    0.0012    0.0017    0.0025
          43    0.0011   -0.0568   -0.0019    0.0654   -0.0390    0.0025   -0.0005    0.0310
          44   -0.0040    0.0027    0.0027    0.0032    0.0141   -0.0006   -0.0027    0.0077
          45    0.0111   -0.0069   -0.0051   -0.0088   -0.0217   -0.0003    0.0056   -0.0201
          46    0.1114    0.0544    0.2777   -0.0498    0.0308   -0.0001    0.0025   -0.0200
          47    0.0007    0.0021    0.0288   -0.0049    0.0076   -0.0000   -0.0005    0.0012
          48   -0.0102   -0.0057   -0.0607    0.0109   -0.0136    0.0002    0.0005    0.0008
          49    0.0567    0.0136    0.1510   -0.0057    0.0362   -0.0007   -0.0052    0.0156
          50   -0.0360   -0.0136   -0.1253    0.0112   -0.0311    0.0004    0.0036   -0.0086
          51    0.0556    0.0183    0.1846   -0.0172    0.0459   -0.0008   -0.0050    0.0112


   Root No.      33        34        35        36        37        38        39        40

                33 A      34 A      35 A      36 A      37 A      38 A      39 A      40 A   

                1423.3    1809.3    1911.0    2894.8    2979.9    3055.9    3081.6    3084.8
  
           1   -0.0097    0.0083   -0.0055   -0.0230   -0.0012    0.0008   -0.0005   -0.0003
           2    0.0260   -0.0099    0.0060   -0.0325   -0.0017   -0.0002   -0.0007   -0.0001
           3   -0.0157    0.0145   -0.0059   -0.0528   -0.0025   -0.0005   -0.0012    0.0002
           4    0.0160    0.0025   -0.0175   -0.0010   -0.0020    0.0257    0.0004    0.0001
           5    0.0221    0.0055    0.0154    0.0039   -0.0501    0.0142   -0.0001   -0.0006
           6   -0.0386   -0.0082   -0.0230    0.0027   -0.0301   -0.0300   -0.0004    0.0000
           7    0.0094   -0.0011    0.0008    0.0014    0.0000    0.0002   -0.0252   -0.0443
           8   -0.0204   -0.0021   -0.0014   -0.0001    0.0002    0.0002   -0.0110   -0.0185
           9    0.0008    0.0019    0.0002    0.0019    0.0001    0.0008   -0.0420    0.0314
          10   -0.0346    0.0039    0.2600    0.0005    0.0001   -0.0002    0.0000    0.0000
          11   -0.0429   -0.0039   -0.0556   -0.0001   -0.0001    0.0004   -0.0000    0.0000
          12    0.0685    0.0055    0.0712    0.0002    0.0000   -0.0006   -0.0000    0.0000
          13   -0.0050   -0.1824   -0.0068    0.0002    0.0000    0.0003   -0.0002   -0.0002
          14   -0.0214    0.0908   -0.0024    0.0005   -0.0000   -0.0000   -0.0002    0.0003
          15    0.0316   -0.1357    0.0039   -0.0008   -0.0001    0.0000    0.0001   -0.0002
          16    0.0502    0.2086   -0.0408    0.0004    0.0000   -0.0002    0.0000    0.0000
          17    0.0214   -0.0696   -0.0051   -0.0004   -0.0002    0.0001    0.0000    0.0000
          18   -0.0354    0.1018    0.0102    0.0002   -0.0001   -0.0002   -0.0001   -0.0001
          19   -0.0077   -0.0210   -0.1912   -0.0001   -0.0000    0.0001    0.0000   -0.0000
          20    0.0095    0.0024    0.0446    0.0000   -0.0001   -0.0000   -0.0000   -0.0000
          21   -0.0142   -0.0024   -0.0577   -0.0000   -0.0001    0.0000    0.0000    0.0000
          22    0.0313   -0.0220    0.0001    0.2770    0.0172    0.0034    0.0040   -0.0011
          23   -0.0268   -0.0099   -0.0052    0.4006    0.0182    0.0033    0.0118   -0.0006
          24   -0.0003    0.0209   -0.0045    0.6373    0.0297    0.0044    0.0128    0.0006
          25   -0.0772    0.0049    0.0244    0.0091   -0.1564   -0.1676   -0.0025    0.0002
          26   -0.1015   -0.0054   -0.0077   -0.0156    0.1593    0.2250    0.0032   -0.0002
          27   -0.0053   -0.0029    0.0091   -0.0329    0.3432    0.4036    0.0058   -0.0002
          28   -0.1005    0.0050    0.0227   -0.0093    0.1837   -0.1445   -0.0003    0.0028
          29    0.0502    0.0049   -0.0050   -0.0303    0.4432   -0.3950   -0.0041    0.0037
          30    0.0922    0.0038    0.0085   -0.0015    0.0188   -0.0456   -0.0011    0.0006
          31   -0.0039   -0.0011    0.0005    0.0050   -0.0002    0.0017   -0.0758    0.1063
          32    0.0239   -0.0018   -0.0016    0.0027    0.0001    0.0020   -0.1175    0.2190
          33    0.0189    0.0040   -0.0002   -0.0106   -0.0002   -0.0032    0.1742   -0.3842
          34   -0.0310    0.0014   -0.0010   -0.0081   -0.0012   -0.0026    0.1459   -0.0248
          35    0.0429    0.0003    0.0008   -0.0065   -0.0002   -0.0049    0.2427   -0.0126
          36   -0.0193   -0.0001   -0.0005   -0.0160   -0.0011   -0.0072    0.3597    0.0112
          37    0.0054   -0.0019    0.0006   -0.0110   -0.0053    0.0002    0.2304    0.4478
          38    0.0371    0.0008   -0.0006   -0.0043   -0.0001    0.0002    0.0067    0.0148
          39    0.0127   -0.0000    0.0000    0.0005    0.0002    0.0004   -0.0313   -0.0029
          40   -0.0419   -0.1478   -0.0121   -0.0054   -0.0002   -0.0081    0.0025    0.0001
          41    0.0464   -0.0546   -0.0034   -0.0010   -0.0001   -0.0013    0.0004    0.0006
          42   -0.0685    0.0925    0.0066   -0.0006   -0.0001    0.0025   -0.0009   -0.0004
          43   -0.0344   -0.0544    0.0375    0.0003    0.0000   -0.0002    0.0000    0.0000
          44    0.0233   -0.0891   -0.0096   -0.0028   -0.0001   -0.0048   -0.0006   -0.0006
          45   -0.0344    0.1464    0.0128    0.0031   -0.0001    0.0077    0.0011    0.0007
          46   -0.0184    0.0067    0.0250    0.0000   -0.0001    0.0000   -0.0000   -0.0000
          47    0.0074    0.0056    0.0814    0.0001   -0.0006   -0.0004    0.0001    0.0000
          48   -0.0105   -0.0087   -0.1279    0.0001   -0.0007    0.0006   -0.0002   -0.0000
          49    0.0485   -0.0137   -0.0857   -0.0002   -0.0002    0.0011   -0.0001    0.0001
          50   -0.0346   -0.0079   -0.0670   -0.0001    0.0003    0.0008   -0.0000    0.0000
          51    0.0509    0.0128    0.1086    0.0000    0.0004   -0.0013    0.0001   -0.0001


   Root No.      41        42        43        44        45

                41 A      42 A      43 A      44 A      45 A   

                3114.5    3133.0    3142.5    3147.5    3180.0
  
           1    0.0000   -0.0006   -0.0001   -0.0000   -0.0003
           2   -0.0002    0.0002    0.0001    0.0000    0.0005
           3    0.0003   -0.0008   -0.0001   -0.0000   -0.0001
           4    0.0000    0.0010    0.0001   -0.0004   -0.0000
           5   -0.0001    0.0007   -0.0001    0.0001   -0.0002
           6    0.0002   -0.0011    0.0000   -0.0002    0.0000
           7    0.0001    0.0000   -0.0000    0.0000   -0.0097
           8    0.0001    0.0000    0.0000   -0.0000    0.0225
           9    0.0002    0.0002   -0.0000   -0.0000   -0.0003
          10    0.0000    0.0013    0.0060    0.0008   -0.0000
          11   -0.0001   -0.0000   -0.0013   -0.0005   -0.0000
          12    0.0001   -0.0000    0.0017    0.0007    0.0000
          13   -0.0336   -0.0419   -0.0020   -0.0003    0.0002
          14   -0.0048   -0.0030   -0.0001    0.0000   -0.0000
          15    0.0095    0.0070    0.0002   -0.0000    0.0000
          16   -0.0006    0.0051    0.0004    0.0006   -0.0000
          17    0.0218   -0.0201   -0.0014   -0.0002    0.0000
          18   -0.0347    0.0319    0.0023    0.0003   -0.0000
          19   -0.0005    0.0017   -0.0385   -0.0302    0.0000
          20    0.0003   -0.0005    0.0146   -0.0305   -0.0000
          21   -0.0004    0.0007   -0.0204    0.0490    0.0000
          22   -0.0006    0.0006    0.0000    0.0000    0.0002
          23   -0.0001    0.0017    0.0000    0.0001    0.0018
          24    0.0013    0.0040    0.0002    0.0001    0.0014
          25    0.0005   -0.0027    0.0003   -0.0001    0.0002
          26   -0.0005    0.0037   -0.0002   -0.0001   -0.0004
          27   -0.0006    0.0065   -0.0004   -0.0007   -0.0006
          28    0.0004   -0.0023    0.0004   -0.0001    0.0002
          29    0.0007   -0.0066    0.0007    0.0007    0.0030
          30    0.0002   -0.0008    0.0001   -0.0002    0.0003
          31    0.0000   -0.0001   -0.0001   -0.0000   -0.0918
          32   -0.0003   -0.0003   -0.0002   -0.0001   -0.1457
          33    0.0005    0.0004    0.0003    0.0001    0.2724
          34   -0.0011   -0.0010   -0.0001    0.0000   -0.1109
          35   -0.0018   -0.0013   -0.0000    0.0000   -0.1568
          36   -0.0028   -0.0020   -0.0001   -0.0000   -0.2560
          37   -0.0009    0.0008    0.0004   -0.0001    0.3215
          38   -0.0003   -0.0004   -0.0000   -0.0000    0.0266
          39    0.0004    0.0003   -0.0000   -0.0000   -0.0131
          40    0.4021    0.4305    0.0179    0.0027   -0.0024
          41    0.0565    0.0589    0.0024    0.0004   -0.0001
          42   -0.1129   -0.1185   -0.0049   -0.0007    0.0005
          43    0.0045   -0.0060   -0.0009    0.0007    0.0000
          44   -0.2551    0.2091    0.0148    0.0014   -0.0001
          45    0.4066   -0.3331   -0.0236   -0.0022    0.0001
          46    0.0019   -0.0048    0.0920   -0.0859   -0.0000
          47   -0.0037    0.0129   -0.2778    0.2075    0.0002
          48    0.0056   -0.0196    0.4245   -0.3161   -0.0002
          49    0.0044   -0.0176    0.2958    0.4342   -0.0002
          50    0.0017   -0.0069    0.1196    0.1597   -0.0001
          51   -0.0028    0.0117   -0.2028   -0.2728    0.0001


           MASS-WEIGHTED COORDINATE ANALYSIS (NORMAL COORDINATES)


   Root No.       1         2         3         4         5         6         7         8

                 1 A       2 A       3 A       4 A       5 A       6 A       7 A       8 A   

                  75.2     177.4     223.3     317.3     406.3     441.2     542.2     617.6
  
           1   -0.0714    0.0324    0.0671    0.0462   -0.2404   -0.0146    0.1394    0.2760
           2   -0.0223    0.0420   -0.1020    0.1219   -0.0805   -0.3048   -0.1417    0.0819
           3   -0.0455    0.0032   -0.2154   -0.0338    0.1358   -0.1654   -0.0215    0.2023
           4   -0.0711    0.0342    0.0734    0.0924   -0.2021   -0.0259    0.0966    0.1830
           5   -0.3564    0.0613    0.0047   -0.0611    0.2012    0.2013    0.1079    0.0968
           6   -0.2799    0.0467   -0.0835   -0.2474   -0.0951   -0.0238   -0.0842   -0.1543
           7    0.2723   -0.0371   -0.0367   -0.3774    0.2031    0.2549    0.1262    0.0550
           8    0.1270    0.0117   -0.1332   -0.0501    0.1053   -0.2325   -0.2509   -0.0819
           9    0.3139   -0.0434    0.3178    0.1132   -0.1309    0.1483    0.0751    0.0167
          10   -0.0485    0.0029    0.0041    0.1415    0.0781   -0.0795   -0.1100   -0.2228
          11   -0.0043   -0.0185    0.2512   -0.0725    0.3253   -0.2045    0.4626    0.0714
          12   -0.0568    0.0097    0.1042   -0.2381   -0.1294   -0.3108    0.1693   -0.1222
          13   -0.0517    0.0067   -0.0047    0.1386    0.0371   -0.0540   -0.0398    0.0284
          14   -0.1053    0.0004   -0.1720    0.2551   -0.3084    0.1544    0.2203   -0.0505
          15   -0.0894   -0.0307   -0.2801    0.0564    0.0911    0.1087    0.1507    0.1134
          16   -0.0419   -0.0132   -0.0273    0.1568    0.2382   -0.0191   -0.0697   -0.0328
          17   -0.0841   -0.0787    0.4692    0.0254    0.0104    0.0880   -0.1796   -0.1175
          18   -0.0923   -0.0546    0.1739   -0.1649   -0.0421   -0.0231   -0.1125    0.1093
          19   -0.0280   -0.0141   -0.0615   -0.0668   -0.1330   -0.1280   -0.1653   -0.2901
          20    0.4117   -0.0190   -0.2355   -0.1708   -0.1729    0.1030   -0.0167    0.0824
          21    0.1971    0.0662   -0.0572    0.3892    0.1773    0.0441   -0.1068   -0.0944
          22   -0.1009    0.0152    0.0397   -0.0090   -0.1074    0.0039    0.0480    0.0863
          23    0.0667    0.0030    0.0375    0.0176   -0.0306   -0.1173   -0.1082   -0.0155
          24   -0.0233    0.0035   -0.1099    0.0100    0.0603   -0.0265    0.0335    0.0773
          25   -0.0948    0.0198    0.0527   -0.0368   -0.0825    0.1264    0.0324    0.0335
          26   -0.2411    0.0360   -0.0479   -0.0567    0.0703    0.3521   -0.1705    0.0524
          27   -0.0472    0.0090    0.0137   -0.0807   -0.0435   -0.0860    0.0712   -0.0669
          28    0.0510    0.0081    0.0021    0.0549   -0.1076   -0.1370    0.0333    0.1015
          29   -0.1253    0.0173    0.0112   -0.0296    0.0812    0.1031    0.0382    0.0091
          30   -0.2235    0.0355   -0.0761   -0.1147   -0.0655    0.2813   -0.2544   -0.0131
          31    0.0571   -0.4819   -0.1055   -0.1610    0.1624    0.0760    0.0159   -0.0102
          32    0.0596   -0.1935    0.0472    0.0619   -0.0715   -0.0172   -0.0284   -0.0511
          33    0.0979   -0.2766    0.1155    0.0647   -0.0706    0.0753    0.0439   -0.0198
          34    0.1798    0.4107    0.0511   -0.1891    0.1127    0.1607    0.0466   -0.0602
          35   -0.0293    0.2044   -0.1053   -0.0199    0.0493   -0.1647   -0.1156    0.0522
          36    0.0953   -0.3199    0.1135    0.0677   -0.0721    0.0787    0.0487   -0.0183
          37    0.0799    0.0116   -0.0062   -0.1087    0.0562    0.0755    0.0380    0.0164
          38    0.1142   -0.0082   -0.0698   -0.1420    0.1824    0.0144   -0.0931   -0.1261
          39    0.1637    0.5494    0.1892    0.0169   -0.0723    0.0985    0.0433   -0.0254
          40   -0.0140   -0.0003   -0.0102    0.0481    0.0337   -0.0104   -0.0192   -0.0120
          41   -0.0438    0.0026   -0.1479    0.1550   -0.2434    0.2152    0.1926   -0.0886
          42   -0.0291   -0.0144   -0.1617    0.0863    0.0301    0.1339    0.0782   -0.0816
          43   -0.0087   -0.0106   -0.0190    0.0597    0.1606    0.0275   -0.0010    0.0513
          44   -0.0293   -0.0468    0.2600   -0.0028   -0.0324    0.1379   -0.2303   -0.1681
          45   -0.0299   -0.0308    0.1285   -0.0538   -0.0347    0.0629   -0.1456   -0.0540
          46   -0.0019   -0.0180   -0.0540   -0.2104   -0.2468   -0.0899   -0.0776   -0.0970
          47    0.1939   -0.0220   -0.0548   -0.0374   -0.1094    0.0769   -0.3005    0.4273
          48    0.1045    0.0119    0.0013    0.1706    0.0674    0.0571   -0.2182    0.2382
          49   -0.0090    0.0049   -0.0005    0.0990    0.0845   -0.0045   -0.0387   -0.0982
          50    0.1508    0.0101   -0.2150   -0.1116   -0.1738    0.0730    0.1188   -0.3768
          51    0.0742    0.0426   -0.0751    0.2661    0.1779    0.0910    0.0573   -0.2811


   Root No.       9        10        11        12        13        14        15        16

                 9 A      10 A      11 A      12 A      13 A      14 A      15 A      16 A   

                 640.6     738.2     808.5     908.9     915.0     934.5     962.8     967.0
  
           1    0.2240   -0.0500    0.0143    0.0201   -0.1163   -0.0736   -0.0801    0.0344
           2    0.1246    0.0120    0.0111    0.0581   -0.0192   -0.0491   -0.0548    0.0091
           3    0.1984   -0.3727    0.0728   -0.0363   -0.0243   -0.1242    0.0528    0.0259
           4    0.1437   -0.1642    0.0297   -0.2716    0.1599    0.3116    0.2588    0.0151
           5    0.0571   -0.0271    0.1223    0.2740    0.3156   -0.0919    0.0429    0.0585
           6   -0.1300   -0.0283    0.0863    0.3415   -0.0685    0.1689   -0.1484   -0.1634
           7    0.0105   -0.0649   -0.0085    0.0692   -0.1266   -0.1612   -0.3057    0.0052
           8    0.0221    0.1706    0.0218   -0.1796   -0.0494    0.1812   -0.0418    0.0558
           9   -0.0135   -0.0778    0.0185   -0.0449   -0.0396   -0.1824    0.1349   -0.1235
          10   -0.2030   -0.1973    0.0099    0.0022   -0.0236   -0.0451    0.0102    0.0499
          11   -0.1720    0.0288    0.0917   -0.1843   -0.1321    0.0002   -0.0194    0.0248
          12   -0.2333    0.1348    0.0257   -0.1242   -0.0155   -0.0794    0.0363    0.0645
          13    0.0640    0.5359   -0.0704    0.1342    0.0241   -0.2204    0.0970   -0.0303
          14   -0.2132    0.0097   -0.2833    0.1499    0.0247   -0.1152    0.0106    0.1868
          15    0.0248   -0.0553   -0.1172   -0.0686    0.0394    0.2295   -0.1153    0.1552
          16    0.0085    0.1811   -0.0099   -0.0005    0.0621    0.0375   -0.1340   -0.1283
          17    0.0416   -0.2881   -0.2394   -0.0115    0.0356    0.0347   -0.0566   -0.3743
          18    0.2465    0.3446   -0.1759    0.0751   -0.0738   -0.0406    0.1937   -0.0610
          19   -0.2511   -0.2212    0.0023    0.0585   -0.1203   -0.0376    0.1098    0.1343
          20    0.0708    0.0107    0.0134    0.0073   -0.2218    0.0785    0.0780    0.1149
          21   -0.0750   -0.0026   -0.0119   -0.1767    0.2551   -0.1697   -0.1228    0.0672
          22    0.0782   -0.0701    0.0690    0.1403    0.0148    0.1601   -0.0644   -0.0729
          23    0.0515    0.0365    0.0823   -0.0379   -0.1187   -0.0614   -0.0936   -0.2037
          24    0.0386   -0.1013   -0.0572   -0.0402    0.0455   -0.0743    0.0843    0.1747
          25   -0.0271    0.0788   -0.0542   -0.3412   -0.0805    0.2486    0.1046   -0.0135
          26   -0.0227    0.0118   -0.1239   -0.2773   -0.0838   -0.1511    0.0529    0.0964
          27   -0.0531    0.0406    0.0708    0.1485    0.0042    0.1780   -0.0498   -0.0949
          28    0.1343   -0.0864    0.0612    0.1342    0.1458    0.1674    0.0892   -0.0532
          29   -0.0205    0.0058    0.0196    0.0018    0.0578   -0.0614    0.0059    0.0437
          30   -0.0657    0.0569   -0.1487   -0.2468   -0.2477    0.0542   -0.0160   -0.0574
          31   -0.0079   -0.0572    0.0318    0.0270    0.0792   -0.0935    0.2462   -0.0949
          32   -0.0489    0.1652   -0.0662    0.0053   -0.0058    0.2971   -0.2967    0.2186
          33   -0.0422    0.0362   -0.0307    0.0261    0.0292    0.0840   -0.0364    0.0624
          34   -0.0773    0.0332   -0.0209    0.1014    0.1486    0.1203    0.1310    0.0512
          35    0.1081   -0.0594    0.0751   -0.1678   -0.1706   -0.2166   -0.0006   -0.1593
          36   -0.0443    0.0333   -0.0363    0.0361    0.0257    0.0719   -0.0555    0.0696
          37    0.0026   -0.0169   -0.0043    0.0241   -0.0371   -0.0436   -0.0978    0.0061
          38   -0.0811    0.0759    0.0240   -0.0186    0.2560    0.1985    0.5096   -0.0204
          39   -0.0493    0.0351   -0.0343    0.0372    0.0281    0.0844   -0.0525    0.0692
          40    0.0041    0.1607    0.0015    0.0127    0.0319   -0.0104   -0.0161   -0.0537
          41   -0.1180    0.1255    0.5058   -0.0614   -0.1274   -0.1561    0.1393   -0.2664
          42   -0.0774    0.0579    0.3381   -0.1699    0.0337    0.1996   -0.1177   -0.2687
          43    0.0707    0.0285    0.0382   -0.0893    0.0529    0.2260   -0.2469   -0.1321
          44    0.2224   -0.0638    0.4549   -0.0055    0.0431   -0.0108   -0.0898    0.3862
          45    0.2022    0.1141    0.2775    0.0210   -0.0013   -0.0256    0.0140    0.2958
          46   -0.1064   -0.0358   -0.0182   -0.2155    0.4487   -0.2140   -0.1641   -0.0039
          47   -0.2685   -0.0051    0.0815    0.1790    0.0965    0.0530   -0.0062   -0.1392
          48   -0.2045   -0.0147    0.0523    0.1261    0.0532    0.0210   -0.0023   -0.0794
          49   -0.0597   -0.1022    0.0081    0.1641   -0.3188    0.0909    0.1700    0.0896
          50    0.4159   -0.0044   -0.1477   -0.0110    0.2137   -0.0236   -0.0788   -0.2169
          51    0.2338   -0.0607   -0.0803    0.1791   -0.2213    0.0899    0.1243   -0.0505


   Root No.      17        18        19        20        21        22        23        24

                17 A      18 A      19 A      20 A      21 A      22 A      23 A      24 A   

                 986.5    1003.4    1043.9    1070.3    1077.1    1115.1    1145.0    1217.2
  
           1    0.0661   -0.0327    0.0558    0.0465   -0.1778    0.1839    0.0877    0.1828
           2   -0.0387   -0.0700    0.1309    0.0627    0.0654   -0.0318    0.2620    0.2398
           3   -0.0076   -0.0314    0.1812   -0.0947   -0.0796    0.1360    0.3339   -0.0853
           4    0.0075    0.0530   -0.0456   -0.0746    0.1782   -0.1801   -0.0447   -0.0236
           5    0.1858   -0.0496   -0.2167   -0.0635    0.1099   -0.1615   -0.0975   -0.0207
           6   -0.2608   -0.0074    0.0360   -0.1397   -0.0644   -0.0397   -0.0160   -0.0282
           7    0.0564    0.0216   -0.0416   -0.0731    0.1070   -0.0752   -0.0362   -0.0315
           8    0.1556    0.0517   -0.0679   -0.1357   -0.1166    0.1175   -0.2638   -0.0885
           9   -0.1512    0.1093   -0.1181   -0.0107   -0.0211    0.0343   -0.2237    0.0368
          10    0.0888   -0.0067   -0.0129    0.0313   -0.0285    0.0097    0.0114   -0.1133
          11   -0.0222    0.1323    0.2502    0.1523    0.0075    0.0261   -0.0267   -0.1494
          12    0.0484    0.0840    0.1311    0.1013    0.0891   -0.0174   -0.0611    0.2190
          13   -0.1598    0.0287    0.0874   -0.1207    0.0466    0.0657    0.0432   -0.0296
          14   -0.2799    0.1602   -0.0477    0.0963    0.0195    0.0158   -0.0431    0.0859
          15    0.0430    0.0589   -0.1811    0.2376    0.0238   -0.0294   -0.0494   -0.2215
          16   -0.1798    0.0035    0.0673   -0.0505   -0.0299    0.0566    0.0497   -0.2147
          17    0.0071   -0.1456    0.0371   -0.1836   -0.0109    0.0538    0.0642    0.0044
          18    0.3270   -0.1320   -0.1403    0.0649   -0.0179   -0.1013   -0.0384    0.0270
          19    0.2087   -0.0304   -0.0945    0.0717    0.0085   -0.0639   -0.0390    0.0722
          20   -0.1804   -0.3129   -0.1543   -0.1085    0.0116   -0.0085    0.0106    0.0346
          21   -0.0499   -0.2286   -0.1222   -0.0166   -0.0605    0.0023    0.0124   -0.0542
          22    0.0078   -0.1413   -0.0523    0.3135   -0.2117    0.6224   -0.1997   -0.0797
          23   -0.0537   -0.0021   -0.2391    0.4485    0.2026   -0.2310    0.4166   -0.1246
          24    0.0315    0.0388    0.2542   -0.4311   -0.0699   -0.0661   -0.0149    0.1541
          25   -0.0559    0.3077   -0.2740   -0.2010   -0.0917    0.0119    0.2728   -0.0669
          26    0.1213   -0.0642    0.1433    0.1720    0.0564    0.0503   -0.0349    0.1075
          27   -0.1395    0.1551   -0.2001   -0.2168   -0.0935   -0.0351    0.1303   -0.0922
          28   -0.1074   -0.2074    0.2328    0.0739    0.2686   -0.2952   -0.3270   -0.2275
          29    0.1097    0.0805   -0.1805   -0.0601   -0.0609    0.0570    0.1073    0.0967
          30   -0.2133   -0.0586    0.3520    0.0921    0.0624   -0.0715   -0.0662   -0.1620
          31   -0.1579    0.0161   -0.0172    0.0880   -0.0202    0.0239    0.0234    0.0823
          32    0.2889   -0.1008    0.1140   -0.1048   -0.0208    0.0154    0.0697   -0.1204
          33    0.0531   -0.0377    0.0518   -0.0142   -0.0132    0.0119    0.0369   -0.0167
          34   -0.0143   -0.0997    0.1166    0.0891   -0.0263    0.0275    0.1944    0.0556
          35   -0.0722    0.1754   -0.2310   -0.0720   -0.0158    0.0303   -0.3758   -0.0622
          36    0.0524   -0.0392    0.0640   -0.0255    0.0002   -0.0024    0.0628    0.0089
          37    0.0210    0.0028   -0.0078   -0.0227    0.0321   -0.0193   -0.0064   -0.0062
          38   -0.1075   -0.0481    0.0502    0.1358   -0.1725    0.1363    0.0681    0.0308
          39    0.0543   -0.0432    0.0636   -0.0160   -0.0063    0.0068    0.0684   -0.0013
          40   -0.0792    0.0074    0.0141   -0.0645    0.1968    0.1199    0.0033    0.1521
          41    0.2443   -0.1643    0.1411   -0.0747   -0.3275   -0.1611    0.0638   -0.2190
          42    0.0694   -0.0911   -0.0212   -0.0876    0.5045    0.2601   -0.0133    0.3878
          43   -0.1406   -0.0140    0.0195    0.1932   -0.4846   -0.3967   -0.1499    0.5031
          44   -0.2259    0.1897    0.0706    0.0448    0.0190    0.0269    0.0101   -0.0073
          45   -0.0425    0.1068   -0.0068    0.0815    0.0170   -0.0194   -0.0165   -0.0038
          46    0.0964   -0.0124   -0.0367    0.0746   -0.0615   -0.0260   -0.0187    0.0044
          47    0.1573    0.3894    0.1487    0.0636    0.0206    0.0005   -0.0105    0.0029
          48    0.1203    0.2488    0.0905    0.0476    0.0093    0.0011   -0.0059   -0.0089
          49    0.1267    0.0131   -0.0495    0.0402    0.0395   -0.0573   -0.0410    0.1274
          50    0.1340    0.3517    0.2191    0.0680    0.0005    0.0367    0.0113   -0.0707
          51    0.1907    0.2285    0.0888    0.0793    0.0405   -0.0332   -0.0358    0.1008


   Root No.      25        26        27        28        29        30        31        32

                25 A      26 A      27 A      28 A      29 A      30 A      31 A      32 A   

                1238.9    1294.4    1325.2    1373.6    1387.5    1402.3    1410.4    1420.5
  
           1   -0.0669    0.6379   -0.0936   -0.0536    0.1098    0.0102   -0.0482    0.1382
           2    0.3194   -0.1504   -0.1782   -0.2604    0.0314   -0.0438    0.0603   -0.4187
           3   -0.0447   -0.1937    0.1752    0.3352   -0.0942    0.0088   -0.0179    0.2206
           4   -0.3432   -0.2544    0.1665   -0.1968   -0.2227   -0.0027    0.0624   -0.0783
           5    0.1112    0.0745   -0.0741    0.1366   -0.0981    0.0025   -0.0160    0.1593
           6   -0.2818    0.0101    0.1223   -0.1993    0.1670    0.0025    0.0118   -0.1854
           7    0.0383   -0.1244    0.0256    0.1011   -0.0611   -0.1728   -0.1503   -0.1893
           8   -0.0789   -0.0069    0.0037   -0.2064    0.0251   -0.0072   -0.1311    0.4367
           9    0.0362    0.0204   -0.0372   -0.0491    0.0350   -0.1967    0.1608   -0.0074
          10   -0.0203    0.0206   -0.1743   -0.0422   -0.1262    0.0026    0.0251   -0.0874
          11    0.0543    0.0595    0.0870   -0.1145   -0.1062    0.0023    0.0315   -0.1288
          12   -0.0760   -0.0987   -0.1250    0.1860    0.1739   -0.0043   -0.0520    0.2058
          13   -0.0402   -0.1213    0.1217    0.1080   -0.0267    0.0027   -0.0017    0.0592
          14   -0.0606   -0.0721    0.0805    0.1499   -0.0882    0.0072   -0.0004    0.0778
          15    0.0126    0.1563   -0.1091   -0.2189    0.1412   -0.0083   -0.0049   -0.0763
          16   -0.0543    0.0005   -0.0056   -0.0869    0.2310   -0.0084   -0.0291    0.0144
          17   -0.0393    0.0248    0.0115    0.0324    0.0992   -0.0010   -0.0198    0.0645
          18    0.0848   -0.0478   -0.0249   -0.0530   -0.1676    0.0009    0.0343   -0.1148
          19    0.0742   -0.0144   -0.2356    0.0922   -0.0881    0.0008    0.0014    0.0143
          20   -0.0411   -0.0168    0.0499   -0.0008    0.0382   -0.0006   -0.0054    0.0199
          21    0.0572    0.0286   -0.0632   -0.0049   -0.0542    0.0009    0.0085   -0.0318
          22    0.1834   -0.3295    0.0256    0.0707   -0.0701   -0.0096    0.0010   -0.0315
          23   -0.1701    0.0898    0.0715    0.1110   -0.0017    0.0087   -0.0257    0.1367
          24    0.0620    0.0854   -0.0478   -0.0572    0.0238   -0.0071    0.0155   -0.0662
          25    0.3922   -0.1066   -0.0981    0.1954    0.2658    0.0019   -0.0432   -0.0157
          26   -0.1717   -0.1630   -0.0209    0.0397    0.4693    0.0048   -0.0501   -0.1062
          27    0.2386    0.0869   -0.0247    0.0461   -0.0963   -0.0011    0.0050    0.0333
          28    0.2636    0.0250   -0.0787    0.2367    0.3015    0.0110   -0.0747    0.0611
          29   -0.1334   -0.0338    0.0259   -0.0766   -0.1075   -0.0027    0.0264   -0.0060
          30    0.2497    0.1794    0.0120   -0.0110   -0.4647   -0.0074    0.0472    0.1132
          31    0.0843   -0.0179   -0.0677   -0.1835    0.0362    0.6288    0.0721    0.0989
          32   -0.1353    0.0777    0.1049    0.3429   -0.0072    0.1217    0.3220   -0.1602
          33   -0.0280    0.0444    0.0257    0.1363    0.0132    0.2529    0.2441   -0.1030
          34    0.0637   -0.0368   -0.0503   -0.1503    0.1013   -0.0708    0.5581    0.2636
          35   -0.0759    0.1203    0.0369    0.2318    0.0034    0.2168    0.2269   -0.2498
          36    0.0197   -0.0661   -0.0060   -0.1109   -0.0425   -0.1430   -0.3801    0.0864
          37    0.0205   -0.0500    0.0012    0.0008   -0.0119    0.0121   -0.0229   -0.0185
          38   -0.1295    0.3127    0.0478    0.2728   -0.0466   -0.2062   -0.2192   -0.3245
          39   -0.0042   -0.0202    0.0166    0.0049   -0.0708    0.5824   -0.4222   -0.0896
          40   -0.0013   -0.0072    0.0475    0.0752   -0.0504    0.0022    0.0004    0.0332
          41   -0.0017   -0.0832   -0.0019   -0.0368    0.0515   -0.0025   -0.0012   -0.0178
          42    0.0535    0.1094   -0.0113    0.0435   -0.0813    0.0021    0.0033    0.0051
          43    0.0026   -0.1233   -0.0039    0.1640   -0.0877    0.0042   -0.0011    0.0631
          44   -0.0099    0.0059    0.0057    0.0079    0.0317   -0.0011   -0.0053    0.0157
          45    0.0274   -0.0151   -0.0106   -0.0222   -0.0487   -0.0005    0.0111   -0.0410
          46    0.2750    0.1180    0.5823   -0.1250    0.0692   -0.0002    0.0050   -0.0407
          47    0.0018    0.0046    0.0604   -0.0123    0.0172   -0.0000   -0.0011    0.0023
          48   -0.0252   -0.0124   -0.1273    0.0274   -0.0305    0.0004    0.0010    0.0016
          49    0.1398    0.0295    0.3166   -0.0143    0.0815   -0.0011   -0.0104    0.0317
          50   -0.0888   -0.0295   -0.2627    0.0282   -0.0699    0.0007    0.0070   -0.0176
          51    0.1372    0.0397    0.3871   -0.0432    0.1032   -0.0015   -0.0099    0.0229


   Root No.      33        34        35        36        37        38        39        40

                33 A      34 A      35 A      36 A      37 A      38 A      39 A      40 A   

                1423.3    1809.3    1911.0    2894.8    2979.9    3055.9    3081.6    3084.8
  
           1   -0.0644    0.0234   -0.0155   -0.0949   -0.0064    0.0039   -0.0032   -0.0013
           2    0.1718   -0.0279    0.0171   -0.1343   -0.0090   -0.0008   -0.0044   -0.0004
           3   -0.1041    0.0410   -0.0168   -0.2179   -0.0130   -0.0025   -0.0073    0.0010
           4    0.1062    0.0070   -0.0496   -0.0041   -0.0106    0.1332    0.0025    0.0005
           5    0.1464    0.0156    0.0436    0.0161   -0.2606    0.0739   -0.0004   -0.0029
           6   -0.2551   -0.0233   -0.0651    0.0112   -0.1565   -0.1556   -0.0026    0.0002
           7    0.0624   -0.0031    0.0023    0.0057    0.0002    0.0010   -0.1484   -0.2287
           8   -0.1348   -0.0060   -0.0040   -0.0003    0.0011    0.0010   -0.0645   -0.0957
           9    0.0054    0.0054    0.0007    0.0078    0.0004    0.0042   -0.2473    0.1622
          10   -0.2292    0.0109    0.7357    0.0019    0.0003   -0.0011    0.0002    0.0001
          11   -0.2842   -0.0111   -0.1574   -0.0005   -0.0007    0.0018   -0.0000    0.0001
          12    0.4532    0.0156    0.2016    0.0009    0.0001   -0.0029   -0.0000    0.0000
          13   -0.0328   -0.5153   -0.0194    0.0010    0.0001    0.0014   -0.0013   -0.0008
          14   -0.1414    0.2566   -0.0069    0.0020   -0.0002   -0.0002   -0.0012    0.0017
          15    0.2088   -0.3832    0.0111   -0.0034   -0.0004    0.0002    0.0007   -0.0009
          16    0.3324    0.5892   -0.1154    0.0015    0.0001   -0.0008    0.0000    0.0002
          17    0.1414   -0.1966   -0.0144   -0.0017   -0.0008    0.0007    0.0001    0.0002
          18   -0.2344    0.2876    0.0287    0.0007   -0.0005   -0.0013   -0.0004   -0.0003
          19   -0.0513   -0.0593   -0.5409   -0.0003   -0.0001    0.0003    0.0001   -0.0001
          20    0.0629    0.0068    0.1262    0.0000   -0.0005   -0.0001   -0.0000   -0.0000
          21   -0.0941   -0.0069   -0.1633   -0.0001   -0.0004    0.0001    0.0000    0.0000
          22    0.0600   -0.0180    0.0001    0.3314    0.0259    0.0052    0.0068   -0.0016
          23   -0.0514   -0.0081   -0.0042    0.4791    0.0275    0.0049    0.0200   -0.0009
          24   -0.0005    0.0171   -0.0037    0.7623    0.0448    0.0067    0.0218    0.0009
[...]
 TRANSITION DIPOLE   0.0918         C  7 -- H 17         +23.1% ( 55.7%)      2.3%
 TRAVEL (Ang.)       0.3499         C  2 -- C  4          +9.1% ( 35.1%)     68.9%
 REDUCED MASS        0.4157         C  1 -- C  5          +7.7% ( 32.3%)     90.3%
 EFFECTIVE MASS      3.7345
 FORCE CONSTANT      0.4301

 VIBRATION         28   28A           ATOM PAIR      ENERGY CONTRIBUTION    RADIAL
 FREQUENCY          1373.63         C  1 -- C  5         +14.9% ( 50.4%)     99.2%
 TRANSITION DIPOLE   0.0697         C  1 -- C  2         +11.3% ( 43.8%)      4.4%
 TRAVEL (Ang.)       0.2620         C  3 -- H 11         +10.2% ( 41.6%)      0.5%
 REDUCED MASS        0.7149         C  1 -- H  8          +8.7% ( 38.5%)      2.3%
 EFFECTIVE MASS      5.9305
 FORCE CONSTANT      0.7947

 VIBRATION         29   29A           ATOM PAIR      ENERGY CONTRIBUTION    RADIAL
 FREQUENCY          1387.50         C  2 -- H 10         +22.7% ( 53.4%)      3.6%
 TRANSITION DIPOLE   0.0765         C  2 -- H  9         +21.0% ( 51.3%)      4.5%
 TRAVEL (Ang.)       0.3314         C  4 -- C  6         +12.5% ( 39.6%)     93.3%
 REDUCED MASS        0.4425         C  5 -- C  6          +7.2% ( 30.1%)      0.0%
 EFFECTIVE MASS      4.1707
 FORCE CONSTANT      0.5019

 VIBRATION         30   30A           ATOM PAIR      ENERGY CONTRIBUTION    RADIAL
 FREQUENCY          1402.29         C  3 -- H 11         +47.0% ( 59.9%)      1.2%
 TRANSITION DIPOLE   0.0474         C  3 -- H 13         +38.0% ( 53.9%)      3.2%
 TRAVEL (Ang.)       0.3323         C  3 -- H 12          +8.5% ( 25.5%)     59.5%
 REDUCED MASS        0.4355         C  1 -- C  3          +5.8% ( 21.0%)     14.1%
 EFFECTIVE MASS      1.6262
 FORCE CONSTANT      0.5046

 VIBRATION         31   31A           ATOM PAIR      ENERGY CONTRIBUTION    RADIAL
 FREQUENCY          1410.44         C  3 -- H 12         +48.6% ( 61.8%)      0.0%
 TRANSITION DIPOLE   0.0463         C  3 -- H 13         +22.5% ( 42.0%)      6.1%
 TRAVEL (Ang.)       0.3489         C  3 -- H 11         +16.8% ( 36.3%)     17.5%
 REDUCED MASS        0.3928         C  1 -- C  3          +5.8% ( 21.4%)     23.8%
 EFFECTIVE MASS      1.7666
 FORCE CONSTANT      0.4604

 VIBRATION         32   32A           ATOM PAIR      ENERGY CONTRIBUTION    RADIAL
 FREQUENCY          1420.50         C  1 -- C  3         +19.7% ( 63.8%)     94.1%
 TRANSITION DIPOLE   0.0806         C  3 -- H 12         +12.5% ( 50.8%)      3.3%
 TRAVEL (Ang.)       0.1794         C  3 -- H 13         +11.4% ( 48.4%)      3.8%
 REDUCED MASS        1.4745         C  1 -- C  2         +10.6% ( 46.7%)      8.6%
 EFFECTIVE MASS      7.7883
 FORCE CONSTANT      1.7530

 VIBRATION         33   33A           ATOM PAIR      ENERGY CONTRIBUTION    RADIAL
 FREQUENCY          1423.34         C  4 -- C  6         +24.1% ( 70.2%)     85.8%
 TRANSITION DIPOLE   0.0732         C  2 -- C  4         +17.3% ( 59.4%)     63.3%
 TRAVEL (Ang.)       0.1539         C  4 -- C  7         +11.3% ( 48.0%)      0.9%
 REDUCED MASS        2.0004         C  5 -- C  6          +8.7% ( 42.2%)      0.1%
 EFFECTIVE MASS      9.4524
 FORCE CONSTANT      2.3877

 VIBRATION         34   34A           ATOM PAIR      ENERGY CONTRIBUTION    RADIAL
 FREQUENCY          1809.30         C  5 -- C  6         +45.8% (100.5%)    100.0%
 TRANSITION DIPOLE   0.2859         C  1 -- C  5         +14.1% ( 55.7%)     23.8%
 TRAVEL (Ang.)       0.0832         C  4 -- C  6         +13.5% ( 54.5%)     21.0%
 REDUCED MASS        5.3854         C  5 -- H 14         +13.1% ( 53.8%)     10.4%
 EFFECTIVE MASS     11.9194         C  6 -- H 15         +12.9% ( 53.3%)     10.7%
 FORCE CONSTANT     10.3869

 VIBRATION         35   35A           ATOM PAIR      ENERGY CONTRIBUTION    RADIAL
 FREQUENCY          1911.04         C  4 -- C  7         +43.8% ( 98.4%)    100.0%
 TRANSITION DIPOLE   0.3405         C  4 -- C  6         +19.3% ( 65.4%)     45.2%
 TRAVEL (Ang.)       0.0782         C  2 -- C  4         +18.8% ( 64.6%)     38.2%
 REDUCED MASS        5.7728         C  7 -- H 16          +8.6% ( 43.5%)     11.4%
 EFFECTIVE MASS     11.8982
 FORCE CONSTANT     12.4216

 VIBRATION         36   36A           ATOM PAIR      ENERGY CONTRIBUTION    RADIAL
 FREQUENCY          2894.78         C  1 -- H  8         +96.3% ( 99.8%)    100.0%
 TRANSITION DIPOLE   0.0791         C  1 -- C  2          +1.1% ( 10.5%)      9.9%
 TRAVEL (Ang.)       0.1591         C  1 -- C  3          +1.0% ( 10.4%)      9.1%
 REDUCED MASS        0.9207         C  1 -- C  5          +1.0% ( 10.3%)      9.9%
 EFFECTIVE MASS      1.4453
 FORCE CONSTANT      4.5458

 VIBRATION         37   37A           ATOM PAIR      ENERGY CONTRIBUTION    RADIAL
 FREQUENCY          2979.86         C  2 -- H 10         +55.8% ( 77.4%)     97.4%
 TRANSITION DIPOLE   0.0730         C  2 -- H  9         +41.6% ( 66.9%)     95.7%
 TRAVEL (Ang.)       0.2077         C  2 -- C  4          +1.1% ( 11.0%)      0.1%
 REDUCED MASS        0.5246         C  1 -- C  2          +1.1% ( 10.9%)      0.0%
 EFFECTIVE MASS      1.5388
 FORCE CONSTANT      2.7447

 VIBRATION         38   38A           ATOM PAIR      ENERGY CONTRIBUTION    RADIAL
 FREQUENCY          3055.92         C  2 -- H  9         +57.0% ( 74.5%)     98.3%
 TRANSITION DIPOLE   0.1079         C  2 -- H 10         +41.5% ( 63.6%)     96.4%
 TRAVEL (Ang.)       0.2114         C  2 -- C  4          +0.7% (  8.1%)     34.2%
 REDUCED MASS        0.4937         C  1 -- C  2          +0.7% (  8.1%)     36.5%
 EFFECTIVE MASS      1.2824
 FORCE CONSTANT      2.7165

 VIBRATION         39   39A           ATOM PAIR      ENERGY CONTRIBUTION    RADIAL
 FREQUENCY          3081.58         C  3 -- H 12         +65.3% ( 83.4%)     98.9%
 TRANSITION DIPOLE   0.0239         C  3 -- H 13         +17.5% ( 43.1%)     85.0%
 TRAVEL (Ang.)       0.2068         C  3 -- H 11         +16.2% ( 41.5%)     83.7%
 REDUCED MASS        0.5117         C  1 -- C  3          +1.0% ( 10.3%)      0.0%
 EFFECTIVE MASS      1.5048
 FORCE CONSTANT      2.8629

 VIBRATION         40   40A           ATOM PAIR      ENERGY CONTRIBUTION    RADIAL
 FREQUENCY          3084.78         C  3 -- H 11         +49.7% ( 72.7%)     97.2%
 TRANSITION DIPOLE   0.0201         C  3 -- H 13         +48.3% ( 71.7%)     97.0%
 TRAVEL (Ang.)       0.2070         C  1 -- C  3          +1.0% ( 10.5%)      0.0%
 REDUCED MASS        0.5100         C  3 -- H 12          +1.0% ( 10.2%)      0.2%
 EFFECTIVE MASS      1.5081
 FORCE CONSTANT      2.8596

 VIBRATION         41   41A           ATOM PAIR      ENERGY CONTRIBUTION    RADIAL
 FREQUENCY          3114.54         C  6 -- H 15         +55.0% ( 75.4%)    100.0%
 TRANSITION DIPOLE   0.3845         C  5 -- H 14         +42.3% ( 66.1%)    100.0%
 TRAVEL (Ang.)       0.2140         C  5 -- C  6          +1.2% ( 10.9%)      0.4%
 REDUCED MASS        0.4727         C  4 -- C  6          +0.9% (  9.4%)     28.5%
 EFFECTIVE MASS      1.4685
 FORCE CONSTANT      2.7018

 VIBRATION         42   42A           ATOM PAIR      ENERGY CONTRIBUTION    RADIAL
 FREQUENCY          3133.03         C  5 -- H 14         +54.0% ( 74.9%)     99.9%
 TRANSITION DIPOLE   0.3606         C  6 -- H 15         +41.3% ( 65.5%)     99.9%
 TRAVEL (Ang.)       0.2134         C  5 -- C  6          +2.5% ( 16.0%)     99.6%
 REDUCED MASS        0.4727         C  1 -- C  5          +1.0% ( 10.4%)     18.7%
 EFFECTIVE MASS      1.6496
 FORCE CONSTANT      2.7340

 VIBRATION         43   43A           ATOM PAIR      ENERGY CONTRIBUTION    RADIAL
 FREQUENCY          3142.50         C  7 -- H 16         +64.2% ( 80.2%)     97.4%
 TRANSITION DIPOLE   0.3611         C  7 -- H 17         +33.9% ( 58.3%)     91.1%
 TRAVEL (Ang.)       0.2024         C  4 -- C  7          +1.5% ( 12.3%)     96.7%
 REDUCED MASS        0.5238         C  6 -- H 15          +0.2% (  4.4%)     99.8%
 EFFECTIVE MASS      1.3924
 FORCE CONSTANT      3.0477

 VIBRATION         44   44A           ATOM PAIR      ENERGY CONTRIBUTION    RADIAL
 FREQUENCY          3147.46         C  7 -- H 17         +63.8% ( 81.8%)     98.4%
 TRANSITION DIPOLE   0.2021         C  7 -- H 16         +34.9% ( 60.5%)     94.7%
 TRAVEL (Ang.)       0.1933         C  4 -- C  7          +1.3% ( 11.7%)      1.8%
 REDUCED MASS        0.5733
 EFFECTIVE MASS      1.6012
 FORCE CONSTANT      3.3464

 VIBRATION         45   45A           ATOM PAIR      ENERGY CONTRIBUTION    RADIAL
 FREQUENCY          3180.00         C  3 -- H 13         +33.5% ( 55.7%)     97.1%
 TRANSITION DIPOLE   0.0340         C  3 -- H 11         +33.4% ( 55.6%)     97.1%
 TRAVEL (Ang.)       0.2546         C  3 -- H 12         +32.8% ( 55.1%)     97.1%
 REDUCED MASS        0.3271         C  1 -- C  3          +0.3% (  5.1%)    100.0%
 EFFECTIVE MASS      1.1350
 FORCE CONSTANT      1.9486

      SYMMETRY NUMBER FOR POINT-GROUP C1  =  1


          SYSTEM IS A GROUND STATE



 InChI=1S/C7H10/c1-6-3-4-7(2)5-6/h3-4,7H,1,5H2,2H3


          MOLECULE IS NOT LINEAR

          THERE ARE 45 GENUINE VIBRATIONS IN THIS SYSTEM
          THIS THERMODYNAMICS CALCULATION IS LIMITED TO
          MOLECULES WHICH HAVE NO INTERNAL ROTATIONS




                    CALCULATED THERMODYNAMIC PROPERTIES
                                          *
   TEMP. (K)   PARTITION FUNCTION   H.O.F.    ENTHALPY  HEAT CAPACITY ENTROPY
                                   KCAL/MOL   CAL/MOLE    CAL/K/MOL  CAL/K/MOL


 298.00  VIB.     0.2042D+02                  2554.8337    20.4036    14.5674
         ROT.     0.1969D+06                   888.2803     2.9808    27.2055
         INT.     0.4020D+07                  3443.1141    23.3844    41.7729
         TRA.     0.8833D+27                  1480.4672     4.9680    39.5363
         TOT.                       18.185    4923.5812    28.3525    81.3092

 200.00  VIB.     0.5419D+01                   998.5526    11.6148     8.3511
         ROT.     0.1082D+06                   596.1613     2.9808    26.0169
         INT.     0.5866D+06                  1594.7138    14.5956    34.3679
         TRA.     0.4856D+27                   993.6021     4.9680    37.5551
         TOT.                       15.850    2588.3160    19.5636    71.9231

 210.00  VIB.     0.6151D+01                  1118.7405    12.4270     8.9373
         ROT.     0.1165D+06                   625.9693     2.9808    26.1623
         INT.     0.7164D+06                  1744.7098    15.4078    35.0996
         TRA.     0.5225D+27                  1043.2822     4.9680    37.7975
         TOT.                       16.049    2787.9920    20.3759    72.8971

 220.00  VIB.     0.6996D+01                  1247.1762    13.2641     9.5346
         ROT.     0.1249D+06                   655.7774     2.9808    26.3010
         INT.     0.8736D+06                  1902.9536    16.2449    35.8356
         TRA.     0.5603D+27                  1092.9623     4.9680    38.0286
         TOT.                       16.257    2995.9159    21.2129    73.8642

 230.00  VIB.     0.7972D+01                  1384.1004    14.1244    10.1432
         ROT.     0.1335D+06                   685.5855     2.9808    26.4335
         INT.     0.1064D+07                  2069.6858    17.1052    36.5766
         TRA.     0.5989D+27                  1142.6424     4.9680    38.2495
         TOT.                       16.474    3212.3283    22.0732    74.8261

 240.00  VIB.     0.9103D+01                  1529.7352    15.0059    10.7628
         ROT.     0.1423D+06                   715.3935     2.9808    26.5603
         INT.     0.1295D+07                  2245.1287    17.9867    37.3231
         TRA.     0.6384D+27                  1192.3226     4.9680    38.4609
         TOT.                       16.699    3437.4512    22.9547    75.7841

 250.00  VIB.     0.1041D+02                  1684.2805    15.9061    11.3936
         ROT.     0.1513D+06                   745.2016     2.9808    26.6820
         INT.     0.1576D+07                  2429.4821    18.8869    38.0756
         TRA.     0.6787D+27                  1242.0027     4.9680    38.6637
         TOT.                       16.933    3671.4847    23.8549    76.7393

 260.00  VIB.     0.1194D+02                  1847.9111    16.8225    12.0352
         ROT.     0.1604D+06                   775.0097     2.9808    26.7989
         INT.     0.1916D+07                  2622.9208    19.8033    38.8342
         TRA.     0.7198D+27                  1291.6828     4.9680    38.8586
         TOT.                       17.176    3914.6035    24.7713    77.6927

 270.00  VIB.     0.1371D+02                  2020.7751    17.7523    12.6875
         ROT.     0.1698D+06                   804.8177     2.9808    26.9114
         INT.     0.2328D+07                  2825.5928    20.7331    39.5989
         TRA.     0.7618D+27                  1341.3629     4.9680    39.0461
         TOT.                       17.428    4166.9557    25.7011    78.6450

 280.00  VIB.     0.1578D+02                  2202.9927    18.6928    13.3501
         ROT.     0.1793D+06                   834.6258     2.9808    27.0198
         INT.     0.2830D+07                  3037.6185    21.6736    40.3699
         TRA.     0.8045D+27                  1391.0430     4.9680    39.2267
         TOT.                       17.690    4428.6615    26.6416    79.5967

 290.00  VIB.     0.1819D+02                  2394.6566    19.6411    14.0226
         ROT.     0.1890D+06                   864.4339     2.9808    27.1244
         INT.     0.3439D+07                  3259.0904    22.6219    41.1470
         TRA.     0.8479D+27                  1440.7231     4.9680    39.4011
         TOT.                       17.961    4699.8135    27.5899    80.5481

 300.00  VIB.     0.2102D+02                  2595.8320    20.5946    14.7045
         ROT.     0.1989D+06                   894.2419     2.9808    27.2255
         INT.     0.4180D+07                  3490.0739    23.5754    41.9300
         TRA.     0.8922D+27                  1490.4032     4.9680    39.5695
         TOT.                       18.242    4980.4771    28.5435    81.4995

 310.00  VIB.     0.2432D+02                  2806.5582    21.5508    15.3954
         ROT.     0.2089D+06                   924.0500     2.9808    27.3232
         INT.     0.5081D+07                  3730.6081    24.5316    42.7186
         TRA.     0.9372D+27                  1540.0833     4.9680    39.7324
         TOT.                       18.532    5270.6914    29.4996    82.4510

 320.00  VIB.     0.2820D+02                  3026.8494    22.5073    16.0947
         ROT.     0.2191D+06                   953.8580     2.9808    27.4178
         INT.     0.6178D+07                  3980.7074    25.4881    43.5125
         TRA.     0.9829D+27                  1589.7634     4.9680    39.8901
         TOT.                       18.832    5570.4708    30.4561    83.4027

 330.00  VIB.     0.3275D+02                  3256.6969    23.4617    16.8019
         ROT.     0.2294D+06                   983.6661     2.9808    27.5096
         INT.     0.7514D+07                  4240.3630    26.4425    44.3115
         TRA.     0.1029D+28                  1639.4435     4.9680    40.0430
         TOT.                       19.141    5879.8065    31.4105    84.3545

 340.00  VIB.     0.3810D+02                  3496.0706    24.4122    17.5164
         ROT.     0.2399D+06                  1013.4742     2.9808    27.5986
         INT.     0.9142D+07                  4509.5448    27.3930    45.1150
         TRA.     0.1076D+28                  1689.1236     4.9680    40.1913
         TOT.                       19.460    6198.6684    32.3610    85.3063

 350.00  VIB.     0.4440D+02                  3744.9213    25.3568    18.2377
         ROT.     0.2506D+06                  1043.2822     2.9808    27.6850
         INT.     0.1113D+08                  4788.2035    28.3376    45.9227
         TRA.     0.1124D+28                  1738.8037     4.9680    40.3353
         TOT.                       19.788    6527.0073    33.3056    86.2580

 360.00  VIB.     0.5183D+02                  4003.1823    26.2940    18.9652
         ROT.     0.2614D+06                  1073.0903     2.9808    27.7689
         INT.     0.1355D+08                  5076.2726    29.2748    46.7341
         TRA.     0.1173D+28                  1788.4838     4.9680    40.4753
         TOT.                       20.126    6864.7564    34.2428    87.2094

 370.00  VIB.     0.6059D+02                  4270.7715    27.2223    19.6983
         ROT.     0.2724D+06                  1102.8984     2.9808    27.8506
         INT.     0.1650D+08                  5373.6699    30.2031    47.5489
         TRA.     0.1222D+28                  1838.1639     4.9680    40.6114
         TOT.                       20.473    7211.8338    35.1711    88.1603

 380.00  VIB.     0.7094D+02                  4547.5937    28.1404    20.4365
         ROT.     0.2835D+06                  1132.7064     2.9808    27.9301
         INT.     0.2011D+08                  5680.3001    31.1212    48.3666
         TRA.     0.1272D+28                  1887.8440     4.9680    40.7439
         TOT.                       20.830    7568.1442    36.0892    89.1105

 390.00  VIB.     0.8318D+02                  4833.5419    29.0473    21.1792
         ROT.     0.2948D+06                  1162.5145     2.9808    28.0075
         INT.     0.2452D+08                  5996.0564    32.0281    49.1867
         TRA.     0.1322D+28                  1937.5242     4.9680    40.8729
         TOT.                       21.195    7933.5805    36.9961    90.0597

 400.00  VIB.     0.9768D+02                  5128.4993    29.9421    21.9259
         ROT.     0.3062D+06                  1192.3226     2.9808    28.0830
         INT.     0.2991D+08                  6320.8219    32.9229    50.0089
         TRA.     0.1374D+28                  1987.2043     4.9680    40.9987
         TOT.                       21.569    8308.0261    37.8909    91.0076

   *: NOTE: HEATS OF FORMATION ARE RELATIVE TO THE
            ELEMENTS IN THEIR STANDARD STATE AT 298K
              (=  Standard Enthalpy of Formation).

            Hvib:  Zero-point energy is not included.
                   frequencies of less than zero cm-1 are not included.
            Hrot = (3/2)RT
            Htra = (3/2)RT + pV = (5/2)RT

            Heat capacity is Cp, not Cv

          For more information, see: HTTP://OpenMOPAC.net/Manual/thermochemistry.html


           FORCE CONSTANT IN CARTESIAN COORDINATES (Millidynes/A)

    ATOM   CHEMICAL       X               Y               Z
   NUMBER   SYMBOL  FORCE CONSTANT  FORCE CONSTANT  FORCE CONSTANT

      1       C        7.807080        8.602548        8.852099
      2       C        7.746647        8.452224        8.788315
      3       C        8.396085        8.263882        8.303752
      4       C       16.261561        4.703255        7.481973
      5       C       14.599671        4.725690        7.855115
      6       C       12.211478        5.398458       10.193251
      7       C       14.586675        4.347202        7.508079
      8       H        1.178029        1.665982        3.159427
      9       H        1.268108        1.457178        3.688898
     10       H        1.328802        4.430399        0.666116
     11       H        1.011183        1.793412        3.964574
     12       H        1.196611        1.966532        3.612148
     13       H        5.371047        0.727338        0.671396
     14       H        4.949589        0.525354        0.935142
     15       H        0.706674        1.763395        3.936201
     16       H        0.858008        1.807591        3.777607
     17       H        3.730524        0.866518        1.840715

 **********************
 *                    *
 * JOB ENDED NORMALLY *
 *                    *
 **********************



 TOTAL JOB TIME:             1.52 SECONDS

 == MOPAC DONE ==
