 *******************************************************************************
 **                                                                           **
 **                              MOPAC v23.1.2                                **
 **                                                                           **
 *******************************************************************************
 **          Digital Object Identifier (DOI): 10.5281/zenodo.6511958          **
 **    Visit the DOI location for information on how to cite this program.    **
 *******************************************************************************

                              PM3 CALCULATION RESULTS

 *******************************************************************************
 *  CALCULATION DONE: (MAX THREADS = 1)              Tue Jun  3 16:40:24 2025  *
 *  PM3        - The PM3 Hamiltonian to be used
 *  PRECISE    - TIGHTER CRITERIA TO BE USED
 *  NOSYM      - POINT-GROUP SYMMETRY SET TO C1
 *  THREADS=1  - MULTI-THREADING NOT USED
 *  T=         - A TIME OF 172800.0 SECONDS REQUESTED
 *  DUMP=N     - RESTART FILE WRITTEN EVERY 7200.0 SECONDS REQUESTED
 *******************************************************************************
pm3  precise nosym THREADS=1
 InChI=1S/C12H20/c1-4-7-10(5-2)12-9-8-11(12)6-3/h5,8-12H,2,4,6-7H2,1,3H3

   ATOM   CHEMICAL          X               Y               Z
  NUMBER   SYMBOL      (ANGSTROMS)     (ANGSTROMS)     (ANGSTROMS)

     1       C         -0.99690000  *   0.11470000  *  -0.99850000  *
     2       C          0.50390000  *   0.42890000  *  -0.77540000  *
     3       C         -1.37380000  *  -1.27270000  *  -0.80390000  *
     4       C          0.85200000  *   0.38430000  *   0.72810000  *
     5       C         -2.62230000  *  -1.49590000  *   0.07030000  *
     6       C          2.35830000  *   0.55050000  *   0.98190000  *
     7       C          2.68190000  *   0.43340000  *   2.46860000  *
     8       C         -2.31050000  *  -1.31490000  *   1.55320000  *
     9       C         -1.70590000  *  -1.36290000  *  -2.26030000  *
    10       C         -1.33540000  *  -0.03270000  *  -2.45340000  *
    11       C          0.80970000  *   1.80200000  *  -1.33440000  *
    12       C          1.66540000  *   1.98130000  *  -2.34520000  *
    13       H          1.11770000  *  -0.34150000  *  -1.29870000  *
    14       H         -0.53910000  *  -1.96430000  *  -0.54840000  *
    15       H         -1.66950000  *   0.85500000  *  -0.50670000  *
    16       H          2.92040000  *  -0.23350000  *   0.42920000  *
    17       H          2.69820000  *   1.54580000  *   0.62340000  *
    18       H          0.29130000  *   1.17930000  *   1.26870000  *
    19       H         -2.98830000  *  -2.53380000  *  -0.08730000  *
    20       H         -3.44130000  *  -0.80030000  *  -0.21970000  *
    21       H          0.53940000  *  -0.59590000  *   1.14690000  *
    22       H          3.77400000  *   0.56240000  *   2.62270000  *
    23       H          2.38520000  *  -0.56650000  *   2.85100000  *
    24       H          2.14660000  *   1.21960000  *   3.04260000  *
    25       H         -1.99120000  *  -0.27150000  *   1.75850000  *
    26       H         -3.22060000  *  -1.52840000  *   2.15230000  *
    27       H         -1.50730000  *  -2.01510000  *   1.86700000  *
    28       H          0.31100000  *   2.66810000  *  -0.90800000  *
    29       H         -2.08000000  *  -2.14930000  *  -2.90690000  *
    30       H         -1.30870000  *   0.63140000  *  -3.31060000  *
    31       H          1.85590000  *   2.98060000  *  -2.72270000  *
    32       H          2.17980000  *   1.14190000  *  -2.80240000  *



          CARTESIAN COORDINATES 

    NO.       ATOM           X           Y           Z

     1         C         -0.9969      0.1147     -0.9985
     2         C          0.5039      0.4289     -0.7754
     3         C         -1.3738     -1.2727     -0.8039
     4         C          0.8520      0.3843      0.7281
     5         C         -2.6223     -1.4959      0.0703
     6         C          2.3583      0.5505      0.9819
     7         C          2.6819      0.4334      2.4686
     8         C         -2.3105     -1.3149      1.5532
     9         C         -1.7059     -1.3629     -2.2603
    10         C         -1.3354     -0.0327     -2.4534
    11         C          0.8097      1.8020     -1.3344
    12         C          1.6654      1.9813     -2.3452
    13         H          1.1177     -0.3415     -1.2987
    14         H         -0.5391     -1.9643     -0.5484
    15         H         -1.6695      0.8550     -0.5067
    16         H          2.9204     -0.2335      0.4292
    17         H          2.6982      1.5458      0.6234
    18         H          0.2913      1.1793      1.2687
    19         H         -2.9883     -2.5338     -0.0873
    20         H         -3.4413     -0.8003     -0.2197
    21         H          0.5394     -0.5959      1.1469
    22         H          3.7740      0.5624      2.6227
    23         H          2.3852     -0.5665      2.8510
    24         H          2.1466      1.2196      3.0426
    25         H         -1.9912     -0.2715      1.7585
    26         H         -3.2206     -1.5284      2.1523
    27         H         -1.5073     -2.0151      1.8670
    28         H          0.3110      2.6681     -0.9080
    29         H         -2.0800     -2.1493     -2.9069
    30         H         -1.3087      0.6314     -3.3106
    31         H          1.8559      2.9806     -2.7227
    32         H          2.1798      1.1419     -2.8024

  H: (PM3): J. J. P. STEWART, J. COMP. CHEM. 10, 209 (1989).
  C: (PM3): J. J. P. STEWART, J. COMP. CHEM. 10, 209 (1989).

           Empirical Formula: C12 H20  =    32 atoms



      MOLECULAR POINT GROUP   :   C1  


      RHF CALCULATION, NO. OF DOUBLY OCCUPIED LEVELS = 34


          Geometry optimization using EF

          DIAGONAL MATRIX USED AS START HESSIAN

 CYCLE:     1 TIME:   0.016 TIME LEFT:  2.00D  GRAD.:   211.198 HEAT:  36.53625
 CYCLE:     2 TIME:   0.016 TIME LEFT:  2.00D  GRAD.:    65.395 HEAT:  27.08381
 CYCLE:     3 TIME:   0.020 TIME LEFT:  2.00D  GRAD.:    95.632 HEAT:  26.71907
 CYCLE:     4 TIME:   0.016 TIME LEFT:  2.00D  GRAD.:    38.561 HEAT:  25.42989
 CYCLE:     5 TIME:   0.012 TIME LEFT:  2.00D  GRAD.:    49.049 HEAT:  25.34842
 CYCLE:     6 TIME:   0.012 TIME LEFT:  2.00D  GRAD.:    65.480 HEAT:  25.21416
 CYCLE:     7 TIME:   0.012 TIME LEFT:  2.00D  GRAD.:    59.138 HEAT:  25.05815
 CYCLE:     8 TIME:   0.020 TIME LEFT:  2.00D  GRAD.:    20.163 HEAT:  24.39014
 CYCLE:     9 TIME:   0.020 TIME LEFT:  2.00D  GRAD.:    14.817 HEAT:  24.28431
 CYCLE:    10 TIME:   0.008 TIME LEFT:  2.00D  GRAD.:    14.122 HEAT:  24.21419
 CYCLE:    11 TIME:   0.012 TIME LEFT:  2.00D  GRAD.:    16.209 HEAT:  24.14966
 CYCLE:    12 TIME:   0.020 TIME LEFT:  2.00D  GRAD.:    12.069 HEAT:  24.09994
 CYCLE:    13 TIME:   0.020 TIME LEFT:  2.00D  GRAD.:     7.399 HEAT:  24.05818
 CYCLE:    14 TIME:   0.008 TIME LEFT:  2.00D  GRAD.:     6.286 HEAT:  24.02630
 CYCLE:    15 TIME:   0.012 TIME LEFT:  2.00D  GRAD.:     9.737 HEAT:  24.00500
 CYCLE:    16 TIME:   0.020 TIME LEFT:  2.00D  GRAD.:     7.520 HEAT:  23.98277
 CYCLE:    17 TIME:   0.012 TIME LEFT:  2.00D  GRAD.:     6.772 HEAT:  23.96251
 CYCLE:    18 TIME:   0.008 TIME LEFT:  2.00D  GRAD.:     9.270 HEAT:  23.95200
 CYCLE:    19 TIME:   0.020 TIME LEFT:  2.00D  GRAD.:     7.255 HEAT:  23.93751
 CYCLE:    20 TIME:   0.012 TIME LEFT:  2.00D  GRAD.:     7.449 HEAT:  23.92945
 CYCLE:    21 TIME:   0.008 TIME LEFT:  2.00D  GRAD.:     6.286 HEAT:  23.91684
 CYCLE:    22 TIME:   0.012 TIME LEFT:  2.00D  GRAD.:     6.980 HEAT:  23.91112
 CYCLE:    23 TIME:   0.012 TIME LEFT:  2.00D  GRAD.:     4.291 HEAT:  23.89643
 CYCLE:    24 TIME:   0.008 TIME LEFT:  2.00D  GRAD.:     4.630 HEAT:  23.88817
 CYCLE:    25 TIME:   0.012 TIME LEFT:  2.00D  GRAD.:     3.931 HEAT:  23.87631
 CYCLE:    26 TIME:   0.012 TIME LEFT:  2.00D  GRAD.:     5.374 HEAT:  23.87048
 CYCLE:    27 TIME:   0.008 TIME LEFT:  2.00D  GRAD.:     4.624 HEAT:  23.86233
 CYCLE:    28 TIME:   0.012 TIME LEFT:  2.00D  GRAD.:     4.284 HEAT:  23.85585
 CYCLE:    29 TIME:   0.012 TIME LEFT:  2.00D  GRAD.:     4.212 HEAT:  23.85023
 CYCLE:    30 TIME:   0.012 TIME LEFT:  2.00D  GRAD.:     2.810 HEAT:  23.84092
 CYCLE:    31 TIME:   0.008 TIME LEFT:  2.00D  GRAD.:     3.411 HEAT:  23.83344
 CYCLE:    32 TIME:   0.012 TIME LEFT:  2.00D  GRAD.:     2.834 HEAT:  23.82392
 CYCLE:    33 TIME:   0.012 TIME LEFT:  2.00D  GRAD.:     3.030 HEAT:  23.81918
 CYCLE:    34 TIME:   0.012 TIME LEFT:  2.00D  GRAD.:     2.494 HEAT:  23.81355
 CYCLE:    35 TIME:   0.012 TIME LEFT:  2.00D  GRAD.:     2.025 HEAT:  23.80860
 CYCLE:    36 TIME:   0.008 TIME LEFT:  2.00D  GRAD.:     2.170 HEAT:  23.80392
 CYCLE:    37 TIME:   0.012 TIME LEFT:  2.00D  GRAD.:     2.579 HEAT:  23.80128
 CYCLE:    38 TIME:   0.012 TIME LEFT:  2.00D  GRAD.:     2.028 HEAT:  23.79754
 CYCLE:    39 TIME:   0.012 TIME LEFT:  2.00D  GRAD.:     1.723 HEAT:  23.79370
 CYCLE:    40 TIME:   0.012 TIME LEFT:  2.00D  GRAD.:     2.393 HEAT:  23.79059
 CYCLE:    41 TIME:   0.012 TIME LEFT:  2.00D  GRAD.:     2.179 HEAT:  23.78636
 CYCLE:    42 TIME:   0.012 TIME LEFT:  2.00D  GRAD.:     1.735 HEAT:  23.78141
 CYCLE:    43 TIME:   0.012 TIME LEFT:  2.00D  GRAD.:     1.999 HEAT:  23.77557
 CYCLE:    44 TIME:   0.016 TIME LEFT:  2.00D  GRAD.:     2.082 HEAT:  23.77241
 CYCLE:    45 TIME:   0.008 TIME LEFT:  2.00D  GRAD.:     1.635 HEAT:  23.76822
 CYCLE:    46 TIME:   0.012 TIME LEFT:  2.00D  GRAD.:     1.804 HEAT:  23.76206
 CYCLE:    47 TIME:   0.012 TIME LEFT:  2.00D  GRAD.:     2.178 HEAT:  23.75851
 CYCLE:    48 TIME:   0.012 TIME LEFT:  2.00D  GRAD.:     1.742 HEAT:  23.75296
 CYCLE:    49 TIME:   0.012 TIME LEFT:  2.00D  GRAD.:     1.445 HEAT:  23.74576
 CYCLE:    50 TIME:   0.012 TIME LEFT:  2.00D  GRAD.:     1.522 HEAT:  23.74151
 CYCLE:    51 TIME:   0.012 TIME LEFT:  2.00D  GRAD.:     1.266 HEAT:  23.73794
 CYCLE:    52 TIME:   0.012 TIME LEFT:  2.00D  GRAD.:     1.125 HEAT:  23.73500
 CYCLE:    53 TIME:   0.012 TIME LEFT:  2.00D  GRAD.:     1.058 HEAT:  23.73279
 CYCLE:    54 TIME:   0.012 TIME LEFT:  2.00D  GRAD.:     0.873 HEAT:  23.73084
 CYCLE:    55 TIME:   0.012 TIME LEFT:  2.00D  GRAD.:     0.636 HEAT:  23.72921
 CYCLE:    56 TIME:   0.012 TIME LEFT:  2.00D  GRAD.:     0.515 HEAT:  23.72839
 CYCLE:    57 TIME:   0.008 TIME LEFT:  2.00D  GRAD.:     0.495 HEAT:  23.72785
 CYCLE:    58 TIME:   0.012 TIME LEFT:  2.00D  GRAD.:     0.446 HEAT:  23.72739
 CYCLE:    59 TIME:   0.012 TIME LEFT:  2.00D  GRAD.:     0.396 HEAT:  23.72699
 CYCLE:    60 TIME:   0.012 TIME LEFT:  2.00D  GRAD.:     0.412 HEAT:  23.72662
 CYCLE:    61 TIME:   0.012 TIME LEFT:  2.00D  GRAD.:     0.430 HEAT:  23.72625
 CYCLE:    62 TIME:   0.012 TIME LEFT:  2.00D  GRAD.:     0.434 HEAT:  23.72574
 CYCLE:    63 TIME:   0.012 TIME LEFT:  2.00D  GRAD.:     0.415 HEAT:  23.72521
 CYCLE:    64 TIME:   0.012 TIME LEFT:  2.00D  GRAD.:     0.395 HEAT:  23.72478
 CYCLE:    65 TIME:   0.012 TIME LEFT:  2.00D  GRAD.:     0.393 HEAT:  23.72441
 CYCLE:    66 TIME:   0.008 TIME LEFT:  2.00D  GRAD.:     0.399 HEAT:  23.72400
 CYCLE:    67 TIME:   0.012 TIME LEFT:  2.00D  GRAD.:     0.411 HEAT:  23.72354
 CYCLE:    68 TIME:   0.012 TIME LEFT:  2.00D  GRAD.:     0.406 HEAT:  23.72308
 CYCLE:    69 TIME:   0.012 TIME LEFT:  2.00D  GRAD.:     0.376 HEAT:  23.72269
 CYCLE:    70 TIME:   0.012 TIME LEFT:  2.00D  GRAD.:     0.312 HEAT:  23.72240
 CYCLE:    71 TIME:   0.008 TIME LEFT:  2.00D  GRAD.:     0.283 HEAT:  23.72217
 CYCLE:    72 TIME:   0.012 TIME LEFT:  2.00D  GRAD.:     0.299 HEAT:  23.72196
 CYCLE:    73 TIME:   0.012 TIME LEFT:  2.00D  GRAD.:     0.329 HEAT:  23.72172
 CYCLE:    74 TIME:   0.012 TIME LEFT:  2.00D  GRAD.:     0.355 HEAT:  23.72144
 CYCLE:    75 TIME:   0.012 TIME LEFT:  2.00D  GRAD.:     0.349 HEAT:  23.72110
 CYCLE:    76 TIME:   0.012 TIME LEFT:  2.00D  GRAD.:     0.333 HEAT:  23.72079
 CYCLE:    77 TIME:   0.012 TIME LEFT:  2.00D  GRAD.:     0.333 HEAT:  23.72051
 CYCLE:    78 TIME:   0.008 TIME LEFT:  2.00D  GRAD.:     0.337 HEAT:  23.72026
 CYCLE:    79 TIME:   0.012 TIME LEFT:  2.00D  GRAD.:     0.364 HEAT:  23.71996
 CYCLE:    80 TIME:   0.012 TIME LEFT:  2.00D  GRAD.:     0.436 HEAT:  23.71955
 CYCLE:    81 TIME:   0.012 TIME LEFT:  2.00D  GRAD.:     0.528 HEAT:  23.71898
 CYCLE:    82 TIME:   0.012 TIME LEFT:  2.00D  GRAD.:     0.603 HEAT:  23.71819
 CYCLE:    83 TIME:   0.012 TIME LEFT:  2.00D  GRAD.:     0.464 HEAT:  23.71774
 CYCLE:    84 TIME:   0.008 TIME LEFT:  2.00D  GRAD.:     0.415 HEAT:  23.71724
 CYCLE:    85 TIME:   0.016 TIME LEFT:  2.00D  GRAD.:     0.281 HEAT:  23.71703
 CYCLE:    86 TIME:   0.012 TIME LEFT:  2.00D  GRAD.:     0.229 HEAT:  23.71677
 CYCLE:    87 TIME:   0.012 TIME LEFT:  2.00D  GRAD.:     0.350 HEAT:  23.71650
 CYCLE:    88 TIME:   0.008 TIME LEFT:  2.00D  GRAD.:     0.347 HEAT:  23.71622
 CYCLE:    89 TIME:   0.012 TIME LEFT:  2.00D  GRAD.:     0.325 HEAT:  23.71584
 CYCLE:    90 TIME:   0.012 TIME LEFT:  2.00D  GRAD.:     0.286 HEAT:  23.71559
 CYCLE:    91 TIME:   0.012 TIME LEFT:  2.00D  GRAD.:     0.230 HEAT:  23.71536
 CYCLE:    92 TIME:   0.012 TIME LEFT:  2.00D  GRAD.:     0.223 HEAT:  23.71517
 CYCLE:    93 TIME:   0.012 TIME LEFT:  2.00D  GRAD.:     0.247 HEAT:  23.71502
 CYCLE:    94 TIME:   0.012 TIME LEFT:  2.00D  GRAD.:     0.279 HEAT:  23.71490
 CYCLE:    95 TIME:   0.008 TIME LEFT:  2.00D  GRAD.:     0.258 HEAT:  23.71477
 CYCLE:    96 TIME:   0.012 TIME LEFT:  2.00D  GRAD.:     0.273 HEAT:  23.71455
 CYCLE:    97 TIME:   0.012 TIME LEFT:  2.00D  GRAD.:     0.287 HEAT:  23.71438
 CYCLE:    98 TIME:   0.012 TIME LEFT:  2.00D  GRAD.:     0.310 HEAT:  23.71415
 CYCLE:    99 TIME:   0.012 TIME LEFT:  2.00D  GRAD.:     0.358 HEAT:  23.71383
 CYCLE:   100 TIME:   0.012 TIME LEFT:  2.00D  GRAD.:     0.441 HEAT:  23.71332
 CYCLE:   101 TIME:   0.012 TIME LEFT:  2.00D  GRAD.:     0.555 HEAT:  23.71267
 CYCLE:   102 TIME:   0.012 TIME LEFT:  2.00D  GRAD.:     0.430 HEAT:  23.71194
 CYCLE:   103 TIME:   0.012 TIME LEFT:  2.00D  GRAD.:     0.413 HEAT:  23.71159
 CYCLE:   104 TIME:   0.012 TIME LEFT:  2.00D  GRAD.:     0.253 HEAT:  23.71140
 CYCLE:   105 TIME:   0.012 TIME LEFT:  2.00D  GRAD.:     0.202 HEAT:  23.71129
 CYCLE:   106 TIME:   0.008 TIME LEFT:  2.00D  GRAD.:     0.170 HEAT:  23.71118
 CYCLE:   107 TIME:   0.012 TIME LEFT:  2.00D  GRAD.:     0.143 HEAT:  23.71111
 CYCLE:   108 TIME:   0.012 TIME LEFT:  2.00D  GRAD.:     0.130 HEAT:  23.71106
 CYCLE:   109 TIME:   0.012 TIME LEFT:  2.00D  GRAD.:     0.123 HEAT:  23.71105
 CYCLE:   110 TIME:   0.008 TIME LEFT:  2.00D  GRAD.:     0.101 HEAT:  23.71102
 CYCLE:   111 TIME:   0.012 TIME LEFT:  2.00D  GRAD.:     0.111 HEAT:  23.71101
 CYCLE:   112 TIME:   0.012 TIME LEFT:  2.00D  GRAD.:     0.094 HEAT:  23.71098
 CYCLE:   113 TIME:   0.012 TIME LEFT:  2.00D  GRAD.:     0.092 HEAT:  23.71094
 CYCLE:   114 TIME:   0.012 TIME LEFT:  2.00D  GRAD.:     0.089 HEAT:  23.71091
 CYCLE:   115 TIME:   0.012 TIME LEFT:  2.00D  GRAD.:     0.089 HEAT:  23.71089
 CYCLE:   116 TIME:   0.008 TIME LEFT:  2.00D  GRAD.:     0.130 HEAT:  23.71087
 CYCLE:   117 TIME:   0.012 TIME LEFT:  2.00D  GRAD.:     0.089 HEAT:  23.71085
 CYCLE:   118 TIME:   0.012 TIME LEFT:  2.00D  GRAD.:     0.102 HEAT:  23.71083
 CYCLE:   119 TIME:   0.012 TIME LEFT:  2.00D  GRAD.:     0.061 HEAT:  23.71081
 CYCLE:   120 TIME:   0.008 TIME LEFT:  2.00D  GRAD.:     0.075 HEAT:  23.71080
 CYCLE:   121 TIME:   0.012 TIME LEFT:  2.00D  GRAD.:     0.050 HEAT:  23.71079

     GRADIENT =  0.04972 IS LESS THAN CUTOFF =  0.05000



 -------------------------------------------------------------------------------
 pm3  precise nosym THREADS=1
 InChI=1S/C12H20/c1-4-7-10(5-2)12-9-8-11(12)6-3/h5,8-12H,2,4,6-7H2,1,3H3



     GEOMETRY OPTIMISED USING EIGENVECTOR FOLLOWING (EF).     
     SCF FIELD WAS ACHIEVED                                   


                              PM3 CALCULATION
                                                       MOPAC v23.1.2 MacOS
                                                       Tue Jun  3 16:40:25 2025




          FINAL HEAT OF FORMATION =         23.71079 KCAL/MOL =      99.20595 KJ/MOL


          COSMO AREA              =        232.01 SQUARE ANGSTROMS
          COSMO VOLUME            =        253.86 CUBIC ANGSTROMS

          GRADIENT NORM           =          0.04972          =       0.00879 PER ATOM
          IONIZATION POTENTIAL    =          9.845110 EV
          HOMO LUMO ENERGIES (EV) =         -9.845  1.017
          NO. OF FILLED LEVELS    =         34
          MOLECULAR WEIGHT        =        164.2900         POINT GROUP:  C1  

          MOLECULAR DIMENSIONS (Angstroms)

            Atom       Atom       Distance
            H    29    H    22     8.50452
            H    31    H    26     8.23418
            H    28    H    16     3.58043


          SCF CALCULATIONS        =        131

          WALL-CLOCK TIME         =      1.430 SECONDS
          COMPUTATION TIME        =      1.083 SECONDS




   ATOM   CHEMICAL          X               Y               Z
  NUMBER   SYMBOL      (ANGSTROMS)     (ANGSTROMS)     (ANGSTROMS)

     1       C         -0.96037974  *   0.17142782  *  -1.03482540  *
     2       C          0.51500985  *   0.46369344  *  -0.79389755  *
     3       C         -1.42434013  *  -1.32720444  *  -0.79762920  *
     4       C          0.82926455  *   0.41233850  *   0.70378981  *
     5       C         -2.61098858  *  -1.52249959  *   0.11864750  *
     6       C          2.32260443  *   0.48939116  *   0.97627604  *
     7       C          2.61462772  *   0.47168967  *   2.45957114  *
     8       C         -2.23210878  *  -1.37793187  *   1.57537294  *
     9       C         -1.75975388  *  -1.33262616  *  -2.28439849  *
    10       C         -1.34725325  *  -0.06780517  *  -2.49039934  *
    11       C          0.84116778  *   1.82063146  *  -1.34085159  *
    12       C          1.72220828  *   2.01870626  *  -2.31395218  *
    13       H          1.12654077  *  -0.31505855  *  -1.31518448  *
    14       H         -0.59128449  *  -2.00946814  *  -0.52601121  *
    15       H         -1.60210131  *   0.91644130  *  -0.51836742  *
    16       H          2.84087850  *  -0.35405910  *   0.47790396  *
    17       H          2.73925294  *   1.40763920  *   0.51513795  *
    18       H          0.30137922  *   1.23399462  *   1.22980526  *
    19       H         -3.04132688  *  -2.52674964  *  -0.06562505  *
    20       H         -3.41353170  *  -0.80209065  *  -0.13667775  *
    21       H          0.41805391  *  -0.52631067  *   1.13269518  *
    22       H          3.69351251  *   0.52349305  *   2.65354226  *
    23       H          2.23889455  *  -0.44394246  *   2.93555858  *
    24       H          2.14735678  *   1.32148162  *   2.97492521  *
    25       H         -1.86036769  *  -0.36659771  *   1.79482815  *
    26       H         -3.09232704  *  -1.56273441  *   2.23093298  *
    27       H         -1.44044400  *  -2.08379443  *   1.86188884  *
    28       H          0.30125744  *   2.65917170  *  -0.88345249  *
    29       H         -2.18791841  *  -2.11776778  *  -2.89256833  *
    30       H         -1.27494932  *   0.59701435  *  -3.34059428  *
    31       H          1.95152119  *   3.00610642  *  -2.70281415  *
    32       H          2.27551612  *   1.21407506  *  -2.79104011  *

                             CARTESIAN COORDINATES

   1    C       -0.960379743     0.171427818    -1.034825399
   2    C        0.515009847     0.463693444    -0.793897551
   3    C       -1.424340132    -1.327204437    -0.797629199
   4    C        0.829264547     0.412338498     0.703789813
   5    C       -2.610988580    -1.522499595     0.118647501
   6    C        2.322604433     0.489391165     0.976276043
   7    C        2.614627716     0.471689675     2.459571142
   8    C       -2.232108783    -1.377931866     1.575372944
   9    C       -1.759753880    -1.332626161    -2.284398487
  10    C       -1.347253254    -0.067805166    -2.490399341
  11    C        0.841167784     1.820631464    -1.340851587
  12    C        1.722208277     2.018706262    -2.313952179
  13    H        1.126540772    -0.315058551    -1.315184479
  14    H       -0.591284492    -2.009468142    -0.526011210
  15    H       -1.602101314     0.916441298    -0.518367423
  16    H        2.840878501    -0.354059105     0.477903955
  17    H        2.739252938     1.407639202     0.515137948
  18    H        0.301379217     1.233994622     1.229805255
  19    H       -3.041326877    -2.526749638    -0.065625052
  20    H       -3.413531698    -0.802090649    -0.136677749
  21    H        0.418053907    -0.526310669     1.132695178
  22    H        3.693512511     0.523493051     2.653542257
  23    H        2.238894550    -0.443942457     2.935558578
  24    H        2.147356781     1.321481625     2.974925212
  25    H       -1.860367687    -0.366597711     1.794828153
  26    H       -3.092327042    -1.562734410     2.230932984
  27    H       -1.440443996    -2.083794434     1.861888841
  28    H        0.301257441     2.659171697    -0.883452487
  29    H       -2.187918414    -2.117767779    -2.892568333
  30    H       -1.274949315     0.597014345    -3.340594279
  31    H        1.951521188     3.006106415    -2.702814150
  32    H        2.275516118     1.214075059    -2.791040108


           Empirical Formula: C12 H20  =    32 atoms



      MOLECULAR POINT GROUP   :   C1  


                  EIGENVALUES  
 -42.06114 -37.40621 -33.99228 -32.40841 -28.85727 -24.90226 -24.48154 -21.67779
 -21.32194 -20.62928 -19.68433 -17.88830 -17.29661 -16.30079 -16.01882 -15.89611
 -15.19778 -14.76566 -14.70056 -14.43913 -14.04656 -13.53545 -13.01165 -12.91444
 -12.52638 -12.43981 -12.25076 -12.03231 -11.91509 -11.48409 -11.39897 -11.19017
 -10.25044  -9.84511   1.01723   1.17750   3.08765   3.16074   3.24240   3.54636
   3.61763   3.67955   3.79804   3.85169   3.93430   3.96016   4.01740   4.02892
   4.11608   4.16040   4.20884   4.30935   4.35926   4.42742   4.43947   4.52700
   4.67747   4.70666   4.84925   4.95538   5.04649   5.07445   5.09325   5.19501
   5.29806   5.64867   5.88273   6.19291


              NET ATOMIC CHARGES AND DIPOLE CONTRIBUTIONS

  ATOM NO.   TYPE          CHARGE      No. of ELECS.   s-Pop       p-Pop       
    1          C          -0.066814        4.0668     1.19473     2.87209
    2          C          -0.037338        4.0373     1.16623     2.87111
    3          C          -0.069607        4.0696     1.19251     2.87710
    4          C          -0.107457        4.1075     1.16719     2.94027
    5          C          -0.086076        4.0861     1.15422     2.93185
    6          C          -0.101554        4.1016     1.15873     2.94283
    7          C          -0.108503        4.1085     1.13821     2.97029
    8          C          -0.114293        4.1143     1.13949     2.97480
    9          C          -0.162812        4.1628     1.22022     2.94259
   10          C          -0.152433        4.1524     1.21986     2.93257
   11          C          -0.131804        4.1318     1.19755     2.93425
   12          C          -0.164943        4.1649     1.18298     2.98196
   13          H           0.073227        0.9268     0.92677
   14          H           0.082204        0.9178     0.91780
   15          H           0.082824        0.9172     0.91718
   16          H           0.048821        0.9512     0.95118
   17          H           0.054931        0.9451     0.94507
   18          H           0.053606        0.9464     0.94639
   19          H           0.050890        0.9491     0.94911
   20          H           0.053729        0.9463     0.94627
   21          H           0.059347        0.9407     0.94065
   22          H           0.037193        0.9628     0.96281
   23          H           0.036643        0.9634     0.96336
   24          H           0.037384        0.9626     0.96262
   25          H           0.042145        0.9579     0.95786
   26          H           0.038462        0.9615     0.96154
   27          H           0.039053        0.9609     0.96095
   28          H           0.098573        0.9014     0.90143
   29          H           0.125631        0.8744     0.87437
   30          H           0.127373        0.8726     0.87263
   31          H           0.078940        0.9211     0.92106
   32          H           0.082658        0.9173     0.91734
 DIPOLE           X         Y         Z       TOTAL
 POINT-CHG.    -0.067    -0.107     0.267     0.295
 HYBRID        -0.012     0.043    -0.057     0.072
 SUM           -0.079    -0.064     0.210     0.234


          ATOMIC ORBITAL ELECTRON POPULATIONS

     Atom    s        px        py        pz   
    1  C   1.19473   0.95712   0.96353   0.95144
    2  C   1.16623   0.95519   0.95558   0.96034
    3  C   1.19251   0.97969   0.96191   0.93550
    4  C   1.16719   0.96437   1.02433   0.95157
    5  C   1.15422   0.96836   1.01670   0.94679
    6  C   1.15873   0.95858   1.02142   0.96283
    7  C   1.13821   1.00520   1.00848   0.95661
    8  C   1.13949   1.00661   1.01196   0.95623
    9  C   1.22022   1.00606   0.97202   0.96451
   10  C   1.21986   0.99533   0.96803   0.96921
   11  C   1.19755   0.98313   0.97363   0.97750
   12  C   1.18298   0.98926   1.01005   0.98265
   13  H   0.92677
   14  H   0.91780
   15  H   0.91718
   16  H   0.95118
   17  H   0.94507
   18  H   0.94639
   19  H   0.94911
   20  H   0.94627
   21  H   0.94065
   22  H   0.96281
   23  H   0.96336
   24  H   0.96262
   25  H   0.95786
   26  H   0.96154
   27  H   0.96095
   28  H   0.90143
   29  H   0.87437
   30  H   0.87263
   31  H   0.92106
   32  H   0.91734
 *******************************************************************************
 **                                                                           **
 **                              MOPAC v23.1.2                                **
 **                                                                           **
 *******************************************************************************
 **          Digital Object Identifier (DOI): 10.5281/zenodo.6511958          **
 **    Visit the DOI location for information on how to cite this program.    **
 *******************************************************************************

                              PM3 CALCULATION RESULTS

 *******************************************************************************
 *  CALCULATION DONE: (MAX THREADS = 1)              Tue Jun  3 16:40:26 2025  *
 *  PM3        - The PM3 Hamiltonian to be used
 *  OLDGEO     - PREVIOUS GEOMETRY TO BE USED
 *  PRECISE    - TIGHTER CRITERIA TO BE USED
 *  NOSYM      - POINT-GROUP SYMMETRY SET TO C1
 *  THREADS=1  - MULTI-THREADING NOT USED
 *  T=         - A TIME OF 172800.0 SECONDS REQUESTED
 *  DUMP=N     - RESTART FILE WRITTEN EVERY 7200.0 SECONDS REQUESTED
 *  THERMO     - THERMODYNAMIC QUANTITIES TO BE CALCULATED
 *******************************************************************************
oldgeo thermo nosym precise THREADS=1  pm3
 InChI=1S/C12H20/c1-4-7-10(5-2)12-9-8-11(12)6-3/h5,8-12H,2,4,6-7H2,1,3H3

   ATOM   CHEMICAL          X               Y               Z
  NUMBER   SYMBOL      (ANGSTROMS)     (ANGSTROMS)     (ANGSTROMS)

     1       C         -0.96037974  *   0.17142782  *  -1.03482540  *
     2       C          0.51500985  *   0.46369344  *  -0.79389755  *
     3       C         -1.42434013  *  -1.32720444  *  -0.79762920  *
     4       C          0.82926455  *   0.41233850  *   0.70378981  *
     5       C         -2.61098858  *  -1.52249959  *   0.11864750  *
     6       C          2.32260443  *   0.48939116  *   0.97627604  *
     7       C          2.61462772  *   0.47168967  *   2.45957114  *
     8       C         -2.23210878  *  -1.37793187  *   1.57537294  *
     9       C         -1.75975388  *  -1.33262616  *  -2.28439849  *
    10       C         -1.34725325  *  -0.06780517  *  -2.49039934  *
    11       C          0.84116778  *   1.82063146  *  -1.34085159  *
    12       C          1.72220828  *   2.01870626  *  -2.31395218  *
    13       H          1.12654077  *  -0.31505855  *  -1.31518448  *
    14       H         -0.59128449  *  -2.00946814  *  -0.52601121  *
    15       H         -1.60210131  *   0.91644130  *  -0.51836742  *
    16       H          2.84087850  *  -0.35405910  *   0.47790396  *
    17       H          2.73925294  *   1.40763920  *   0.51513795  *
    18       H          0.30137922  *   1.23399462  *   1.22980526  *
    19       H         -3.04132688  *  -2.52674964  *  -0.06562505  *
    20       H         -3.41353170  *  -0.80209065  *  -0.13667775  *
    21       H          0.41805391  *  -0.52631067  *   1.13269518  *
    22       H          3.69351251  *   0.52349305  *   2.65354226  *
    23       H          2.23889455  *  -0.44394246  *   2.93555858  *
    24       H          2.14735678  *   1.32148162  *   2.97492521  *
    25       H         -1.86036769  *  -0.36659771  *   1.79482815  *
    26       H         -3.09232704  *  -1.56273441  *   2.23093298  *
    27       H         -1.44044400  *  -2.08379443  *   1.86188884  *
    28       H          0.30125744  *   2.65917170  *  -0.88345249  *
    29       H         -2.18791841  *  -2.11776778  *  -2.89256833  *
    30       H         -1.27494932  *   0.59701435  *  -3.34059428  *
    31       H          1.95152119  *   3.00610642  *  -2.70281415  *
    32       H          2.27551612  *   1.21407506  *  -2.79104011  *



          CARTESIAN COORDINATES 

    NO.       ATOM           X           Y           Z

     1         C         -0.9604      0.1714     -1.0348
     2         C          0.5150      0.4637     -0.7939
     3         C         -1.4243     -1.3272     -0.7976
     4         C          0.8293      0.4123      0.7038
     5         C         -2.6110     -1.5225      0.1186
     6         C          2.3226      0.4894      0.9763
     7         C          2.6146      0.4717      2.4596
     8         C         -2.2321     -1.3779      1.5754
     9         C         -1.7598     -1.3326     -2.2844
    10         C         -1.3473     -0.0678     -2.4904
    11         C          0.8412      1.8206     -1.3409
    12         C          1.7222      2.0187     -2.3140
    13         H          1.1265     -0.3151     -1.3152
    14         H         -0.5913     -2.0095     -0.5260
    15         H         -1.6021      0.9164     -0.5184
    16         H          2.8409     -0.3541      0.4779
    17         H          2.7393      1.4076      0.5151
    18         H          0.3014      1.2340      1.2298
    19         H         -3.0413     -2.5267     -0.0656
    20         H         -3.4135     -0.8021     -0.1367
    21         H          0.4181     -0.5263      1.1327
    22         H          3.6935      0.5235      2.6535
    23         H          2.2389     -0.4439      2.9356
    24         H          2.1474      1.3215      2.9749
    25         H         -1.8604     -0.3666      1.7948
    26         H         -3.0923     -1.5627      2.2309
    27         H         -1.4404     -2.0838      1.8619
    28         H          0.3013      2.6592     -0.8835
    29         H         -2.1879     -2.1178     -2.8926
    30         H         -1.2749      0.5970     -3.3406
    31         H          1.9515      3.0061     -2.7028
    32         H          2.2755      1.2141     -2.7910

  H: (PM3): J. J. P. STEWART, J. COMP. CHEM. 10, 209 (1989).
  C: (PM3): J. J. P. STEWART, J. COMP. CHEM. 10, 209 (1989).

           Empirical Formula: C12 H20  =    32 atoms



      MOLECULAR POINT GROUP   :   C1  


      RHF CALCULATION, NO. OF DOUBLY OCCUPIED LEVELS = 34



          HEAT OF FORMATION =      23.710792 KCALS/MOLE


          CARTESIAN COORDINATE DERIVATIVES

   NUMBER  ATOM         X            Y            Z

     1       C     -0.004243     0.000188    -0.002983
     2       C     -0.004292    -0.002997    -0.003964
     3       C      0.002379     0.003150    -0.003026
     4       C      0.002528    -0.004787    -0.001513
     5       C     -0.001634    -0.001629    -0.004957
     6       C      0.002934    -0.002873     0.005716
     7       C     -0.005360     0.001629     0.005945
     8       C      0.000874     0.003069    -0.001458
     9       C      0.003583    -0.001673    -0.000640
    10       C      0.001912    -0.000566    -0.000743
    11       C      0.004818     0.002870    -0.006296
    12       C     -0.007642    -0.005889     0.010996
    13       H     -0.003164     0.000302    -0.001643
    14       H      0.002108    -0.002401    -0.001236
    15       H     -0.002486    -0.002957    -0.004689
    16       H      0.003998     0.002540     0.005193
    17       H      0.014620     0.003684     0.005040
    18       H      0.005735    -0.003830    -0.001771
    19       H      0.002978     0.003774     0.001448
    20       H     -0.006869     0.001346    -0.003006
    21       H      0.000854    -0.004629    -0.002230
    22       H      0.000572    -0.000445     0.002137
    23       H     -0.010360     0.004703    -0.003470
    24       H     -0.015700    -0.002862    -0.009448
    25       H      0.007584     0.005792     0.002911
    26       H     -0.006652     0.003782    -0.000896
    27       H     -0.003779     0.003470     0.000318
    28       H      0.003811    -0.005179    -0.002267
    29       H      0.013862    -0.008341     0.001681
    30       H      0.013792     0.002242     0.002607
    31       H     -0.003137    -0.001327     0.004816
    32       H     -0.013627     0.009844     0.007427



          GRADIENT NORM =   0.05174

          MOLECULAR WEIGHT =  164.29



          ROTATIONAL CONSTANTS IN CM(-1)

          A =    0.03466029   B =    0.02214456   C =    0.01463302



           PRINCIPAL MOMENTS OF INERTIA IN UNITS OF 10**(-40)*GRAM-CM**2

          A =      807.6318   B =     1264.0914   C =     1912.9857


          ORIENTATION OF MOLECULE IN FORCE CALCULATION

    NO.       ATOM         X         Y         Z

     1          C      -0.9096   -0.4427    0.4361
     2          C       0.6137   -0.4427    0.4361
     3          C      -1.6090    0.9815    0.4361
     4          C       1.1451    0.0194   -0.9235
     5          C      -2.6509    1.2145   -0.6344
     6          C       2.6494    0.2360   -0.9043
     7          C       3.1635    0.6590   -2.2618
     8          C      -2.0258    1.4886   -1.9837
     9          C      -2.1701    0.5733    1.7931
    10          C      -1.5604   -0.6270    1.8028
    11          C       1.1034   -1.8274    0.7353
    12          C       1.8409   -2.1227    1.7989
    13          H       0.9741    0.2678    1.2219
    14          H      -0.8900    1.8264    0.4867
    15          H      -1.3065   -1.1265   -0.3439
    16          H       2.9107    1.0001   -0.1452
    17          H       3.1562   -0.6939   -0.5759
    18          H       0.8746   -0.7184   -1.7064
    19          H      -3.2896    2.0671   -0.3297
    20          H      -3.3304    0.3416   -0.7027
    21          H       0.6345    0.9618   -1.2157
    22          H       4.2491    0.8185   -2.2443
    23          H       2.6991    1.5962   -2.5968
    24          H       2.9554   -0.0993   -3.0284
    25          H      -1.4370    0.6290   -2.3352
    26          H      -2.7907    1.6968   -2.7422
    27          H      -1.3491    2.3535   -1.9505
    28          H       0.8137   -2.6000    0.0121
    29          H      -2.8316    1.1128    2.4572
    30          H      -1.4973   -1.4607    2.4891
    31          H       2.1909   -3.1293    2.0063
    32          H       2.1470   -1.3854    2.5364


    FIRST DERIVATIVES WILL BE USED IN THE CALCULATION OF SECOND DERIVATIVES

          ESTIMATED TIME TO COMPLETE CALCULATION =        4.50 SECONDS

    FOR POINT-GROUP C1   THERE ARE   1 UNIQUE SYMMETRY FUNCTIONS.

 STEP:   1 TIME =     0.04 SECS, INTEGRAL =      0.04 TIME LEFT: 172799.95
 STEP:   2 TIME =     0.04 SECS, INTEGRAL =      0.07 TIME LEFT: 172799.92
 STEP:   3 TIME =     0.04 SECS, INTEGRAL =      0.11 TIME LEFT: 172799.88
 STEP:   4 TIME =     0.04 SECS, INTEGRAL =      0.14 TIME LEFT: 172799.84
 STEP:   5 TIME =     0.04 SECS, INTEGRAL =      0.18 TIME LEFT: 172799.80
 STEP:   6 TIME =     0.04 SECS, INTEGRAL =      0.22 TIME LEFT: 172799.77
 STEP:   7 TIME =     0.04 SECS, INTEGRAL =      0.26 TIME LEFT: 172799.73
 STEP:   8 TIME =     0.04 SECS, INTEGRAL =      0.30 TIME LEFT: 172799.69
 STEP:   9 TIME =     0.04 SECS, INTEGRAL =      0.34 TIME LEFT: 172799.65
 STEP:  10 TIME =     0.04 SECS, INTEGRAL =      0.38 TIME LEFT: 172799.61
 STEP:  11 TIME =     0.04 SECS, INTEGRAL =      0.41 TIME LEFT: 172799.57
 STEP:  12 TIME =     0.04 SECS, INTEGRAL =      0.45 TIME LEFT: 172799.54
 STEP:  13 TIME =     0.04 SECS, INTEGRAL =      0.48 TIME LEFT: 172799.50
 STEP:  14 TIME =     0.04 SECS, INTEGRAL =      0.52 TIME LEFT: 172799.46
 STEP:  15 TIME =     0.04 SECS, INTEGRAL =      0.56 TIME LEFT: 172799.43
 STEP:  16 TIME =     0.04 SECS, INTEGRAL =      0.59 TIME LEFT: 172799.39
 STEP:  17 TIME =     0.04 SECS, INTEGRAL =      0.63 TIME LEFT: 172799.36
 STEP:  18 TIME =     0.04 SECS, INTEGRAL =      0.67 TIME LEFT: 172799.32
 STEP:  19 TIME =     0.04 SECS, INTEGRAL =      0.70 TIME LEFT: 172799.29
 STEP:  20 TIME =     0.04 SECS, INTEGRAL =      0.74 TIME LEFT: 172799.25
 STEP:  21 TIME =     0.04 SECS, INTEGRAL =      0.78 TIME LEFT: 172799.21
 STEP:  22 TIME =     0.04 SECS, INTEGRAL =      0.82 TIME LEFT: 172799.17
 STEP:  23 TIME =     0.04 SECS, INTEGRAL =      0.86 TIME LEFT: 172799.12
 STEP:  24 TIME =     0.04 SECS, INTEGRAL =      0.90 TIME LEFT: 172799.09
 STEP:  25 TIME =     0.04 SECS, INTEGRAL =      0.93 TIME LEFT: 172799.05
 STEP:  26 TIME =     0.04 SECS, INTEGRAL =      0.97 TIME LEFT: 172799.02
 STEP:  27 TIME =     0.04 SECS, INTEGRAL =      1.01 TIME LEFT: 172798.98
 STEP:  28 TIME =     0.04 SECS, INTEGRAL =      1.05 TIME LEFT: 172798.94
 STEP:  29 TIME =     0.04 SECS, INTEGRAL =      1.09 TIME LEFT: 172798.90
 STEP:  30 TIME =     0.04 SECS, INTEGRAL =      1.12 TIME LEFT: 172798.86
 STEP:  31 TIME =     0.04 SECS, INTEGRAL =      1.16 TIME LEFT: 172798.82
 STEP:  32 TIME =     0.04 SECS, INTEGRAL =      1.20 TIME LEFT: 172798.79
 STEP:  33 TIME =     0.04 SECS, INTEGRAL =      1.24 TIME LEFT: 172798.75
 STEP:  34 TIME =     0.04 SECS, INTEGRAL =      1.28 TIME LEFT: 172798.71
 STEP:  35 TIME =     0.04 SECS, INTEGRAL =      1.31 TIME LEFT: 172798.68
 STEP:  36 TIME =     0.04 SECS, INTEGRAL =      1.35 TIME LEFT: 172798.64
 STEP:  37 TIME =     0.04 SECS, INTEGRAL =      1.38 TIME LEFT: 172798.61
 STEP:  38 TIME =     0.04 SECS, INTEGRAL =      1.42 TIME LEFT: 172798.57
 STEP:  39 TIME =     0.04 SECS, INTEGRAL =      1.45 TIME LEFT: 172798.54
 STEP:  40 TIME =     0.04 SECS, INTEGRAL =      1.49 TIME LEFT: 172798.50
 STEP:  41 TIME =     0.04 SECS, INTEGRAL =      1.53 TIME LEFT: 172798.46
 STEP:  42 TIME =     0.04 SECS, INTEGRAL =      1.57 TIME LEFT: 172798.42
 STEP:  43 TIME =     0.04 SECS, INTEGRAL =      1.61 TIME LEFT: 172798.38
 STEP:  44 TIME =     0.04 SECS, INTEGRAL =      1.65 TIME LEFT: 172798.34
 STEP:  45 TIME =     0.04 SECS, INTEGRAL =      1.69 TIME LEFT: 172798.30
 STEP:  46 TIME =     0.04 SECS, INTEGRAL =      1.73 TIME LEFT: 172798.26
 STEP:  47 TIME =     0.04 SECS, INTEGRAL =      1.76 TIME LEFT: 172798.23
 STEP:  48 TIME =     0.04 SECS, INTEGRAL =      1.80 TIME LEFT: 172798.19
 STEP:  49 TIME =     0.04 SECS, INTEGRAL =      1.83 TIME LEFT: 172798.16
 STEP:  50 TIME =     0.04 SECS, INTEGRAL =      1.87 TIME LEFT: 172798.12
 STEP:  51 TIME =     0.04 SECS, INTEGRAL =      1.91 TIME LEFT: 172798.08
 STEP:  52 TIME =     0.04 SECS, INTEGRAL =      1.95 TIME LEFT: 172798.04
 STEP:  53 TIME =     0.04 SECS, INTEGRAL =      1.98 TIME LEFT: 172798.01
 STEP:  54 TIME =     0.04 SECS, INTEGRAL =      2.02 TIME LEFT: 172797.97
 STEP:  55 TIME =     0.04 SECS, INTEGRAL =      2.06 TIME LEFT: 172797.93
 STEP:  56 TIME =     0.04 SECS, INTEGRAL =      2.10 TIME LEFT: 172797.89
 STEP:  57 TIME =     0.04 SECS, INTEGRAL =      2.14 TIME LEFT: 172797.85
 STEP:  58 TIME =     0.04 SECS, INTEGRAL =      2.17 TIME LEFT: 172797.82
 STEP:  59 TIME =     0.04 SECS, INTEGRAL =      2.21 TIME LEFT: 172797.78
 STEP:  60 TIME =     0.04 SECS, INTEGRAL =      2.25 TIME LEFT: 172797.74
 STEP:  61 TIME =     0.04 SECS, INTEGRAL =      2.28 TIME LEFT: 172797.71
 STEP:  62 TIME =     0.04 SECS, INTEGRAL =      2.32 TIME LEFT: 172797.67
 STEP:  63 TIME =     0.04 SECS, INTEGRAL =      2.36 TIME LEFT: 172797.63
 STEP:  64 TIME =     0.04 SECS, INTEGRAL =      2.39 TIME LEFT: 172797.60
 STEP:  65 TIME =     0.04 SECS, INTEGRAL =      2.43 TIME LEFT: 172797.55
 STEP:  66 TIME =     0.04 SECS, INTEGRAL =      2.48 TIME LEFT: 172797.51
 STEP:  67 TIME =     0.04 SECS, INTEGRAL =      2.52 TIME LEFT: 172797.47
 STEP:  68 TIME =     0.04 SECS, INTEGRAL =      2.55 TIME LEFT: 172797.44
 STEP:  69 TIME =     0.04 SECS, INTEGRAL =      2.59 TIME LEFT: 172797.40
 STEP:  70 TIME =     0.04 SECS, INTEGRAL =      2.63 TIME LEFT: 172797.36
 STEP:  71 TIME =     0.04 SECS, INTEGRAL =      2.66 TIME LEFT: 172797.32
 STEP:  72 TIME =     0.04 SECS, INTEGRAL =      2.70 TIME LEFT: 172797.29
 STEP:  73 TIME =     0.04 SECS, INTEGRAL =      2.73 TIME LEFT: 172797.25
 STEP:  74 TIME =     0.04 SECS, INTEGRAL =      2.77 TIME LEFT: 172797.21
 STEP:  75 TIME =     0.04 SECS, INTEGRAL =      2.81 TIME LEFT: 172797.18
 STEP:  76 TIME =     0.04 SECS, INTEGRAL =      2.85 TIME LEFT: 172797.14
 STEP:  77 TIME =     0.04 SECS, INTEGRAL =      2.89 TIME LEFT: 172797.10
 STEP:  78 TIME =     0.04 SECS, INTEGRAL =      2.93 TIME LEFT: 172797.06
 STEP:  79 TIME =     0.04 SECS, INTEGRAL =      2.96 TIME LEFT: 172797.03
 STEP:  80 TIME =     0.04 SECS, INTEGRAL =      3.00 TIME LEFT: 172796.99
 STEP:  81 TIME =     0.04 SECS, INTEGRAL =      3.04 TIME LEFT: 172796.95
 STEP:  82 TIME =     0.04 SECS, INTEGRAL =      3.07 TIME LEFT: 172796.91
 STEP:  83 TIME =     0.04 SECS, INTEGRAL =      3.11 TIME LEFT: 172796.88
 STEP:  84 TIME =     0.04 SECS, INTEGRAL =      3.15 TIME LEFT: 172796.84
 STEP:  85 TIME =     0.04 SECS, INTEGRAL =      3.19 TIME LEFT: 172796.80
 STEP:  86 TIME =     0.04 SECS, INTEGRAL =      3.22 TIME LEFT: 172796.77
 STEP:  87 TIME =     0.04 SECS, INTEGRAL =      3.26 TIME LEFT: 172796.73
 STEP:  88 TIME =     0.04 SECS, INTEGRAL =      3.30 TIME LEFT: 172796.68
 STEP:  89 TIME =     0.04 SECS, INTEGRAL =      3.34 TIME LEFT: 172796.64
 STEP:  90 TIME =     0.04 SECS, INTEGRAL =      3.38 TIME LEFT: 172796.61
 STEP:  91 TIME =     0.04 SECS, INTEGRAL =      3.42 TIME LEFT: 172796.57
 STEP:  92 TIME =     0.04 SECS, INTEGRAL =      3.46 TIME LEFT: 172796.53
 STEP:  93 TIME =     0.04 SECS, INTEGRAL =      3.50 TIME LEFT: 172796.49
 STEP:  94 TIME =     0.04 SECS, INTEGRAL =      3.54 TIME LEFT: 172796.45
 STEP:  95 TIME =     0.04 SECS, INTEGRAL =      3.57 TIME LEFT: 172796.41
 STEP:  96 TIME =     0.04 SECS, INTEGRAL =      3.61 TIME LEFT: 172796.38

(To convert to Hartree/Bohr^2, multiply by (10^(-21) x N x a0^2)/(4.184 x 627.51) =  0.0642)


           FORCE MATRIX IN MILLIDYNES/ANGSTROM


                  C  1       C  2       C  3       C  4       C  5       C  6
 ------------------------------------------------------------------------------
     C    1  14.192334
     C    2   3.982829  14.621122
     C    3   2.570009   0.461231  14.297392
     C    4   0.645744   3.805769   0.039297  14.231215
     C    5   0.479447   0.028747   4.365195   0.001993  14.504361
     C    6   0.052479   0.615712   0.002140   4.192446   0.000595  14.385070
     C    7   0.010282   0.053443   0.000972   0.665181   0.000426   4.480966
     C    8   0.025834   0.001768   0.661982   0.022330   4.469294   0.002067
     C    9   2.226333   0.048193   3.932109   0.007867   0.557460   0.001543
     C   10   3.902628   0.531630   2.231901   0.048257   0.049167   0.009463
     C   11   0.709156   4.611180   0.045059   0.691141   0.007028   0.052081
     C   12   0.041064   0.799007   0.006142   0.041037   0.001738   0.014308
     H   13   0.430749   4.173758   0.021805   0.425276   0.001046   0.034398
     H   14   0.420763   0.024686   4.401467   0.011893   0.435545   0.001070
     H   15   4.397642   0.440563   0.421032   0.023274   0.024628   0.001426
     H   16   0.001361   0.026808   0.000391   0.444717   0.000322   4.447717
     H   17   0.001746   0.028757   0.000376   0.445926   0.000170   4.437187
     H   18   0.021472   0.450306   0.002466   4.417277   0.000798   0.444932
     H   19   0.043877   0.005554   0.431688   0.000548   4.459043   0.000231
     H   20   0.020964   0.001414   0.450536   0.000372   4.453666   0.000202
     H   21   0.042137   0.440895   0.014581   4.365228   0.004574   0.440727
     H   22   0.002065   0.009295   0.000250   0.051726   0.000135   0.450107
     H   23   0.000517   0.002040   0.000141   0.023629   0.000139   0.463845
     H   24   0.000552   0.001688   0.000084   0.023942   0.000141   0.463494
     H   25   0.005635   0.002351   0.017866   0.009309   0.462498   0.000763
     H   26   0.001810   0.000476   0.052754   0.001437   0.450995   0.000457
     H   27   0.002263   0.000715   0.025446   0.006995   0.464202   0.000579
     H   28   0.020627   0.436578   0.001974   0.019696   0.000718   0.004030
     H   29   0.117818   0.016685   0.341602   0.002561   0.010797   0.000753
     H   30   0.343647   0.010180   0.116721   0.002205   0.016928   0.000665
     H   31   0.019783   0.139071   0.003027   0.019999   0.000557   0.001120
     H   32   0.012181   0.099165   0.002319   0.012198   0.000532   0.000999


                  C  7       C  8       C  9       C 10       C 11       C 12
 ------------------------------------------------------------------------------
     C    7  14.379078
     C    8   0.000244  14.350911
     C    9   0.000745   0.050008  18.392693
     C   10   0.002431   0.008426  10.409232  18.392762
     C   11   0.003821   0.000388   0.007179   0.038296  18.130614
     C   12   0.002011   0.000528   0.002029   0.011301  11.095745  18.028416
     H   13   0.001821   0.000415   0.003378   0.017158   0.444835   0.052410
     H   14   0.000321   0.026931   0.413257   0.043024   0.002288   0.000792
     H   15   0.000643   0.007037   0.042748   0.414551   0.027234   0.001689
     H   16   0.437206   0.000227   0.000279   0.000651   0.002749   0.000835
     H   17   0.436536   0.000477   0.000273   0.000758   0.013894   0.008837
     H   18   0.029466   0.004060   0.000732   0.001329   0.032684   0.002238
     H   19   0.000132   0.440316   0.016995   0.003546   0.001756   0.000483
     H   20   0.000137   0.436406   0.016359   0.003195   0.000754   0.000211
     H   21   0.026403   0.009693   0.001372   0.002208   0.048904   0.007123
     H   22   4.753212   0.000136   0.000209   0.000618   0.000825   0.000566
     H   23   4.720121   0.000194   0.000130   0.000183   0.000725   0.000533
     H   24   4.721593   0.000120   0.000150   0.000157   0.000487   0.000281
     H   25   0.000279   4.679592   0.001514   0.000950   0.000516   0.000382
     H   26   0.000110   4.757548   0.009087   0.001415   0.000469   0.000155
     H   27   0.000211   4.708260   0.001492   0.000842   0.000270   0.000261
     H   28   0.000660   0.000283   0.001094   0.002840   4.777231   0.453938
     H   29   0.000277   0.002371   5.277744   0.422762   0.001487   0.000624
     H   30   0.000414   0.002615   0.421962   5.274806   0.005093   0.005679
     H   31   0.000504   0.000121   0.000733   0.000682   0.462175   5.103339
     H   32   0.000659   0.000207   0.000828   0.002298   0.490755   5.068034


                  H 13       H 14       H 15       H 16       H 17       H 18
 ------------------------------------------------------------------------------
     H   13   4.652949
     H   14   0.020499   4.922640
     H   15   0.040271   0.022680   4.919875
     H   16   0.025538   0.000271   0.000479   5.066720
     H   17   0.002145   0.000352   0.000438   0.572646   5.050577
     H   18   0.042363   0.000646   0.014620   0.046217   0.022578   5.044202
     H   19   0.000402   0.024399   0.002471   0.000073   0.000057   0.000194
     H   20   0.000500   0.043311   0.021782   0.000092   0.000030   0.000256
     H   21   0.023493   0.023643   0.002507   0.026115   0.045794   0.569439
     H   22   0.000515   0.000105   0.000137   0.030092   0.029463   0.001858
     H   23   0.000357   0.000137   0.000132   0.024083   0.048039   0.001656
     H   24   0.000489   0.000102   0.000179   0.048522   0.024192   0.020267
     H   25   0.000259   0.001968   0.007703   0.000209   0.000264   0.007509
     H   26   0.000163   0.002031   0.000526   0.000097   0.000148   0.000333
     H   27   0.000214   0.021073   0.000555   0.000114   0.000208   0.000297
     H   28   0.037624   0.000771   0.015086   0.000589   0.001731   0.020430
     H   29   0.001386   0.005687   0.014566   0.000139   0.000142   0.000213
     H   30   0.002391   0.014722   0.005818   0.000179   0.000282   0.000626
     H   31   0.002138   0.000223   0.000588   0.000199   0.000725   0.000785
     H   32   0.029835   0.000296   0.000611   0.000509   0.000799   0.000664


                  H 19       H 20       H 21       H 22       H 23       H 24
 ------------------------------------------------------------------------------
     H   19   5.063845
     H   20   0.571084   5.064343
     H   21   0.000435   0.000441   4.994823
     H   22   0.000052   0.000046   0.001765   5.490069
     H   23   0.000050   0.000040   0.018093   0.573890   5.464265
     H   24   0.000047   0.000031   0.001567   0.575439   0.578792   5.465726
     H   25   0.049119   0.026075   0.021678   0.000120   0.000136   0.000109
     H   26   0.030237   0.029140   0.000917   0.000040   0.000051   0.000053
     H   27   0.022776   0.048240   0.013921   0.000071   0.000258   0.000051
     H   28   0.000222   0.000226   0.001848   0.000114   0.000288   0.000210
     H   29   0.004250   0.002131   0.000605   0.000100   0.000058   0.000062
     H   30   0.001190   0.001336   0.000722   0.000125   0.000092   0.000081
     H   31   0.000157   0.000088   0.003229   0.000136   0.000162   0.000082
     H   32   0.000124   0.000084   0.002300   0.000182   0.000250   0.000151


                  H 25       H 26       H 27       H 28       H 29       H 30
 ------------------------------------------------------------------------------
     H   25   5.411971
     H   26   0.567829   5.489305
     H   27   0.577308   0.570562   5.451004
     H   28   0.000202   0.000149   0.000136   5.153515
     H   29   0.000619   0.000598   0.000665   0.000601   5.663976
     H   30   0.000423   0.000642   0.000206   0.001383   0.030998   5.659371
     H   31   0.000108   0.000075   0.000054   0.081772   0.000274   0.001284
     H   32   0.000095   0.000070   0.000057   0.121299   0.000419   0.001539


                  H 31       H 32
 ------------------------------
     H   31   5.492513
     H   32   0.423700   5.463349


          HEAT OF FORMATION =      23.710792 KCALS/MOLE

          ZERO POINT ENERGY     179.540 KCAL/MOL


           NORMAL COORDINATE ANALYSIS (Total motion = 1 Angstrom)


   Root No.       1         2         3         4         5         6         7         8

                 1 A       2 A       3 A       4 A       5 A       6 A       7 A       8 A   

                  23.9      41.0      65.6      69.5      87.2      95.4     181.8     187.8
  
           1   -0.0111    0.0026    0.0006    0.0014    0.0038    0.0004   -0.0060    0.0093
           2   -0.0005   -0.0034    0.0004    0.0097   -0.0070    0.0001    0.0039    0.0157
           3   -0.0024   -0.0105   -0.0079    0.0038    0.0149    0.0092    0.0093   -0.0013
           4   -0.0113    0.0027    0.0006    0.0014    0.0037    0.0005   -0.0075    0.0105
           5   -0.0044    0.0079   -0.0028    0.0197   -0.0047    0.0011    0.0056    0.0072
           6    0.0045   -0.0045   -0.0094    0.0050    0.0088    0.0095   -0.0190    0.0103
           7   -0.0062   -0.0057    0.0044   -0.0134   -0.0023    0.0022   -0.0161   -0.0024
           8    0.0018   -0.0075    0.0023    0.0021   -0.0100    0.0008   -0.0026    0.0102
           9    0.0004    0.0069   -0.0002    0.0060   -0.0115    0.0113    0.0111    0.0033
          10   -0.0037    0.0019    0.0053    0.0020   -0.0040   -0.0090   -0.0085    0.0159
          11   -0.0140   -0.0030   -0.0064    0.0448    0.0034    0.0098   -0.0083   -0.0017
          12    0.0039   -0.0084   -0.0088    0.0137    0.0085    0.0086   -0.0249    0.0093
          13   -0.0018   -0.0012   -0.0069   -0.0113    0.0007    0.0228   -0.0022   -0.0047
          14    0.0104    0.0048    0.0051   -0.0087   -0.0311    0.0142   -0.0100   -0.0008
          15   -0.0021    0.0053    0.0113    0.0016   -0.0190   -0.0054   -0.0030    0.0022
          16   -0.0060    0.0025   -0.0013    0.0098   -0.0057   -0.0121   -0.0069    0.0174
          17    0.0013   -0.0064    0.0393   -0.0073    0.0147    0.0283   -0.0134   -0.0105
          18    0.0155   -0.0131    0.0141    0.0053    0.0031   -0.0044   -0.0077   -0.0076
          19    0.0049    0.0018    0.0195    0.0204   -0.0112   -0.0280    0.0223   -0.0056
          20   -0.0228   -0.0268   -0.0206   -0.0406   -0.0082   -0.0064    0.0059    0.0068
          21    0.0122   -0.0198    0.0034   -0.0009   -0.0062   -0.0217    0.0102   -0.0120
          22    0.0032    0.0046   -0.0224   -0.0063    0.0055    0.0477    0.0284   -0.0096
          23    0.0158    0.0419   -0.0049   -0.0151    0.0373   -0.0204   -0.0052   -0.0017
          24    0.0013    0.0155    0.0022    0.0026   -0.0031   -0.0011    0.0114    0.0003
          25   -0.0129   -0.0108    0.0143   -0.0134   -0.0025   -0.0166   -0.0093   -0.0113
          26   -0.0017   -0.0312    0.0020   -0.0077    0.0119   -0.0099   -0.0043   -0.0052
          27   -0.0034   -0.0023    0.0039    0.0031   -0.0051    0.0003    0.0133   -0.0046
          28   -0.0173   -0.0032    0.0074    0.0006    0.0067   -0.0118    0.0147   -0.0033
          29   -0.0039   -0.0274   -0.0015   -0.0006    0.0168   -0.0076    0.0078   -0.0011
          30   -0.0059   -0.0166   -0.0047    0.0021    0.0196    0.0019    0.0207   -0.0100
          31   -0.0124    0.0123   -0.0032    0.0060    0.0058    0.0031   -0.0082   -0.0120
          32   -0.0030    0.0154   -0.0038    0.0156   -0.0069   -0.0002    0.0067   -0.0007
          33    0.0126    0.0142   -0.0075   -0.0203   -0.0035   -0.0016   -0.0133    0.0127
          34    0.0683   -0.0081   -0.0163    0.0003    0.0016   -0.0016   -0.0101   -0.0008
          35    0.0205    0.0308   -0.0073   -0.0040   -0.0180   -0.0094    0.0154   -0.0147
          36   -0.0368    0.0327    0.0006   -0.0219   -0.0037   -0.0009   -0.0099    0.0009
          37   -0.0134   -0.0049    0.0014   -0.0018    0.0068    0.0023    0.0020    0.0143
          38   -0.0006    0.0197   -0.0027    0.0074   -0.0093   -0.0032    0.0114    0.0040
          39    0.0020   -0.0116   -0.0098    0.0174    0.0113    0.0123   -0.0282    0.0107
          40   -0.0033   -0.0101    0.0068   -0.0230   -0.0063    0.0036   -0.0206   -0.0119
          41   -0.0010   -0.0047    0.0006    0.0099   -0.0058   -0.0013    0.0014    0.0172
          42    0.0062    0.0235   -0.0070    0.0106   -0.0216    0.0309    0.0155    0.0097
          43   -0.0100    0.0108   -0.0028    0.0079    0.0034    0.0028   -0.0176    0.0167
          44    0.0039    0.0050    0.0038    0.0083   -0.0231    0.0045   -0.0036    0.0217
          45   -0.0069   -0.0220   -0.0088    0.0015    0.0292    0.0037    0.0215   -0.0111
          46   -0.0219    0.0052   -0.0422    0.0390   -0.0107   -0.0177   -0.0163    0.0307
          47    0.0202    0.0033    0.0887   -0.0095    0.0312    0.0542   -0.0247   -0.0208
          48    0.0020   -0.0239   -0.0215   -0.0028   -0.0119   -0.0288    0.0073   -0.0019
          49   -0.0004    0.0005    0.0184   -0.0215    0.0017    0.0018   -0.0144    0.0203
          50    0.0133   -0.0032    0.0722   -0.0222    0.0248    0.0446   -0.0194   -0.0156
          51    0.0414   -0.0011    0.0771    0.0123    0.0202    0.0198   -0.0126   -0.0276
          52    0.0108   -0.0009    0.0402   -0.0307   -0.0017   -0.0066   -0.0048    0.0068
          53   -0.0259   -0.0080   -0.0267    0.0766    0.0036    0.0084   -0.0133   -0.0012
          54    0.0103   -0.0027   -0.0016   -0.0053    0.0075    0.0088   -0.0208    0.0119
          55   -0.0002   -0.0122    0.0027   -0.0165   -0.0439    0.0410   -0.0145   -0.0123
          56    0.0107   -0.0088    0.0107   -0.0097   -0.0699    0.0350   -0.0150   -0.0054
          57    0.0003    0.0203    0.0157   -0.0065   -0.0038   -0.0254   -0.0157   -0.0006
          58   -0.0042    0.0085   -0.0137   -0.0070    0.0429    0.0010    0.0059    0.0029
          59    0.0128   -0.0009    0.0094   -0.0123   -0.0614    0.0311   -0.0150   -0.0072
          60   -0.0090   -0.0186    0.0234    0.0045   -0.0524   -0.0030   -0.0175    0.0066
          61   -0.0104    0.0030   -0.0185    0.0294   -0.0111   -0.0194   -0.0041    0.0202
          62   -0.0223   -0.0040   -0.0264    0.0696    0.0008    0.0056   -0.0089    0.0014
          63   -0.0111   -0.0135   -0.0317    0.0467    0.0122    0.0131   -0.0333    0.0105
          64    0.0030    0.0021    0.0126    0.0254   -0.0132   -0.0313    0.0117   -0.0210
          65   -0.0110   -0.0285    0.0246   -0.0747    0.0057    0.0173    0.0744    0.1106
          66    0.0210   -0.0232    0.0245   -0.0051   -0.0100   -0.0331    0.0554   -0.0032
          67   -0.0012    0.0032   -0.0094    0.0492   -0.0231   -0.0499   -0.0220   -0.0906
          68   -0.0349   -0.0308   -0.0596   -0.0302   -0.0213   -0.0277   -0.0262   -0.0451
          69   -0.0134   -0.0328   -0.0656   -0.0117   -0.0265   -0.0511   -0.0185   -0.0399
          70    0.0215   -0.0003    0.0722   -0.0050   -0.0019   -0.0159    0.1027    0.0753
          71   -0.0416   -0.0375   -0.0750   -0.0437   -0.0275   -0.0369   -0.0145   -0.0312
          72    0.0263   -0.0087    0.0429    0.0090    0.0103    0.0051    0.0088    0.0038
          73   -0.0022    0.0098   -0.0344    0.0107    0.0444    0.0237    0.0340    0.0300
          74    0.0142    0.0533   -0.0110   -0.0099    0.0725   -0.0433   -0.0053    0.0166
          75   -0.0039   -0.0035   -0.0027    0.0179   -0.0236    0.0143    0.0205    0.0216
          76    0.0063    0.0075   -0.0307   -0.0039    0.0058    0.0632    0.0466   -0.0146
          77    0.0266    0.0580   -0.0010   -0.0365    0.0301   -0.0041    0.0001   -0.0512
          78    0.0011    0.0169    0.0117   -0.0056   -0.0054   -0.0123   -0.0054   -0.0082
          79    0.0091    0.0007   -0.0147   -0.0201   -0.0304    0.0745    0.0296   -0.0473
          80    0.0109    0.0440   -0.0105   -0.0041    0.0640   -0.0412   -0.0066    0.0281
          81    0.0089    0.0409   -0.0097   -0.0027    0.0320   -0.0029    0.0304   -0.0135
          82   -0.0801    0.0365    0.0047    0.0143    0.0104    0.0086   -0.0072   -0.0427
          83   -0.0216    0.0076   -0.0019    0.0297    0.0003    0.0061    0.0028    0.0013
          84    0.0596    0.0130   -0.0127   -0.0388   -0.0131   -0.0106   -0.0094    0.0226
          85   -0.0135   -0.0179    0.0227   -0.0218   -0.0076   -0.0278   -0.0167   -0.0229
          86   -0.0019   -0.0452    0.0038   -0.0171    0.0203   -0.0164   -0.0116   -0.0167
          87   -0.0038    0.0020    0.0109    0.0024   -0.0170   -0.0056    0.0118   -0.0068
          88   -0.0233   -0.0012    0.0076    0.0084    0.0129   -0.0170    0.0388   -0.0052
          89   -0.0069   -0.0370   -0.0043   -0.0015    0.0314   -0.0107    0.0169   -0.0076
          90   -0.0090   -0.0284   -0.0082    0.0003    0.0368   -0.0013    0.0295   -0.0178
          91    0.0708   -0.0016   -0.0196    0.0030    0.0021   -0.0004   -0.0092   -0.0230
          92    0.0223    0.0361   -0.0081   -0.0071   -0.0199   -0.0107    0.0176   -0.0230
          93   -0.0327    0.0474    0.0021   -0.0412   -0.0139   -0.0096   -0.0012   -0.0017
          94    0.1373   -0.0326   -0.0246   -0.0076   -0.0027   -0.0070   -0.0127    0.0317
          95    0.0397    0.0392   -0.0095   -0.0185   -0.0261   -0.0163    0.0218   -0.0197
          96   -0.0846    0.0345    0.0063   -0.0041    0.0061    0.0082   -0.0151   -0.0077


   Root No.       9        10        11        12        13        14        15        16

                 9 A      10 A      11 A      12 A      13 A      14 A      15 A      16 A   

                 196.6     208.2     257.4     297.6     333.4     352.1     376.3     409.0
  
           1   -0.0067    0.0086   -0.0059   -0.0014    0.0062   -0.0158    0.0127   -0.0120
           2   -0.0155    0.0073   -0.0019   -0.0158   -0.0095   -0.0169    0.0119   -0.0208
           3   -0.0029    0.0081   -0.0172   -0.0056    0.0156    0.0074    0.0105    0.0144
           4   -0.0068    0.0096   -0.0075   -0.0020    0.0059   -0.0081    0.0051   -0.0102
           5   -0.0072    0.0065    0.0053   -0.0066   -0.0027   -0.0236   -0.0091    0.0318
           6    0.0022    0.0067   -0.0021   -0.0045    0.0007   -0.0081   -0.0114    0.0075
           7    0.0097   -0.0102    0.0064   -0.0147    0.0193   -0.0064    0.0208    0.0057
           8   -0.0063   -0.0018   -0.0011   -0.0219   -0.0073   -0.0094    0.0109   -0.0241
           9   -0.0081   -0.0023   -0.0023   -0.0131    0.0040   -0.0025    0.0147    0.0019
          10   -0.0115    0.0097    0.0014    0.0039   -0.0182    0.0279    0.0073    0.0156
          11    0.0144   -0.0018    0.0201    0.0151    0.0193    0.0043   -0.0008   -0.0108
          12    0.0083    0.0034    0.0088    0.0095   -0.0074    0.0101   -0.0003    0.0006
          13    0.0046   -0.0085    0.0006   -0.0062    0.0226   -0.0134    0.0291    0.0194
          14    0.0081   -0.0025   -0.0268    0.0299   -0.0021    0.0013   -0.0102    0.0017
          15    0.0003   -0.0046   -0.0019   -0.0100    0.0031    0.0081    0.0038   -0.0047
          16   -0.0077    0.0107    0.0033    0.0054   -0.0162    0.0336    0.0069    0.0183
          17   -0.0153   -0.0043    0.0036    0.0033    0.0084    0.0107   -0.0045   -0.0039
          18    0.0044   -0.0039    0.0035    0.0069   -0.0233   -0.0105    0.0201    0.0030
          19   -0.0079    0.0041   -0.0086   -0.0089    0.0289    0.0167   -0.0220   -0.0010
          20   -0.0028    0.0023   -0.0008   -0.0016    0.0063    0.0079   -0.0062    0.0010
          21    0.0088   -0.0047   -0.0029   -0.0003   -0.0075   -0.0233    0.0107   -0.0047
          22   -0.0064   -0.0136    0.0145   -0.0027   -0.0107    0.0034   -0.0116   -0.0052
          23    0.0042    0.0039   -0.0055    0.0086    0.0022   -0.0020   -0.0001    0.0052
          24   -0.0056   -0.0055    0.0079   -0.0141   -0.0108    0.0169   -0.0124   -0.0175
          25    0.0131   -0.0182    0.0355    0.0037   -0.0076   -0.0123   -0.0156    0.0073
          26    0.0084   -0.0056    0.0058   -0.0198   -0.0032    0.0163   -0.0089   -0.0029
          27   -0.0026   -0.0066    0.0118   -0.0037   -0.0045   -0.0010   -0.0032    0.0130
          28   -0.0082    0.0080    0.0038    0.0453   -0.0129   -0.0279    0.0039   -0.0162
          29   -0.0025    0.0080   -0.0107    0.0019   -0.0059    0.0085    0.0011   -0.0150
          30   -0.0020    0.0081   -0.0143    0.0181    0.0085    0.0116    0.0050    0.0190
          31    0.0209    0.0005   -0.0318   -0.0169   -0.0117   -0.0037   -0.0108   -0.0118
          32    0.0008    0.0020    0.0006   -0.0096   -0.0061   -0.0227   -0.0163    0.0357
          33   -0.0086    0.0042    0.0090    0.0077    0.0132   -0.0104   -0.0266   -0.0049
          34    0.0080    0.0014   -0.0125   -0.0052   -0.0020   -0.0027   -0.0146   -0.0114
          35    0.0085   -0.0125    0.0113    0.0059   -0.0028    0.0163    0.0308    0.0039
          36    0.0029   -0.0007   -0.0016    0.0041    0.0078    0.0004   -0.0116   -0.0171
          37   -0.0170    0.0140   -0.0151   -0.0089    0.0150   -0.0139    0.0213   -0.0222
          38   -0.0092    0.0054    0.0013   -0.0105   -0.0039   -0.0324   -0.0206    0.0450
          39    0.0093    0.0051    0.0054    0.0031   -0.0023    0.0033   -0.0069   -0.0002
          40    0.0208   -0.0175    0.0050   -0.0055    0.0237    0.0054    0.0132    0.0215
          41   -0.0149    0.0043    0.0012   -0.0283   -0.0117   -0.0185    0.0149   -0.0361
          42   -0.0158    0.0057   -0.0211   -0.0031    0.0113   -0.0136    0.0344   -0.0032
          43   -0.0064    0.0112   -0.0009   -0.0101    0.0055   -0.0250    0.0001   -0.0005
          44   -0.0167    0.0005    0.0047   -0.0323   -0.0117   -0.0234    0.0201   -0.0351
          45   -0.0010    0.0123   -0.0252    0.0144    0.0172    0.0185    0.0081    0.0220
          46    0.0088    0.0163    0.0167    0.0162   -0.0123    0.0422    0.0076    0.0182
          47   -0.0323   -0.0088    0.0000    0.0016    0.0026    0.0149   -0.0036   -0.0024
          48    0.0160   -0.0014    0.0023    0.0048   -0.0183   -0.0183    0.0187    0.0010
          49   -0.0221    0.0110   -0.0037    0.0013   -0.0315    0.0435    0.0089    0.0273
          50   -0.0294   -0.0069   -0.0018   -0.0000    0.0003    0.0149   -0.0034   -0.0001
          51   -0.0131   -0.0117   -0.0017    0.0032   -0.0211   -0.0155    0.0194   -0.0011
          52   -0.0313    0.0080   -0.0099   -0.0053   -0.0391    0.0291    0.0138    0.0359
          53    0.0380   -0.0068    0.0370    0.0353    0.0379    0.0227    0.0061   -0.0474
          54   -0.0070    0.0087   -0.0032   -0.0061   -0.0166   -0.0072   -0.0093    0.0272
          55    0.0187   -0.0056   -0.0268    0.0394    0.0272   -0.0031    0.0091    0.0391
          56    0.0159   -0.0020   -0.0467    0.0618   -0.0021    0.0078   -0.0257    0.0129
          57    0.0087    0.0013   -0.0055   -0.0023    0.0138    0.0115    0.0059    0.0066
          58   -0.0072   -0.0111    0.0263   -0.0501    0.0204   -0.0232    0.0497    0.0015
          59    0.0171   -0.0001   -0.0461    0.0650   -0.0014    0.0094   -0.0280    0.0159
          60    0.0048   -0.0069   -0.0121   -0.0107    0.0101    0.0056    0.0129   -0.0068
          61    0.0036    0.0073    0.0126    0.0119   -0.0170    0.0321    0.0102    0.0134
          62    0.0305   -0.0049    0.0318    0.0269    0.0293    0.0125    0.0021   -0.0286
          63    0.0335   -0.0023    0.0258    0.0320    0.0227    0.0290    0.0029   -0.0506
          64   -0.0210    0.0018   -0.0100   -0.0095    0.0302    0.0168   -0.0230   -0.0019
          65    0.0839    0.0182    0.0088    0.0032   -0.0033    0.0093    0.0008    0.0076
          66    0.0323   -0.0054   -0.0123   -0.0137    0.0352   -0.0399   -0.0186   -0.0232
          67   -0.0740   -0.0097   -0.0193   -0.0169    0.0508    0.0115   -0.0376   -0.0123
          68   -0.0467   -0.0047   -0.0071   -0.0055    0.0109    0.0062   -0.0104   -0.0013
          69   -0.0226   -0.0051   -0.0062   -0.0006   -0.0235   -0.0209    0.0196    0.0041
          70    0.0711    0.0148   -0.0078   -0.0143    0.0526    0.0072   -0.0380   -0.0095
          71   -0.0357   -0.0012   -0.0079   -0.0068    0.0093    0.0052   -0.0102    0.0011
          72    0.0201   -0.0041    0.0038    0.0062   -0.0163   -0.0181    0.0187   -0.0026
          73   -0.0280   -0.1584   -0.0136    0.0108   -0.0139    0.0050   -0.0198   -0.0042
          74   -0.0052   -0.0592   -0.0144    0.0082    0.0074   -0.0056    0.0063    0.0120
          75   -0.0183   -0.0918   -0.0176    0.0093   -0.0284    0.0281   -0.0408   -0.0312
          76   -0.0119   -0.0080    0.0256   -0.0018   -0.0345    0.0173   -0.0421   -0.0267
          77    0.0251    0.1825    0.0468   -0.0196   -0.0036    0.0022    0.0004   -0.0051
          78    0.0056    0.0378    0.0113   -0.0228    0.0111    0.0045    0.0177    0.0006
          79    0.0117    0.1224    0.0451   -0.0143   -0.0174    0.0084   -0.0161   -0.0151
          80   -0.0098   -0.1034   -0.0301    0.0182    0.0079   -0.0060    0.0036    0.0133
          81   -0.0086    0.0361    0.0385   -0.0309   -0.0292    0.0277   -0.0312   -0.0356
          82    0.0591   -0.0097   -0.0767   -0.0480   -0.0534    0.0103   -0.0098   -0.0183
          83    0.0039    0.0069   -0.0097   -0.0210   -0.0158   -0.0331   -0.0246    0.0502
          84   -0.0268    0.0026    0.0383    0.0328    0.0404   -0.0037   -0.0164   -0.0192
          85    0.0277   -0.0384    0.0723   -0.0041   -0.0218   -0.0082   -0.0516    0.0282
          86    0.0231   -0.0160    0.0200   -0.0271   -0.0002    0.0339   -0.0284    0.0197
          87   -0.0000   -0.0183    0.0367   -0.0057   -0.0211   -0.0108   -0.0233    0.0155
          88   -0.0214    0.0229   -0.0048    0.1037   -0.0335   -0.0491    0.0024   -0.0341
          89   -0.0019    0.0161   -0.0223    0.0286   -0.0069    0.0151   -0.0021   -0.0149
          90   -0.0001    0.0167   -0.0277    0.0455    0.0091    0.0214    0.0012    0.0206
          91    0.0356   -0.0097   -0.0386   -0.0241   -0.0378    0.0233    0.0016   -0.0221
          92    0.0167   -0.0181    0.0073    0.0049   -0.0103    0.0320    0.0476   -0.0069
          93   -0.0039   -0.0089    0.0221    0.0306    0.0320    0.0307    0.0382   -0.0518
          94   -0.0314    0.0134    0.0316    0.0250    0.0431   -0.0273   -0.0343   -0.0011
          95    0.0076   -0.0208    0.0263    0.0228    0.0076    0.0443    0.0707   -0.0211
          96    0.0202    0.0025   -0.0348   -0.0252   -0.0213   -0.0167   -0.0421    0.0028


   Root No.      17        18        19        20        21        22        23        24

                17 A      18 A      19 A      20 A      21 A      22 A      23 A      24 A   

                 456.2     541.6     565.4     668.4     768.3     783.0     803.9     863.5
  
           1   -0.0144    0.0082    0.0259    0.0214    0.0058    0.0011   -0.0044    0.0021
           2    0.0145    0.0030    0.0052    0.0089    0.0061    0.0019    0.0172   -0.0146
           3    0.0003   -0.0027    0.0234    0.0184   -0.0136   -0.0002   -0.0103   -0.0196
           4   -0.0114   -0.0020    0.0324    0.0151    0.0143    0.0015   -0.0071    0.0124
           5   -0.0152    0.0078    0.0062    0.0016    0.0049   -0.0007   -0.0024    0.0089
           6    0.0071    0.0417    0.0148   -0.0148    0.0024    0.0030   -0.0014    0.0038
           7   -0.0225    0.0107   -0.0185   -0.0015   -0.0092    0.0000   -0.0024   -0.0172
           8    0.0169   -0.0029   -0.0079   -0.0093   -0.0227   -0.0022   -0.0160   -0.0223
           9    0.0220   -0.0118   -0.0062   -0.0060    0.0040   -0.0004    0.0000    0.0053
          10    0.0018   -0.0087   -0.0040    0.0021    0.0004    0.0023    0.0000    0.0013
          11   -0.0040   -0.0153   -0.0040    0.0092    0.0044   -0.0212   -0.0016    0.0068
          12    0.0122    0.0327    0.0016   -0.0270   -0.0065    0.0018    0.0059   -0.0017
          13    0.0091   -0.0021   -0.0237   -0.0100    0.0165    0.0014    0.0067    0.0101
          14    0.0030   -0.0010    0.0088    0.0003   -0.0147   -0.0020   -0.0297    0.0095
          15   -0.0223    0.0048   -0.0140   -0.0054    0.0053    0.0002   -0.0024    0.0066
          16    0.0035   -0.0134   -0.0076    0.0032   -0.0023    0.0029   -0.0018   -0.0021
          17    0.0038   -0.0001   -0.0025    0.0008    0.0016   -0.0243    0.0003   -0.0043
          18   -0.0108   -0.0166   -0.0002    0.0058    0.0004   -0.0068   -0.0008   -0.0023
          19    0.0132    0.0137   -0.0025   -0.0054   -0.0020    0.0005    0.0000   -0.0018
          20    0.0045    0.0041   -0.0018   -0.0017   -0.0009   -0.0014    0.0003   -0.0029
          21   -0.0105   -0.0084    0.0055    0.0058    0.0027   -0.0002   -0.0011    0.0015
          22   -0.0048    0.0012    0.0010   -0.0002    0.0019   -0.0010    0.0030    0.0042
          23    0.0060   -0.0015    0.0044    0.0018   -0.0030   -0.0002   -0.0054    0.0048
          24   -0.0359    0.0089   -0.0080   -0.0026    0.0062    0.0000   -0.0001    0.0040
          25    0.0083    0.0056    0.0140    0.0086   -0.0291   -0.0025    0.0025   -0.0088
          26   -0.0061   -0.0058    0.0029   -0.0006    0.0049   -0.0003    0.0108    0.0167
          27    0.0379   -0.0169    0.0120    0.0023    0.0019   -0.0008    0.0192    0.0232
          28    0.0023    0.0150   -0.0157   -0.0054   -0.0197   -0.0020    0.0124    0.0095
          29   -0.0095   -0.0008   -0.0124   -0.0076    0.0093   -0.0001    0.0153    0.0258
          30    0.0023   -0.0062    0.0006    0.0069   -0.0183   -0.0018   -0.0021   -0.0154
          31    0.0007   -0.0260    0.0124   -0.0337   -0.0020    0.0002    0.0034    0.0001
          32   -0.0154   -0.0071   -0.0120   -0.0092   -0.0072    0.0095    0.0002   -0.0056
          33    0.0032   -0.0092   -0.0246    0.0240    0.0005   -0.0015   -0.0010   -0.0002
          34    0.0068   -0.0104   -0.0084    0.0030    0.0007   -0.0025    0.0014    0.0008
          35   -0.0011    0.0178    0.0091   -0.0014   -0.0024    0.0049   -0.0003   -0.0061
          36    0.0043   -0.0163   -0.0054    0.0016    0.0008   -0.0031    0.0009   -0.0000
          37   -0.0119   -0.0031    0.0601    0.0579    0.0285    0.0054   -0.0151    0.0026
          38   -0.0231   -0.0080   -0.0072    0.0082    0.0000    0.0070   -0.0072    0.0086
          39    0.0146    0.0558    0.0134   -0.0400   -0.0004   -0.0050    0.0069    0.0077
          40   -0.0331    0.0103   -0.0305   -0.0113   -0.0148   -0.0029   -0.0106    0.0087
          41    0.0243   -0.0019    0.0037    0.0003   -0.0181    0.0004   -0.0062   -0.0435
          42    0.0347   -0.0149   -0.0240   -0.0204    0.0322    0.0035   -0.0272    0.0011
          43   -0.0215    0.0263    0.0549    0.0304    0.0424    0.0051   -0.0157    0.0298
          44    0.0330    0.0004   -0.0033   -0.0030    0.0167    0.0039    0.0235   -0.0499
          45   -0.0123   -0.0098    0.0156    0.0230   -0.0419   -0.0042   -0.0110   -0.0021
          46    0.0059   -0.0114   -0.0100   -0.0047    0.0047   -0.1027    0.0005   -0.0075
          47    0.0057    0.0024   -0.0026    0.0026   -0.0085    0.0967   -0.0010    0.0135
          48   -0.0136   -0.0195    0.0012    0.0070    0.0079   -0.0858   -0.0003   -0.0174
          49    0.0087   -0.0047   -0.0087   -0.0038   -0.0131    0.0823   -0.0002   -0.0062
          50    0.0060    0.0030   -0.0030    0.0008   -0.0076    0.0702   -0.0002    0.0027
          51   -0.0127   -0.0202    0.0013    0.0156   -0.0074    0.1241   -0.0043    0.0228
          52   -0.0016   -0.0157   -0.0074   -0.0066    0.0061   -0.0944    0.0013    0.0006
          53    0.0028   -0.0459   -0.0197    0.0401   -0.0046    0.0666   -0.0033   -0.0103
          54    0.0072    0.0628    0.0170   -0.0514   -0.0004   -0.0433    0.0067    0.0141
          55   -0.0141    0.0051    0.0003    0.0147    0.0720    0.0100    0.1280   -0.0324
          56   -0.0065    0.0013    0.0282    0.0172    0.0239    0.0038    0.0648   -0.0334
          57   -0.0452    0.0137   -0.0168    0.0006    0.0189    0.0027   -0.0012    0.0324
          58    0.0260   -0.0064   -0.0492   -0.0337   -0.0335   -0.0061   -0.1073    0.0503
          59   -0.0099    0.0022    0.0310    0.0201    0.0247    0.0038    0.0604   -0.0198
          60   -0.0307    0.0093   -0.0238   -0.0081    0.0141    0.0029    0.0348   -0.0501
          61   -0.0026   -0.0257   -0.0148    0.0147   -0.0078    0.0671   -0.0001   -0.0016
          62   -0.0025   -0.0321   -0.0133    0.0265   -0.0027    0.0477   -0.0023   -0.0009
          63    0.0243    0.0101   -0.0079    0.0034   -0.0146    0.0983    0.0038   -0.0212
          64    0.0139    0.0152   -0.0025   -0.0063   -0.0019   -0.0040    0.0004   -0.0034
          65    0.0009   -0.0043   -0.0030    0.0023   -0.0029    0.0292   -0.0021    0.0068
          66    0.0008    0.0298    0.0134   -0.0124    0.0019    0.0124    0.0056    0.0099
          67    0.0206    0.0337    0.0003   -0.0156   -0.0014   -0.0214    0.0045   -0.0083
          68    0.0065    0.0101   -0.0006   -0.0045   -0.0022    0.0150    0.0011    0.0022
          69   -0.0143   -0.0176    0.0051    0.0111   -0.0015    0.0694   -0.0045    0.0228
          70    0.0194    0.0349    0.0013   -0.0162   -0.0037    0.0167    0.0036    0.0059
          71    0.0063    0.0108   -0.0002   -0.0047   -0.0049    0.0523    0.0003    0.0139
          72   -0.0138   -0.0200    0.0030    0.0113    0.0069   -0.0546   -0.0020   -0.0162
          73   -0.0105    0.0032    0.0064    0.0048    0.0091    0.0015    0.0371   -0.0300
          74    0.0095   -0.0024    0.0007    0.0027    0.0204    0.0032    0.0524   -0.0300
          75   -0.0528    0.0142    0.0099    0.0037   -0.0357   -0.0039   -0.0766    0.0276
          76   -0.0230    0.0069    0.0225    0.0117   -0.0266   -0.0027   -0.0135   -0.0279
          77    0.0048   -0.0015    0.0055    0.0054    0.0035    0.0035    0.0297   -0.0306
          78   -0.0190    0.0035   -0.0292   -0.0133    0.0359    0.0029    0.0256    0.0257
          79   -0.0074    0.0016    0.0044    0.0005   -0.0179   -0.0011   -0.0365    0.0213
          80    0.0080   -0.0018    0.0016    0.0012    0.0126   -0.0001    0.0255   -0.0081
          81   -0.0506    0.0137    0.0051    0.0093    0.0124    0.0041    0.0648   -0.0781
          82    0.0345    0.0035   -0.0250   -0.0071   -0.0085    0.0030    0.0132   -0.0245
          83   -0.0143    0.0137   -0.0119   -0.0062   -0.0048    0.0161   -0.0018   -0.0013
          84   -0.0109   -0.0423   -0.0086    0.0102    0.0009   -0.0098   -0.0027    0.0053
          85    0.0456   -0.0088    0.0500    0.0038    0.1269    0.0159   -0.0906   -0.0598
          86   -0.0129   -0.0101    0.0195    0.0036    0.0933    0.0107   -0.0403   -0.0273
          87    0.0807   -0.0283    0.0345   -0.0060    0.0855    0.0086   -0.0322    0.0089
          88    0.0190    0.0329   -0.0700   -0.0658    0.1253    0.0152   -0.0598   -0.0457
          89   -0.0228    0.0053   -0.0350   -0.0334    0.0774    0.0075   -0.0498   -0.0191
          90   -0.0148   -0.0005   -0.0217   -0.0189    0.0506    0.0059   -0.0754   -0.0657
          91    0.0575    0.0862   -0.0697    0.1617    0.0294   -0.0242   -0.0168    0.0324
          92    0.0137    0.0479    0.0068    0.0327    0.0088   -0.0042   -0.0053    0.0098
          93   -0.0095   -0.0390    0.0820   -0.0999    0.0055   -0.0112    0.0086    0.0214
          94   -0.0364   -0.0864    0.0254   -0.0952   -0.0197    0.0124    0.0123   -0.0294
          95    0.0015    0.0321    0.0525   -0.0244    0.0085   -0.0048   -0.0017    0.0165
          96    0.0200    0.0020   -0.0616    0.0654   -0.0010   -0.0001   -0.0024   -0.0090


   Root No.      25        26        27        28        29        30        31        32

                25 A      26 A      27 A      28 A      29 A      30 A      31 A      32 A   

                 888.5     921.3     927.1     935.6     945.0     959.3     966.8     993.6
  
           1   -0.0069   -0.0073   -0.0060    0.0072   -0.0049   -0.0002    0.0029    0.0042
           2    0.0015    0.0369   -0.0106   -0.0157    0.0139   -0.0015   -0.0041   -0.0082
           3    0.0020    0.0013   -0.0026    0.0032    0.0003   -0.0068   -0.0055   -0.0258
           4   -0.0061   -0.0113    0.0017   -0.0021   -0.0108    0.0042    0.0043    0.0068
           5    0.0101    0.0027    0.0151    0.0006    0.0057    0.0065   -0.0024   -0.0002
[...]
 TRANSITION DIPOLE   0.0946         C  5 -- H 19         +12.2% ( 35.9%)     96.5%
 TRAVEL (Ang.)       0.2758         C  5 -- H 20         +12.0% ( 35.7%)     96.4%
 REDUCED MASS        0.3002         C  6 -- H 17          +9.6% ( 31.9%)     96.8%
 EFFECTIVE MASS      1.4796
 FORCE CONSTANT      1.5414

 VIBRATION         75   75A           ATOM PAIR      ENERGY CONTRIBUTION    RADIAL
 FREQUENCY          2952.56         C  6 -- H 17         +34.5% ( 60.8%)     96.8%
 TRANSITION DIPOLE   0.0553         C  6 -- H 16         +31.2% ( 57.8%)     96.2%
 TRAVEL (Ang.)       0.2990         C  1 -- H 15          +9.4% ( 31.8%)    100.0%
 REDUCED MASS        0.2554         C  4 -- H 21          +6.7% ( 26.9%)     97.8%
 EFFECTIVE MASS      1.5233
 FORCE CONSTANT      1.3120

 VIBRATION         76   76A           ATOM PAIR      ENERGY CONTRIBUTION    RADIAL
 FREQUENCY          2957.97         C  3 -- H 14         +43.0% ( 67.3%)    100.0%
 TRANSITION DIPOLE   0.1155         C  5 -- H 19         +21.3% ( 47.3%)     96.5%
 TRAVEL (Ang.)       0.2765         C  5 -- H 20         +21.2% ( 47.3%)     96.7%
 REDUCED MASS        0.2981         C  1 -- H 15         +10.6% ( 33.4%)     99.9%
 EFFECTIVE MASS      1.4772
 FORCE CONSTANT      1.5367

 VIBRATION         77   77A           ATOM PAIR      ENERGY CONTRIBUTION    RADIAL
 FREQUENCY          3017.13         C  4 -- H 18         +58.8% ( 75.6%)     98.7%
 TRANSITION DIPOLE   0.0585         C  4 -- H 21         +38.7% ( 61.3%)     96.4%
 TRAVEL (Ang.)       0.2137         C  4 -- C  6          +0.6% (  7.8%)     30.2%
 REDUCED MASS        0.4893         C  2 -- C  4          +0.6% (  7.6%)     28.8%
 EFFECTIVE MASS      1.2731
 FORCE CONSTANT      2.6244

 VIBRATION         78   78A           ATOM PAIR      ENERGY CONTRIBUTION    RADIAL
 FREQUENCY          3031.01         C  6 -- H 16         +51.2% ( 70.5%)     98.0%
 TRANSITION DIPOLE   0.0407         C  6 -- H 17         +46.0% ( 66.8%)     97.4%
 TRAVEL (Ang.)       0.2176         C  6 -- C  7          +0.6% (  7.8%)     26.1%
 REDUCED MASS        0.4700         C  4 -- H 18          +0.6% (  7.7%)     98.3%
 EFFECTIVE MASS      1.2739
 FORCE CONSTANT      2.5442

 VIBRATION         79   79A           ATOM PAIR      ENERGY CONTRIBUTION    RADIAL
 FREQUENCY          3033.11         C  5 -- H 19         +49.7% ( 69.4%)     97.8%
 TRANSITION DIPOLE   0.0386         C  5 -- H 20         +48.3% ( 68.5%)     97.6%
 TRAVEL (Ang.)       0.2159         C  5 -- C  8          +0.6% (  7.8%)     25.8%
 REDUCED MASS        0.4770         C  3 -- C  5          +0.6% (  7.7%)     29.1%
 EFFECTIVE MASS      1.2755
 FORCE CONSTANT      2.5857

 VIBRATION         80   80A           ATOM PAIR      ENERGY CONTRIBUTION    RADIAL
 FREQUENCY          3039.73         C 11 -- H 28         +96.2% ( 99.5%)    100.0%
 TRANSITION DIPOLE   0.2262         C 11 -- C 12          +1.4% ( 12.0%)     31.3%
 TRAVEL (Ang.)       0.1561         C  2 -- C 11          +1.3% ( 11.7%)     13.7%
 REDUCED MASS        0.9105         C 12 -- H 31          +0.9% (  9.6%)     95.3%
 EFFECTIVE MASS      1.5006
 FORCE CONSTANT      4.9568

 VIBRATION         81   81A           ATOM PAIR      ENERGY CONTRIBUTION    RADIAL
 FREQUENCY          3066.95         C  8 -- H 25         +63.8% ( 82.4%)     98.5%
 TRANSITION DIPOLE   0.0248         C  8 -- H 27         +31.8% ( 58.2%)     93.6%
 TRAVEL (Ang.)       0.2025         C  8 -- H 26          +3.0% ( 18.0%)     38.7%
 REDUCED MASS        0.5361         C  5 -- C  8          +1.0% ( 10.2%)      0.0%
 EFFECTIVE MASS      1.5008
 FORCE CONSTANT      2.9709

 VIBRATION         82   82A           ATOM PAIR      ENERGY CONTRIBUTION    RADIAL
 FREQUENCY          3077.82         C  7 -- H 23         +49.6% ( 72.6%)     97.1%
 TRANSITION DIPOLE   0.0146         C  7 -- H 24         +48.3% ( 71.7%)     97.0%
 TRAVEL (Ang.)       0.2080         C  6 -- C  7          +1.0% ( 10.2%)      0.0%
 REDUCED MASS        0.5063         C  7 -- H 22          +0.9% ( 10.0%)      0.1%
 EFFECTIVE MASS      1.5008
 FORCE CONSTANT      2.8258

 VIBRATION         83   83A           ATOM PAIR      ENERGY CONTRIBUTION    RADIAL
 FREQUENCY          3082.74         C  8 -- H 26         +55.3% ( 76.6%)     98.3%
 TRANSITION DIPOLE   0.0014         C  8 -- H 27         +34.8% ( 60.8%)     93.9%
 TRAVEL (Ang.)       0.2176         C  8 -- H 25          +8.3% ( 29.6%)     68.3%
 REDUCED MASS        0.4621         C  5 -- C  8          +1.0% ( 10.3%)      0.0%
 EFFECTIVE MASS      1.5020
 FORCE CONSTANT      2.5871

 VIBRATION         84   84A           ATOM PAIR      ENERGY CONTRIBUTION    RADIAL
 FREQUENCY          3084.37         C  7 -- H 22         +61.6% ( 80.9%)     98.7%
 TRANSITION DIPOLE   0.0040         C  7 -- H 24         +18.9% ( 44.9%)     86.2%
 TRAVEL (Ang.)       0.2144         C  7 -- H 23         +18.0% ( 43.7%)     85.4%
 REDUCED MASS        0.4756         C  6 -- C  7          +1.0% ( 10.3%)      0.0%
 EFFECTIVE MASS      1.5031
 FORCE CONSTANT      2.6657

 VIBRATION         85   85A           ATOM PAIR      ENERGY CONTRIBUTION    RADIAL
 FREQUENCY          3134.44         C 12 -- H 32         +91.6% ( 97.4%)     99.9%
 TRANSITION DIPOLE   0.1915         C 12 -- H 31          +7.1% ( 27.1%)     72.2%
 TRAVEL (Ang.)       0.1591         C 11 -- C 12          +1.3% ( 11.7%)     21.8%
 REDUCED MASS        0.8499
 EFFECTIVE MASS      1.5398
 FORCE CONSTANT      4.9198

 VIBRATION         86   86A           ATOM PAIR      ENERGY CONTRIBUTION    RADIAL
 FREQUENCY          3146.43         C 12 -- H 31         +91.5% ( 96.3%)     99.7%
 TRANSITION DIPOLE   0.2624         C 12 -- H 32          +6.0% ( 24.8%)     43.1%
 TRAVEL (Ang.)       0.1622         C 11 -- C 12          +1.6% ( 12.7%)     73.8%
 REDUCED MASS        0.8145         C 11 -- H 28          +0.8% (  8.9%)     94.7%
 EFFECTIVE MASS      1.4646
 FORCE CONSTANT      4.7511

 VIBRATION         87   87A           ATOM PAIR      ENERGY CONTRIBUTION    RADIAL
 FREQUENCY          3173.99         C  8 -- H 26         +41.6% ( 62.1%)     98.1%
 TRANSITION DIPOLE   0.0155         C  8 -- H 27         +32.2% ( 54.7%)     96.8%
 TRAVEL (Ang.)       0.2511         C  8 -- H 25         +25.9% ( 49.0%)     95.5%
 REDUCED MASS        0.3370         C  5 -- C  8          +0.3% (  5.2%)     97.0%
 EFFECTIVE MASS      1.1396
 FORCE CONSTANT      2.0001

 VIBRATION         88   88A           ATOM PAIR      ENERGY CONTRIBUTION    RADIAL
 FREQUENCY          3181.07         C  7 -- H 22         +36.8% ( 58.4%)     97.6%
 TRANSITION DIPOLE   0.0165         C  7 -- H 24         +31.6% ( 54.1%)     96.8%
 TRAVEL (Ang.)       0.2540         C  7 -- H 23         +31.3% ( 53.8%)     96.8%
 REDUCED MASS        0.3285         C  6 -- C  7          +0.3% (  5.1%)     99.5%
 EFFECTIVE MASS      1.1369
 FORCE CONSTANT      1.9587

 VIBRATION         89   89A           ATOM PAIR      ENERGY CONTRIBUTION    RADIAL
 FREQUENCY          3193.17         C 10 -- H 30         +50.7% ( 72.9%)    100.0%
 TRANSITION DIPOLE   0.4701         C  9 -- H 29         +45.1% ( 68.8%)    100.0%
 TRAVEL (Ang.)       0.2128         C  9 -- C 10          +1.1% ( 10.5%)      0.2%
 REDUCED MASS        0.4665         C  3 -- C 10          +0.9% (  9.4%)     99.8%
 EFFECTIVE MASS      1.4630
 FORCE CONSTANT      2.8023

 VIBRATION         90   90A           ATOM PAIR      ENERGY CONTRIBUTION    RADIAL
 FREQUENCY          3213.68         C  9 -- H 29         +49.0% ( 72.5%)     99.9%
 TRANSITION DIPOLE   0.3814         C 10 -- H 30         +43.6% ( 68.3%)     99.9%
 TRAVEL (Ang.)       0.2108         C  9 -- C 10          +3.0% ( 18.0%)     99.9%
 REDUCED MASS        0.4721         C  1 -- C  9          +1.2% ( 11.1%)     98.3%
 EFFECTIVE MASS      1.7379
 FORCE CONSTANT      2.8724

      SYMMETRY NUMBER FOR POINT-GROUP C1  =  1


          SYSTEM IS A GROUND STATE



 InChI=1S/C12H20/c1-4-7-10(5-2)12-9-8-11(12)6-3/h5,8-12H,2,4,6-7H2,1,3H3


          MOLECULE IS NOT LINEAR

          THERE ARE 90 GENUINE VIBRATIONS IN THIS SYSTEM
          THIS THERMODYNAMICS CALCULATION IS LIMITED TO
          MOLECULES WHICH HAVE NO INTERNAL ROTATIONS




                    CALCULATED THERMODYNAMIC PROPERTIES
                                          *
   TEMP. (K)   PARTITION FUNCTION   H.O.F.    ENTHALPY  HEAT CAPACITY ENTROPY
                                   KCAL/MOL   CAL/MOLE    CAL/K/MOL  CAL/K/MOL


 298.00  VIB.     0.2694D+06                  7166.6329    46.4825    48.8972
         ROT.     0.1576D+07                   888.2803     2.9808    31.3396
         INT.     0.4247D+12                  8054.9132    49.4633    80.2368
         TRA.     0.2036D+28                  1480.4672     4.9680    41.1956
         TOT.                       23.711    9535.3803    54.4313   121.4325

 200.00  VIB.     0.4640D+04                  3397.0099    31.0442    33.7622
         ROT.     0.8668D+06                   596.1613     2.9808    30.1510
         INT.     0.4022D+10                  3993.1712    34.0250    63.9131
         TRA.     0.1119D+28                   993.6021     4.9680    39.2145
         TOT.                       19.162    4986.7733    38.9930   103.1276

 210.00  VIB.     0.7102D+04                  3714.3966    32.4405    35.3104
         ROT.     0.9326D+06                   625.9693     2.9808    30.2964
         INT.     0.6623D+10                  4340.3659    35.4213    65.6068
         TRA.     0.1204D+28                  1043.2822     4.9680    39.4569
         TOT.                       19.559    5383.6482    40.3893   105.0637

 220.00  VIB.     0.1083D+05                  4045.9685    33.8815    36.8526
         ROT.     0.1000D+07                   655.7774     2.9808    30.4351
         INT.     0.1083D+11                  4701.7459    36.8623    67.2877
         TRA.     0.1291D+28                  1092.9623     4.9680    39.6880
         TOT.                       19.970    5794.7083    41.8303   106.9757

 230.00  VIB.     0.1647D+05                  4392.1782    35.3680    38.3913
         ROT.     0.1069D+07                   685.5855     2.9808    30.5676
         INT.     0.1761D+11                  5077.7637    38.3488    68.9589
         TRA.     0.1380D+28                  1142.6424     4.9680    39.9088
         TOT.                       20.396    6220.4061    43.3168   108.8678

 240.00  VIB.     0.2499D+05                  4753.4760    36.8988    39.9288
         ROT.     0.1139D+07                   715.3935     2.9808    30.6944
         INT.     0.2847D+11                  5468.8695    39.8796    70.6232
         TRA.     0.1471D+28                  1192.3226     4.9680    40.1203
         TOT.                       20.837    6661.1921    44.8477   110.7435

 250.00  VIB.     0.3781D+05                  5130.2955    38.4718    41.4668
         ROT.     0.1211D+07                   745.2016     2.9808    30.8161
         INT.     0.4580D+11                  5875.4971    41.4526    72.2829
         TRA.     0.1564D+28                  1242.0027     4.9680    40.3231
         TOT.                       21.293    7117.4997    46.4206   112.6060

 260.00  VIB.     0.5709D+05                  5523.0414    40.0835    43.0070
         ROT.     0.1285D+07                   775.0097     2.9808    30.9330
         INT.     0.7334D+11                  6298.0510    43.0643    73.9400
         TRA.     0.1659D+28                  1291.6828     4.9680    40.5179
         TOT.                       21.765    7589.7338    48.0323   114.4579

 270.00  VIB.     0.8604D+05                  5932.0807    41.7298    44.5505
         ROT.     0.1360D+07                   804.8177     2.9808    31.0455
         INT.     0.1170D+12                  6736.8984    44.7106    75.5960
         TRA.     0.1756D+28                  1341.3629     4.9680    40.7054
         TOT.                       22.254    8078.2613    49.6786   116.3015

 280.00  VIB.     0.1295D+06                  6357.7362    43.4059    46.0983
         ROT.     0.1436D+07                   834.6258     2.9808    31.1539
         INT.     0.1859D+12                  7192.3620    46.3867    77.2523
         TRA.     0.1854D+28                  1391.0430     4.9680    40.8861
         TOT.                       22.759    8583.4049    51.3547   118.1384

 290.00  VIB.     0.1946D+06                  6800.2823    45.1070    47.6511
         ROT.     0.1513D+07                   864.4339     2.9808    31.2585
         INT.     0.2946D+12                  7664.7162    48.0879    78.9096
         TRA.     0.1954D+28                  1440.7231     4.9680    41.0604
         TOT.                       23.281    9105.4393    53.0559   119.9701

 300.00  VIB.     0.2922D+06                  7259.9433    46.8280    49.2093
         ROT.     0.1592D+07                   894.2419     2.9808    31.3596
         INT.     0.4653D+12                  8154.1852    49.8088    80.5689
         TRA.     0.2056D+28                  1490.4032     4.9680    41.2289
         TOT.                       23.820    9644.5884    54.7768   121.7977

 310.00  VIB.     0.4383D+06                  7736.8923    48.5638    50.7730
         ROT.     0.1673D+07                   924.0500     2.9808    31.4573
         INT.     0.7332D+12                  8660.9423    51.5446    82.2303
         TRA.     0.2160D+28                  1540.0833     4.9680    41.3918
         TOT.                       24.376   10201.0256    56.5126   123.6221

 320.00  VIB.     0.6571D+06                  8231.2527    50.3095    52.3424
         ROT.     0.1754D+07                   953.8580     2.9808    31.5519
         INT.     0.1153D+13                  9185.1107    53.2903    83.8944
         TRA.     0.2265D+28                  1589.7634     4.9680    41.5495
         TOT.                       24.950   10774.8741    58.2583   125.4439

 330.00  VIB.     0.9844D+06                  8743.0994    52.0603    53.9173
         ROT.     0.1837D+07                   983.6661     2.9808    31.6437
         INT.     0.1809D+13                  9726.7655    55.0412    85.5610
         TRA.     0.2372D+28                  1639.4435     4.9680    41.7024
         TOT.                       25.542   11366.2091    60.0092   127.2634

 340.00  VIB.     0.1474D+07                  9272.4622    53.8120    55.4975
         ROT.     0.1921D+07                  1013.4742     2.9808    31.7327
         INT.     0.2832D+13                 10285.9364    56.7928    87.2301
         TRA.     0.2481D+28                  1689.1236     4.9680    41.8507
         TOT.                       26.150   11975.0600    61.7608   129.0808

 350.00  VIB.     0.2207D+07                  9819.3282    55.5603    57.0826
         ROT.     0.2007D+07                  1043.2822     2.9808    31.8191
         INT.     0.4429D+13                 10862.6104    58.5411    88.9017
         TRA.     0.2591D+28                  1738.8037     4.9680    41.9947
         TOT.                       26.777   12601.4141    63.5092   130.8964

 360.00  VIB.     0.3303D+07                 10383.6456    57.3017    58.6722
         ROT.     0.2093D+07                  1073.0903     2.9808    31.9030
         INT.     0.6915D+13                 11456.7359    60.2825    90.5752
         TRA.     0.2703D+28                  1788.4838     4.9680    42.1347
         TOT.                       27.421   13245.2197    65.2505   132.7099

 370.00  VIB.     0.4943D+07                 10965.3275    59.0327    60.2659
         ROT.     0.2181D+07                  1102.8984     2.9808    31.9847
         INT.     0.1078D+14                 12068.2259    62.0135    92.2506
         TRA.     0.2817D+28                  1838.1639     4.9680    42.2708
         TOT.                       28.082   13906.3898    66.9815   134.5213

 380.00  VIB.     0.7397D+07                 11564.2555    60.7504    61.8630
         ROT.     0.2270D+07                  1132.7064     2.9808    32.0642
         INT.     0.1679D+14                 12696.9619    63.7312    93.9272
         TRA.     0.2932D+28                  1887.8440     4.9680    42.4033
         TOT.                       28.760   14584.8059    68.6993   136.3304

 390.00  VIB.     0.1107D+08                 12180.2832    62.4523    63.4631
         ROT.     0.2360D+07                  1162.5145     2.9808    32.1416
         INT.     0.2612D+14                 13342.7977    65.4331    95.6047
         TRA.     0.3048D+28                  1937.5242     4.9680    42.5323
         TOT.                       29.456   15280.3218    70.4011   138.1370

 400.00  VIB.     0.1656D+08                 12813.2402    64.1359    65.0655
         ROT.     0.2452D+07                  1192.3226     2.9808    32.2171
         INT.     0.4060D+14                 14005.5628    67.1168    97.2826
         TRA.     0.3166D+28                  1987.2043     4.9680    42.6581
         TOT.                       30.168   15992.7670    72.0848   139.9407

   *: NOTE: HEATS OF FORMATION ARE RELATIVE TO THE
            ELEMENTS IN THEIR STANDARD STATE AT 298K
              (=  Standard Enthalpy of Formation).

            Hvib:  Zero-point energy is not included.
                   frequencies of less than zero cm-1 are not included.
            Hrot = (3/2)RT
            Htra = (3/2)RT + pV = (5/2)RT

            Heat capacity is Cp, not Cv

          For more information, see: HTTP://OpenMOPAC.net/Manual/thermochemistry.html


           FORCE CONSTANT IN CARTESIAN COORDINATES (Millidynes/A)

    ATOM   CHEMICAL       X               Y               Z
   NUMBER   SYMBOL  FORCE CONSTANT  FORCE CONSTANT  FORCE CONSTANT

      1       C        8.784730        6.799754        8.426595
      2       C        8.269158        8.833125        8.197194
      3       C        7.514957        8.169048        8.450004
      4       C        8.330361        8.224842        8.091753
      5       C        8.384037        8.281361        8.455421
      6       C        8.153345        8.215009        8.540445
      7       C        8.444340        8.205272        8.252926
      8       C        8.287982        8.178978        8.386071
      9       C        7.137267       11.751842        7.683978
     10       C        4.994072       13.832949        7.734040
     11       C        6.620463        9.052038       11.439890
     12       C        6.122715        9.185626       11.141598
     13       H        1.128955        2.279252        2.616807
     14       H        2.397233        3.132180        0.695401
     15       H        1.270505        2.253876        2.687909
     16       H        0.941993        2.826850        2.635386
     17       H        1.583503        3.764364        1.026101
     18       H        0.948824        2.674774        2.769641
     19       H        2.013294        3.317521        1.031792
     20       H        2.212557        3.434646        0.743690
     21       H        1.597460        3.794240        0.970111
     22       H        5.302008        0.763288        0.728646
     23       H        1.569022        4.105245        1.098864
     24       H        0.867164        3.011592        2.895884
     25       H        1.980448        3.606069        1.135425
     26       H        3.093669        0.830416        2.863182
     27       H        2.417045        3.609663        0.741609
     28       H        0.776786        2.930692        2.505177
     29       H        2.309145        1.821105        2.451015
     30       H        0.454099        3.541286        2.581775
     31       H        0.930784        4.779861        0.758904
     32       H        0.820973        2.875474        2.757569

 **********************
 *                    *
 * JOB ENDED NORMALLY *
 *                    *
 **********************



 TOTAL JOB TIME:             6.72 SECONDS

 == MOPAC DONE ==
