 *******************************************************************************
 **                                                                           **
 **                              MOPAC v23.1.2                                **
 **                                                                           **
 *******************************************************************************
 **          Digital Object Identifier (DOI): 10.5281/zenodo.6511958          **
 **    Visit the DOI location for information on how to cite this program.    **
 *******************************************************************************

                              PM3 CALCULATION RESULTS

 *******************************************************************************
 *  CALCULATION DONE: (MAX THREADS = 1)              Tue Jun  3 16:29:20 2025  *
 *  PM3        - The PM3 Hamiltonian to be used
 *  PRECISE    - TIGHTER CRITERIA TO BE USED
 *  NOSYM      - POINT-GROUP SYMMETRY SET TO C1
 *  THREADS=1  - MULTI-THREADING NOT USED
 *  T=         - A TIME OF 172800.0 SECONDS REQUESTED
 *  DUMP=N     - RESTART FILE WRITTEN EVERY 7200.0 SECONDS REQUESTED
 *******************************************************************************
pm3  precise nosym THREADS=1
 InChI=1S/C5H8/c1-2-4-5-3-1/h1-2H,3-5H2

   ATOM   CHEMICAL          X               Y               Z
  NUMBER   SYMBOL      (ANGSTROMS)     (ANGSTROMS)     (ANGSTROMS)

     1       C         -0.87840000  *  -0.69660000  *  -0.01920000  *
     2       C          0.60010000  *  -1.08440000  *   0.08630000  *
     3       C         -0.91680000  *   0.83330000  *  -0.09330000  *
     4       C          1.32620000  *   0.21110000  *   0.06840000  *
     5       C          0.50900000  *   1.24430000  *  -0.02830000  *
     6       H         -1.33140000  *  -1.14050000  *  -0.93270000  *
     7       H         -1.43800000  *  -1.05580000  *   0.87220000  *
     8       H          0.80530000  *  -1.62150000  *   1.03720000  *
     9       H          0.91260000  *  -1.70670000  *  -0.77950000  *
    10       H         -1.47470000  *   1.26100000  *   0.76720000  *
    11       H         -1.36740000  *   1.17570000  *  -1.04950000  *
    12       H          2.40560000  *   0.30530000  *   0.12780000  *
    13       H          0.84780000  *   2.27480000  *  -0.05670000  *



          CARTESIAN COORDINATES 

    NO.       ATOM           X           Y           Z

     1         C         -0.8784     -0.6966     -0.0192
     2         C          0.6001     -1.0844      0.0863
     3         C         -0.9168      0.8333     -0.0933
     4         C          1.3262      0.2111      0.0684
     5         C          0.5090      1.2443     -0.0283
     6         H         -1.3314     -1.1405     -0.9327
     7         H         -1.4380     -1.0558      0.8722
     8         H          0.8053     -1.6215      1.0372
     9         H          0.9126     -1.7067     -0.7795
    10         H         -1.4747      1.2610      0.7672
    11         H         -1.3674      1.1757     -1.0495
    12         H          2.4056      0.3053      0.1278
    13         H          0.8478      2.2748     -0.0567

  H: (PM3): J. J. P. STEWART, J. COMP. CHEM. 10, 209 (1989).
  C: (PM3): J. J. P. STEWART, J. COMP. CHEM. 10, 209 (1989).

           Empirical Formula: C5 H8  =    13 atoms



      MOLECULAR POINT GROUP   :   C1  


      RHF CALCULATION, NO. OF DOUBLY OCCUPIED LEVELS = 14


          Geometry optimization using EF

          DIAGONAL MATRIX USED AS START HESSIAN

 CYCLE:     1 TIME:   0.004 TIME LEFT:  2.00D  GRAD.:    45.886 HEAT:  4.576337
 CYCLE:     2 TIME:   0.004 TIME LEFT:  2.00D  GRAD.:    48.868 HEAT:  4.266370
 CYCLE:     3 TIME:   0.004 TIME LEFT:  2.00D  GRAD.:    25.986 HEAT:  3.748443
 CYCLE:     4 TIME:   0.004 TIME LEFT:  2.00D  GRAD.:    37.978 HEAT:  3.560344
 CYCLE:     5 TIME:   0.004 TIME LEFT:  2.00D  GRAD.:    20.972 HEAT:  3.203258
 CYCLE:     6 TIME:   0.004 TIME LEFT:  2.00D  GRAD.:     9.779 HEAT:  3.075788
 CYCLE:     7 TIME:   0.004 TIME LEFT:  2.00D  GRAD.:    11.325 HEAT:  3.035289
 CYCLE:     8 TIME:   0.004 TIME LEFT:  2.00D  GRAD.:     7.668 HEAT:  3.000230
 CYCLE:     9 TIME:   0.004 TIME LEFT:  2.00D  GRAD.:     6.948 HEAT:  2.988233
 CYCLE:    10 TIME:   0.004 TIME LEFT:  2.00D  GRAD.:     7.239 HEAT:  2.982804
 CYCLE:    11 TIME:   0.004 TIME LEFT:  2.00D  GRAD.:     5.810 HEAT:  2.970622
 CYCLE:    12 TIME:   0.004 TIME LEFT:  2.00D  GRAD.:     2.485 HEAT:  2.962608
 CYCLE:    13 TIME:   0.004 TIME LEFT:  2.00D  GRAD.:     4.546 HEAT:  2.964402
 CYCLE:    14 TIME:   0.000 TIME LEFT:  2.00D  GRAD.:     2.518 HEAT:  2.959817
 CYCLE:    15 TIME:   0.004 TIME LEFT:  2.00D  GRAD.:     4.864 HEAT:  2.965477
 CYCLE:    16 TIME:   0.004 TIME LEFT:  2.00D  GRAD.:     0.665 HEAT:  2.957464
 CYCLE:    17 TIME:   0.000 TIME LEFT:  2.00D  GRAD.:     0.961 HEAT:  2.957499
 CYCLE:    18 TIME:   0.004 TIME LEFT:  2.00D  GRAD.:     0.274 HEAT:  2.957095
 CYCLE:    19 TIME:   0.004 TIME LEFT:  2.00D  GRAD.:     0.212 HEAT:  2.956979
 CYCLE:    20 TIME:   0.004 TIME LEFT:  2.00D  GRAD.:     0.275 HEAT:  2.956876
 CYCLE:    21 TIME:   0.004 TIME LEFT:  2.00D  GRAD.:     0.214 HEAT:  2.956852
 CYCLE:    22 TIME:   0.004 TIME LEFT:  2.00D  GRAD.:     0.092 HEAT:  2.956827
 CYCLE:    23 TIME:   0.004 TIME LEFT:  2.00D  GRAD.:     0.071 HEAT:  2.956819
 CYCLE:    24 TIME:   0.004 TIME LEFT:  2.00D  GRAD.:     0.058 HEAT:  2.956814
 CYCLE:    25 TIME:   0.004 TIME LEFT:  2.00D  GRAD.:     0.032 HEAT:  2.956811

     GRADIENT =  0.03232 IS LESS THAN CUTOFF =  0.05000



 -------------------------------------------------------------------------------
 pm3  precise nosym THREADS=1
 InChI=1S/C5H8/c1-2-4-5-3-1/h1-2H,3-5H2



     GEOMETRY OPTIMISED USING EIGENVECTOR FOLLOWING (EF).     
     SCF FIELD WAS ACHIEVED                                   


                              PM3 CALCULATION
                                                       MOPAC v23.1.2 MacOS
                                                       Tue Jun  3 16:29:20 2025




          FINAL HEAT OF FORMATION =          2.95681 KCAL/MOL =      12.37130 KJ/MOL


          COSMO AREA              =        114.01 SQUARE ANGSTROMS
          COSMO VOLUME            =        101.15 CUBIC ANGSTROMS

          GRADIENT NORM           =          0.03232          =       0.00896 PER ATOM
          IONIZATION POTENTIAL    =          9.524504 EV
          HOMO LUMO ENERGIES (EV) =         -9.525  1.135
          NO. OF FILLED LEVELS    =         14
          MOLECULAR WEIGHT        =         68.1182         POINT GROUP:  C1  

          MOLECULAR DIMENSIONS (Angstroms)

            Atom       Atom       Distance
            H    13    H     7     4.16503
            H     9    H    10     4.05958
            H     8    H    11     3.01360


          SCF CALCULATIONS        =         32

          WALL-CLOCK TIME         =      0.102 SECONDS
          COMPUTATION TIME        =      0.054 SECONDS




   ATOM   CHEMICAL          X               Y               Z
  NUMBER   SYMBOL      (ANGSTROMS)     (ANGSTROMS)     (ANGSTROMS)

     1       C         -0.88081740  *  -0.69851597  *  -0.01938713  *
     2       C          0.60254984  *  -1.08526732  *   0.08664697  *
     3       C         -0.91703391  *   0.83590661  *  -0.09331795  *
     4       C          1.34307770  *   0.21369960  *   0.06931078  *
     5       C          0.51539482  *   1.26015018  *  -0.02888890  *
     6       H         -1.35114611  *  -1.15391261  *  -0.90891292  *
     7       H         -1.45533597  *  -1.07179340  *   0.84689132  *
     8       H          0.82121448  *  -1.64903611  *   1.01204818  *
     9       H          0.92554115  *  -1.73187460  *  -0.74976534  *
    10       H         -1.49500978  *   1.27974591  *   0.73791959  *
    11       H         -1.39170966  *   1.19731641  *  -1.02394765  *
    12       H          2.43017103  *   0.24661746  *   0.13206266  *
    13       H          0.79643174  *   2.31215674  *  -0.06189676  *

                             CARTESIAN COORDINATES

   1    C       -0.880817403    -0.698515966    -0.019387128
   2    C        0.602549839    -1.085267318     0.086646965
   3    C       -0.917033906     0.835906612    -0.093317954
   4    C        1.343077704     0.213699595     0.069310777
   5    C        0.515394819     1.260150179    -0.028888901
   6    H       -1.351146109    -1.153912610    -0.908912921
   7    H       -1.455335971    -1.071793402     0.846891319
   8    H        0.821214480    -1.649036112     1.012048177
   9    H        0.925541153    -1.731874597    -0.749765341
  10    H       -1.495009776     1.279745908     0.737919585
  11    H       -1.391709664     1.197316409    -1.023947650
  12    H        2.430171029     0.246617457     0.132062656
  13    H        0.796431736     2.312156738    -0.061896758


           Empirical Formula: C5 H8  =    13 atoms



      MOLECULAR POINT GROUP   :   C1  


                  EIGENVALUES  
 -39.69948 -28.05486 -27.95632 -20.17247 -18.44190 -17.51813 -16.29991 -13.73265
 -13.53776 -12.89883 -12.76300 -12.58497 -12.02788  -9.52450   1.13508   3.45008
   3.62398   3.76944   3.86006   3.97018   4.17889   4.30684   4.32340   4.53758
   5.06213   5.20279   5.60245   6.00284


              NET ATOMIC CHARGES AND DIPOLE CONTRIBUTIONS

  ATOM NO.   TYPE          CHARGE      No. of ELECS.   s-Pop       p-Pop       
    1          C          -0.098428        4.0984     1.16592     2.93251
    2          C          -0.064709        4.0647     1.15411     2.91060
    3          C          -0.064705        4.0647     1.15411     2.91060
    4          C          -0.155373        4.1554     1.20239     2.95298
    5          C          -0.155373        4.1554     1.20239     2.95298
    6          H           0.049255        0.9507     0.95074
    7          H           0.049259        0.9507     0.95074
    8          H           0.054854        0.9451     0.94515
    9          H           0.054848        0.9452     0.94515
   10          H           0.054842        0.9452     0.94516
   11          H           0.054854        0.9451     0.94515
   12          H           0.110333        0.8897     0.88967
   13          H           0.110341        0.8897     0.88966
 DIPOLE           X         Y         Z       TOTAL
 POINT-CHG.    -0.127    -0.101    -0.003     0.162
 HYBRID         0.011     0.009     0.000     0.014
 SUM           -0.116    -0.092    -0.002     0.148


          ATOMIC ORBITAL ELECTRON POPULATIONS

     Atom    s        px        py        pz   
    1  C   1.16592   0.96134   0.95658   1.01459
    2  C   1.15411   0.94250   0.95854   1.00957
    3  C   1.15411   0.95126   0.94974   1.00959
    4  C   1.20239   0.98226   0.95591   1.01482
    5  C   1.20239   0.95877   0.97946   1.01476
    6  H   0.95074
    7  H   0.95074
    8  H   0.94515
    9  H   0.94515
   10  H   0.94516
   11  H   0.94515
   12  H   0.88967
   13  H   0.88966
 *******************************************************************************
 **                                                                           **
 **                              MOPAC v23.1.2                                **
 **                                                                           **
 *******************************************************************************
 **          Digital Object Identifier (DOI): 10.5281/zenodo.6511958          **
 **    Visit the DOI location for information on how to cite this program.    **
 *******************************************************************************

                              PM3 CALCULATION RESULTS

 *******************************************************************************
 *  CALCULATION DONE: (MAX THREADS = 1)              Tue Jun  3 16:29:20 2025  *
 *  PM3        - The PM3 Hamiltonian to be used
 *  OLDGEO     - PREVIOUS GEOMETRY TO BE USED
 *  PRECISE    - TIGHTER CRITERIA TO BE USED
 *  NOSYM      - POINT-GROUP SYMMETRY SET TO C1
 *  THREADS=1  - MULTI-THREADING NOT USED
 *  T=         - A TIME OF 172800.0 SECONDS REQUESTED
 *  DUMP=N     - RESTART FILE WRITTEN EVERY 7200.0 SECONDS REQUESTED
 *  THERMO     - THERMODYNAMIC QUANTITIES TO BE CALCULATED
 *******************************************************************************
oldgeo thermo nosym precise THREADS=1  pm3
 InChI=1S/C5H8/c1-2-4-5-3-1/h1-2H,3-5H2

   ATOM   CHEMICAL          X               Y               Z
  NUMBER   SYMBOL      (ANGSTROMS)     (ANGSTROMS)     (ANGSTROMS)

     1       C         -0.88081740  *  -0.69851597  *  -0.01938713  *
     2       C          0.60254984  *  -1.08526732  *   0.08664697  *
     3       C         -0.91703391  *   0.83590661  *  -0.09331795  *
     4       C          1.34307770  *   0.21369960  *   0.06931078  *
     5       C          0.51539482  *   1.26015018  *  -0.02888890  *
     6       H         -1.35114611  *  -1.15391261  *  -0.90891292  *
     7       H         -1.45533597  *  -1.07179340  *   0.84689132  *
     8       H          0.82121448  *  -1.64903611  *   1.01204818  *
     9       H          0.92554115  *  -1.73187460  *  -0.74976534  *
    10       H         -1.49500978  *   1.27974591  *   0.73791959  *
    11       H         -1.39170966  *   1.19731641  *  -1.02394765  *
    12       H          2.43017103  *   0.24661746  *   0.13206266  *
    13       H          0.79643174  *   2.31215674  *  -0.06189676  *



          CARTESIAN COORDINATES 

    NO.       ATOM           X           Y           Z

     1         C         -0.8808     -0.6985     -0.0194
     2         C          0.6025     -1.0853      0.0866
     3         C         -0.9170      0.8359     -0.0933
     4         C          1.3431      0.2137      0.0693
     5         C          0.5154      1.2602     -0.0289
     6         H         -1.3511     -1.1539     -0.9089
     7         H         -1.4553     -1.0718      0.8469
     8         H          0.8212     -1.6490      1.0120
     9         H          0.9255     -1.7319     -0.7498
    10         H         -1.4950      1.2797      0.7379
    11         H         -1.3917      1.1973     -1.0239
    12         H          2.4302      0.2466      0.1321
    13         H          0.7964      2.3122     -0.0619

  H: (PM3): J. J. P. STEWART, J. COMP. CHEM. 10, 209 (1989).
  C: (PM3): J. J. P. STEWART, J. COMP. CHEM. 10, 209 (1989).

           Empirical Formula: C5 H8  =    13 atoms



      MOLECULAR POINT GROUP   :   C1  


      RHF CALCULATION, NO. OF DOUBLY OCCUPIED LEVELS = 14



          HEAT OF FORMATION =       2.956811 KCALS/MOLE


          CARTESIAN COORDINATE DERIVATIVES

   NUMBER  ATOM         X            Y            Z

     1       C     -0.002320    -0.005355     0.000067
     2       C      0.006931    -0.000706     0.000785
     3       C      0.009259     0.007845    -0.001900
     4       C     -0.018095    -0.006746    -0.000146
     5       C     -0.004306     0.002725    -0.000852
     6       H      0.003047    -0.003852     0.001156
     7       H     -0.001295    -0.003286    -0.001942
     8       H      0.002769    -0.003439     0.000129
     9       H      0.002660     0.005966    -0.000121
    10       H      0.010118     0.008215    -0.004182
    11       H     -0.007245     0.001899     0.004582
    12       H     -0.003694     0.000214     0.004087
    13       H      0.002171    -0.003478    -0.001663



          GRADIENT NORM =   0.03244

          MOLECULAR WEIGHT =   68.12



          ROTATIONAL CONSTANTS IN CM(-1)

          A =    0.24447803   B =    0.24314602   C =    0.13081395



           PRINCIPAL MOMENTS OF INERTIA IN UNITS OF 10**(-40)*GRAM-CM**2

          A =      114.5001   B =      115.1273   C =      213.9890


          ORIENTATION OF MOLECULE IN FORCE CALCULATION

    NO.       ATOM         X         Y         Z

     1          C      -0.7574   -1.0070    0.0002
     2          C       0.7793   -1.0070    0.0002
     3          C      -1.1836    0.4693    0.0002
     4          C       1.1660    0.4375   -0.0003
     5          C       0.0968    1.2416   -0.0004
     6          H      -1.1582   -1.5399   -0.8802
     7          H      -1.1582   -1.5400    0.8806
     8          H       1.1961   -1.5243    0.8838
     9          H       1.1961   -1.5247   -0.8831
    10          H      -1.7959    0.7264    0.8840
    11          H      -1.7970    0.7261   -0.8829
    12          H       2.2115    0.7437   -0.0004
    13          H       0.1011    2.3310   -0.0009


    FIRST DERIVATIVES WILL BE USED IN THE CALCULATION OF SECOND DERIVATIVES

          ESTIMATED TIME TO COMPLETE CALCULATION =        0.61 SECONDS

    FOR POINT-GROUP C1   THERE ARE   1 UNIQUE SYMMETRY FUNCTIONS.

 STEP:   1 TIME =     0.01 SECS, INTEGRAL =      0.01 TIME LEFT: 172799.99
 STEP:   2 TIME =     0.01 SECS, INTEGRAL =      0.02 TIME LEFT: 172799.98
 STEP:   3 TIME =     0.01 SECS, INTEGRAL =      0.02 TIME LEFT: 172799.97
 STEP:   4 TIME =     0.00 SECS, INTEGRAL =      0.03 TIME LEFT: 172799.97
 STEP:   5 TIME =     0.01 SECS, INTEGRAL =      0.04 TIME LEFT: 172799.96
 STEP:   6 TIME =     0.01 SECS, INTEGRAL =      0.05 TIME LEFT: 172799.95
 STEP:   7 TIME =     0.01 SECS, INTEGRAL =      0.05 TIME LEFT: 172799.94
 STEP:   8 TIME =     0.01 SECS, INTEGRAL =      0.06 TIME LEFT: 172799.93
 STEP:   9 TIME =     0.01 SECS, INTEGRAL =      0.07 TIME LEFT: 172799.93
 STEP:  10 TIME =     0.01 SECS, INTEGRAL =      0.08 TIME LEFT: 172799.92
 STEP:  11 TIME =     0.01 SECS, INTEGRAL =      0.09 TIME LEFT: 172799.91
 STEP:  12 TIME =     0.00 SECS, INTEGRAL =      0.09 TIME LEFT: 172799.91
 STEP:  13 TIME =     0.00 SECS, INTEGRAL =      0.09 TIME LEFT: 172799.90
 STEP:  14 TIME =     0.00 SECS, INTEGRAL =      0.10 TIME LEFT: 172799.90
 STEP:  15 TIME =     0.01 SECS, INTEGRAL =      0.11 TIME LEFT: 172799.89
 STEP:  16 TIME =     0.01 SECS, INTEGRAL =      0.11 TIME LEFT: 172799.88
 STEP:  17 TIME =     0.01 SECS, INTEGRAL =      0.12 TIME LEFT: 172799.88
 STEP:  18 TIME =     0.01 SECS, INTEGRAL =      0.13 TIME LEFT: 172799.87
 STEP:  19 TIME =     0.01 SECS, INTEGRAL =      0.14 TIME LEFT: 172799.86
 STEP:  20 TIME =     0.01 SECS, INTEGRAL =      0.14 TIME LEFT: 172799.85
 STEP:  21 TIME =     0.01 SECS, INTEGRAL =      0.15 TIME LEFT: 172799.84
 STEP:  22 TIME =     0.01 SECS, INTEGRAL =      0.16 TIME LEFT: 172799.84
 STEP:  23 TIME =     0.01 SECS, INTEGRAL =      0.17 TIME LEFT: 172799.83
 STEP:  24 TIME =     0.01 SECS, INTEGRAL =      0.18 TIME LEFT: 172799.82
 STEP:  25 TIME =     0.01 SECS, INTEGRAL =      0.18 TIME LEFT: 172799.81
 STEP:  26 TIME =     0.01 SECS, INTEGRAL =      0.19 TIME LEFT: 172799.80
 STEP:  27 TIME =     0.00 SECS, INTEGRAL =      0.20 TIME LEFT: 172799.80
 STEP:  28 TIME =     0.01 SECS, INTEGRAL =      0.20 TIME LEFT: 172799.79
 STEP:  29 TIME =     0.01 SECS, INTEGRAL =      0.21 TIME LEFT: 172799.79
 STEP:  30 TIME =     0.01 SECS, INTEGRAL =      0.22 TIME LEFT: 172799.78
 STEP:  31 TIME =     0.01 SECS, INTEGRAL =      0.23 TIME LEFT: 172799.77
 STEP:  32 TIME =     0.01 SECS, INTEGRAL =      0.23 TIME LEFT: 172799.76
 STEP:  33 TIME =     0.01 SECS, INTEGRAL =      0.24 TIME LEFT: 172799.75
 STEP:  34 TIME =     0.01 SECS, INTEGRAL =      0.25 TIME LEFT: 172799.75
 STEP:  35 TIME =     0.01 SECS, INTEGRAL =      0.26 TIME LEFT: 172799.74
 STEP:  36 TIME =     0.01 SECS, INTEGRAL =      0.27 TIME LEFT: 172799.73
 STEP:  37 TIME =     0.01 SECS, INTEGRAL =      0.27 TIME LEFT: 172799.72
 STEP:  38 TIME =     0.00 SECS, INTEGRAL =      0.28 TIME LEFT: 172799.72
 STEP:  39 TIME =     0.01 SECS, INTEGRAL =      0.29 TIME LEFT: 172799.71

(To convert to Hartree/Bohr^2, multiply by (10^(-21) x N x a0^2)/(4.184 x 627.51) =  0.0642)


           FORCE MATRIX IN MILLIDYNES/ANGSTROM


                  C  1       C  2       C  3       C  4       C  5       H  6
 ------------------------------------------------------------------------------
     C    1  14.259700
     C    2   3.751281  14.658638
     C    3   3.750795   0.740815  14.658455
     C    4   0.884900   4.722129   1.182758  18.358050
     C    5   0.884689   1.182263   4.722350  10.563482  18.359126
     H    6   4.575725   0.440505   0.440602   0.028236   0.028181   5.182659
     H    7   4.575796   0.440507   0.440588   0.028259   0.028229   0.586863
     H    8   0.436285   4.522675   0.028683   0.430660   0.038651   0.027910
     H    9   0.436291   4.522750   0.028709   0.430630   0.038653   0.028804
     H   10   0.436418   0.028688   4.522650   0.038632   0.430494   0.027954
     H   11   0.436403   0.028728   4.522705   0.038652   0.430595   0.028781
     H   12   0.043197   0.412557   0.118893   5.024305   0.449630   0.003135
     H   13   0.043190   0.118904   0.412712   0.449767   5.024335   0.003104


                  H  7       H  8       H  9       H 10       H 11       H 12
 ------------------------------------------------------------------------------
     H    7   5.182764
     H    8   0.028808   5.129454
     H    9   0.027892   0.575537   5.129478
     H   10   0.028780   0.001315   0.004316   5.129405
     H   11   0.027916   0.004317   0.001312   0.575614   5.129550
     H   12   0.003138   0.014347   0.014359   0.016429   0.016422   5.420969
     H   13   0.003112   0.016374   0.016374   0.014390   0.014381   0.049014


                  H 13
 ------------------
     H   13   5.421021


          HEAT OF FORMATION =       2.956811 KCALS/MOLE

          ZERO POINT ENERGY      72.336 KCAL/MOL


           NORMAL COORDINATE ANALYSIS (Total motion = 1 Angstrom)


   Root No.       1         2         3         4         5         6         7         8

                 1 A       2 A       3 A       4 A       5 A       6 A       7 A       8 A   

                 113.1     360.1     690.4     713.7     772.8     803.9     849.8     978.2
  
           1    0.0000   -0.0000    0.0512    0.0001    0.0457   -0.0000   -0.0000   -0.0000
           2    0.0000    0.0000    0.0681    0.0001   -0.0343   -0.0000    0.0000    0.0000
           3    0.0421    0.0000    0.0000   -0.0075    0.0000    0.0286    0.0001   -0.0000
           4    0.0000   -0.0000    0.0654    0.0001   -0.0003   -0.0000    0.0000    0.0000
           5   -0.0000   -0.0000   -0.0478   -0.0001   -0.0705    0.0000    0.0000   -0.0000
           6   -0.0374   -0.0180    0.0001   -0.0140    0.0001    0.0068    0.0340    0.0142
           7   -0.0000    0.0000   -0.0641   -0.0001    0.0676    0.0000   -0.0000   -0.0000
           8   -0.0000    0.0000    0.0495    0.0001    0.0199   -0.0000   -0.0000   -0.0000
           9   -0.0374    0.0180    0.0001   -0.0140   -0.0000    0.0069   -0.0340   -0.0141
          10    0.0000    0.0000   -0.0264   -0.0001   -0.1176    0.0000    0.0000   -0.0000
          11    0.0000    0.0000   -0.0414   -0.0001   -0.0233    0.0000    0.0000   -0.0000
          12    0.0186    0.0624    0.0000   -0.0099    0.0000   -0.0219    0.0003   -0.0376
          13    0.0000   -0.0000   -0.0324   -0.0001   -0.0102    0.0000   -0.0000    0.0000
          14    0.0000   -0.0000   -0.0370   -0.0000    0.1195    0.0000   -0.0000    0.0000
          15    0.0186   -0.0624    0.0000   -0.0099   -0.0000   -0.0219   -0.0004    0.0374
          16   -0.0516   -0.0109    0.0593   -0.0469    0.0158    0.0799    0.0628    0.0662
          17   -0.0686    0.0081    0.0788   -0.0624   -0.0117    0.1066   -0.0469   -0.0499
          18    0.1077    0.0000   -0.0072    0.0547   -0.0001   -0.0773   -0.0001    0.0000
          19    0.0516    0.0109    0.0588    0.0470    0.0156   -0.0799   -0.0628   -0.0662
          20    0.0686   -0.0081    0.0781    0.0626   -0.0117   -0.1066    0.0470    0.0499
          21    0.1077    0.0000    0.0066    0.0547   -0.0001   -0.0773   -0.0001    0.0000
          22    0.0474    0.0185    0.0605   -0.0397    0.0403    0.0698    0.0577    0.0930
          23   -0.0547   -0.0912   -0.0634    0.0814   -0.0530   -0.0049   -0.0987    0.0128
          24   -0.0923   -0.0821   -0.0052    0.0560   -0.0060   -0.0312   -0.0552   -0.0241
          25   -0.0474   -0.0185    0.0601    0.0399    0.0402   -0.0699   -0.0577   -0.0930
          26    0.0546    0.0912   -0.0627   -0.0816   -0.0526    0.0050    0.0986   -0.0128
          27   -0.0924   -0.0821    0.0047    0.0561    0.0058   -0.0312   -0.0553   -0.0241
          28   -0.0658    0.0928   -0.0778    0.0893    0.0618   -0.0244    0.1107    0.0129
          29    0.0305    0.0076    0.0406   -0.0155   -0.0240    0.0661   -0.0279   -0.0934
          30   -0.0924    0.0820   -0.0052    0.0560    0.0058   -0.0314    0.0551    0.0240
          31    0.0657   -0.0927   -0.0770   -0.0894    0.0618    0.0244   -0.1106   -0.0129
          32   -0.0304   -0.0075    0.0403    0.0157   -0.0240   -0.0661    0.0279    0.0934
          33   -0.0924    0.0821    0.0047    0.0561   -0.0059   -0.0314    0.0552    0.0240
          34    0.0000    0.0000   -0.0463   -0.0001   -0.1027    0.0000    0.0000    0.0000
          35    0.0000    0.0001    0.0276    0.0001   -0.0769    0.0000   -0.0000    0.0001
          36    0.0506    0.1579   -0.0006    0.1636   -0.0002    0.1492   -0.1333    0.1715
          37    0.0000   -0.0000    0.0395    0.0001    0.0453    0.0000    0.0000   -0.0001
          38    0.0000   -0.0001   -0.0369    0.0000    0.1199    0.0001    0.0000   -0.0001
          39    0.0506   -0.1579   -0.0007    0.1637   -0.0001    0.1488    0.1338   -0.1709


   Root No.       9        10        11        12        13        14        15        16

                 9 A      10 A      11 A      12 A      13 A      14 A      15 A      16 A   

                 996.7    1001.2    1004.0    1062.9    1096.9    1102.0    1116.4    1119.8
  
           1    0.0186    0.0001    0.0382    0.0000   -0.0084    0.0000   -0.0000    0.0265
           2   -0.0144    0.0000    0.0506    0.0000   -0.0110   -0.0000    0.0000   -0.0200
           3   -0.0001    0.0239   -0.0001   -0.0002    0.0000    0.0000    0.0562    0.0000
           4   -0.0202   -0.0001   -0.0333   -0.0000    0.0063   -0.0000    0.0000   -0.0245
           5    0.0316    0.0001   -0.0006    0.0000   -0.0167   -0.0000   -0.0000   -0.0005
           6    0.0001   -0.0319    0.0001    0.0019   -0.0000    0.0336   -0.0276   -0.0000
           7   -0.0360   -0.0001    0.0082    0.0000   -0.0176   -0.0000   -0.0000   -0.0065
           8    0.0110   -0.0000   -0.0320   -0.0000    0.0013    0.0000   -0.0000    0.0238
           9    0.0001   -0.0320    0.0001   -0.0017    0.0000   -0.0336   -0.0276    0.0000
          10   -0.0056    0.0000    0.0090   -0.0000    0.0169    0.0000    0.0000    0.0062
          11   -0.0206   -0.0000    0.0028   -0.0000    0.0198    0.0000    0.0000    0.0083
          12   -0.0001    0.0258   -0.0000   -0.0316   -0.0000   -0.0188   -0.0020    0.0000
          13    0.0182    0.0001    0.0005   -0.0000    0.0143    0.0000    0.0000   -0.0062
          14    0.0110    0.0001    0.0095   -0.0000    0.0217    0.0000    0.0000   -0.0080
          15   -0.0001    0.0261   -0.0001    0.0315   -0.0000    0.0188   -0.0019   -0.0000
          16    0.0861    0.0432    0.0410    0.0347   -0.0176   -0.2358    0.0635    0.1192
          17   -0.0656    0.0565    0.0534   -0.0266   -0.0230    0.1772    0.0843   -0.0897
          18    0.0001   -0.0328   -0.0045    0.0001    0.0089    0.0000   -0.0227    0.0000
          19    0.0865   -0.0425    0.0412   -0.0347   -0.0181    0.2360   -0.0636    0.1187
          20   -0.0653   -0.0567    0.0537    0.0267   -0.0227   -0.1775   -0.0842   -0.0895
          21    0.0001   -0.0328    0.0046    0.0001   -0.0089    0.0000   -0.0228   -0.0001
          22    0.0186    0.0513   -0.1109   -0.1407   -0.0634    0.0286   -0.1580   -0.0966
          23    0.0711    0.1262   -0.0669   -0.1092   -0.0897   -0.0509   -0.0443   -0.0703
          24    0.0057    0.0192   -0.0011    0.0042   -0.0092   -0.0087    0.0221   -0.0051
          25    0.0189   -0.0516   -0.1107    0.1407   -0.0632   -0.0290    0.1581   -0.0964
          26    0.0719   -0.1260   -0.0665    0.1093   -0.0897    0.0504    0.0443   -0.0703
          27   -0.0059    0.0193    0.0011    0.0042    0.0092   -0.0087    0.0221    0.0052
          28   -0.0634    0.1070   -0.0344    0.0655   -0.0687    0.0566    0.0015    0.0402
          29   -0.0370    0.0842   -0.1257    0.1660   -0.0861   -0.0138   -0.1632    0.1117
          30   -0.0058    0.0193   -0.0012   -0.0044   -0.0091    0.0086    0.0220    0.0050
          31   -0.0628   -0.1074   -0.0340   -0.0655   -0.0686   -0.0566   -0.0016    0.0402
          32   -0.0364   -0.0847   -0.1254   -0.1659   -0.0862    0.0139    0.1630    0.1119
          33    0.0058    0.0195    0.0012   -0.0043    0.0092    0.0087    0.0220   -0.0050
          34    0.0394    0.0002    0.0363    0.0000   -0.0339   -0.0001    0.0001   -0.0104
          35   -0.1683   -0.0007   -0.0927   -0.0000    0.1953    0.0004   -0.0002    0.0604
          36    0.0003   -0.0759    0.0001    0.0661   -0.0001    0.0347   -0.0041   -0.0000
          37    0.1744    0.0004   -0.0971   -0.0000    0.1970    0.0001   -0.0002   -0.0607
          38    0.0087    0.0000    0.0092   -0.0000    0.0216    0.0000    0.0000   -0.0065
          39    0.0002   -0.0770    0.0002   -0.0661   -0.0000   -0.0346   -0.0043    0.0000


   Root No.      17        18        19        20        21        22        23        24

                17 A      18 A      19 A      20 A      21 A      22 A      23 A      24 A   

                1129.4    1242.4    1285.0    1346.5    1367.2    1398.5    1416.5    1424.5
  
           1    0.0196    0.0081    0.0786   -0.0064   -0.0034   -0.0147   -0.0188   -0.0274
           2    0.0260   -0.0061   -0.0592   -0.0085    0.0026   -0.0195    0.0142   -0.0362
           3    0.0000   -0.0000    0.0000    0.0000    0.0000    0.0000   -0.0000   -0.0000
           4   -0.0299    0.0246   -0.0400    0.0449   -0.0355   -0.0027    0.0072    0.0207
           5    0.0299    0.0135   -0.0096    0.0397   -0.0221    0.0414   -0.0444   -0.0071
           6   -0.0000   -0.0000    0.0000   -0.0000    0.0000   -0.0000    0.0000    0.0000
           7    0.0370   -0.0062   -0.0019    0.0257    0.0112    0.0405    0.0448   -0.0123
           8   -0.0204   -0.0274    0.0411    0.0542    0.0401    0.0089    0.0053    0.0179
           9   -0.0000    0.0000   -0.0000   -0.0000   -0.0000   -0.0000   -0.0000    0.0000
          10   -0.0316   -0.0051    0.0153   -0.0165    0.0156   -0.0112    0.0055    0.0022
          11   -0.0263    0.0273    0.0126   -0.0209    0.0418   -0.0104    0.0347    0.0019
          12    0.0000   -0.0000   -0.0000    0.0000   -0.0000    0.0000   -0.0000   -0.0000
          13   -0.0166   -0.0275   -0.0079   -0.0157   -0.0358   -0.0069   -0.0318    0.0011
          14   -0.0377   -0.0026   -0.0182   -0.0217   -0.0265   -0.0136   -0.0150    0.0026
          15    0.0000    0.0000    0.0000    0.0000    0.0000    0.0000    0.0000   -0.0000
          16    0.0288   -0.0595   -0.1607   -0.0622    0.0265    0.0484    0.0564    0.1114
          17    0.0379    0.0448    0.1209   -0.0827   -0.0196    0.0643   -0.0430    0.1477
          18   -0.0100   -0.0000   -0.0001    0.0618   -0.0002   -0.0684    0.0004   -0.1508
          19    0.0287   -0.0595   -0.1606   -0.0622    0.0266    0.0484    0.0564    0.1114
          20    0.0378    0.0448    0.1209   -0.0827   -0.0197    0.0643   -0.0430    0.1477
          21    0.0099    0.0000    0.0000   -0.0619    0.0002    0.0684   -0.0004    0.1509
          22   -0.0262   -0.0651   -0.0268   -0.1119    0.1224    0.0488   -0.0480   -0.0720
          23    0.0742   -0.0789    0.0689   -0.0224   -0.0485   -0.1093    0.0884    0.0382
          24    0.0204   -0.0103    0.0349    0.0325   -0.0785   -0.0982    0.0898    0.0610
          25   -0.0260   -0.0651   -0.0269   -0.1119    0.1224    0.0488   -0.0480   -0.0720
          26    0.0742   -0.0789    0.0688   -0.0224   -0.0485   -0.1093    0.0884    0.0382
          27   -0.0204    0.0103   -0.0349   -0.0325    0.0785    0.0983   -0.0898   -0.0610
          28    0.0789    0.0576   -0.0736    0.0101    0.0808   -0.1184   -0.0988    0.0561
          29   -0.0039    0.0845    0.0066   -0.1139   -0.1037    0.0164    0.0219   -0.0583
          30    0.0204    0.0102   -0.0348    0.0329    0.0785   -0.0979   -0.0902    0.0604
          31    0.0790    0.0576   -0.0735    0.0100    0.0807   -0.1182   -0.0987    0.0560
          32   -0.0036    0.0846    0.0067   -0.1140   -0.1037    0.0165    0.0219   -0.0583
          33   -0.0205   -0.0103    0.0349   -0.0329   -0.0786    0.0981    0.0904   -0.0604
          34   -0.0918    0.0480    0.0127   -0.0096    0.0452   -0.0136    0.0332    0.0066
          35    0.1652   -0.1518    0.0220   -0.0490   -0.0562   -0.0084   -0.0578   -0.0093
          36   -0.0001    0.0001   -0.0000    0.0000    0.0000    0.0000    0.0000    0.0000
          37    0.1839    0.1589   -0.0176   -0.0440    0.0666   -0.0043    0.0647   -0.0104
          38   -0.0424   -0.0040   -0.0183   -0.0229   -0.0277   -0.0154   -0.0159    0.0037
          39   -0.0000   -0.0000    0.0000    0.0000    0.0000    0.0000   -0.0000    0.0000


   Root No.      25        26        27        28        29        30        31        32

                25 A      26 A      27 A      28 A      29 A      30 A      31 A      32 A   

                1827.5    2971.2    2976.6    2995.2    3055.7    3056.1    3072.5    3116.9
  
           1    0.0048    0.0000    0.0000   -0.0000   -0.0006   -0.0029    0.0206   -0.0001
           2    0.0064    0.0000    0.0000   -0.0000    0.0002   -0.0039    0.0274    0.0001
           3   -0.0000    0.0178    0.0000   -0.0341   -0.0000    0.0000   -0.0000   -0.0000
           4    0.0069   -0.0000    0.0000   -0.0000   -0.0138   -0.0115   -0.0020    0.0002
           5   -0.0177   -0.0000    0.0000   -0.0000    0.0174    0.0143    0.0033   -0.0001
           6    0.0000   -0.0220    0.0305   -0.0136   -0.0000   -0.0000   -0.0000   -0.0000
           7   -0.0189   -0.0000   -0.0000   -0.0000   -0.0188    0.0184    0.0037    0.0002
           8    0.0017   -0.0000   -0.0000   -0.0000    0.0078   -0.0077   -0.0010   -0.0002
           9    0.0000   -0.0219   -0.0305   -0.0136    0.0000   -0.0000   -0.0000   -0.0000
          10   -0.1693   -0.0000    0.0000   -0.0000    0.0007    0.0008    0.0006    0.0365
          11    0.1588   -0.0000    0.0000   -0.0000    0.0004    0.0006    0.0001    0.0108
          12   -0.0000   -0.0001   -0.0001   -0.0001   -0.0000   -0.0000   -0.0000   -0.0000
          13    0.1995    0.0000    0.0000    0.0000   -0.0002    0.0004   -0.0001   -0.0002
          14   -0.1186    0.0000    0.0000   -0.0000   -0.0007    0.0010    0.0006   -0.0380
          15    0.0000   -0.0001    0.0001   -0.0001    0.0000   -0.0000   -0.0000    0.0000
          16    0.0014   -0.0489   -0.0029    0.0965   -0.0002    0.0163   -0.1240   -0.0002
          17    0.0018   -0.0651    0.0020    0.1283    0.0018    0.0216   -0.1649    0.0001
          18    0.0054   -0.1070   -0.0002    0.2038    0.0020    0.0415   -0.3144    0.0000
          19    0.0014    0.0489    0.0029   -0.0965   -0.0002    0.0163   -0.1241   -0.0002
          20    0.0018    0.0650   -0.0020   -0.1283    0.0018    0.0216   -0.1650    0.0001
          21   -0.0054   -0.1070   -0.0002    0.2037   -0.0020   -0.0416    0.3145    0.0000
          22   -0.0182    0.0633   -0.0897    0.0424    0.0845    0.0679    0.0162   -0.0006
          23   -0.0294   -0.0803    0.1112   -0.0497   -0.1044   -0.0843   -0.0186    0.0031
          24   -0.0004    0.1323   -0.1835    0.0817    0.2053    0.1656    0.0375   -0.0039
          25   -0.0182   -0.0633    0.0897   -0.0424    0.0845    0.0679    0.0162   -0.0006
          26   -0.0294    0.0803   -0.1113    0.0498   -0.1045   -0.0844   -0.0186    0.0031
          27    0.0004    0.1323   -0.1834    0.0816   -0.2053   -0.1656   -0.0375    0.0039
          28   -0.0232   -0.0944   -0.1319   -0.0596    0.1135   -0.1090   -0.0224   -0.0031
          29   -0.0256    0.0385    0.0554    0.0269   -0.0479    0.0457    0.0105   -0.0003
          30   -0.0004    0.1320    0.1839    0.0818   -0.1885    0.1809    0.0375    0.0039
          31   -0.0232    0.0945    0.1321    0.0596    0.1138   -0.1092   -0.0225   -0.0031
          32   -0.0256   -0.0384   -0.0553   -0.0269   -0.0479    0.0457    0.0104   -0.0003
          33    0.0004    0.1318    0.1837    0.0817    0.1884   -0.1809   -0.0375   -0.0039
          34   -0.1391    0.0000   -0.0000    0.0000   -0.0050   -0.0133   -0.0119   -0.4328
          35   -0.0976    0.0000    0.0000   -0.0000   -0.0006   -0.0029   -0.0036   -0.1300
          36    0.0001   -0.0007    0.0003   -0.0005    0.0000    0.0000    0.0000    0.0001
          37   -0.0553   -0.0000   -0.0000   -0.0000   -0.0007    0.0010   -0.0001    0.0050
          38   -0.1607    0.0000    0.0000   -0.0000    0.0037   -0.0139   -0.0124    0.4511
          39    0.0001   -0.0007   -0.0003   -0.0005   -0.0000    0.0000    0.0000   -0.0002


   Root No.      33

                33 A   

                3136.0
  
           1    0.0011
           2    0.0014
           3   -0.0000
           4   -0.0012
           5    0.0019
           6   -0.0000
           7    0.0021
           8   -0.0007
           9   -0.0000
          10   -0.0393
          11   -0.0064
          12    0.0000
          13    0.0048
          14   -0.0396
          15    0.0000
          16   -0.0032
          17   -0.0042
          18   -0.0082
          19   -0.0032
          20   -0.0042
          21    0.0082
          22    0.0044
          23   -0.0072
          24    0.0124
          25    0.0044
          26   -0.0073
          27   -0.0124
          28   -0.0082
          29    0.0022
          30    0.0124
          31   -0.0082
          32    0.0022
          33   -0.0124
          34    0.3999
          35    0.1176
          36   -0.0001
          37    0.0021
          38    0.4175
          39   -0.0002


           MASS-WEIGHTED COORDINATE ANALYSIS (NORMAL COORDINATES)


   Root No.       1         2         3         4         5         6         7         8

                 1 A       2 A       3 A       4 A       5 A       6 A       7 A       8 A   

                 113.1     360.1     690.4     713.7     772.8     803.9     849.8     978.2
  
           1    0.0000   -0.0000    0.2960    0.0008    0.2125   -0.0001   -0.0001   -0.0000
           2    0.0000    0.0000    0.3937    0.0009   -0.1595   -0.0001    0.0001    0.0001
           3    0.3621    0.0001    0.0002   -0.0733    0.0001    0.2659    0.0005   -0.0002
           4    0.0000   -0.0000    0.3781    0.0010   -0.0016   -0.0002    0.0001    0.0000
           5   -0.0001   -0.0000   -0.2766   -0.0009   -0.3278    0.0001    0.0002   -0.0000
           6   -0.3218   -0.1350    0.0003   -0.1371    0.0003    0.0633    0.3137    0.1276
           7   -0.0001    0.0001   -0.3711   -0.0008    0.3141    0.0002   -0.0003   -0.0000
           8   -0.0000    0.0000    0.2864    0.0008    0.0927   -0.0002   -0.0001   -0.0001
           9   -0.3219    0.1348    0.0005   -0.1371   -0.0001    0.0645   -0.3135   -0.1262
          10    0.0000    0.0000   -0.1529   -0.0007   -0.5469    0.0001    0.0002   -0.0000
          11    0.0000    0.0002   -0.2394   -0.0007   -0.1085    0.0001    0.0000   -0.0001
          12    0.1598    0.4674    0.0003   -0.0971    0.0001   -0.2039    0.0030   -0.3366
          13    0.0001   -0.0001   -0.1875   -0.0006   -0.0476    0.0001   -0.0000    0.0000
          14    0.0001   -0.0002   -0.2138   -0.0003    0.5553    0.0000   -0.0003    0.0001
          15    0.1601   -0.4673    0.0002   -0.0970   -0.0001   -0.2040   -0.0037    0.3351
          16   -0.1287   -0.0236    0.0993   -0.1326    0.0213    0.2152    0.1680    0.1720
          17   -0.1712    0.0177    0.1321   -0.1764   -0.0157    0.2871   -0.1255   -0.1296
          18    0.2685    0.0001   -0.0121    0.1547   -0.0001   -0.2083   -0.0003    0.0001
          19    0.1287    0.0236    0.0985    0.1331    0.0209   -0.2153   -0.1680   -0.1720
          20    0.1711   -0.0177    0.1309    0.1771   -0.0158   -0.2871    0.1256    0.1296
          21    0.2686    0.0001    0.0110    0.1547   -0.0001   -0.2083   -0.0004    0.0001
          22    0.1183    0.0401    0.1014   -0.1124    0.0543    0.1880    0.1543    0.2414
          23   -0.1364   -0.1980   -0.1063    0.2302   -0.0713   -0.0133   -0.2638    0.0332
          24   -0.2303   -0.1781   -0.0087    0.1585   -0.0080   -0.0839   -0.1477   -0.0626
          25   -0.1183   -0.0401    0.1007    0.1130    0.0541   -0.1882   -0.1543   -0.2414
          26    0.1363    0.1979   -0.1051   -0.2307   -0.0709    0.0134    0.2638   -0.0333
          27   -0.2304   -0.1782    0.0079    0.1587    0.0078   -0.0839   -0.1479   -0.0626
          28   -0.1640    0.2014   -0.1304    0.2526    0.0832   -0.0658    0.2960    0.0335
          29    0.0760    0.0165    0.0680   -0.0440   -0.0323    0.1780   -0.0746   -0.2425
          30   -0.2304    0.1780   -0.0087    0.1585    0.0079   -0.0845    0.1473    0.0623
          31    0.1638   -0.2011   -0.1290   -0.2529    0.0832    0.0658   -0.2958   -0.0335
          32   -0.0759   -0.0164    0.0675    0.0444   -0.0323   -0.1781    0.0747    0.2424
          33   -0.2305    0.1782    0.0078    0.1588   -0.0079   -0.0845    0.1476    0.0623
          34    0.0000    0.0000   -0.0776   -0.0003   -0.1383    0.0001    0.0000    0.0000
          35    0.0000    0.0001    0.0463    0.0002   -0.1035    0.0001   -0.0000    0.0002
          36    0.1261    0.3428   -0.0010    0.4628   -0.0003    0.4017   -0.3564    0.4454
          37    0.0001   -0.0001    0.0662    0.0003    0.0609    0.0000    0.0001   -0.0002
          38    0.0001   -0.0001   -0.0619    0.0001    0.1615    0.0002    0.0001   -0.0002
          39    0.1262   -0.3427   -0.0011    0.4630   -0.0001    0.4009    0.3578   -0.4437


   Root No.       9        10        11        12        13        14        15        16

                 9 A      10 A      11 A      12 A      13 A      14 A      15 A      16 A   

                 996.7    1001.2    1004.0    1062.9    1096.9    1102.0    1116.4    1119.8
  
           1    0.1621    0.0011    0.3178    0.0001   -0.0738    0.0002   -0.0002    0.2454
           2   -0.1259    0.0003    0.4207    0.0000   -0.0967   -0.0002    0.0002   -0.1852
           3   -0.0007    0.2153   -0.0005   -0.0018    0.0001    0.0000    0.4473    0.0003
           4   -0.1760   -0.0011   -0.2773   -0.0001    0.0550   -0.0001    0.0003   -0.2273
           5    0.2756    0.0008   -0.0049    0.0001   -0.1462   -0.0001   -0.0002   -0.0050
           6    0.0009   -0.2875    0.0005    0.0165   -0.0002    0.2438   -0.2196   -0.0003
           7   -0.3141   -0.0010    0.0685    0.0000   -0.1546   -0.0002   -0.0002   -0.0601
           8    0.0955   -0.0003   -0.2665   -0.0000    0.0112    0.0001   -0.0001    0.2201
           9    0.0009   -0.2885    0.0005   -0.0143    0.0003   -0.2439   -0.2193    0.0001
          10   -0.0488    0.0000    0.0745   -0.0000    0.1479    0.0002    0.0001    0.0573
          11   -0.1793   -0.0004    0.0236   -0.0002    0.1740    0.0002    0.0001    0.0774
          12   -0.0007    0.2323   -0.0003   -0.2695   -0.0000   -0.1369   -0.0162    0.0001
          13    0.1589    0.0005    0.0041   -0.0000    0.1257    0.0001    0.0001   -0.0574
          14    0.0958    0.0005    0.0792   -0.0000    0.1905    0.0002    0.0002   -0.0744
          15   -0.0008    0.2351   -0.0005    0.2690   -0.0002    0.1368   -0.0151   -0.0001
          16    0.2177    0.1126    0.0987    0.0858   -0.0447   -0.4962    0.1462    0.3199
          17   -0.1657    0.1474    0.1286   -0.0659   -0.0585    0.3730    0.1942   -0.2409
          18    0.0004   -0.0855   -0.0108    0.0003    0.0226    0.0001   -0.0524    0.0001
          19    0.2186   -0.1109    0.0992   -0.0858   -0.0459    0.4966   -0.1466    0.3188
          20   -0.1649   -0.1479    0.1294    0.0660   -0.0578   -0.3735   -0.1940   -0.2404
          21    0.0002   -0.0855    0.0112    0.0004   -0.0227    0.0001   -0.0524   -0.0001
          22    0.0470    0.1339   -0.2672   -0.3479   -0.1609    0.0602   -0.3641   -0.2594
          23    0.1796    0.3291   -0.1613   -0.2699   -0.2278   -0.1071   -0.1021   -0.1887
          24    0.0144    0.0502   -0.0027    0.0105   -0.0233   -0.0183    0.0510   -0.0137
          25    0.0477   -0.1346   -0.2668    0.3480   -0.1604   -0.0611    0.3645   -0.2588
          26    0.1816   -0.3286   -0.1602    0.2702   -0.2278    0.1062    0.1022   -0.1887
          27   -0.0149    0.0503    0.0026    0.0103    0.0235   -0.0182    0.0510    0.0138
          28   -0.1603    0.2791   -0.0830    0.1621   -0.1743    0.1191    0.0034    0.1078
          29   -0.0934    0.2195   -0.3028    0.4104   -0.2185   -0.0290   -0.3761    0.3000
          30   -0.0146    0.0503   -0.0029   -0.0109   -0.0232    0.0182    0.0508    0.0134
          31   -0.1588   -0.2801   -0.0820   -0.1619   -0.1742   -0.1191   -0.0037    0.1080
          32   -0.0920   -0.2210   -0.3023   -0.4102   -0.2188    0.0292    0.3756    0.3005
          33    0.0146    0.0508    0.0029   -0.0106    0.0234    0.0184    0.0508   -0.0135
          34    0.0996    0.0005    0.0874    0.0001   -0.0860   -0.0001    0.0002   -0.0278
          35   -0.4253   -0.0018   -0.2235   -0.0001    0.4960    0.0008   -0.0005    0.1622
          36    0.0008   -0.1980    0.0003    0.1635   -0.0002    0.0730   -0.0095   -0.0001
          37    0.4409    0.0009   -0.2341   -0.0001    0.5003    0.0003   -0.0003   -0.1631
          38    0.0220    0.0000    0.0223   -0.0001    0.0549    0.0000    0.0001   -0.0176
          39    0.0005   -0.2008    0.0004   -0.1634   -0.0001   -0.0729   -0.0100    0.0001


   Root No.      17        18        19        20        21        22        23        24

                17 A      18 A      19 A      20 A      21 A      22 A      23 A      24 A   

                1129.4    1242.4    1285.0    1346.5    1367.2    1398.5    1416.5    1424.5
  
           1    0.1523    0.0742    0.5186   -0.0498   -0.0264   -0.1220   -0.1541   -0.2159
           2    0.2017   -0.0556   -0.3902   -0.0663    0.0200   -0.1624    0.1170   -0.2859
           3    0.0003   -0.0000    0.0000    0.0000    0.0000    0.0000   -0.0000   -0.0000
           4   -0.2320    0.2249   -0.2637    0.3511   -0.2775   -0.0224    0.0592    0.1630
           5    0.2315    0.1235   -0.0632    0.3107   -0.1723    0.3446   -0.3648   -0.0558
           6   -0.0002   -0.0000    0.0001   -0.0001    0.0001   -0.0001    0.0001    0.0000
           7    0.2871   -0.0568   -0.0124    0.2011    0.0872    0.3368    0.3682   -0.0969
           8   -0.1582   -0.2511    0.2710    0.4244    0.3128    0.0744    0.0439    0.1409
           9   -0.0002    0.0001   -0.0001   -0.0001   -0.0001   -0.0002   -0.0002    0.0000
          10   -0.2450   -0.0463    0.1011   -0.1291    0.1216   -0.0930    0.0455    0.0173
          11   -0.2036    0.2495    0.0832   -0.1635    0.3264   -0.0867    0.2851    0.0152
          12    0.0001   -0.0001   -0.0000    0.0001   -0.0001    0.0000   -0.0001   -0.0000
          13   -0.1286   -0.2521   -0.0519   -0.1227   -0.2793   -0.0575   -0.2616    0.0085
          14   -0.2922   -0.0241   -0.1203   -0.1702   -0.2066   -0.1134   -0.1232    0.0203
          15    0.0001    0.0000    0.0000    0.0001    0.0001    0.0001    0.0001   -0.0000
          16    0.0647   -0.1577   -0.3070   -0.1411    0.0600    0.1165    0.1342    0.2547
          17    0.0852    0.1187    0.2310   -0.1875   -0.0444    0.1550   -0.1024    0.3377
          18   -0.0224   -0.0000   -0.0001    0.1402   -0.0004   -0.1649    0.0009   -0.3448
          19    0.0644   -0.1577   -0.3069   -0.1410    0.0601    0.1165    0.1342    0.2547
          20    0.0849    0.1188    0.2310   -0.1876   -0.0445    0.1550   -0.1024    0.3376
          21    0.0223    0.0000    0.0001   -0.1403    0.0004    0.1649   -0.0009    0.3448
          22   -0.0589   -0.1726   -0.0512   -0.2537    0.2769    0.1177   -0.1143   -0.1646
          23    0.1667   -0.2092    0.1316   -0.0508   -0.1097   -0.2635    0.2104    0.0874
          24    0.0458   -0.0273    0.0666    0.0737   -0.1775   -0.2366    0.2137    0.1395
          25   -0.0584   -0.1725   -0.0513   -0.2537    0.2769    0.1177   -0.1143   -0.1646
          26    0.1667   -0.2091    0.1315   -0.0509   -0.1096   -0.2634    0.2103    0.0873
          27   -0.0458    0.0274   -0.0667   -0.0737    0.1776    0.2368   -0.2138   -0.1395
          28    0.1774    0.1527   -0.1405    0.0228    0.1828   -0.2852   -0.2352    0.1282
          29   -0.0088    0.2240    0.0126   -0.2583   -0.2345    0.0396    0.0521   -0.1332
          30    0.0458    0.0270   -0.0665    0.0747    0.1777   -0.2359   -0.2147    0.1380
          31    0.1775    0.1528   -0.1405    0.0227    0.1826   -0.2849   -0.2349    0.1281
          32   -0.0082    0.2242    0.0128   -0.2585   -0.2346    0.0396    0.0521   -0.1333
          33   -0.0460   -0.0272    0.0667   -0.0746   -0.1778    0.2363    0.2150   -0.1382
          34   -0.2061    0.1273    0.0242   -0.0218    0.1022   -0.0328    0.0789    0.0150
          35    0.3712   -0.4025    0.0420   -0.1111   -0.1271   -0.0202   -0.1375   -0.0212
          36   -0.0001    0.0001   -0.0000    0.0000    0.0000    0.0000    0.0000    0.0000
          37    0.4132    0.4212   -0.0337   -0.0997    0.1505   -0.0104    0.1540   -0.0237
          38   -0.0952   -0.0105   -0.0350   -0.0520   -0.0626   -0.0371   -0.0378    0.0084
          39   -0.0001   -0.0001    0.0000    0.0000    0.0000    0.0000   -0.0000    0.0000


   Root No.      25        26        27        28        29        30        31        32

                25 A      26 A      27 A      28 A      29 A      30 A      31 A      32 A   

                1827.5    2971.2    2976.6    2995.2    3055.7    3056.1    3072.5    3116.9
  
           1    0.0142    0.0000    0.0000   -0.0000   -0.0046   -0.0233    0.1286   -0.0004
           2    0.0189    0.0000    0.0000   -0.0000    0.0014   -0.0314    0.1710    0.0003
           3   -0.0000    0.1523    0.0002   -0.2652   -0.0000    0.0000   -0.0000   -0.0000
           4    0.0204   -0.0000    0.0000   -0.0000   -0.0990   -0.0919   -0.0125    0.0012
           5   -0.0523   -0.0000    0.0000   -0.0000    0.1244    0.1142    0.0205   -0.0005
           6    0.0000   -0.1878    0.2151   -0.1058   -0.0000   -0.0000   -0.0000   -0.0000
           7   -0.0559   -0.0001   -0.0001   -0.0000   -0.1347    0.1474    0.0232    0.0008
           8    0.0051   -0.0000   -0.0001   -0.0000    0.0555   -0.0616   -0.0064   -0.0010
           9    0.0000   -0.1873   -0.2155   -0.1059    0.0000   -0.0000   -0.0000   -0.0000
          10   -0.5019   -0.0000    0.0000   -0.0000    0.0052    0.0066    0.0040    0.1894
          11    0.4707   -0.0000    0.0000   -0.0000    0.0030    0.0048    0.0007    0.0559
          12   -0.0001   -0.0010   -0.0007   -0.0010   -0.0000   -0.0000   -0.0000   -0.0000
          13    0.5915    0.0000    0.0000    0.0000   -0.0012    0.0029   -0.0004   -0.0013
          14   -0.3516    0.0000    0.0000   -0.0000   -0.0052    0.0082    0.0040   -0.1972
          15    0.0001   -0.0010    0.0007   -0.0010    0.0000   -0.0000   -0.0000    0.0001
          16    0.0012   -0.1212   -0.0060    0.2176   -0.0004    0.0378   -0.2243   -0.0003
          17    0.0015   -0.1612    0.0041    0.2894    0.0037    0.0500   -0.2982    0.0002
          18    0.0047   -0.2651   -0.0004    0.4597    0.0041    0.0963   -0.5687    0.0000
          19    0.0012    0.1212    0.0060   -0.2176   -0.0004    0.0378   -0.2244   -0.0003
          20    0.0016    0.1612   -0.0041   -0.2893    0.0037    0.0501   -0.2984    0.0002
          21   -0.0047   -0.2650   -0.0004    0.4594   -0.0041   -0.0963    0.5688    0.0000
          22   -0.0156    0.1568   -0.1835    0.0956    0.1751    0.1573    0.0294   -0.0009
          23   -0.0252   -0.1989    0.2275   -0.1122   -0.2165   -0.1954   -0.0337    0.0046
          24   -0.0003    0.3279   -0.3755    0.1842    0.4256    0.3839    0.0678   -0.0058
          25   -0.0156   -0.1568    0.1834   -0.0955    0.1751    0.1573    0.0294   -0.0009
          26   -0.0252    0.1990   -0.2277    0.1122   -0.2167   -0.1957   -0.0337    0.0046
          27    0.0003    0.3277   -0.3753    0.1841   -0.4255   -0.3839   -0.0678    0.0058
          28   -0.0199   -0.2339   -0.2699   -0.1343    0.2353   -0.2526   -0.0405   -0.0047
          29   -0.0220    0.0953    0.1134    0.0608   -0.0994    0.1059    0.0189   -0.0004
          30   -0.0003    0.3271    0.3763    0.1844   -0.3907    0.4194    0.0679    0.0058
          31   -0.0199    0.2342    0.2702    0.1345    0.2359   -0.2532   -0.0407   -0.0047
          32   -0.0220   -0.0951   -0.1132   -0.0607   -0.0993    0.1058    0.0189   -0.0004
          33    0.0004    0.3267    0.3758    0.1842    0.3906   -0.4193   -0.0679   -0.0058
          34   -0.1195    0.0000   -0.0000    0.0000   -0.0103   -0.0308   -0.0215   -0.6507
          35   -0.0838    0.0000    0.0000   -0.0000   -0.0012   -0.0067   -0.0065   -0.1955
          36    0.0000   -0.0017    0.0007   -0.0012    0.0000    0.0000    0.0000    0.0001
          37   -0.0475   -0.0000   -0.0000   -0.0000   -0.0015    0.0023   -0.0003    0.0074
          38   -0.1380    0.0000    0.0000   -0.0000    0.0076   -0.0322   -0.0225    0.6783
          39    0.0001   -0.0017   -0.0007   -0.0012   -0.0000    0.0000    0.0000   -0.0003


   Root No.      33

                33 A   

                3136.0
  
           1    0.0060
           2    0.0080
           3   -0.0000
           4   -0.0069
           5    0.0103
           6   -0.0000
           7    0.0118
           8   -0.0038
           9   -0.0000
          10   -0.2182
          11   -0.0352
          12    0.0000
          13    0.0267
          14   -0.2197
          15    0.0001
          16   -0.0051
          17   -0.0068
          18   -0.0132
          19   -0.0051
          20   -0.0068
          21    0.0132
          22    0.0070
          23   -0.0116
          24    0.0199
          25    0.0070
          26   -0.0117
          27   -0.0199
          28   -0.0132
          29    0.0035
          30    0.0200
          31   -0.0132
          32    0.0035
          33   -0.0200
          34    0.6427
          35    0.1889
          36   -0.0001
          37    0.0033
          38    0.6710
          39   -0.0003


          DESCRIPTION OF VIBRATIONS


 VIBRATION          1    1A           ATOM PAIR      ENERGY CONTRIBUTION    RADIAL
 FREQUENCY           113.07         C  1 -- C  3         +16.5% (494.6%)      0.0%
 TRANSITION DIPOLE   0.0436         C  1 -- C  2         +16.5% (494.6%)      0.0%
 TRAVEL (Ang.)       0.0000         C  1 -- H  7         +10.4% (391.7%)     76.1%
 REDUCED MASS        0.5381         C  1 -- H  6         +10.4% (391.7%)     76.1%
 EFFECTIVE MASS    243.2926
 FORCE CONSTANT      0.0041

 VIBRATION          2    2A           ATOM PAIR      ENERGY CONTRIBUTION    RADIAL
 FREQUENCY           360.10         C  4 -- C  5         +23.6% (127.4%)      0.0%
 TRANSITION DIPOLE   0.0000         C  2 -- C  4         +12.6% ( 93.1%)      0.0%
 TRAVEL (Ang.)       0.3945         C  3 -- C  5         +12.6% ( 93.0%)      0.0%
 REDUCED MASS        1.2032         C  2 -- H  9          +9.2% ( 79.8%)     12.6%
 EFFECTIVE MASS     17.3626
 FORCE CONSTANT      0.0919

 VIBRATION          3    3A           ATOM PAIR      ENERGY CONTRIBUTION    RADIAL
 FREQUENCY           690.44         C  1 -- C  3         +14.6% (104.7%)      1.5%
 TRANSITION DIPOLE   0.0363         C  1 -- C  2         +14.6% (104.6%)      1.5%
 TRAVEL (Ang.)       0.2196         C  3 -- C  5          +9.7% ( 85.5%)      3.6%
 REDUCED MASS        2.0257         C  2 -- C  4          +9.7% ( 85.5%)      3.6%
 EFFECTIVE MASS     16.4006
 FORCE CONSTANT      0.5690

 VIBRATION          4    4A           ATOM PAIR      ENERGY CONTRIBUTION    RADIAL
 FREQUENCY           713.74         C  5 -- H 13         +13.9% ( 55.4%)      0.0%
 TRANSITION DIPOLE   0.4449         C  4 -- H 12         +13.9% ( 55.4%)      0.0%
 TRAVEL (Ang.)       0.8000         C  2 -- H  8         +11.6% ( 50.5%)      4.7%
 REDUCED MASS        0.1476         C  3 -- H 10         +11.6% ( 50.5%)      4.8%
 EFFECTIVE MASS      1.7801         C  3 -- H 11         +11.6% ( 50.5%)      4.9%
 FORCE CONSTANT      0.0443         C  2 -- H  9         +11.6% ( 50.5%)      4.9%

 VIBRATION          5    5A           ATOM PAIR      ENERGY CONTRIBUTION    RADIAL
 FREQUENCY           772.84         C  4 -- C  5         +21.1% (118.8%)      0.0%
 TRANSITION DIPOLE   0.0006         C  2 -- C  4         +16.3% (104.3%)      1.5%
 TRAVEL (Ang.)       0.1812         C  3 -- C  5         +16.3% (104.3%)      1.5%
 REDUCED MASS        2.6583         C  4 -- H 12         +10.2% ( 82.6%)     92.7%
 EFFECTIVE MASS     16.3796         C  5 -- H 13         +10.2% ( 82.6%)     92.7%
 FORCE CONSTANT      0.9355

 VIBRATION          6    6A           ATOM PAIR      ENERGY CONTRIBUTION    RADIAL
 FREQUENCY           803.91         C  1 -- H  6         +21.8% ( 68.1%)      7.4%
 TRANSITION DIPOLE   0.3053         C  1 -- H  7         +21.8% ( 68.1%)      7.4%
 TRAVEL (Ang.)       0.6155         C  4 -- H 12         +11.6% ( 49.5%)      0.0%
 REDUCED MASS        0.2214         C  5 -- H 13         +11.5% ( 49.5%)      0.0%
 EFFECTIVE MASS      2.7469
 FORCE CONSTANT      0.0843

 VIBRATION          7    7A           ATOM PAIR      ENERGY CONTRIBUTION    RADIAL
 FREQUENCY           849.77         C  2 -- H  9         +14.3% ( 57.3%)     11.4%
 TRANSITION DIPOLE   0.0005         C  2 -- H  8         +14.3% ( 57.3%)     11.4%
 TRAVEL (Ang.)       0.4961         C  3 -- H 10         +14.3% ( 57.2%)     11.4%
 REDUCED MASS        0.3224         C  3 -- H 11         +14.3% ( 57.2%)     11.4%
 EFFECTIVE MASS      3.8650
 FORCE CONSTANT      0.1372

 VIBRATION          8    8A           ATOM PAIR      ENERGY CONTRIBUTION    RADIAL
 FREQUENCY           978.18         C  4 -- H 12         +19.5% ( 50.7%)      0.0%
 TRANSITION DIPOLE   0.0009         C  5 -- H 13         +19.3% ( 50.5%)      0.0%
 TRAVEL (Ang.)       0.4094         C  4 -- C  5          +8.6% ( 33.7%)      0.0%
 REDUCED MASS        0.4113         C  3 -- H 10          +7.5% ( 31.4%)      6.0%
 EFFECTIVE MASS      3.4087
 FORCE CONSTANT      0.2319

 VIBRATION          9    9A           ATOM PAIR      ENERGY CONTRIBUTION    RADIAL
 FREQUENCY           996.71         C  3 -- C  5         +10.9% ( 49.6%)     73.4%
 TRANSITION DIPOLE   0.1481         C  2 -- C  4         +10.8% ( 49.5%)     74.1%
 TRAVEL (Ang.)       0.4024         C  5 -- H 13         +10.2% ( 48.1%)      6.2%
 REDUCED MASS        0.4179         C  1 -- C  3         +10.1% ( 47.8%)     43.1%
 EFFECTIVE MASS      6.1363         C  4 -- H 12         +10.0% ( 47.7%)      6.5%
 FORCE CONSTANT      0.2446

 VIBRATION         10   10A           ATOM PAIR      ENERGY CONTRIBUTION    RADIAL
 FREQUENCY          1001.17         C  3 -- H 11         +11.8% ( 46.4%)     11.6%
 TRANSITION DIPOLE   0.2633         C  3 -- H 10         +11.8% ( 46.3%)     11.5%
 TRAVEL (Ang.)       0.4474         C  2 -- H  9         +11.7% ( 46.3%)     11.5%
 REDUCED MASS        0.3364         C  2 -- H  8         +11.7% ( 46.3%)     11.6%
 EFFECTIVE MASS      4.6562
 FORCE CONSTANT      0.1987

 VIBRATION         11   11A           ATOM PAIR      ENERGY CONTRIBUTION    RADIAL
 FREQUENCY          1004.01         C  1 -- C  2         +20.3% ( 72.7%)     66.2%
 TRANSITION DIPOLE   0.0324         C  1 -- C  3         +20.2% ( 72.5%)     65.4%
 TRAVEL (Ang.)       0.2454         C  1 -- H  6         +11.2% ( 54.0%)     39.2%
 REDUCED MASS        1.1152         C  1 -- H  7         +11.2% ( 53.9%)     39.6%
 EFFECTIVE MASS      7.5972
 FORCE CONSTANT      0.6623

 VIBRATION         12   12A           ATOM PAIR      ENERGY CONTRIBUTION    RADIAL
 FREQUENCY          1062.86         C  3 -- H 10         +19.0% ( 44.4%)      0.0%
 TRANSITION DIPOLE   0.0001         C  3 -- H 11         +19.0% ( 44.3%)      0.0%
 TRAVEL (Ang.)       0.4757         C  2 -- H  9         +19.0% ( 44.3%)      0.0%
 REDUCED MASS        0.2804         C  2 -- H  8         +18.9% ( 44.3%)      0.0%
 EFFECTIVE MASS      2.1213
 FORCE CONSTANT      0.1866

 VIBRATION         13   13A           ATOM PAIR      ENERGY CONTRIBUTION    RADIAL
 FREQUENCY          1096.94         C  4 -- H 12         +19.7% ( 50.8%)     11.3%
 TRANSITION DIPOLE   0.0173         C  5 -- H 13         +19.7% ( 50.8%)     11.3%
 TRAVEL (Ang.)       0.5101         C  2 -- C  4          +8.8% ( 33.9%)    100.0%
 REDUCED MASS        0.2363         C  3 -- C  5          +8.7% ( 33.9%)     99.9%
 EFFECTIVE MASS      3.3854
 FORCE CONSTANT      0.1675

 VIBRATION         14   14A           ATOM PAIR      ENERGY CONTRIBUTION    RADIAL
 FREQUENCY          1102.02         C  1 -- H  7         +29.9% ( 61.9%)      0.0%
 TRANSITION DIPOLE   0.0002         C  1 -- H  6         +29.8% ( 61.8%)      0.0%
 TRAVEL (Ang.)       0.3939         C  3 -- C  5          +5.4% ( 26.4%)      0.0%
 REDUCED MASS        0.3943         C  2 -- C  4          +5.4% ( 26.4%)      0.0%
 EFFECTIVE MASS      2.6767
 FORCE CONSTANT      0.2821

 VIBRATION         15   15A           ATOM PAIR      ENERGY CONTRIBUTION    RADIAL
 FREQUENCY          1116.43         C  1 -- C  2         +15.1% ( 51.1%)      0.0%
 TRANSITION DIPOLE   0.0091         C  1 -- C  3         +15.1% ( 51.0%)      0.0%
 TRAVEL (Ang.)       0.3100         C  1 -- H  7         +12.1% ( 45.8%)     20.5%
 REDUCED MASS        0.6287         C  1 -- H  6         +12.1% ( 45.8%)     20.5%
 EFFECTIVE MASS      4.4724         C  2 -- H  9         +10.2% ( 42.0%)      7.4%
 FORCE CONSTANT      0.4617         C  2 -- H  8         +10.2% ( 42.0%)      7.4%
                            C  3 -- H 10         +10.1% ( 41.8%)      7.5%
                            C  3 -- H 11         +10.1% ( 41.7%)      7.5%

 VIBRATION         16   16A           ATOM PAIR      ENERGY CONTRIBUTION    RADIAL
 FREQUENCY          1119.76         C  1 -- H  6         +13.1% ( 41.3%)      0.0%
 TRANSITION DIPOLE   0.0708         C  1 -- H  7         +13.0% ( 41.2%)      0.0%
 TRAVEL (Ang.)       0.4729         C  1 -- C  3         +12.5% ( 40.3%)     87.3%
 REDUCED MASS        0.2693         C  1 -- C  2         +12.4% ( 40.2%)     87.3%
 EFFECTIVE MASS      3.8050
 FORCE CONSTANT      0.1990

 VIBRATION         17   17A           ATOM PAIR      ENERGY CONTRIBUTION    RADIAL
 FREQUENCY          1129.36         C  4 -- H 12         +12.2% ( 51.9%)     11.9%
 TRANSITION DIPOLE   0.0011         C  5 -- H 13         +12.2% ( 51.8%)     11.9%
 TRAVEL (Ang.)       0.3043         C  3 -- C  5         +12.0% ( 51.4%)     94.8%
 REDUCED MASS        0.6450         C  2 -- C  4         +12.0% ( 51.3%)     94.7%
 EFFECTIVE MASS      7.6154         C  4 -- C  5         +10.4% ( 47.9%)    100.0%
 FORCE CONSTANT      0.4847

 VIBRATION         18   18A           ATOM PAIR      ENERGY CONTRIBUTION    RADIAL
 FREQUENCY          1242.42         C  4 -- H 12         +17.7% ( 49.8%)      0.1%
 TRANSITION DIPOLE   0.0023         C  5 -- H 13         +17.6% ( 49.7%)      0.1%
 TRAVEL (Ang.)       0.4297         C  3 -- H 11          +8.8% ( 35.3%)      0.1%
 REDUCED MASS        0.2940         C  3 -- H 10          +8.8% ( 35.2%)      0.1%
 EFFECTIVE MASS      2.8685
 FORCE CONSTANT      0.2674

 VIBRATION         19   19A           ATOM PAIR      ENERGY CONTRIBUTION    RADIAL
 FREQUENCY          1284.96         C  1 -- H  6         +21.4% ( 67.0%)      0.0%
 TRANSITION DIPOLE   0.0341         C  1 -- H  7         +21.4% ( 67.0%)      0.0%
 TRAVEL (Ang.)       0.1506         C  1 -- C  3         +17.8% ( 61.1%)     85.2%
 REDUCED MASS        2.3148         C  1 -- C  2         +17.8% ( 61.1%)     85.1%
 EFFECTIVE MASS      7.3303
 FORCE CONSTANT      2.2519

 VIBRATION         20   20A           ATOM PAIR      ENERGY CONTRIBUTION    RADIAL
 FREQUENCY          1346.55         C  3 -- C  5         +12.3% ( 47.3%)     74.5%
 TRANSITION DIPOLE   0.0082         C  2 -- C  4         +12.3% ( 47.2%)     74.4%
 TRAVEL (Ang.)       0.2007         C  3 -- H 11         +11.9% ( 46.4%)      0.0%
 REDUCED MASS        1.2437         C  3 -- H 10         +11.9% ( 46.4%)      0.0%
 EFFECTIVE MASS      6.5091         C  2 -- H  8         +11.9% ( 46.4%)      0.0%
 FORCE CONSTANT      1.3286         C  2 -- H  9         +11.9% ( 46.4%)      0.0%

 VIBRATION         21   21A           ATOM PAIR      ENERGY CONTRIBUTION    RADIAL
 FREQUENCY          1367.19         C  2 -- C  4         +13.3% ( 45.4%)     83.9%
 TRANSITION DIPOLE   0.0427         C  3 -- C  5         +13.2% ( 45.2%)     83.9%
 TRAVEL (Ang.)       0.2690         C  4 -- C  5         +11.9% ( 43.0%)      0.0%
 REDUCED MASS        0.6815         C  2 -- H  8         +10.1% ( 39.6%)      0.4%
 EFFECTIVE MASS      5.7812         C  2 -- H  9         +10.1% ( 39.6%)      0.4%
 FORCE CONSTANT      0.7506         C  3 -- H 11         +10.0% ( 39.4%)      0.4%
                            C  3 -- H 10         +10.0% ( 39.4%)      0.4%

 VIBRATION         22   22A           ATOM PAIR      ENERGY CONTRIBUTION    RADIAL
 FREQUENCY          1398.50         C  2 -- H  8         +13.2% ( 42.6%)      4.9%
 TRANSITION DIPOLE   0.0469         C  2 -- H  9         +13.2% ( 42.6%)      4.9%
 TRAVEL (Ang.)       0.3260         C  3 -- H 10         +13.1% ( 42.6%)      4.9%
 REDUCED MASS        0.4537         C  3 -- H 11         +13.1% ( 42.6%)      4.9%
 EFFECTIVE MASS      4.2611
 FORCE CONSTANT      0.5228

 VIBRATION         23   23A           ATOM PAIR      ENERGY CONTRIBUTION    RADIAL
 FREQUENCY          1416.46         C  3 -- C  5         +12.6% ( 46.1%)     92.2%
 TRANSITION DIPOLE   0.0312         C  2 -- C  4         +12.5% ( 45.9%)     92.2%
 TRAVEL (Ang.)       0.2643         C  3 -- H 10          +9.9% ( 40.8%)      6.6%
 REDUCED MASS        0.6815         C  3 -- H 11          +9.9% ( 40.8%)      6.6%
 EFFECTIVE MASS      6.0372
 FORCE CONSTANT      0.8056

 VIBRATION         24   24A           ATOM PAIR      ENERGY CONTRIBUTION    RADIAL
 FREQUENCY          1424.54         C  1 -- H  7         +27.2% ( 53.9%)      5.3%
 TRANSITION DIPOLE   0.0413         C  1 -- H  6         +27.2% ( 53.9%)      5.3%
 TRAVEL (Ang.)       0.3402         C  1 -- C  2         +10.6% ( 33.8%)     73.1%
 REDUCED MASS        0.4090         C  1 -- C  3         +10.6% ( 33.7%)     72.4%
 EFFECTIVE MASS      2.8540
 FORCE CONSTANT      0.4890

 VIBRATION         25   25A           ATOM PAIR      ENERGY CONTRIBUTION    RADIAL
 FREQUENCY          1827.51         C  4 -- C  5         +45.9% (100.1%)    100.0%
 TRANSITION DIPOLE   0.0569         C  3 -- C  5         +13.9% ( 55.1%)     25.1%
 TRAVEL (Ang.)       0.0828         C  2 -- C  4         +13.9% ( 55.1%)     25.1%
 REDUCED MASS        5.3865         C  5 -- H 13         +13.0% ( 53.2%)      9.8%
 EFFECTIVE MASS     11.8703         C  4 -- H 12         +13.0% ( 53.2%)      9.8%
 FORCE CONSTANT     10.5994

 VIBRATION         26   26A           ATOM PAIR      ENERGY CONTRIBUTION    RADIAL
 FREQUENCY          2971.21         C  2 -- H  8         +18.4% ( 44.7%)     96.5%
 TRANSITION DIPOLE   0.0157         C  2 -- H  9         +18.4% ( 44.7%)     96.5%
 TRAVEL (Ang.)       0.3560         C  3 -- H 10         +18.3% ( 44.6%)     96.5%
 REDUCED MASS        0.1791         C  3 -- H 11         +18.3% ( 44.6%)     96.5%
 EFFECTIVE MASS      1.5572         C  1 -- H  6         +12.1% ( 36.2%)     96.1%
 FORCE CONSTANT      0.9314         C  1 -- H  7         +12.0% ( 36.2%)     96.1%

 VIBRATION         27   27A           ATOM PAIR      ENERGY CONTRIBUTION    RADIAL
 FREQUENCY          2976.63         C  3 -- H 10         +24.5% ( 51.4%)     96.6%
 TRANSITION DIPOLE   0.0000         C  3 -- H 11         +24.5% ( 51.3%)     96.6%
 TRAVEL (Ang.)       0.2957         C  2 -- H  8         +24.4% ( 51.3%)     96.6%
 REDUCED MASS        0.2590         C  2 -- H  9         +24.4% ( 51.3%)     96.6%
 EFFECTIVE MASS      1.5390
 FORCE CONSTANT      1.3521

 VIBRATION         28   28A           ATOM PAIR      ENERGY CONTRIBUTION    RADIAL
 FREQUENCY          2995.22         C  1 -- H  6         +37.1% ( 63.0%)     96.6%
 TRANSITION DIPOLE   0.0366         C  1 -- H  7         +37.0% ( 62.9%)     96.6%
 TRAVEL (Ang.)       0.2690         C  3 -- H 10          +6.0% ( 25.2%)     97.0%
 REDUCED MASS        0.3111         C  3 -- H 11          +6.0% ( 25.2%)     97.0%
 EFFECTIVE MASS      1.5269
 FORCE CONSTANT      1.6443

 VIBRATION         29   29A           ATOM PAIR      ENERGY CONTRIBUTION    RADIAL
 FREQUENCY          3055.74         C  2 -- H  9         +26.8% ( 51.0%)     97.6%
 TRANSITION DIPOLE   0.0960         C  2 -- H  8         +26.8% ( 51.0%)     97.6%
 TRAVEL (Ang.)       0.3009         C  3 -- H 11         +22.6% ( 46.8%)     97.6%
 REDUCED MASS        0.2437         C  3 -- H 10         +22.5% ( 46.8%)     97.6%
 EFFECTIVE MASS      1.2753
 FORCE CONSTANT      1.3407

 VIBRATION         30   30A           ATOM PAIR      ENERGY CONTRIBUTION    RADIAL
 FREQUENCY          3056.14         C  3 -- H 11         +26.0% ( 50.3%)     97.5%
 TRANSITION DIPOLE   0.0437         C  3 -- H 10         +26.0% ( 50.3%)     97.5%
 TRAVEL (Ang.)       0.3097         C  2 -- H  9         +21.8% ( 46.1%)     97.5%
 REDUCED MASS        0.2300         C  2 -- H  8         +21.8% ( 46.1%)     97.5%
 EFFECTIVE MASS      1.2916
 FORCE CONSTANT      1.2658

 VIBRATION         31   31A           ATOM PAIR      ENERGY CONTRIBUTION    RADIAL
 FREQUENCY          3072.45         C  1 -- H  7         +47.9% ( 68.2%)     97.7%
 TRANSITION DIPOLE   0.0606         C  1 -- H  6         +47.9% ( 68.2%)     97.7%
 TRAVEL (Ang.)       0.2191         C  3 -- H 11          +0.7% (  8.1%)     97.9%
 REDUCED MASS        0.4571         C  3 -- H 10          +0.7% (  8.1%)     97.9%
 EFFECTIVE MASS      1.2796
 FORCE CONSTANT      2.5424

 VIBRATION         32   32A           ATOM PAIR      ENERGY CONTRIBUTION    RADIAL
 FREQUENCY          3116.87         C  4 -- H 12         +48.8% ( 70.9%)    100.0%
 TRANSITION DIPOLE   0.3744         C  5 -- H 13         +48.6% ( 70.8%)    100.0%
 TRAVEL (Ang.)       0.2158         C  4 -- C  5          +1.1% ( 10.7%)      0.0%
 REDUCED MASS        0.4647         C  2 -- C  4          +0.7% (  8.6%)     27.6%
 EFFECTIVE MASS      1.4624
 FORCE CONSTANT      2.6600

 VIBRATION         33   33A           ATOM PAIR      ENERGY CONTRIBUTION    RADIAL
 FREQUENCY          3135.97         C  5 -- H 13         +47.7% ( 70.4%)     99.9%
 TRANSITION DIPOLE   0.3346         C  4 -- H 12         +47.6% ( 70.3%)     99.9%
 TRAVEL (Ang.)       0.2151         C  4 -- C  5          +2.5% ( 16.0%)    100.0%
 REDUCED MASS        0.4647         C  3 -- C  5          +0.9% (  9.9%)     20.8%
 EFFECTIVE MASS      1.6520
 FORCE CONSTANT      2.6927

      SYMMETRY NUMBER FOR POINT-GROUP C1  =  1


          SYSTEM IS A GROUND STATE



 InChI=1S/C5H8/c1-2-4-5-3-1/h1-2H,3-5H2


          MOLECULE IS NOT LINEAR

          THERE ARE 33 GENUINE VIBRATIONS IN THIS SYSTEM
          THIS THERMODYNAMICS CALCULATION IS LIMITED TO
          MOLECULES WHICH HAVE NO INTERNAL ROTATIONS




                    CALCULATED THERMODYNAMIC PROPERTIES
                                          *
   TEMP. (K)   PARTITION FUNCTION   H.O.F.    ENTHALPY  HEAT CAPACITY ENTROPY
                                   KCAL/MOL   CAL/MOLE    CAL/K/MOL  CAL/K/MOL


 298.00  VIB.     0.3535D+01                  1176.2137    11.1445     6.4561
         ROT.     0.5991D+05                   888.2803     2.9808    24.8414
         INT.     0.2118D+06                  2064.4940    14.1253    31.2974
         TRA.     0.5435D+27                  1480.4672     4.9680    38.5714
         TOT.                        2.957    3544.9612    19.0933    69.8688

 200.00  VIB.     0.1997D+01                   405.2999     4.9876     3.4007
         ROT.     0.3294D+05                   596.1613     2.9808    23.6527
         INT.     0.6578D+05                  1001.4612     7.9684    27.0534
         TRA.     0.2988D+27                   993.6021     4.9680    36.5902
         TOT.                        1.407    1995.0633    12.9364    63.6436

 210.00  VIB.     0.2103D+01                   457.6478     5.4882     3.6560
         ROT.     0.3544D+05                   625.9693     2.9808    23.7981
         INT.     0.7452D+05                  1083.6171     8.4691    27.4542
         TRA.     0.3215D+27                  1043.2822     4.9680    36.8326
         TOT.                        1.539    2126.8993    13.4371    64.2868

 220.00  VIB.     0.2217D+01                   515.1869     6.0255     3.9236
         ROT.     0.3800D+05                   655.7774     2.9808    23.9368
         INT.     0.8424D+05                  1170.9643     9.0063    27.8604
         TRA.     0.3448D+27                  1092.9623     4.9680    37.0637
         TOT.                        1.676    2263.9267    13.9743    64.9241

 230.00  VIB.     0.2340D+01                   578.2716     6.5969     4.2039
         ROT.     0.4063D+05                   685.5855     2.9808    24.0693
         INT.     0.9508D+05                  1263.8570     9.5777    28.2732
         TRA.     0.3685D+27                  1142.6424     4.9680    37.2846
         TOT.                        1.818    2406.4995    14.5457    65.5578

 240.00  VIB.     0.2475D+01                   647.2295     7.1996     4.4973
         ROT.     0.4330D+05                   715.3935     2.9808    24.1962
         INT.     0.1072D+06                  1362.6230    10.1804    28.6935
         TRA.     0.3928D+27                  1192.3226     4.9680    37.4960
         TOT.                        1.967    2554.9455    15.1484    66.1895

 250.00  VIB.     0.2621D+01                   722.3580     7.8305     4.8039
         ROT.     0.4604D+05                   745.2016     2.9808    24.3179
         INT.     0.1206D+06                  1467.5596    10.8113    29.1218
         TRA.     0.4176D+27                  1242.0027     4.9680    37.6988
         TOT.                        2.121    2709.5622    15.7793    66.8206

 260.00  VIB.     0.2780D+01                   803.9220     8.4862     5.1237
         ROT.     0.4883D+05                   775.0097     2.9808    24.4348
         INT.     0.1357D+06                  1578.9316    11.4670    29.5585
         TRA.     0.4430D+27                  1291.6828     4.9680    37.8937
         TOT.                        2.282    2870.6144    16.4350    67.4521

 270.00  VIB.     0.2954D+01                   892.1525     9.1632     5.4566
         ROT.     0.5167D+05                   804.8177     2.9808    24.5473
         INT.     0.1526D+06                  1696.9702    12.1440    30.0039
         TRA.     0.4687D+27                  1341.3629     4.9680    38.0812
         TOT.                        2.450    3038.3331    17.1120    68.0850

 280.00  VIB.     0.3144D+01                   987.2465     9.8583     5.8024
         ROT.     0.5457D+05                   834.6258     2.9808    24.6557
         INT.     0.1716D+06                  1821.8723    12.8391    30.4581
         TRA.     0.4950D+27                  1391.0430     4.9680    38.2618
         TOT.                        2.625    3212.9153    17.8071    68.7199

 290.00  VIB.     0.3353D+01                  1089.3678    10.5681     6.1607
         ROT.     0.5752D+05                   864.4339     2.9808    24.7603
         INT.     0.1929D+06                  1953.8017    13.5489    30.9209
         TRA.     0.5218D+27                  1440.7231     4.9680    38.4362
         TOT.                        2.806    3394.5248    18.5169    69.3571

 300.00  VIB.     0.3582D+01                  1198.6476    11.2895     6.5311
         ROT.     0.6052D+05                   894.2419     2.9808    24.8613
         INT.     0.2168D+06                  2092.8896    14.2703    31.3924
         TRA.     0.5490D+27                  1490.4032     4.9680    38.6046
         TOT.                        2.995    3583.2928    19.2383    69.9970

 310.00  VIB.     0.3834D+01                  1315.1868    12.0195     6.9132
         ROT.     0.6357D+05                   924.0500     2.9808    24.9591
         INT.     0.2437D+06                  2239.2368    15.0003    31.8722
         TRA.     0.5767D+27                  1540.0833     4.9680    38.7675
         TOT.                        3.191    3779.3201    19.9683    70.6397

 320.00  VIB.     0.4111D+01                  1439.0573    12.7553     7.3064
         ROT.     0.6667D+05                   953.8580     2.9808    25.0537
         INT.     0.2741D+06                  2392.9153    15.7362    32.3601
         TRA.     0.6048D+27                  1589.7634     4.9680    38.9252
         TOT.                        3.395    3982.6787    20.7042    71.2853

 330.00  VIB.     0.4416D+01                  1570.3047    13.4945     7.7102
         ROT.     0.6982D+05                   983.6661     2.9808    25.1454
         INT.     0.3084D+06                  2553.9708    16.4753    32.8556
         TRA.     0.6334D+27                  1639.4435     4.9680    39.0781
         TOT.                        3.605    4193.4144    21.4433    71.9337

 340.00  VIB.     0.4753D+01                  1708.9505    14.2347     8.1240
         ROT.     0.7302D+05                  1013.4742     2.9808    25.2344
         INT.     0.3471D+06                  2722.4247    17.2155    33.3584
         TRA.     0.6624D+27                  1689.1236     4.9680    39.2264
         TOT.                        3.823    4411.5483    22.1835    72.5848

 350.00  VIB.     0.5125D+01                  1854.9942    14.9737     8.5473
         ROT.     0.7626D+05                  1043.2822     2.9808    25.3208
         INT.     0.3908D+06                  2898.2765    17.9546    33.8681
         TRA.     0.6918D+27                  1738.8037     4.9680    39.3704
         TOT.                        4.049    4637.0802    22.9226    73.2385

 360.00  VIB.     0.5536D+01                  2008.4158    15.7099     8.9795
         ROT.     0.7955D+05                  1073.0903     2.9808    25.4048
         INT.     0.4404D+06                  3081.5061    18.6907    34.3842
         TRA.     0.7217D+27                  1788.4838     4.9680    39.5104
         TOT.                        4.282    4869.9899    23.6588    73.8946

 370.00  VIB.     0.5990D+01                  2169.1778    16.4416     9.4199
         ROT.     0.8289D+05                  1102.8984     2.9808    25.4865
         INT.     0.4965D+06                  3272.0762    19.4224    34.9063
         TRA.     0.7520D+27                  1838.1639     4.9680    39.6465
         TOT.                        4.522    5110.2401    24.3904    74.5528

 380.00  VIB.     0.6493D+01                  2337.2280    17.1673     9.8680
         ROT.     0.8627D+05                  1132.7064     2.9808    25.5659
         INT.     0.5601D+06                  3469.9344    20.1481    35.4340
         TRA.     0.7827D+27                  1887.8440     4.9680    39.7790
         TOT.                        4.770    5357.7785    25.1162    75.2129

 390.00  VIB.     0.7050D+01                  2512.5007    17.8859    10.3232
         ROT.     0.8970D+05                  1162.5145     2.9808    25.6434
         INT.     0.6324D+06                  3675.0152    20.8667    35.9666
         TRA.     0.8138D+27                  1937.5242     4.9680    39.9080
         TOT.                        5.024    5612.5393    25.8347    75.8746

 400.00  VIB.     0.7667D+01                  2694.9191    18.5963    10.7851
         ROT.     0.9317D+05                  1192.3226     2.9808    25.7188
         INT.     0.7144D+06                  3887.2417    21.5771    36.5039
         TRA.     0.8452D+27                  1987.2043     4.9680    40.0338
         TOT.                        5.286    5874.4459    26.5452    76.5377

   *: NOTE: HEATS OF FORMATION ARE RELATIVE TO THE
            ELEMENTS IN THEIR STANDARD STATE AT 298K
              (=  Standard Enthalpy of Formation).

            Hvib:  Zero-point energy is not included.
                   frequencies of less than zero cm-1 are not included.
            Hrot = (3/2)RT
            Htra = (3/2)RT + pV = (5/2)RT

            Heat capacity is Cp, not Cv

          For more information, see: HTTP://OpenMOPAC.net/Manual/thermochemistry.html


           FORCE CONSTANT IN CARTESIAN COORDINATES (Millidynes/A)

    ATOM   CHEMICAL       X               Y               Z
   NUMBER   SYMBOL  FORCE CONSTANT  FORCE CONSTANT  FORCE CONSTANT

      1       C        7.787562        8.394327        8.367754
      2       C        7.851322        9.319475        8.069690
      3       C        9.629906        7.540451        8.069687
      4       C       14.601717       10.472519        2.319989
      5       C       11.907411       13.168664        2.319922
      6       H        1.251237        1.662322        3.587146
      7       H        1.251481        1.662531        3.586808
      8       H        1.288874        1.546103        3.555488
      9       H        1.288817        1.547709        3.553921
     10       H        1.914057        0.918939        3.556846
     11       H        1.918885        0.918508        3.552709
     12       H        4.985202        1.089287        0.348194
     13       H        0.711432        5.362585        0.348208

 **********************
 *                    *
 * JOB ENDED NORMALLY *
 *                    *
 **********************



 TOTAL JOB TIME:             0.55 SECONDS

 == MOPAC DONE ==
