 *******************************************************************************
 **                                                                           **
 **                              MOPAC v23.1.2                                **
 **                                                                           **
 *******************************************************************************
 **          Digital Object Identifier (DOI): 10.5281/zenodo.6511958          **
 **    Visit the DOI location for information on how to cite this program.    **
 *******************************************************************************

                              PM3 CALCULATION RESULTS

 *******************************************************************************
 *  CALCULATION DONE: (MAX THREADS = 1)              Tue Jun  3 16:27:37 2025  *
 *  PM3        - The PM3 Hamiltonian to be used
 *  PRECISE    - TIGHTER CRITERIA TO BE USED
 *  NOSYM      - POINT-GROUP SYMMETRY SET TO C1
 *  THREADS=1  - MULTI-THREADING NOT USED
 *  T=         - A TIME OF 172800.0 SECONDS REQUESTED
 *  DUMP=N     - RESTART FILE WRITTEN EVERY 7200.0 SECONDS REQUESTED
 *******************************************************************************
pm3  precise nosym THREADS=1
 InChI=1S/C10H10/c1-8-6-7-9-4-2-3-5-10(8)9/h2-8H,1H3

   ATOM   CHEMICAL          X               Y               Z
  NUMBER   SYMBOL      (ANGSTROMS)     (ANGSTROMS)     (ANGSTROMS)

     1       C         -1.35060000  *  -0.28540000  *  -0.66690000  *
     2       C         -2.25980000  *  -0.98650000  *   0.34220000  *
     3       C          0.08010000  *  -0.30260000  *  -0.23410000  *
     4       C          0.53180000  *   0.98210000  *  -0.05210000  *
     5       C         -1.61590000  *   1.20020000  *  -0.69920000  *
     6       C          0.92670000  *  -1.39730000  *  -0.04360000  *
     7       C         -0.54340000  *   1.90560000  *  -0.34710000  *
     8       C          1.84250000  *   1.25050000  *   0.34040000  *
     9       C          2.25260000  *  -1.15590000  *   0.35490000  *
    10       C          2.70870000  *   0.16400000  *   0.54760000  *
    11       H         -1.46210000  *  -0.72460000  *  -1.68150000  *
    12       H         -2.01560000  *  -2.06910000  *   0.38360000  *
    13       H         -3.32070000  *  -0.87880000  *   0.03150000  *
    14       H         -2.13570000  *  -0.55000000  *   1.35730000  *
    15       H         -2.56070000  *   1.64790000  *  -0.97880000  *
    16       H          0.57140000  *  -2.40760000  *  -0.19870000  *
    17       H          3.73180000  *   0.34150000  *   0.85260000  *
    18       H          2.18530000  *   2.26770000  *   0.47890000  *
    19       H         -0.49340000  *   2.98540000  *  -0.29930000  *
    20       H          2.92720000  *  -1.98730000  *   0.51220000  *



          CARTESIAN COORDINATES 

    NO.       ATOM           X           Y           Z

     1         C         -1.3506     -0.2854     -0.6669
     2         C         -2.2598     -0.9865      0.3422
     3         C          0.0801     -0.3026     -0.2341
     4         C          0.5318      0.9821     -0.0521
     5         C         -1.6159      1.2002     -0.6992
     6         C          0.9267     -1.3973     -0.0436
     7         C         -0.5434      1.9056     -0.3471
     8         C          1.8425      1.2505      0.3404
     9         C          2.2526     -1.1559      0.3549
    10         C          2.7087      0.1640      0.5476
    11         H         -1.4621     -0.7246     -1.6815
    12         H         -2.0156     -2.0691      0.3836
    13         H         -3.3207     -0.8788      0.0315
    14         H         -2.1357     -0.5500      1.3573
    15         H         -2.5607      1.6479     -0.9788
    16         H          0.5714     -2.4076     -0.1987
    17         H          3.7318      0.3415      0.8526
    18         H          2.1853      2.2677      0.4789
    19         H         -0.4934      2.9854     -0.2993
    20         H          2.9272     -1.9873      0.5122

  H: (PM3): J. J. P. STEWART, J. COMP. CHEM. 10, 209 (1989).
  C: (PM3): J. J. P. STEWART, J. COMP. CHEM. 10, 209 (1989).

           Empirical Formula: C10 H10  =    20 atoms



      MOLECULAR POINT GROUP   :   C1  


      RHF CALCULATION, NO. OF DOUBLY OCCUPIED LEVELS = 25


          Geometry optimization using EF

          DIAGONAL MATRIX USED AS START HESSIAN

 CYCLE:     1 TIME:   0.008 TIME LEFT:  2.00D  GRAD.:   114.830 HEAT:  39.19173
 CYCLE:     2 TIME:   0.016 TIME LEFT:  2.00D  GRAD.:    49.347 HEAT:  36.98335
 CYCLE:     3 TIME:   0.012 TIME LEFT:  2.00D  GRAD.:    28.526 HEAT:  36.48095
 CYCLE:     4 TIME:   0.008 TIME LEFT:  2.00D  GRAD.:    35.028 HEAT:  36.36438
 CYCLE:     5 TIME:   0.008 TIME LEFT:  2.00D  GRAD.:    24.110 HEAT:  36.14444
 CYCLE:     6 TIME:   0.008 TIME LEFT:  2.00D  GRAD.:    15.944 HEAT:  36.00556
 CYCLE:     7 TIME:   0.008 TIME LEFT:  2.00D  GRAD.:    19.926 HEAT:  35.99500
 CYCLE:     8 TIME:   0.008 TIME LEFT:  2.00D  GRAD.:    11.934 HEAT:  35.89325
 CYCLE:     9 TIME:   0.012 TIME LEFT:  2.00D  GRAD.:    12.644 HEAT:  35.87458
 CYCLE:    10 TIME:   0.008 TIME LEFT:  2.00D  GRAD.:    11.538 HEAT:  35.84710
 CYCLE:    11 TIME:   0.008 TIME LEFT:  2.00D  GRAD.:    12.847 HEAT:  35.84240
 CYCLE:    12 TIME:   0.008 TIME LEFT:  2.00D  GRAD.:     9.128 HEAT:  35.81832
 CYCLE:    13 TIME:   0.008 TIME LEFT:  2.00D  GRAD.:     8.467 HEAT:  35.80993
 CYCLE:    14 TIME:   0.008 TIME LEFT:  2.00D  GRAD.:     6.173 HEAT:  35.79555
 CYCLE:    15 TIME:   0.012 TIME LEFT:  2.00D  GRAD.:     3.888 HEAT:  35.78708
 CYCLE:    16 TIME:   0.008 TIME LEFT:  2.00D  GRAD.:     5.236 HEAT:  35.78608
 CYCLE:    17 TIME:   0.004 TIME LEFT:  2.00D  GRAD.:     3.803 HEAT:  35.77972
 CYCLE:    18 TIME:   0.008 TIME LEFT:  2.00D  GRAD.:     4.334 HEAT:  35.77716
 CYCLE:    19 TIME:   0.008 TIME LEFT:  2.00D  GRAD.:     3.045 HEAT:  35.76984
 CYCLE:    20 TIME:   0.008 TIME LEFT:  2.00D  GRAD.:     5.539 HEAT:  35.76760
 CYCLE:    21 TIME:   0.004 TIME LEFT:  2.00D  GRAD.:     4.275 HEAT:  35.76392
 CYCLE:    22 TIME:   0.008 TIME LEFT:  2.00D  GRAD.:     3.879 HEAT:  35.75689
 CYCLE:    23 TIME:   0.008 TIME LEFT:  2.00D  GRAD.:     2.115 HEAT:  35.75157
 CYCLE:    24 TIME:   0.004 TIME LEFT:  2.00D  GRAD.:     2.929 HEAT:  35.74698
 CYCLE:    25 TIME:   0.012 TIME LEFT:  2.00D  GRAD.:     2.725 HEAT:  35.74126
 CYCLE:    26 TIME:   0.008 TIME LEFT:  2.00D  GRAD.:     1.768 HEAT:  35.73527
 CYCLE:    27 TIME:   0.008 TIME LEFT:  2.00D  GRAD.:     2.675 HEAT:  35.73347
 CYCLE:    28 TIME:   0.008 TIME LEFT:  2.00D  GRAD.:     1.552 HEAT:  35.72944
 CYCLE:    29 TIME:   0.008 TIME LEFT:  2.00D  GRAD.:     2.486 HEAT:  35.72723
 CYCLE:    30 TIME:   0.004 TIME LEFT:  2.00D  GRAD.:     1.912 HEAT:  35.72360
 CYCLE:    31 TIME:   0.008 TIME LEFT:  2.00D  GRAD.:     1.487 HEAT:  35.72061
 CYCLE:    32 TIME:   0.008 TIME LEFT:  2.00D  GRAD.:     1.105 HEAT:  35.71791
 CYCLE:    33 TIME:   0.004 TIME LEFT:  2.00D  GRAD.:     1.258 HEAT:  35.71613
 CYCLE:    34 TIME:   0.008 TIME LEFT:  2.00D  GRAD.:     0.906 HEAT:  35.71452
 CYCLE:    35 TIME:   0.008 TIME LEFT:  2.00D  GRAD.:     0.665 HEAT:  35.71325
 CYCLE:    36 TIME:   0.004 TIME LEFT:  2.00D  GRAD.:     0.490 HEAT:  35.71268
 CYCLE:    37 TIME:   0.008 TIME LEFT:  2.00D  GRAD.:     0.507 HEAT:  35.71225
 CYCLE:    38 TIME:   0.008 TIME LEFT:  2.00D  GRAD.:     0.438 HEAT:  35.71178
 CYCLE:    39 TIME:   0.008 TIME LEFT:  2.00D  GRAD.:     0.297 HEAT:  35.71145
 CYCLE:    40 TIME:   0.004 TIME LEFT:  2.00D  GRAD.:     0.227 HEAT:  35.71128
 CYCLE:    41 TIME:   0.008 TIME LEFT:  2.00D  GRAD.:     0.217 HEAT:  35.71117
 CYCLE:    42 TIME:   0.008 TIME LEFT:  2.00D  GRAD.:     0.168 HEAT:  35.71110
 CYCLE:    43 TIME:   0.004 TIME LEFT:  2.00D  GRAD.:     0.142 HEAT:  35.71105
 CYCLE:    44 TIME:   0.008 TIME LEFT:  2.00D  GRAD.:     0.187 HEAT:  35.71099
 CYCLE:    45 TIME:   0.008 TIME LEFT:  2.00D  GRAD.:     0.172 HEAT:  35.71093
 CYCLE:    46 TIME:   0.004 TIME LEFT:  2.00D  GRAD.:     0.195 HEAT:  35.71079
 CYCLE:    47 TIME:   0.008 TIME LEFT:  2.00D  GRAD.:     0.221 HEAT:  35.71069
 CYCLE:    48 TIME:   0.008 TIME LEFT:  2.00D  GRAD.:     0.192 HEAT:  35.71057
 CYCLE:    49 TIME:   0.008 TIME LEFT:  2.00D  GRAD.:     0.225 HEAT:  35.71035
 CYCLE:    50 TIME:   0.008 TIME LEFT:  2.00D  GRAD.:     0.213 HEAT:  35.71027
 CYCLE:    51 TIME:   0.008 TIME LEFT:  2.00D  GRAD.:     0.176 HEAT:  35.71020
 CYCLE:    52 TIME:   0.004 TIME LEFT:  2.00D  GRAD.:     0.193 HEAT:  35.71010
 CYCLE:    53 TIME:   0.008 TIME LEFT:  2.00D  GRAD.:     0.146 HEAT:  35.71005
 CYCLE:    54 TIME:   0.008 TIME LEFT:  2.00D  GRAD.:     0.111 HEAT:  35.70999
 CYCLE:    55 TIME:   0.008 TIME LEFT:  2.00D  GRAD.:     0.113 HEAT:  35.70995
 CYCLE:    56 TIME:   0.004 TIME LEFT:  2.00D  GRAD.:     0.096 HEAT:  35.70992
 CYCLE:    57 TIME:   0.008 TIME LEFT:  2.00D  GRAD.:     0.076 HEAT:  35.70989
 CYCLE:    58 TIME:   0.008 TIME LEFT:  2.00D  GRAD.:     0.064 HEAT:  35.70988
 CYCLE:    59 TIME:   0.004 TIME LEFT:  2.00D  GRAD.:     0.241 HEAT:  35.70992
 CYCLE:    60 TIME:   0.008 TIME LEFT:  2.00D  GRAD.:     0.079 HEAT:  35.70985
 CYCLE:    61 TIME:   0.008 TIME LEFT:  2.00D  GRAD.:     0.065 HEAT:  35.70984
 CYCLE:    62 TIME:   0.004 TIME LEFT:  2.00D  GRAD.:     0.078 HEAT:  35.70979
 CYCLE:    63 TIME:   0.008 TIME LEFT:  2.00D  GRAD.:     0.057 HEAT:  35.70978
 CYCLE:    64 TIME:   0.004 TIME LEFT:  2.00D  GRAD.:     0.095 HEAT:  35.70977
 CYCLE:    65 TIME:   0.008 TIME LEFT:  2.00D  GRAD.:     0.057 HEAT:  35.70976
 CYCLE:    66 TIME:   0.008 TIME LEFT:  2.00D  GRAD.:     0.054 HEAT:  35.70975
 CYCLE:    67 TIME:   0.008 TIME LEFT:  2.00D  GRAD.:     0.036 HEAT:  35.70974

     GRADIENT =  0.03567 IS LESS THAN CUTOFF =  0.05000



 -------------------------------------------------------------------------------
 pm3  precise nosym THREADS=1
 InChI=1S/C10H10/c1-8-6-7-9-4-2-3-5-10(8)9/h2-8H,1H3



     GEOMETRY OPTIMISED USING EIGENVECTOR FOLLOWING (EF).     
     SCF FIELD WAS ACHIEVED                                   


                              PM3 CALCULATION
                                                       MOPAC v23.1.2 MacOS
                                                       Tue Jun  3 16:27:38 2025




          FINAL HEAT OF FORMATION =         35.70974 KCAL/MOL =     149.40954 KJ/MOL


          COSMO AREA              =        172.12 SQUARE ANGSTROMS
          COSMO VOLUME            =        173.63 CUBIC ANGSTROMS

          GRADIENT NORM           =          0.03567          =       0.00798 PER ATOM
          IONIZATION POTENTIAL    =          8.975751 EV
          HOMO LUMO ENERGIES (EV) =         -8.976 -0.077
          NO. OF FILLED LEVELS    =         25
          MOLECULAR WEIGHT        =        130.1890         POINT GROUP:  C1  

          MOLECULAR DIMENSIONS (Angstroms)

            Atom       Atom       Distance
            H    17    H    13     7.23599
            H    19    H    20     5.53573
            H    11    H    14     3.07062


          SCF CALCULATIONS        =         74

          WALL-CLOCK TIME         =      0.512 SECONDS
          COMPUTATION TIME        =      0.310 SECONDS




   ATOM   CHEMICAL          X               Y               Z
  NUMBER   SYMBOL      (ANGSTROMS)     (ANGSTROMS)     (ANGSTROMS)

     1       C         -1.35813325  *  -0.27296777  *  -0.64623179  *
     2       C         -2.27800756  *  -1.01380673  *   0.30061300  *
     3       C          0.08898657  *  -0.31727829  *  -0.22265921  *
     4       C          0.56012715  *   1.00557065  *  -0.05969260  *
     5       C         -1.64014000  *   1.21532077  *  -0.67267112  *
     6       C          0.92514430  *  -1.39670752  *  -0.00892327  *
     7       C         -0.54171228  *   1.92685468  *  -0.34624334  *
     8       C          1.87082582  *   1.25217063  *   0.31339591  *
     9       C          2.24606700  *  -1.14411158  *   0.36924007  *
    10       C          2.71075528  *   0.15780011  *   0.52640529  *
    11       H         -1.45693312  *  -0.68469136  *  -1.67862946  *
    12       H         -2.01844447  *  -2.07965728  *   0.34535354  *
    13       H         -3.32342352  *  -0.93465065  *  -0.02360292  *
    14       H         -2.21676201  *  -0.61601214  *   1.32161444  *
    15       H         -2.62524328  *   1.60143404  *  -0.92836193  *
    16       H          0.55998804  *  -2.42141908  *  -0.13012204  *
    17       H          3.75113445  *   0.32807029  *   0.82238230  *
    18       H          2.23573040  *   2.27607119  *   0.43770208  *
    19       H         -0.44202911  *   3.00964284  *  -0.29107333  *
    20       H          2.92477433  *  -1.98536725  *   0.54410554  *

                             CARTESIAN COORDINATES

   1    C       -1.358133249    -0.272967769    -0.646231785
   2    C       -2.278007562    -1.013806734     0.300612997
   3    C        0.088986569    -0.317278291    -0.222659214
   4    C        0.560127149     1.005570651    -0.059692600
   5    C       -1.640139997     1.215320770    -0.672671120
   6    C        0.925144303    -1.396707517    -0.008923269
   7    C       -0.541712278     1.926854680    -0.346243341
   8    C        1.870825822     1.252170626     0.313395907
   9    C        2.246067000    -1.144111581     0.369240075
  10    C        2.710755279     0.157800111     0.526405289
  11    H       -1.456933121    -0.684691363    -1.678629463
  12    H       -2.018444474    -2.079657283     0.345353544
  13    H       -3.323423520    -0.934650650    -0.023602924
  14    H       -2.216762013    -0.616012142     1.321614439
  15    H       -2.625243278     1.601434039    -0.928361930
  16    H        0.559988039    -2.421419080    -0.130122042
  17    H        3.751134447     0.328070293     0.822382297
  18    H        2.235730403     2.276071191     0.437702077
  19    H       -0.442029113     3.009642839    -0.291073332
  20    H        2.924774331    -1.985367254     0.544105537


           Empirical Formula: C10 H10  =    20 atoms



      MOLECULAR POINT GROUP   :   C1  


                  EIGENVALUES  
 -41.58510 -35.80615 -31.65629 -28.57217 -26.90422 -23.53012 -21.44415 -19.96370
 -19.65401 -17.59407 -16.32249 -15.65631 -15.39655 -14.95492 -14.77066 -14.04331
 -13.71214 -13.14052 -12.85833 -12.50726 -12.19596 -11.96853 -10.91522  -9.56706
  -8.97575  -0.07712   0.43002   1.46480   2.99295   3.10033   3.15519   3.38969
   3.46620   3.57481   3.75090   3.85156   3.93736   4.08405   4.09141   4.49011
   4.53776   4.68502   4.76710   5.04416   5.19889   5.35029   5.53316   5.91288
   6.22947   6.45934


              NET ATOMIC CHARGES AND DIPOLE CONTRIBUTIONS

  ATOM NO.   TYPE          CHARGE      No. of ELECS.   s-Pop       p-Pop       
    1          C          -0.002991        4.0030     1.15599     2.84700
    2          C          -0.092108        4.0921     1.13460     2.95751
    3          C          -0.093305        4.0933     1.19254     2.90076
    4          C          -0.061167        4.0612     1.17621     2.88495
    5          C          -0.149400        4.1494     1.21021     2.93919
    6          C          -0.081351        4.0814     1.17039     2.91096
    7          C          -0.094862        4.0949     1.18496     2.90990
    8          C          -0.075057        4.0751     1.17116     2.90390
    9          C          -0.102640        4.1026     1.17948     2.92316
   10          C          -0.105852        4.1059     1.17942     2.92643
   11          H           0.083947        0.9161     0.91605
   12          H           0.041194        0.9588     0.95881
   13          H           0.039842        0.9602     0.96016
   14          H           0.047561        0.9524     0.95244
   15          H           0.115553        0.8844     0.88445
   16          H           0.106357        0.8936     0.89364
   17          H           0.101069        0.8989     0.89893
   18          H           0.106345        0.8937     0.89366
   19          H           0.116010        0.8840     0.88399
   20          H           0.100856        0.8991     0.89914
 DIPOLE           X         Y         Z       TOTAL
 POINT-CHG.    -0.441    -0.191    -0.094     0.490
 HYBRID         0.028     0.019    -0.014     0.036
 SUM           -0.414    -0.172    -0.108     0.461


          ATOMIC ORBITAL ELECTRON POPULATIONS

     Atom    s        px        py        pz   
    1  C   1.15599   0.91776   0.94192   0.98732
    2  C   1.13460   0.97741   0.99075   0.98935
    3  C   1.19254   0.95660   0.94774   0.99643
    4  C   1.17621   0.94548   0.94028   0.99920
    5  C   1.21021   0.98025   0.95542   1.00352
    6  C   1.17039   0.94152   0.96843   1.00102
    7  C   1.18496   0.93614   0.97103   1.00273
    8  C   1.17116   0.93445   0.97549   0.99396
    9  C   1.17948   0.95813   0.96412   1.00090
   10  C   1.17942   0.98255   0.93873   1.00515
   11  H   0.91605
   12  H   0.95881
   13  H   0.96016
   14  H   0.95244
   15  H   0.88445
   16  H   0.89364
   17  H   0.89893
   18  H   0.89366
   19  H   0.88399
   20  H   0.89914
 *******************************************************************************
 **                                                                           **
 **                              MOPAC v23.1.2                                **
 **                                                                           **
 *******************************************************************************
 **          Digital Object Identifier (DOI): 10.5281/zenodo.6511958          **
 **    Visit the DOI location for information on how to cite this program.    **
 *******************************************************************************

                              PM3 CALCULATION RESULTS

 *******************************************************************************
 *  CALCULATION DONE: (MAX THREADS = 1)              Tue Jun  3 16:27:38 2025  *
 *  PM3        - The PM3 Hamiltonian to be used
 *  OLDGEO     - PREVIOUS GEOMETRY TO BE USED
 *  PRECISE    - TIGHTER CRITERIA TO BE USED
 *  NOSYM      - POINT-GROUP SYMMETRY SET TO C1
 *  THREADS=1  - MULTI-THREADING NOT USED
 *  T=         - A TIME OF 172800.0 SECONDS REQUESTED
 *  DUMP=N     - RESTART FILE WRITTEN EVERY 7200.0 SECONDS REQUESTED
 *  THERMO     - THERMODYNAMIC QUANTITIES TO BE CALCULATED
 *******************************************************************************
oldgeo thermo nosym precise THREADS=1  pm3
 InChI=1S/C10H10/c1-8-6-7-9-4-2-3-5-10(8)9/h2-8H,1H3

   ATOM   CHEMICAL          X               Y               Z
  NUMBER   SYMBOL      (ANGSTROMS)     (ANGSTROMS)     (ANGSTROMS)

     1       C         -1.35813325  *  -0.27296777  *  -0.64623179  *
     2       C         -2.27800756  *  -1.01380673  *   0.30061300  *
     3       C          0.08898657  *  -0.31727829  *  -0.22265921  *
     4       C          0.56012715  *   1.00557065  *  -0.05969260  *
     5       C         -1.64014000  *   1.21532077  *  -0.67267112  *
     6       C          0.92514430  *  -1.39670752  *  -0.00892327  *
     7       C         -0.54171228  *   1.92685468  *  -0.34624334  *
     8       C          1.87082582  *   1.25217063  *   0.31339591  *
     9       C          2.24606700  *  -1.14411158  *   0.36924007  *
    10       C          2.71075528  *   0.15780011  *   0.52640529  *
    11       H         -1.45693312  *  -0.68469136  *  -1.67862946  *
    12       H         -2.01844447  *  -2.07965728  *   0.34535354  *
    13       H         -3.32342352  *  -0.93465065  *  -0.02360292  *
    14       H         -2.21676201  *  -0.61601214  *   1.32161444  *
    15       H         -2.62524328  *   1.60143404  *  -0.92836193  *
    16       H          0.55998804  *  -2.42141908  *  -0.13012204  *
    17       H          3.75113445  *   0.32807029  *   0.82238230  *
    18       H          2.23573040  *   2.27607119  *   0.43770208  *
    19       H         -0.44202911  *   3.00964284  *  -0.29107333  *
    20       H          2.92477433  *  -1.98536725  *   0.54410554  *



          CARTESIAN COORDINATES 

    NO.       ATOM           X           Y           Z

     1         C         -1.3581     -0.2730     -0.6462
     2         C         -2.2780     -1.0138      0.3006
     3         C          0.0890     -0.3173     -0.2227
     4         C          0.5601      1.0056     -0.0597
     5         C         -1.6401      1.2153     -0.6727
     6         C          0.9251     -1.3967     -0.0089
     7         C         -0.5417      1.9269     -0.3462
     8         C          1.8708      1.2522      0.3134
     9         C          2.2461     -1.1441      0.3692
    10         C          2.7108      0.1578      0.5264
    11         H         -1.4569     -0.6847     -1.6786
    12         H         -2.0184     -2.0797      0.3454
    13         H         -3.3234     -0.9347     -0.0236
    14         H         -2.2168     -0.6160      1.3216
    15         H         -2.6252      1.6014     -0.9284
    16         H          0.5600     -2.4214     -0.1301
    17         H          3.7511      0.3281      0.8224
    18         H          2.2357      2.2761      0.4377
    19         H         -0.4420      3.0096     -0.2911
    20         H          2.9248     -1.9854      0.5441

  H: (PM3): J. J. P. STEWART, J. COMP. CHEM. 10, 209 (1989).
  C: (PM3): J. J. P. STEWART, J. COMP. CHEM. 10, 209 (1989).

           Empirical Formula: C10 H10  =    20 atoms



      MOLECULAR POINT GROUP   :   C1  


      RHF CALCULATION, NO. OF DOUBLY OCCUPIED LEVELS = 25



          HEAT OF FORMATION =      35.709738 KCALS/MOLE


          CARTESIAN COORDINATE DERIVATIVES

   NUMBER  ATOM         X            Y            Z

     1       C      0.004914    -0.001569     0.000549
     2       C      0.003109    -0.007517    -0.001356
     3       C      0.008512     0.009328    -0.012175
     4       C     -0.008250     0.005792     0.010919
     5       C     -0.000766    -0.000003    -0.001137
     6       C      0.000498    -0.017513     0.007963
     7       C     -0.000881    -0.005222     0.001231
     8       C      0.009340    -0.023547     0.011757
     9       C     -0.018263     0.023008     0.007889
    10       C      0.008985     0.010413    -0.016627
    11       H     -0.004310     0.012439    -0.002311
    12       H     -0.000344    -0.001477     0.001621
    13       H      0.011079    -0.007888     0.005959
    14       H      0.001794     0.002190    -0.005090
    15       H     -0.003240     0.003649    -0.001809
    16       H     -0.000746    -0.002320     0.001044
    17       H     -0.000545    -0.005369    -0.001795
    18       H      0.003269    -0.003218     0.001383
    19       H     -0.010917     0.006918    -0.000376
    20       H     -0.003238     0.001907    -0.007639



          GRADIENT NORM =   0.06295

          MOLECULAR WEIGHT =  130.19



          ROTATIONAL CONSTANTS IN CM(-1)

          A =    0.08685944   B =    0.04191431   C =    0.02973212



           PRINCIPAL MOMENTS OF INERTIA IN UNITS OF 10**(-40)*GRAM-CM**2

          A =      322.2764   B =      667.8567   C =      941.4986


          ORIENTATION OF MOLECULE IN FORCE CALCULATION

    NO.       ATOM         X         Y         Z

     1          C       0.7691   -1.4890   -0.4465
     2          C       2.2829   -1.4890   -0.4465
     3          C       0.1763   -0.1019   -0.4465
     4          C      -0.6554    0.0417    0.6875
     5          C       0.1955   -2.0839    0.8233
     6          C       0.3302    0.9359   -1.3461
     7          C      -0.6160   -1.2078    1.4504
     8          C      -1.3392    1.2229    0.9222
     9          C      -0.3596    2.1266   -1.1050
    10          C      -1.1808    2.2669    0.0092
    11          H       0.3849   -2.0584   -1.3259
    12          H       2.6747   -1.0031   -1.3497
    13          H       2.6766   -2.5129   -0.4167
    14          H       2.6896   -0.9523    0.4200
    15          H       0.4453   -3.0953    1.1389
    16          H       0.9778    0.8274   -2.2219
    17          H      -1.7112    3.2105    0.1741
    18          H      -1.9843    1.3332    1.7990
    19          H      -1.1720   -1.3592    2.3742
    20          H      -0.2509    2.9613   -1.8053


    FIRST DERIVATIVES WILL BE USED IN THE CALCULATION OF SECOND DERIVATIVES

          ESTIMATED TIME TO COMPLETE CALCULATION =        1.88 SECONDS

    FOR POINT-GROUP C1   THERE ARE   1 UNIQUE SYMMETRY FUNCTIONS.

 STEP:   1 TIME =     0.02 SECS, INTEGRAL =      0.02 TIME LEFT: 172799.97
 STEP:   2 TIME =     0.02 SECS, INTEGRAL =      0.04 TIME LEFT: 172799.95
 STEP:   3 TIME =     0.02 SECS, INTEGRAL =      0.06 TIME LEFT: 172799.93
 STEP:   4 TIME =     0.02 SECS, INTEGRAL =      0.08 TIME LEFT: 172799.91
 STEP:   5 TIME =     0.02 SECS, INTEGRAL =      0.10 TIME LEFT: 172799.89
 STEP:   6 TIME =     0.02 SECS, INTEGRAL =      0.12 TIME LEFT: 172799.88
 STEP:   7 TIME =     0.02 SECS, INTEGRAL =      0.14 TIME LEFT: 172799.86
 STEP:   8 TIME =     0.02 SECS, INTEGRAL =      0.16 TIME LEFT: 172799.83
 STEP:   9 TIME =     0.02 SECS, INTEGRAL =      0.18 TIME LEFT: 172799.81
 STEP:  10 TIME =     0.02 SECS, INTEGRAL =      0.20 TIME LEFT: 172799.79
 STEP:  11 TIME =     0.02 SECS, INTEGRAL =      0.23 TIME LEFT: 172799.77
 STEP:  12 TIME =     0.02 SECS, INTEGRAL =      0.25 TIME LEFT: 172799.74
 STEP:  13 TIME =     0.02 SECS, INTEGRAL =      0.27 TIME LEFT: 172799.72
 STEP:  14 TIME =     0.02 SECS, INTEGRAL =      0.29 TIME LEFT: 172799.70
 STEP:  15 TIME =     0.02 SECS, INTEGRAL =      0.31 TIME LEFT: 172799.68
 STEP:  16 TIME =     0.02 SECS, INTEGRAL =      0.33 TIME LEFT: 172799.66
 STEP:  17 TIME =     0.02 SECS, INTEGRAL =      0.35 TIME LEFT: 172799.64
 STEP:  18 TIME =     0.02 SECS, INTEGRAL =      0.38 TIME LEFT: 172799.62
 STEP:  19 TIME =     0.02 SECS, INTEGRAL =      0.39 TIME LEFT: 172799.60
 STEP:  20 TIME =     0.02 SECS, INTEGRAL =      0.41 TIME LEFT: 172799.58
 STEP:  21 TIME =     0.02 SECS, INTEGRAL =      0.43 TIME LEFT: 172799.56
 STEP:  22 TIME =     0.02 SECS, INTEGRAL =      0.45 TIME LEFT: 172799.54
 STEP:  23 TIME =     0.02 SECS, INTEGRAL =      0.48 TIME LEFT: 172799.52
 STEP:  24 TIME =     0.02 SECS, INTEGRAL =      0.50 TIME LEFT: 172799.50
 STEP:  25 TIME =     0.02 SECS, INTEGRAL =      0.52 TIME LEFT: 172799.47
 STEP:  26 TIME =     0.02 SECS, INTEGRAL =      0.54 TIME LEFT: 172799.45
 STEP:  27 TIME =     0.02 SECS, INTEGRAL =      0.57 TIME LEFT: 172799.43
 STEP:  28 TIME =     0.02 SECS, INTEGRAL =      0.59 TIME LEFT: 172799.40
 STEP:  29 TIME =     0.02 SECS, INTEGRAL =      0.61 TIME LEFT: 172799.38
 STEP:  30 TIME =     0.02 SECS, INTEGRAL =      0.64 TIME LEFT: 172799.36
 STEP:  31 TIME =     0.02 SECS, INTEGRAL =      0.66 TIME LEFT: 172799.34
 STEP:  32 TIME =     0.02 SECS, INTEGRAL =      0.68 TIME LEFT: 172799.31
 STEP:  33 TIME =     0.02 SECS, INTEGRAL =      0.70 TIME LEFT: 172799.29
 STEP:  34 TIME =     0.02 SECS, INTEGRAL =      0.72 TIME LEFT: 172799.27
 STEP:  35 TIME =     0.02 SECS, INTEGRAL =      0.74 TIME LEFT: 172799.25
 STEP:  36 TIME =     0.02 SECS, INTEGRAL =      0.76 TIME LEFT: 172799.23
 STEP:  37 TIME =     0.02 SECS, INTEGRAL =      0.78 TIME LEFT: 172799.21
 STEP:  38 TIME =     0.02 SECS, INTEGRAL =      0.80 TIME LEFT: 172799.20
 STEP:  39 TIME =     0.02 SECS, INTEGRAL =      0.82 TIME LEFT: 172799.18
 STEP:  40 TIME =     0.02 SECS, INTEGRAL =      0.84 TIME LEFT: 172799.16
 STEP:  41 TIME =     0.02 SECS, INTEGRAL =      0.86 TIME LEFT: 172799.14
 STEP:  42 TIME =     0.02 SECS, INTEGRAL =      0.88 TIME LEFT: 172799.12
 STEP:  43 TIME =     0.02 SECS, INTEGRAL =      0.89 TIME LEFT: 172799.10
 STEP:  44 TIME =     0.02 SECS, INTEGRAL =      0.91 TIME LEFT: 172799.08
 STEP:  45 TIME =     0.02 SECS, INTEGRAL =      0.93 TIME LEFT: 172799.06
 STEP:  46 TIME =     0.02 SECS, INTEGRAL =      0.96 TIME LEFT: 172799.04
 STEP:  47 TIME =     0.02 SECS, INTEGRAL =      0.98 TIME LEFT: 172799.01
 STEP:  48 TIME =     0.02 SECS, INTEGRAL =      1.00 TIME LEFT: 172798.99
 STEP:  49 TIME =     0.02 SECS, INTEGRAL =      1.02 TIME LEFT: 172798.97
 STEP:  50 TIME =     0.02 SECS, INTEGRAL =      1.04 TIME LEFT: 172798.95
 STEP:  51 TIME =     0.02 SECS, INTEGRAL =      1.06 TIME LEFT: 172798.93
 STEP:  52 TIME =     0.02 SECS, INTEGRAL =      1.08 TIME LEFT: 172798.91
 STEP:  53 TIME =     0.02 SECS, INTEGRAL =      1.10 TIME LEFT: 172798.89
 STEP:  54 TIME =     0.02 SECS, INTEGRAL =      1.12 TIME LEFT: 172798.87
 STEP:  55 TIME =     0.02 SECS, INTEGRAL =      1.14 TIME LEFT: 172798.85
 STEP:  56 TIME =     0.02 SECS, INTEGRAL =      1.16 TIME LEFT: 172798.83
 STEP:  57 TIME =     0.02 SECS, INTEGRAL =      1.18 TIME LEFT: 172798.81
 STEP:  58 TIME =     0.02 SECS, INTEGRAL =      1.21 TIME LEFT: 172798.79
 STEP:  59 TIME =     0.02 SECS, INTEGRAL =      1.23 TIME LEFT: 172798.77
 STEP:  60 TIME =     0.02 SECS, INTEGRAL =      1.25 TIME LEFT: 172798.75

(To convert to Hartree/Bohr^2, multiply by (10^(-21) x N x a0^2)/(4.184 x 627.51) =  0.0642)


           FORCE MATRIX IN MILLIDYNES/ANGSTROM


                  C  1       C  2       C  3       C  4       C  5       C  6
 ------------------------------------------------------------------------------
     C    1  14.867292
     C    2   4.328967  14.397488
     C    3   4.199029   0.621246  18.200002
     C    4   0.943610   0.045046   6.060882  18.703286
     C    5   4.052936   0.630586   1.085105   1.590587  17.897116
     C    6   0.514158   0.033053   7.300016   2.317477   0.049176  17.314672
     C    7   1.120081   0.046933   1.202286   5.148583   9.909809   0.092238
     C    8   0.093115   0.012626   2.266107   7.127997   0.146836   1.814910
     C    9   0.113977   0.010984   2.531410   1.810500   0.064363   6.741794
     C   10   0.048690   0.003336   1.789579   2.546380   0.091989   2.496834
     H   11   4.243992   0.435582   0.403871   0.034519   0.395890   0.020074
     H   12   0.455674   4.734811   0.018195   0.006068   0.048566   0.006556
     H   13   0.454688   4.751473   0.049402   0.005444   0.017649   0.002200
     H   14   0.463625   4.759962   0.013536   0.003675   0.015168   0.002762
     H   15   0.406863   0.010045   0.042181   0.109628   5.055700   0.010325
     H   16   0.039546   0.009898   0.451234   0.091098   0.002683   4.865549
     H   17   0.008246   0.001140   0.008760   0.090448   0.001889   0.088879
     H   18   0.009044   0.001043   0.088839   0.449957   0.005063   0.011461
     H   19   0.115528   0.017396   0.045595   0.428510   0.445448   0.007709
     H   20   0.006647   0.001422   0.088009   0.008714   0.001695   0.436189


                  C  7       C  8       C  9       C 10       H 11       H 12
 ------------------------------------------------------------------------------
     C    7  18.380971
     C    8   0.774177  17.306049
     C    9   0.091599   2.502558  17.050416
     C   10   0.183062   6.780185   6.917132  17.062161
     H   11   0.040810   0.014516   0.013916   0.009684   4.717206
     H   12   0.007306   0.001653   0.001626   0.000855   0.026638   5.458359
     H   13   0.004332   0.002139   0.002141   0.000888   0.028160   0.560063
     H   14   0.004248   0.001226   0.001326   0.001020   0.046302   0.570225
     H   15   0.442730   0.006482   0.001620   0.005933   0.011473   0.001578
     H   16   0.008730   0.011124   0.440195   0.087492   0.005425   0.009037
     H   17   0.007343   0.436729   0.438639   4.855878   0.001097   0.000150
     H   18   0.040254   4.883222   0.088420   0.440066   0.000716   0.000150
     H   19   5.049692   0.010766   0.001993   0.002263   0.014758   0.002811
     H   20   0.007208   0.088531   4.856296   0.438203   0.001295   0.000194


                  H 13       H 14       H 15       H 16       H 17       H 18
 ------------------------------------------------------------------------------
     H   13   5.475189
     H   14   0.568883   5.486024
     H   15   0.006291   0.002342   5.449788
     H   16   0.001666   0.000679   0.000609   5.237922
     H   17   0.000235   0.000160   0.000467   0.006899   5.220480
     H   18   0.000256   0.000190   0.002143   0.008812   0.039795   5.253857
     H   19   0.000616   0.000835   0.044938   0.001395   0.000603   0.006060
     H   20   0.000241   0.000155   0.001017   0.039290   0.043584   0.006856


                  H 19       H 20
 ------------------------------
     H   19   5.441742
     H   20   0.000453   5.221101


          HEAT OF FORMATION =      35.709738 KCALS/MOLE

          ZERO POINT ENERGY     105.529 KCAL/MOL


           NORMAL COORDINATE ANALYSIS (Total motion = 1 Angstrom)


   Root No.       1         2         3         4         5         6         7         8

                 1 A       2 A       3 A       4 A       5 A       6 A       7 A       8 A   

                 117.0     161.5     175.2     276.8     278.5     382.7     445.3     506.8
  
           1    0.0026   -0.0032   -0.0045   -0.0255   -0.0221   -0.0116    0.0063   -0.0135
           2   -0.0023   -0.0057   -0.0072   -0.0076   -0.0124   -0.0181   -0.0300   -0.0029
           3   -0.0090    0.0037    0.0079   -0.0107   -0.0288   -0.0072    0.0192   -0.0004
           4    0.0043   -0.0032   -0.0044   -0.0259   -0.0212   -0.0130    0.0069   -0.0188
           5    0.0383    0.0288    0.0360    0.0542   -0.0138   -0.0032    0.0126    0.0096
           6    0.0545   -0.0151   -0.0168   -0.0123    0.0406    0.0102   -0.0115    0.0008
           7   -0.0138   -0.0208   -0.0245   -0.0016   -0.0194   -0.0177    0.0319    0.0309
           8   -0.0093   -0.0138   -0.0168   -0.0028   -0.0085   -0.0161   -0.0108    0.0134
           9   -0.0164   -0.0106   -0.0088    0.0172   -0.0332   -0.0376   -0.0247    0.0067
          10    0.0082   -0.0234   -0.0260    0.0192    0.0073   -0.0168    0.0451   -0.0058
          11   -0.0025   -0.0126   -0.0123    0.0046   -0.0021   -0.0132    0.0130   -0.0099
          12   -0.0013   -0.0127   -0.0110    0.0297   -0.0140   -0.0375   -0.0202   -0.0194
          13   -0.0177    0.0148    0.0166   -0.0287    0.0071    0.0163   -0.0352   -0.0114
          14   -0.0144    0.0046    0.0057   -0.0214    0.0006    0.0093   -0.0019   -0.0024
          15   -0.0236    0.0167    0.0236   -0.0190   -0.0091    0.0203    0.0218    0.0030
          16   -0.0348   -0.0014   -0.0033    0.0362   -0.0079    0.0394   -0.0052    0.0313
          17   -0.0172   -0.0086   -0.0162   -0.0065    0.0103    0.0280    0.0050    0.0137
          18   -0.0290   -0.0011   -0.0040    0.0214   -0.0109    0.0199   -0.0180    0.0049
          19   -0.0051   -0.0087   -0.0075    0.0180    0.0618   -0.0086   -0.0173    0.0114
          20   -0.0104   -0.0048   -0.0025   -0.0040    0.0246    0.0063    0.0310    0.0118
          21   -0.0133   -0.0004    0.0049    0.0195    0.0252   -0.0112   -0.0044    0.0102
          22    0.0382   -0.0089   -0.0088    0.0099   -0.0234    0.0443    0.0045   -0.0228
          23    0.0102   -0.0055   -0.0026    0.0048   -0.0197    0.0078   -0.0193   -0.0245
          24    0.0215   -0.0067   -0.0094    0.0034   -0.0192    0.0252   -0.0022   -0.0160
          25   -0.0151    0.0252    0.0277    0.0185    0.0227   -0.0226   -0.0008   -0.0376
          26   -0.0090    0.0037   -0.0010   -0.0132    0.0222   -0.0010    0.0033   -0.0202
          27   -0.0131    0.0134    0.0074   -0.0082    0.0252   -0.0024    0.0264   -0.0247
          28    0.0294    0.0212    0.0252   -0.0139   -0.0110   -0.0221   -0.0179    0.0417
          29    0.0081    0.0048    0.0050   -0.0202   -0.0027   -0.0078   -0.0072    0.0047
          30    0.0175    0.0102    0.0048   -0.0309    0.0032   -0.0013    0.0156    0.0316
          31    0.0489   -0.0017   -0.0035   -0.0151   -0.0006   -0.0079    0.0085   -0.0264
          32   -0.0079   -0.0304   -0.0292    0.0041   -0.0186   -0.0508   -0.0598    0.0121
          33   -0.0244    0.0190    0.0217   -0.0217   -0.0318    0.0133    0.0376   -0.0039
          34    0.0296   -0.0256   -0.0363   -0.0536    0.0295   -0.0032   -0.0440   -0.0275
          35    0.0463   -0.1220    0.1892    0.0670   -0.0105    0.0062    0.0342    0.0175
          36    0.0700   -0.1060    0.0512   -0.0183    0.0653    0.0198   -0.0233    0.0010
          37    0.0309    0.0206    0.0291    0.0261   -0.0262   -0.0021    0.0546   -0.0000
          38    0.0493    0.0432    0.0444    0.0754   -0.0155    0.0010    0.0313    0.0175
          39    0.0750    0.1616   -0.1836   -0.0041    0.0583    0.0119   -0.0289    0.0025
          40   -0.0479   -0.0050   -0.0055   -0.0515   -0.0674   -0.0339    0.0112   -0.0316
          41    0.0524    0.1928   -0.0859    0.0852   -0.0200   -0.0036    0.0297    0.0198
          42    0.0704   -0.1158    0.0592   -0.0191    0.0668    0.0206   -0.0243    0.0010
          43   -0.0338    0.0390    0.0428   -0.0641    0.0112    0.0557   -0.0973   -0.0124
          44   -0.0225    0.0160    0.0189   -0.0399    0.0017    0.0316   -0.0138   -0.0014
          45   -0.0369    0.0344    0.0449   -0.0508   -0.0082    0.0604    0.0309    0.0060
          46   -0.0629    0.0007   -0.0019    0.0639   -0.0125    0.1197   -0.0420    0.0564
          47   -0.0280   -0.0110   -0.0234   -0.0133    0.0224    0.0843    0.0300    0.0332
          48   -0.0483    0.0007   -0.0023    0.0425   -0.0157    0.0721   -0.0483    0.0210
          49    0.0544    0.0430    0.0509   -0.0541   -0.0183   -0.0517   -0.0428    0.1273
          50    0.0188    0.0150    0.0176   -0.0359   -0.0079   -0.0231   -0.0215    0.0413
          51    0.0366    0.0222    0.0152   -0.0701    0.0095   -0.0092    0.0155    0.0965
          52    0.0666   -0.0132   -0.0130    0.0103   -0.0419    0.1330   -0.0097   -0.0639
          53    0.0211   -0.0043    0.0036    0.0227   -0.0415    0.0265   -0.0703   -0.0549
          54    0.0410   -0.0100   -0.0133    0.0014   -0.0301    0.0881   -0.0063   -0.0427
          55   -0.0077   -0.0102   -0.0065    0.0418    0.1332   -0.0080   -0.0608    0.0491
          56   -0.0137   -0.0039    0.0005   -0.0021    0.0592    0.0266    0.0702    0.0463
          57   -0.0154   -0.0012    0.0059    0.0342    0.0737   -0.0075   -0.0238    0.0385
          58   -0.0315    0.0505    0.0555    0.0227    0.0650   -0.0527    0.0048   -0.1370
          59   -0.0146    0.0127    0.0060   -0.0188    0.0486   -0.0054    0.0211   -0.0527
          60   -0.0224    0.0280    0.0201   -0.0141    0.0631   -0.0126    0.0481   -0.0789


   Root No.       9        10        11        12        13        14        15        16

                 9 A      10 A      11 A      12 A      13 A      14 A      15 A      16 A   

                 531.8     555.8     611.0     724.6     748.2     778.5     814.6     835.6
  
           1    0.0314   -0.0010    0.0074   -0.0024    0.0039   -0.0010    0.0010   -0.0005
           2   -0.0113   -0.0392    0.0414   -0.0039   -0.0054   -0.0000   -0.0142    0.0360
           3    0.0044    0.0199    0.0363    0.0059   -0.0448   -0.0151    0.0064    0.0172
           4    0.0460   -0.0027    0.0079   -0.0061    0.0221   -0.0036    0.0143   -0.0127
           5   -0.0058   -0.0015    0.0018    0.0024   -0.0005    0.0013   -0.0054    0.0140
           6   -0.0126    0.0014   -0.0016    0.0008   -0.0101   -0.0034    0.0020    0.0056
           7   -0.0233    0.0063   -0.0191    0.0528    0.0017    0.0221   -0.0127   -0.0052
           8   -0.0275   -0.0124    0.0231    0.0190   -0.0158   -0.0009    0.0058   -0.0095
           9   -0.0050    0.0085   -0.0171    0.0329    0.0055    0.0142   -0.0048   -0.0121
          10   -0.0342    0.0144   -0.0139   -0.0418    0.0061    0.0111    0.0148    0.0206
          11    0.0038   -0.0218   -0.0362   -0.0175   -0.0211   -0.0042    0.0182   -0.0063
          12   -0.0141    0.0057   -0.0061   -0.0368    0.0133    0.0038    0.0202   -0.0053
          13   -0.0328    0.0080   -0.0278   -0.0144   -0.0252   -0.0018   -0.0210   -0.0102
          14   -0.0060   -0.0560   -0.0060   -0.0171    0.0489    0.0168   -0.0229   -0.0045
          15   -0.0212    0.0207    0.0084   -0.0058   -0.0099   -0.0021   -0.0080   -0.0067
          16   -0.0009   -0.0361   -0.0024   -0.0040   -0.0127   -0.0153   -0.0050    0.0015
          17   -0.0115    0.0363    0.0258   -0.0051   -0.0003   -0.0105    0.0092   -0.0192
          18    0.0241    0.0387   -0.0275   -0.0042    0.0309    0.0053   -0.0144   -0.0068
          19    0.0201    0.0128   -0.0023   -0.0016   -0.0406   -0.0072   -0.0151   -0.0114
          20    0.0239   -0.0412   -0.0097   -0.0010    0.0061    0.0043   -0.0084   -0.0125
          21    0.0120    0.0081    0.0406   -0.0105    0.0350    0.0102   -0.0202    0.0027
          22   -0.0121    0.0285    0.0191    0.0093    0.0262   -0.0004   -0.0123    0.0301
          23    0.0198    0.0100   -0.0311    0.0062   -0.0203   -0.0121    0.0076    0.0003
          24    0.0002   -0.0595    0.0000    0.0023   -0.0143   -0.0199    0.0234   -0.0271
          25   -0.0109   -0.0197    0.0085    0.0111    0.0033   -0.0197   -0.0067   -0.0087
          26   -0.0126    0.0643    0.0303    0.0001    0.0173   -0.0100    0.0094   -0.0318
          27    0.0075   -0.0233   -0.0247    0.0132   -0.0041   -0.0081   -0.0205    0.0246
          28   -0.0071   -0.0055    0.0150   -0.0141    0.0145   -0.0220    0.0070   -0.0144
          29    0.0235    0.0586   -0.0398    0.0022   -0.0068   -0.0043   -0.0169    0.0355
          30    0.0045   -0.0175   -0.0107   -0.0046   -0.0020   -0.0142   -0.0030    0.0097
          31    0.0698   -0.0033    0.0094   -0.0177    0.0310   -0.0177    0.0319    0.0113
          32   -0.0158   -0.0508    0.0448    0.0515   -0.0105    0.0203   -0.0160    0.0608
          33   -0.0105    0.0290    0.0313   -0.0226   -0.0519   -0.0205   -0.0052   -0.0060
          34    0.0223   -0.0423   -0.0139   -0.0315    0.0723    0.0185   -0.0229   -0.0155
          35   -0.0075    0.0169   -0.0199    0.0133    0.0032    0.0063    0.0040   -0.0234
          36   -0.0248   -0.0065   -0.0234   -0.0051    0.0141    0.0093   -0.0104   -0.0158
          37    0.0512    0.0445   -0.0408    0.0201    0.0323    0.0054    0.0457   -0.1049
          38   -0.0044    0.0169   -0.0184    0.0133    0.0041    0.0056    0.0063   -0.0234
          39   -0.0245   -0.0069   -0.0237   -0.0037    0.0128    0.0103   -0.0125   -0.0145
          40    0.0726   -0.0093    0.0803   -0.0098   -0.0277   -0.0368    0.0318    0.0729
          41   -0.0048    0.0180   -0.0194    0.0170    0.0021    0.0067    0.0060   -0.0233
          42   -0.0269   -0.0073   -0.0240   -0.0063    0.0125    0.0097   -0.0138   -0.0135
          43   -0.1159   -0.0005   -0.0783    0.0761    0.0613    0.0070    0.1379    0.0878
          44   -0.0346   -0.0604   -0.0397    0.0266    0.0887    0.0200    0.0573    0.0214
          45   -0.0473    0.0163   -0.0604    0.0630    0.0464   -0.0006    0.1256   -0.0018
          46    0.0474   -0.0371    0.0244   -0.1200   -0.0484    0.0648    0.0783    0.0634
          47    0.0114    0.0422    0.0266   -0.0501   -0.0297    0.0237    0.0409    0.0278
          48    0.0568    0.0364   -0.0080   -0.0842    0.0085    0.0603    0.0428    0.0331
          49    0.0280   -0.0157    0.0097   -0.0426   -0.0596    0.1573    0.0406   -0.0440
          50    0.0423    0.0456   -0.0495   -0.0097   -0.0479    0.0723   -0.0002    0.0226
          51    0.0095    0.0268    0.0278   -0.0282   -0.0084    0.1217    0.0112   -0.0119
          52    0.0238    0.0102    0.0675    0.0983   -0.0244    0.1197   -0.0735   -0.0257
          53    0.0373    0.0085    0.0002    0.0361   -0.0434    0.0296    0.0075   -0.0733
          54    0.0246   -0.0721    0.0315    0.0639   -0.0489    0.0628   -0.0209   -0.0598
          55    0.0790    0.0074    0.0161    0.1434    0.0178   -0.0381    0.1133    0.0530
          56    0.0455   -0.0418    0.0122    0.0767    0.0239   -0.0083    0.0490    0.0285
          57    0.0512    0.0050    0.0556    0.0894    0.0738   -0.0103    0.0667    0.0479
          58    0.0055   -0.0139    0.0160    0.0167   -0.0465    0.1694    0.0436    0.0327
          59   -0.0250    0.0399    0.0672   -0.0006   -0.0176    0.0595    0.0542   -0.0420
          60   -0.0048   -0.0521    0.0204    0.0132   -0.0528    0.1047    0.0400    0.0199


   Root No.      17        18        19        20        21        22        23        24

                17 A      18 A      19 A      20 A      21 A      22 A      23 A      24 A   

                 896.3     915.1     951.8     952.8     973.2    1002.2    1021.0    1042.2
  
           1    0.0019    0.0031   -0.0011   -0.0021    0.0042   -0.0003   -0.0011    0.0030
           2   -0.0030    0.0114    0.0013    0.0089    0.0021   -0.0068    0.0164    0.0109
           3   -0.0025    0.0117   -0.0036   -0.0115    0.0071   -0.0054    0.0129    0.0289
           4   -0.0045   -0.0171    0.0068    0.0165   -0.0060   -0.0045    0.0112    0.0063
           5   -0.0033    0.0132   -0.0003    0.0197   -0.0028    0.0163   -0.0251    0.0044
           6   -0.0038    0.0098   -0.0071   -0.0316   -0.0025   -0.0010   -0.0011   -0.0159
           7    0.0188   -0.0109    0.0037   -0.0104    0.0033    0.0052   -0.0293    0.0032
           8    0.0048   -0.0171    0.0045    0.0006   -0.0009   -0.0035    0.0000    0.0012
           9    0.0176    0.0117    0.0049   -0.0007    0.0009   -0.0023   -0.0078    0.0012
          10   -0.0209    0.0123    0.0052    0.0047    0.0167    0.0067    0.0128   -0.0056
          11   -0.0082    0.0088    0.0015    0.0017    0.0083    0.0045    0.0038    0.0014
          12   -0.0172   -0.0107    0.0021   -0.0011    0.0114    0.0071    0.0040   -0.0080
          13    0.0113    0.0032   -0.0154    0.0001    0.0260    0.0005    0.0024   -0.0258
          14    0.0052   -0.0048   -0.0179   -0.0348    0.0216    0.0019   -0.0026   -0.0008
          15    0.0058   -0.0077    0.0024    0.0358    0.0046    0.0000    0.0003   -0.0341
          16   -0.0307   -0.0258   -0.0230    0.0083   -0.0191    0.0151    0.0171   -0.0041
          17   -0.0112   -0.0074   -0.0098    0.0050   -0.0091    0.0081    0.0047   -0.0040
          18   -0.0041    0.0498   -0.0201    0.0021   -0.0063    0.0099    0.0132    0.0067
          19    0.0058    0.0157    0.0126   -0.0074   -0.0345   -0.0048   -0.0031    0.0191
          20    0.0097    0.0311    0.0053   -0.0051   -0.0144   -0.0041    0.0015    0.0106
          21   -0.0072   -0.0432    0.0105   -0.0086   -0.0285   -0.0005   -0.0100    0.0003
          22    0.0228    0.0019   -0.0247    0.0022   -0.0144   -0.0271   -0.0033    0.0055
          23    0.0062   -0.0187   -0.0093    0.0061   -0.0090   -0.0080   -0.0092   -0.0019
          24    0.0172   -0.0023   -0.0168    0.0056   -0.0109   -0.0115   -0.0140    0.0029
          25   -0.0133    0.0078    0.0153    0.0004    0.0154   -0.0297   -0.0138    0.0019
          26   -0.0006    0.0180    0.0049   -0.0028    0.0084   -0.0106   -0.0102    0.0039
          27   -0.0153   -0.0128    0.0107   -0.0014    0.0102   -0.0208   -0.0098   -0.0017
          28    0.0202    0.0122    0.0150   -0.0086    0.0021    0.0339    0.0094   -0.0022
          29   -0.0013   -0.0272    0.0086   -0.0020   -0.0012    0.0129    0.0089   -0.0013
          30    0.0092   -0.0058    0.0121   -0.0032   -0.0003    0.0208    0.0115   -0.0016
          31   -0.0394    0.0287   -0.0146   -0.0429   -0.0499    0.0503   -0.0988   -0.1439
          32    0.0304    0.0400    0.0673    0.0562   -0.0644   -0.0945    0.1115   -0.1630
          33   -0.0055   -0.0194   -0.0395   -0.0218    0.0733    0.0286   -0.0048    0.2052
          34    0.0085   -0.0393    0.0388    0.2331    0.0076    0.0386   -0.0356    0.1028
          35    0.0108   -0.0213    0.0029   -0.0249    0.0056   -0.0239    0.0344   -0.0004
          36    0.0098   -0.0186    0.0086    0.0429    0.0092   -0.0027    0.0097    0.0273
          37    0.0245   -0.1031    0.0172   -0.0886    0.0057   -0.0998    0.1526   -0.0144
          38    0.0093   -0.0219    0.0045   -0.0205    0.0026   -0.0226    0.0326   -0.0024
          39    0.0113   -0.0165    0.0087    0.0472    0.0110   -0.0010    0.0068    0.0304
          40   -0.0519    0.0750   -0.0266   -0.0768   -0.0434    0.0451   -0.0763   -0.0757
          41    0.0115   -0.0206    0.0045   -0.0298    0.0027   -0.0278    0.0384   -0.0082
          42    0.0105   -0.0149    0.0067    0.0454    0.0127    0.0015    0.0033    0.0331
          43   -0.0760    0.0004    0.0558   -0.0622   -0.0958   -0.0098    0.0200    0.1207
          44   -0.0270    0.0117    0.0207   -0.0437   -0.0403   -0.0001   -0.0068    0.0360
          45   -0.0296    0.0434    0.0700    0.0570   -0.0980    0.0026   -0.0282   -0.0305
          46    0.1079   -0.0253    0.1152   -0.0293    0.0718   -0.0522   -0.0470    0.0042
          47    0.0322   -0.0826    0.0493   -0.0222    0.0256   -0.0014   -0.0773   -0.0378
          48    0.0932    0.0616    0.0744   -0.0221    0.0567   -0.0386   -0.0238    0.0175
          49   -0.1014    0.0128   -0.0758    0.0368   -0.0038   -0.1126   -0.0511   -0.0025
          50   -0.0574   -0.0367   -0.0308    0.0205   -0.0052   -0.0500   -0.0223   -0.0059
          51   -0.0630    0.0410   -0.0542    0.0148    0.0026   -0.0894   -0.0057    0.0218
          52   -0.1074    0.0357    0.1098   -0.0273    0.0719    0.0740    0.0468   -0.0041
          53   -0.0554   -0.0392    0.0482   -0.0094    0.0268    0.0581   -0.0386   -0.0449
          54   -0.0708    0.0245    0.0749   -0.0139    0.0479    0.0548    0.0260    0.0011
          55   -0.0012   -0.0151   -0.0812    0.0107    0.1747    0.0245    0.0022   -0.0150
          56    0.0229    0.0991   -0.0015    0.1044    0.0449   -0.0177    0.0611   -0.0517
          57   -0.0095   -0.0524   -0.0465    0.0215    0.1063    0.0150    0.0025   -0.0320
          58    0.1007    0.0023   -0.0720    0.0038   -0.0637    0.1026    0.0594    0.0132
          59    0.0442   -0.0171   -0.0307    0.0006   -0.0324    0.0525    0.0065   -0.0124
          60    0.0559   -0.0545   -0.0452    0.0032   -0.0505    0.0745    0.0223   -0.0192


   Root No.      25        26        27        28        29        30        31        32

                25 A      26 A      27 A      28 A      29 A      30 A      31 A      32 A   

                1077.3    1084.6    1107.5    1115.9    1150.5    1154.3    1187.5    1234.8
  
           1   -0.0005    0.0092   -0.0036    0.0517   -0.0033    0.0063   -0.0110    0.0488
           2    0.0053    0.0067   -0.0017    0.0269   -0.0004   -0.0197   -0.0089   -0.0091
           3   -0.0008    0.0156   -0.0042    0.0400   -0.0015    0.0197    0.0040   -0.0017
           4    0.0003   -0.0036    0.0024   -0.0581    0.0018   -0.0037    0.0051   -0.0154
           5   -0.0019    0.0002   -0.0004   -0.0270    0.0003    0.0096    0.0007    0.0051
           6    0.0011   -0.0024    0.0016   -0.0416    0.0001   -0.0060   -0.0025    0.0044
           7    0.0088   -0.0025   -0.0062   -0.0038    0.0052    0.0168   -0.0151    0.0067
           8   -0.0135   -0.0132    0.0077   -0.0008    0.0025   -0.0332   -0.0007   -0.0237
           9   -0.0044   -0.0080    0.0110   -0.0025   -0.0080   -0.0159    0.0273   -0.0074
          10    0.0042    0.0010   -0.0050    0.0009   -0.0056    0.0059   -0.0170   -0.0040
          11   -0.0019   -0.0016   -0.0041    0.0010    0.0039    0.0191    0.0120   -0.0097
          12   -0.0049    0.0045    0.0081    0.0012    0.0056   -0.0177    0.0166    0.0146
          13    0.0008   -0.0038    0.0032   -0.0063    0.0002   -0.0058    0.0046    0.0077
          14   -0.0071    0.0076   -0.0018   -0.0015   -0.0033    0.0037   -0.0009    0.0095
          15    0.0027   -0.0104   -0.0038   -0.0045    0.0041    0.0105   -0.0021   -0.0291
          16   -0.0144   -0.0057    0.0111    0.0014    0.0065    0.0035    0.0066    0.0136
          17    0.0050    0.0008   -0.0094   -0.0003   -0.0045   -0.0079   -0.0148   -0.0109
          18    0.0175    0.0155   -0.0122    0.0031   -0.0072    0.0035   -0.0017   -0.0097
          19   -0.0048    0.0061    0.0036    0.0029   -0.0004   -0.0107    0.0020    0.0006
          20   -0.0029    0.0098    0.0049    0.0028   -0.0003    0.0054    0.0085   -0.0231
          21    0.0089   -0.0136   -0.0079   -0.0001    0.0002    0.0102   -0.0094    0.0164
          22   -0.0048    0.0109    0.0156    0.0018   -0.0056   -0.0141    0.0055   -0.0144
          23    0.0044   -0.0039    0.0037   -0.0010   -0.0026    0.0116    0.0127    0.0049
          24    0.0043   -0.0145   -0.0249   -0.0016    0.0100    0.0126   -0.0165    0.0181
          25   -0.0020   -0.0062   -0.0049   -0.0010    0.0032    0.0014    0.0109    0.0037
          26   -0.0080   -0.0126   -0.0049   -0.0010    0.0040    0.0163   -0.0103    0.0157
          27    0.0084    0.0145    0.0107    0.0017   -0.0069   -0.0135   -0.0093   -0.0157
          28    0.0118    0.0137   -0.0017    0.0011   -0.0054    0.0014    0.0103   -0.0065
          29   -0.0169   -0.0177   -0.0035   -0.0014    0.0052   -0.0015   -0.0000    0.0191
          30   -0.0064   -0.0070    0.0047   -0.0007    0.0044   -0.0006   -0.0151   -0.0028
          31   -0.0103   -0.0890    0.0125    0.3653    0.0064   -0.0308    0.0319   -0.1080
          32   -0.0055    0.0802   -0.0469   -0.0495    0.0042    0.1371   -0.0140    0.0451
          33    0.0097    0.0108    0.0181   -0.0477   -0.0086   -0.0666   -0.0110    0.0289
          34   -0.0101    0.0043   -0.0013    0.0085    0.0034    0.0324    0.0252   -0.0716
          35    0.0036    0.0057   -0.0022    0.0316   -0.0005   -0.0042   -0.0041    0.0080
          36   -0.0003    0.0053   -0.0013    0.0210    0.0002    0.0035    0.0039   -0.0147
          37    0.0104   -0.0054    0.0050    0.0159    0.0028   -0.0499    0.0059   -0.0871
          38    0.0022    0.0010    0.0000    0.0055    0.0005   -0.0077    0.0001   -0.0193
          39   -0.0006    0.0086   -0.0025    0.0369   -0.0005    0.0069    0.0035    0.0020
          40   -0.0028   -0.0323    0.0126   -0.2944    0.0060   -0.0149    0.0090   -0.0472
          41    0.0035    0.0058   -0.0024    0.0237   -0.0004   -0.0038   -0.0055    0.0076
          42   -0.0007    0.0084   -0.0020    0.0394   -0.0015    0.0075   -0.0001    0.0149
          43    0.1344   -0.0736    0.0074    0.0253    0.0090    0.0958    0.0225   -0.0519
          44   -0.0329    0.0323   -0.0033    0.0110   -0.0069   -0.0179   -0.0080    0.0298
          45   -0.1818    0.1195   -0.0119    0.0105   -0.0131   -0.1346   -0.0378    0.0806
          46   -0.0482   -0.0576    0.0421   -0.0094   -0.0179    0.0074   -0.0427    0.0009
          47    0.1462    0.1493   -0.1222    0.0004    0.1078   -0.0523    0.2060    0.0202
          48   -0.0231   -0.0395    0.0246   -0.0048   -0.0418    0.0112   -0.0650   -0.0256
          49    0.0532    0.0184   -0.0736   -0.0026   -0.1319   -0.0320   -0.0478   -0.0214
          50    0.0202   -0.0142   -0.0685   -0.0050   -0.1115   -0.0312   -0.0550    0.0087
          51   -0.0910   -0.0200    0.1523    0.0074    0.2653    0.0670    0.1057    0.0256
          52   -0.0347   -0.0217   -0.0259   -0.0034   -0.0343   -0.0143    0.0551   -0.0108
          53    0.1290    0.1348    0.1791    0.0133    0.1118    0.0099   -0.1911   -0.0214
          54   -0.0336   -0.0579   -0.0787   -0.0075   -0.0227    0.0144    0.0448    0.0277
          55   -0.0793    0.0576   -0.0285    0.0062   -0.0049    0.0464   -0.0045   -0.0626
          56    0.1875   -0.1202    0.0834   -0.0042    0.0106   -0.1320    0.0244    0.1414
          57   -0.0038   -0.0056   -0.0146    0.0006   -0.0005    0.0221   -0.0110    0.0075
          58   -0.0039   -0.0296   -0.1220   -0.0007    0.2016   -0.0506   -0.0782   -0.0257
          59   -0.0068    0.0110    0.0972   -0.0004   -0.1727    0.0637    0.0688    0.0433
          60    0.0098    0.0405    0.1173    0.0027   -0.1867    0.0333    0.0710    0.0086


   Root No.      33        34        35        36        37        38        39        40

                33 A      34 A      35 A      36 A      37 A      38 A      39 A      40 A   

                1298.4    1330.2    1362.3    1396.9    1407.0    1413.3    1444.4    1578.5
  
           1    0.0128    0.0394   -0.0350   -0.0116    0.0038   -0.0658    0.0219    0.0268
           2    0.0751   -0.0302    0.0085    0.0020   -0.0025    0.0072   -0.0312   -0.0385
           3   -0.0563   -0.0104    0.0304    0.0022   -0.0002    0.0279    0.0061   -0.0028
           4   -0.0020    0.0053   -0.0244    0.0137   -0.0050    0.0750   -0.0144   -0.0052
           5   -0.0141    0.0049   -0.0014   -0.0203   -0.0363   -0.0017    0.0034    0.0020
           6    0.0118    0.0025   -0.0054   -0.0381    0.0190    0.0001   -0.0006    0.0001
           7    0.0202   -0.0352    0.0103    0.0017   -0.0019    0.0120    0.0113   -0.0543
           8   -0.0204    0.0099   -0.0189   -0.0010   -0.0006   -0.0017    0.0425    0.0963
           9   -0.0148    0.0411   -0.0009   -0.0008    0.0026   -0.0098   -0.0463    0.0160
          10    0.0096    0.0275    0.0192    0.0012   -0.0002    0.0066   -0.0263    0.0445
          11    0.0207   -0.0048    0.0010    0.0009   -0.0024    0.0106    0.0517    0.0181
          12   -0.0286   -0.0369   -0.0293   -0.0025    0.0020   -0.0177    0.0054   -0.0773
          13   -0.0118   -0.0005    0.0161    0.0013   -0.0005    0.0128    0.0071   -0.0111
          14   -0.0327    0.0026    0.0187    0.0008    0.0004    0.0117   -0.0033    0.0124
          15    0.0335   -0.0048   -0.0332   -0.0017    0.0004   -0.0197   -0.0100    0.0068
          16   -0.0117   -0.0252   -0.0094   -0.0004    0.0006   -0.0054   -0.0166   -0.0120
          17   -0.0134    0.0710    0.0075   -0.0012    0.0019   -0.0060    0.0150   -0.0368
          18    0.0255   -0.0081    0.0085    0.0010   -0.0021    0.0104    0.0152    0.0419
          19   -0.0036   -0.0090    0.0032    0.0005    0.0001    0.0044   -0.0013    0.0017
          20   -0.0151   -0.0059   -0.0356   -0.0027    0.0024   -0.0260   -0.0348   -0.0266
          21    0.0167    0.0180    0.0182    0.0008   -0.0017    0.0092    0.0250    0.0150
          22   -0.0173   -0.0038   -0.0140   -0.0007    0.0006   -0.0051    0.0028   -0.0014
          23    0.0250    0.0633    0.0245   -0.0000    0.0004    0.0034    0.0162   -0.0690
          24    0.0093   -0.0358    0.0045    0.0010   -0.0011    0.0049   -0.0145    0.0471
          25    0.0092    0.0309    0.0140    0.0002    0.0010   -0.0007   -0.0384    0.0302
          26   -0.0088   -0.0510   -0.0090    0.0004   -0.0001   -0.0009   -0.0135   -0.0315
          27   -0.0077   -0.0119   -0.0148   -0.0006   -0.0013    0.0014    0.0651   -0.0238
          28    0.0100   -0.0094   -0.0040   -0.0000   -0.0017    0.0050    0.0510   -0.0026
          29   -0.0039   -0.0438   -0.0049    0.0004   -0.0004   -0.0001   -0.0236    0.0552
          30   -0.0121    0.0421    0.0091   -0.0002    0.0027   -0.0073   -0.0593   -0.0321
          31   -0.0223   -0.0493    0.0453    0.0107   -0.0028    0.0677   -0.0249   -0.0168
          32   -0.0944    0.0039    0.0095   -0.0030   -0.0060   -0.0037    0.0265    0.0001
          33    0.0686    0.0054   -0.0049   -0.0052    0.0048   -0.0219   -0.0119   -0.0065
          34   -0.0883   -0.0817    0.1444   -0.1075    0.1380   -0.1157    0.0271    0.0060
          35    0.0179    0.0060   -0.0199    0.3315    0.1727    0.0045    0.0019   -0.0009
          36   -0.0106   -0.0279    0.0482    0.1184    0.1657   -0.0659    0.0144    0.0032
          37    0.0457   -0.1014    0.1343   -0.0862   -0.1285   -0.1431   -0.0076   -0.0170
          38    0.0066   -0.0320    0.0507   -0.0322   -0.0651   -0.0721    0.0043   -0.0038
          39   -0.0179    0.0036    0.0081    0.3773   -0.1735   -0.0511    0.0042    0.0005
          40   -0.0076   -0.0599    0.1064    0.1230    0.0231   -0.1858    0.0268    0.0075
          41    0.0252    0.0043   -0.0281   -0.0561    0.3392    0.0663   -0.0030   -0.0013
          42   -0.0112    0.0270   -0.0380   -0.0365   -0.2228    0.0583   -0.0127   -0.0034
          43   -0.0194    0.0115   -0.0650   -0.0056    0.0029   -0.0431   -0.0094    0.0046
          44   -0.0283    0.0025    0.0327    0.0013   -0.0004    0.0180   -0.0017    0.0109
          45    0.0568   -0.0123    0.0696    0.0055   -0.0050    0.0414    0.0188   -0.0115
          46   -0.0182   -0.0062   -0.0085    0.0009    0.0007   -0.0033    0.0044   -0.0447
          47    0.0114   -0.0231    0.0029   -0.0016    0.0011   -0.0034   -0.0900    0.0755
          48    0.0204    0.0201    0.0112    0.0020   -0.0022    0.0133    0.0498    0.0159
          49   -0.0315   -0.0022   -0.0125   -0.0005    0.0009   -0.0047    0.0029   -0.0394
          50   -0.0429   -0.0428   -0.0125    0.0000    0.0022   -0.0096   -0.0795    0.0311
          51    0.0739    0.0324    0.0268    0.0008   -0.0027    0.0134    0.0464    0.0375
          52   -0.0067    0.0194   -0.0111   -0.0012    0.0006   -0.0048    0.0303   -0.0416
          53   -0.0248   -0.0274    0.0097    0.0024    0.0005    0.0043   -0.0930    0.0908
          54    0.0254   -0.0104    0.0104    0.0004   -0.0012    0.0056    0.0153    0.0017
          55    0.0128    0.0002   -0.0318   -0.0020    0.0019   -0.0197   -0.0336    0.0024
          56   -0.0599   -0.0268    0.0526    0.0022   -0.0011    0.0295    0.0427   -0.0268
          57    0.0215    0.0212    0.0116   -0.0000   -0.0015    0.0034    0.0232    0.0154
          58   -0.0480    0.0306   -0.0148   -0.0014    0.0017   -0.0086    0.0207   -0.0579
          59    0.0412   -0.0543    0.0169    0.0019   -0.0006    0.0062   -0.0740    0.0451
          60    0.0445   -0.0097    0.0114    0.0009   -0.0020    0.0094    0.0169    0.0555


   Root No.      41        42        43        44        45        46        47        48

                41 A      42 A      43 A      44 A      45 A      46 A      47 A      48 A   

                1596.7    1772.2    1800.1    1826.3    2892.9    3054.6    3063.5    3073.5
  
           1    0.0108   -0.0074   -0.0063   -0.0017   -0.0235   -0.0000    0.0000   -0.0000
           2    0.0012    0.0026    0.0157    0.0167   -0.0365   -0.0000    0.0001    0.0001
           3   -0.0104    0.0090   -0.0030   -0.0068   -0.0562    0.0001   -0.0001   -0.0002
           4   -0.0033   -0.0017    0.0010   -0.0010   -0.0007   -0.0000    0.0001    0.0002
           5   -0.0012   -0.0015   -0.0019   -0.0010    0.0012   -0.0002    0.0006    0.0016
           6    0.0014    0.0018    0.0007    0.0006    0.0019    0.0005   -0.0014   -0.0041
           7   -0.0341    0.0056   -0.0463    0.0082    0.0003    0.0001   -0.0000   -0.0001
           8   -0.0048    0.0142   -0.0652   -0.1063   -0.0008    0.0001   -0.0008   -0.0014
           9    0.0529   -0.0171    0.1104    0.0570   -0.0002   -0.0003    0.0006    0.0011
          10   -0.0035   -0.0096    0.0683   -0.0674   -0.0006    0.0001    0.0002   -0.0007
          11    0.0926    0.0223   -0.0598    0.1407    0.0004    0.0000   -0.0005    0.0010
          12   -0.0555   -0.0004   -0.0617    0.0073    0.0003   -0.0002    0.0000    0.0004
          13    0.0099    0.1274    0.0114   -0.0087    0.0004   -0.0000   -0.0000   -0.0000
          14   -0.0080   -0.1232   -0.0042    0.0082    0.0003    0.0000   -0.0000    0.0000
          15   -0.0101   -0.1064   -0.0138    0.0074   -0.0011   -0.0000    0.0000    0.0000
          16    0.0427   -0.0100    0.0247   -0.0237   -0.0001   -0.0065    0.0128    0.0185
          17   -0.0710    0.0076    0.0343    0.1254    0.0001    0.0003   -0.0014   -0.0034
          18   -0.0166    0.0098   -0.0585   -0.0466   -0.0001    0.0094   -0.0179   -0.0248
          19   -0.0058   -0.1188   -0.0150    0.0163   -0.0005   -0.0000   -0.0001    0.0001
          20   -0.0330    0.1352    0.0294   -0.0394    0.0002   -0.0000    0.0001   -0.0001
          21    0.0303    0.0868    0.0028    0.0018    0.0002    0.0000    0.0001   -0.0001
          22    0.0291    0.0113   -0.0321    0.0473    0.0000   -0.0050   -0.0087    0.0145
          23   -0.0065   -0.0364    0.0050   -0.1331   -0.0001    0.0016    0.0024   -0.0027
          24   -0.0384    0.0071    0.0439    0.0172   -0.0000    0.0062    0.0113   -0.0196
          25   -0.0426    0.0189   -0.0680    0.0374    0.0000    0.0026   -0.0027    0.0011
          26    0.0781   -0.0180    0.0324   -0.0572   -0.0001    0.0232   -0.0126    0.0150
          27    0.0119   -0.0160    0.0787   -0.0179   -0.0001   -0.0189    0.0122   -0.0114
          28   -0.0129   -0.0080    0.0591   -0.0054   -0.0000    0.0136    0.0117   -0.0007
          29   -0.0526    0.0120    0.0278    0.0421   -0.0000   -0.0250   -0.0196   -0.0006
          30    0.0532    0.0040   -0.1049   -0.0194    0.0001   -0.0037   -0.0044    0.0014
          31   -0.0099   -0.0003    0.0032   -0.0026    0.2972   -0.0001    0.0002    0.0006
          32   -0.0166   -0.0224   -0.0137   -0.0050    0.4414   -0.0001    0.0002    0.0007
          33    0.0097    0.0157    0.0128    0.0045    0.6839   -0.0002    0.0002    0.0008
          34   -0.0040   -0.0015   -0.0020   -0.0031    0.0007    0.0020   -0.0054   -0.0151
          35   -0.0006   -0.0014   -0.0005   -0.0000    0.0059    0.0023   -0.0065   -0.0188
          36    0.0011    0.0032    0.0005   -0.0000   -0.0108   -0.0044    0.0123    0.0348
          37    0.0031    0.0016    0.0075    0.0067    0.0006   -0.0005    0.0016    0.0048
          38    0.0007   -0.0008    0.0006    0.0023   -0.0128    0.0012   -0.0040   -0.0123
          39   -0.0008   -0.0003   -0.0005   -0.0007    0.0005    0.0002   -0.0006   -0.0017
          40    0.0031    0.0009   -0.0013   -0.0005   -0.0029   -0.0008    0.0023    0.0078
          41    0.0002    0.0011    0.0010    0.0006   -0.0105   -0.0012    0.0036    0.0118
          42   -0.0021   -0.0005   -0.0000   -0.0004   -0.0169   -0.0015    0.0045    0.0155
          43   -0.0118    0.0002   -0.0026   -0.0051    0.0009    0.0001   -0.0002   -0.0000
          44   -0.0063   -0.1344   -0.0012    0.0098   -0.0047   -0.0003    0.0006    0.0001
          45    0.0232    0.0869    0.0038    0.0016   -0.0005    0.0001   -0.0002   -0.0000
          46    0.0169   -0.0103    0.0459    0.0208    0.0007    0.0783   -0.1502   -0.2051
          47    0.0550    0.0006   -0.0254   -0.0494   -0.0003   -0.0113    0.0241    0.0353
          48   -0.0601    0.0148   -0.0508    0.0014   -0.0004   -0.1073    0.2043    0.2777
          49    0.0586   -0.0073   -0.0093   -0.0198   -0.0001   -0.1606   -0.1292    0.0005
          50    0.0062    0.0164   -0.0403    0.0360    0.0003    0.2876    0.2275    0.0021
          51   -0.0904    0.0001    0.0399    0.0057    0.0001    0.0489    0.0417   -0.0021
          52    0.0280   -0.0013   -0.0380    0.0092    0.0000    0.0567    0.1008   -0.1646
          53    0.0241    0.0191    0.0038    0.0462    0.0000   -0.0114   -0.0185    0.0281
          54   -0.0574   -0.0103    0.0535   -0.0442    0.0001   -0.0760   -0.1362    0.2239
          55   -0.0196   -0.0593    0.0093   -0.0083   -0.0031   -0.0000    0.0004   -0.0003
          56   -0.0021   -0.0650   -0.0296    0.0251   -0.0007    0.0001    0.0002   -0.0003
          57    0.0316    0.1325    0.0061   -0.0044    0.0033   -0.0000   -0.0007    0.0006
          58    0.0522   -0.0126    0.0258   -0.0113    0.0000   -0.0339    0.0219   -0.0194
          59    0.0013    0.0093   -0.0550   -0.0175    0.0002   -0.2670    0.1521   -0.1596
          60   -0.0776    0.0124   -0.0020    0.0282   -0.0001    0.2227   -0.1307    0.1320


   Root No.      49        50        51        52        53        54

                49 A      50 A      51 A      52 A      53 A      54 A   

                3080.4    3082.4    3085.7    3126.3    3143.7    3178.6
  
           1    0.0001   -0.0002   -0.0004   -0.0002    0.0004    0.0006
           2   -0.0000   -0.0003   -0.0008   -0.0001   -0.0005   -0.0001
           3    0.0002   -0.0007   -0.0008    0.0004   -0.0008   -0.0001
           4   -0.0002    0.0006    0.0002    0.0001    0.0000    0.0245
           5   -0.0024    0.0118   -0.0513    0.0001    0.0000    0.0001
           6    0.0077   -0.0388   -0.0155    0.0002    0.0002    0.0019
           7   -0.0002    0.0001   -0.0003   -0.0001    0.0002   -0.0000
           8    0.0009    0.0003    0.0001    0.0001    0.0010    0.0001
           9   -0.0003   -0.0002    0.0000    0.0002   -0.0010   -0.0000
          10   -0.0006   -0.0001   -0.0000   -0.0001   -0.0006    0.0000
          11    0.0015    0.0003    0.0000   -0.0000    0.0017    0.0000
          12   -0.0001   -0.0001   -0.0000    0.0001   -0.0002    0.0000
          13    0.0001   -0.0002    0.0001    0.0083    0.0130   -0.0001
          14   -0.0000   -0.0001   -0.0002   -0.0343   -0.0414    0.0002
          15   -0.0000    0.0001   -0.0000    0.0109    0.0087   -0.0000
          16   -0.0071   -0.0041    0.0003   -0.0000   -0.0001   -0.0002
          17    0.0016    0.0007   -0.0000   -0.0000   -0.0001    0.0000
          18    0.0094    0.0055   -0.0004    0.0000    0.0002    0.0003
          19    0.0001    0.0000    0.0000    0.0206   -0.0227    0.0000
          20   -0.0001   -0.0000    0.0000    0.0059   -0.0018   -0.0000
          21   -0.0000   -0.0000   -0.0001   -0.0345    0.0348    0.0000
          22    0.0155    0.0027    0.0001   -0.0000    0.0002   -0.0000
          23   -0.0022   -0.0004   -0.0000    0.0000   -0.0003    0.0000
          24   -0.0213   -0.0037   -0.0001    0.0000   -0.0001    0.0000
          25   -0.0017   -0.0004    0.0000   -0.0000    0.0001    0.0000
          26   -0.0110   -0.0034    0.0001    0.0000    0.0000   -0.0000
          27    0.0096    0.0028   -0.0000    0.0000   -0.0001    0.0000
          28    0.0087    0.0019    0.0000    0.0000   -0.0000    0.0000
          29   -0.0159   -0.0034   -0.0000    0.0001   -0.0000    0.0000
          30   -0.0025   -0.0006    0.0000   -0.0000    0.0000   -0.0000
          31   -0.0011    0.0049    0.0076    0.0000    0.0013    0.0010
          32   -0.0011    0.0046    0.0057   -0.0007    0.0011    0.0005
          33   -0.0014    0.0060    0.0102    0.0008    0.0036    0.0009
          34    0.0261   -0.1299    0.0316   -0.0002   -0.0002   -0.0928
          35    0.0334   -0.1674    0.0168   -0.0001   -0.0002   -0.1372
          36   -0.0608    0.3037   -0.0869    0.0004    0.0003    0.2576
          37   -0.0075    0.0379   -0.1642   -0.0001   -0.0006   -0.0983
          38    0.0198   -0.1004    0.4352   -0.0004    0.0005    0.3057
          39    0.0033   -0.0164   -0.0208    0.0003    0.0003   -0.0075
          40   -0.0165    0.0854    0.1311   -0.0010   -0.0007   -0.1083
          41   -0.0246    0.1271    0.1606   -0.0015   -0.0012   -0.1692
          42   -0.0339    0.1759    0.2935   -0.0024   -0.0018   -0.2725
          43    0.0001   -0.0004   -0.0000   -0.0985   -0.1066    0.0007
          44   -0.0000    0.0010    0.0017    0.4077    0.4346   -0.0020
          45   -0.0000   -0.0003   -0.0008   -0.1295   -0.1360    0.0005
          46    0.0758    0.0452   -0.0034   -0.0001    0.0003    0.0026
          47   -0.0134   -0.0080    0.0006    0.0000   -0.0001   -0.0006
          48   -0.1024   -0.0607    0.0043    0.0001   -0.0004   -0.0032
          49   -0.0945   -0.0200   -0.0002    0.0002    0.0001    0.0000
          50    0.1691    0.0356    0.0004   -0.0003   -0.0002   -0.0000
          51    0.0289    0.0062    0.0001   -0.0001   -0.0001   -0.0000
          52   -0.1722   -0.0299   -0.0008    0.0009   -0.0007    0.0000
          53    0.0285    0.0049    0.0001    0.0001   -0.0002   -0.0000
          54    0.2348    0.0408    0.0011   -0.0015    0.0012   -0.0000
          55   -0.0005   -0.0001   -0.0005   -0.2414    0.2201    0.0000
          56   -0.0004   -0.0001   -0.0001   -0.0681    0.0598    0.0000
          57    0.0009    0.0003    0.0008    0.4031   -0.3657   -0.0000
          58    0.0159    0.0045   -0.0001   -0.0000   -0.0001   -0.0000
          59    0.1198    0.0360   -0.0007   -0.0002   -0.0005    0.0002
          60   -0.1009   -0.0300    0.0006    0.0002    0.0005   -0.0001


           MASS-WEIGHTED COORDINATE ANALYSIS (NORMAL COORDINATES)


   Root No.       1         2         3         4         5         6         7         8

                 1 A       2 A       3 A       4 A       5 A       6 A       7 A       8 A   

                 117.0     161.5     175.2     276.8     278.5     382.7     445.3     506.8
  
           1    0.0201   -0.0261   -0.0371   -0.1949   -0.1587   -0.0863    0.0509   -0.1027
           2   -0.0174   -0.0466   -0.0589   -0.0585   -0.0887   -0.1339   -0.2422   -0.0221
           3   -0.0688    0.0303    0.0645   -0.0816   -0.2062   -0.0531    0.1548   -0.0033
           4    0.0325   -0.0264   -0.0358   -0.1985   -0.1519   -0.0967    0.0557   -0.1430
           5    0.2928    0.2373    0.2944    0.4151   -0.0992   -0.0239    0.1017    0.0731
           6    0.4162   -0.1246   -0.1375   -0.0942    0.2908    0.0753   -0.0931    0.0062
           7   -0.1057   -0.1709   -0.1997   -0.0120   -0.1389   -0.1314    0.2575    0.2360
           8   -0.0712   -0.1134   -0.1374   -0.0217   -0.0607   -0.1191   -0.0873    0.1019
           9   -0.1251   -0.0876   -0.0723    0.1314   -0.2379   -0.2785   -0.1994    0.0508
          10    0.0629   -0.1925   -0.2121    0.1472    0.0525   -0.1247    0.3645   -0.0444
          11   -0.0193   -0.1040   -0.1008    0.0351   -0.0147   -0.0975    0.1051   -0.0758
          12   -0.0098   -0.1043   -0.0902    0.2271   -0.1003   -0.2778   -0.1629   -0.1483
          13   -0.1349    0.1221    0.1360   -0.2196    0.0506    0.1211   -0.2848   -0.0873
          14   -0.1100    0.0378    0.0467   -0.1636    0.0040    0.0692   -0.0150   -0.0180
          15   -0.1803    0.1376    0.1926   -0.1456   -0.0652    0.1504    0.1759    0.0229
          16   -0.2660   -0.0113   -0.0272    0.2770   -0.0564    0.2922   -0.0421    0.2388
          17   -0.1314   -0.0711   -0.1320   -0.0498    0.0740    0.2077    0.0401    0.1047
          18   -0.2214   -0.0091   -0.0328    0.1640   -0.0781    0.1476   -0.1456    0.0377
          19   -0.0393   -0.0714   -0.0609    0.1376    0.4432   -0.0637   -0.1397    0.0868
          20   -0.0796   -0.0394   -0.0204   -0.0307    0.1763    0.0470    0.2505    0.0901
          21   -0.1013   -0.0035    0.0398    0.1493    0.1805   -0.0833   -0.0356    0.0776
          22    0.2919   -0.0734   -0.0718    0.0757   -0.1674    0.3281    0.0363   -0.1737
          23    0.0779   -0.0454   -0.0215    0.0370   -0.1415    0.0578   -0.1560   -0.1868
          24    0.1640   -0.0553   -0.0770    0.0263   -0.1379    0.1870   -0.0181   -0.1223
          25   -0.1157    0.2075    0.2264    0.1414    0.1628   -0.1672   -0.0062   -0.2864
          26   -0.0687    0.0304   -0.0082   -0.1008    0.1591   -0.0074    0.0267   -0.1538
          27   -0.1004    0.1099    0.0606   -0.0629    0.1804   -0.0180    0.2133   -0.1886
          28    0.2244    0.1745    0.2059   -0.1067   -0.0791   -0.1641   -0.1446    0.3184
          29    0.0620    0.0398    0.0409   -0.1549   -0.0193   -0.0577   -0.0583    0.0361
          30    0.1336    0.0838    0.0392   -0.2368    0.0229   -0.0094    0.1262    0.2410
          31    0.1082   -0.0040   -0.0082   -0.0334   -0.0013   -0.0169    0.0199   -0.0584
          32   -0.0174   -0.0725   -0.0692    0.0091   -0.0386   -0.1091   -0.1400    0.0268
          33   -0.0540    0.0454    0.0514   -0.0482   -0.0661    0.0285    0.0880   -0.0086
          34    0.0656   -0.0609   -0.0859   -0.1189    0.0613   -0.0069   -0.1031   -0.0607
          35    0.1024   -0.2907    0.4477    0.1485   -0.0218    0.0134    0.0800    0.0387
          36    0.1548   -0.2526    0.1211   -0.0406    0.1357    0.0426   -0.0545    0.0021
          37    0.0684    0.0491    0.0688    0.0579   -0.0544   -0.0045    0.1277   -0.0001
          38    0.1090    0.1029    0.1050    0.1672   -0.0321    0.0021    0.0733    0.0388
          39    0.1660    0.3851   -0.4346   -0.0090    0.1211    0.0256   -0.0676    0.0055
          40   -0.1060   -0.0119   -0.0131   -0.1142   -0.1400   -0.0727    0.0261   -0.0698
          41    0.1160    0.4595   -0.2034    0.1889   -0.0416   -0.0078    0.0696    0.0436
          42    0.1559   -0.2760    0.1402   -0.0424    0.1386    0.0442   -0.0569    0.0022
          43   -0.0748    0.0930    0.1012   -0.1421    0.0233    0.1196   -0.2278   -0.0274
          44   -0.0498    0.0381    0.0448   -0.0884    0.0036    0.0678   -0.0322   -0.0032
          45   -0.0816    0.0820    0.1063   -0.1125   -0.0171    0.1296    0.0723    0.0133
          46   -0.1392    0.0016   -0.0046    0.1416   -0.0259    0.2569   -0.0982    0.1245
          47   -0.0620   -0.0263   -0.0553   -0.0295    0.0464    0.1809    0.0703    0.0734
          48   -0.1069    0.0017   -0.0054    0.0943   -0.0326    0.1549   -0.1130    0.0465
          49    0.1203    0.1024    0.1204   -0.1199   -0.0380   -0.1110   -0.1001    0.2812
          50    0.0416    0.0357    0.0417   -0.0795   -0.0164   -0.0497   -0.0504    0.0913
          51    0.0810    0.0529    0.0359   -0.1553    0.0198   -0.0197    0.0364    0.2133
          52    0.1475   -0.0315   -0.0307    0.0229   -0.0870    0.2856   -0.0227   -0.1413
          53    0.0467   -0.0103    0.0084    0.0503   -0.0863    0.0568   -0.1645   -0.1213
          54    0.0907   -0.0239   -0.0315    0.0032   -0.0625    0.1892   -0.0148   -0.0942
          55   -0.0171   -0.0242   -0.0154    0.0927    0.2766   -0.0171   -0.1424    0.1084
          56   -0.0303   -0.0092    0.0011   -0.0045    0.1229    0.0571    0.1644    0.1023
          57   -0.0340   -0.0028    0.0141    0.0757    0.1531   -0.0162   -0.0558    0.0851
          58   -0.0698    0.1203    0.1313    0.0503    0.1350   -0.1132    0.0113   -0.3027
          59   -0.0324    0.0302    0.0141   -0.0417    0.1009   -0.0116    0.0493   -0.1164
          60   -0.0496    0.0667    0.0475   -0.0312    0.1310   -0.0270    0.1125   -0.1744


   Root No.       9        10        11        12        13        14        15        16

                 9 A      10 A      11 A      12 A      13 A      14 A      15 A      16 A   

                 531.8     555.8     611.0     724.6     748.2     778.5     814.6     835.6
  
           1    0.2508   -0.0062    0.0546   -0.0181    0.0298   -0.0088    0.0092   -0.0047
           2   -0.0905   -0.2323    0.3044   -0.0302   -0.0413   -0.0001   -0.1259    0.3109
           3    0.0352    0.1177    0.2668    0.0456   -0.3446   -0.1281    0.0571    0.1487
           4    0.3675   -0.0157    0.0583   -0.0470    0.1704   -0.0303    0.1267   -0.1101
           5   -0.0465   -0.0091    0.0130    0.0186   -0.0040    0.0107   -0.0477    0.1208
           6   -0.1007    0.0084   -0.0117    0.0058   -0.0778   -0.0285    0.0177    0.0487
           7   -0.1866    0.0374   -0.1401    0.4064    0.0129    0.1872   -0.1126   -0.0453
           8   -0.2197   -0.0734    0.1699    0.1459   -0.1217   -0.0078    0.0519   -0.0820
           9   -0.0401    0.0505   -0.1257    0.2534    0.0422    0.1202   -0.0427   -0.1050
          10   -0.2738    0.0853   -0.1022   -0.3216    0.0469    0.0945    0.1318    0.1782
          11    0.0306   -0.1292   -0.2661   -0.1343   -0.1620   -0.0361    0.1616   -0.0546
[...]
 FREQUENCY          1407.04         C  2 -- H 14         +52.3% ( 62.8%)      0.1%
 TRANSITION DIPOLE   0.0611         C  2 -- H 12         +24.6% ( 43.1%)      9.0%
 TRAVEL (Ang.)       0.3394         C  2 -- H 13         +16.9% ( 35.7%)     14.4%
 REDUCED MASS        0.4160         C  1 -- C  2          +5.2% ( 19.8%)      4.9%
 EFFECTIVE MASS      1.5915
 FORCE CONSTANT      0.4852

 VIBRATION         38   38A           ATOM PAIR      ENERGY CONTRIBUTION    RADIAL
 FREQUENCY          1413.34         C  1 -- C  2         +21.2% ( 66.4%)     95.9%
 TRANSITION DIPOLE   0.0758         C  2 -- H 14         +14.5% ( 54.9%)      3.4%
 TRAVEL (Ang.)       0.1738         C  2 -- H 13         +12.1% ( 50.3%)      4.2%
 REDUCED MASS        1.5790         C  2 -- H 12         +10.6% ( 47.1%)      3.9%
 EFFECTIVE MASS      7.5145         C  1 -- C  5         +10.0% ( 45.7%)     60.3%
 FORCE CONSTANT      1.8584

 VIBRATION         39   39A           ATOM PAIR      ENERGY CONTRIBUTION    RADIAL
 FREQUENCY          1444.38         C  9 -- C 10         +20.9% ( 74.0%)     99.9%
 TRANSITION DIPOLE   0.4778         C  3 -- C  4          +9.7% ( 50.4%)     99.8%
 TRAVEL (Ang.)       0.1665         C  4 -- C  7          +7.9% ( 45.4%)     84.4%
 REDUCED MASS        1.6837         C  1 -- C  3          +7.4% ( 44.1%)     62.4%
 EFFECTIVE MASS     10.9858
 FORCE CONSTANT      2.0696

 VIBRATION         40   40A           ATOM PAIR      ENERGY CONTRIBUTION    RADIAL
 FREQUENCY          1578.48         C  3 -- C  4         +16.4% ( 61.8%)     80.8%
 TRANSITION DIPOLE   0.6309         C  3 -- C  6         +13.0% ( 55.1%)     62.3%
 TRAVEL (Ang.)       0.1477         C  1 -- C  3         +11.3% ( 51.4%)     96.7%
 REDUCED MASS        1.9589         C  8 -- C 10         +10.9% ( 50.5%)     96.3%
 EFFECTIVE MASS     11.3679         C  4 -- C  8         +10.5% ( 49.7%)      3.7%
 FORCE CONSTANT      2.8757

 VIBRATION         41   41A           ATOM PAIR      ENERGY CONTRIBUTION    RADIAL
 FREQUENCY          1596.69         C  6 -- C  9         +14.3% ( 58.6%)    100.0%
 TRANSITION DIPOLE   0.3211         C  3 -- C  4         +12.3% ( 54.5%)     40.7%
 TRAVEL (Ang.)       0.1493         C  4 -- C  7         +11.5% ( 52.7%)     99.6%
 REDUCED MASS        1.8940         C  4 -- C  8         +10.7% ( 50.7%)     85.4%
 EFFECTIVE MASS     11.5019
 FORCE CONSTANT      2.8449

 VIBRATION         42   42A           ATOM PAIR      ENERGY CONTRIBUTION    RADIAL
 FREQUENCY          1772.24         C  5 -- C  7         +39.0% ( 98.8%)    100.0%
 TRANSITION DIPOLE   0.2718         C  4 -- C  5         +12.4% ( 55.8%)     62.9%
 TRAVEL (Ang.)       0.0878         C  1 -- C  5         +12.2% ( 55.3%)     20.4%
 REDUCED MASS        4.9348         C  5 -- H 15         +11.4% ( 53.3%)     11.9%
 EFFECTIVE MASS     11.9375         C  4 -- C  7         +11.1% ( 52.8%)      9.0%
 FORCE CONSTANT      9.1321         C  7 -- H 19         +10.5% ( 51.3%)     14.1%

 VIBRATION         43   43A           ATOM PAIR      ENERGY CONTRIBUTION    RADIAL
 FREQUENCY          1800.12         C  3 -- C  4         +15.4% ( 56.3%)     98.2%
 TRANSITION DIPOLE   0.0710         C  9 -- C 10         +14.2% ( 54.0%)     99.3%
 TRAVEL (Ang.)       0.1287         C  3 -- C  6         +13.7% ( 53.0%)     85.3%
 REDUCED MASS        2.2613         C  8 -- C 10          +8.3% ( 41.4%)     50.2%
 EFFECTIVE MASS     11.8791
 FORCE CONSTANT      4.3172

 VIBRATION         44   44A           ATOM PAIR      ENERGY CONTRIBUTION    RADIAL
 FREQUENCY          1826.29         C  4 -- C  8         +19.2% ( 64.9%)     94.3%
 TRANSITION DIPOLE   0.2268         C  3 -- C  4         +13.7% ( 54.8%)      1.3%
 TRAVEL (Ang.)       0.1225         C  3 -- C  6         +13.6% ( 54.7%)     86.5%
 REDUCED MASS        2.4613         C  4 -- C  7          +9.4% ( 45.4%)     59.3%
 EFFECTIVE MASS     11.9135
 FORCE CONSTANT      4.8367

 VIBRATION         45   45A           ATOM PAIR      ENERGY CONTRIBUTION    RADIAL
 FREQUENCY          2892.87         C  1 -- H 11         +96.8% ( 99.9%)    100.0%
 TRANSITION DIPOLE   0.1720         C  1 -- C  2          +1.0% ( 10.3%)      9.8%
 TRAVEL (Ang.)       0.1585         C  1 -- C  3          +1.0% ( 10.2%)     11.1%
 REDUCED MASS        0.9280         C  1 -- C  5          +1.0% ( 10.2%)     10.4%
 EFFECTIVE MASS      1.4384
 FORCE CONSTANT      4.5758

 VIBRATION         46   46A           ATOM PAIR      ENERGY CONTRIBUTION    RADIAL
 FREQUENCY          3054.61         C  9 -- H 20         +45.7% ( 68.7%)    100.0%
 TRANSITION DIPOLE   0.0739         C 10 -- H 17         +41.5% ( 65.5%)    100.0%
 TRAVEL (Ang.)       0.2410         C  6 -- H 16          +6.7% ( 26.3%)     99.9%
 REDUCED MASS        0.3801         C  8 -- H 18          +3.4% ( 18.8%)     99.8%
 EFFECTIVE MASS      1.4922
 FORCE CONSTANT      2.0894

 VIBRATION         47   47A           ATOM PAIR      ENERGY CONTRIBUTION    RADIAL
 FREQUENCY          3063.53         C 10 -- H 17         +33.2% ( 58.5%)    100.0%
 TRANSITION DIPOLE   0.3085         C  6 -- H 16         +30.7% ( 56.3%)    100.0%
 TRAVEL (Ang.)       0.2924         C  9 -- H 20         +19.2% ( 44.6%)     99.9%
 REDUCED MASS        0.2574         C  8 -- H 18         +13.8% ( 37.7%)    100.0%
 EFFECTIVE MASS      1.5063
 FORCE CONSTANT      1.4234

 VIBRATION         48   48A           ATOM PAIR      ENERGY CONTRIBUTION    RADIAL
 FREQUENCY          3073.53         C  6 -- H 16         +47.7% ( 70.2%)    100.0%
 TRANSITION DIPOLE   0.5246         C  8 -- H 18         +30.9% ( 56.5%)    100.0%
 TRAVEL (Ang.)       0.2501         C  9 -- H 20         +17.1% ( 42.0%)    100.0%
 REDUCED MASS        0.3507         C  6 -- C  9          +1.1% ( 10.9%)     86.0%
 EFFECTIVE MASS      1.5430
 FORCE CONSTANT      1.9518

 VIBRATION         49   49A           ATOM PAIR      ENERGY CONTRIBUTION    RADIAL
 FREQUENCY          3080.44         C  8 -- H 18         +47.7% ( 70.1%)    100.0%
 TRANSITION DIPOLE   0.3504         C 10 -- H 17         +21.3% ( 46.9%)    100.0%
 TRAVEL (Ang.)       0.2695         C  9 -- H 20         +13.8% ( 37.7%)    100.0%
 REDUCED MASS        0.3013         C  6 -- H 16          +9.2% ( 30.7%)    100.0%
 EFFECTIVE MASS      1.5784
 FORCE CONSTANT      1.6846

 VIBRATION         50   50A           ATOM PAIR      ENERGY CONTRIBUTION    RADIAL
 FREQUENCY          3082.38         C  2 -- H 12         +62.0% ( 81.2%)     98.8%
 TRANSITION DIPOLE   0.0550         C  2 -- H 14         +25.3% ( 51.9%)     91.5%
 TRAVEL (Ang.)       0.2139         C  2 -- H 13          +6.1% ( 25.4%)     62.4%
 REDUCED MASS        0.4779         C  6 -- H 16          +2.5% ( 16.3%)    100.0%
 EFFECTIVE MASS      1.5114
 FORCE CONSTANT      2.6755

 VIBRATION         51   51A           ATOM PAIR      ENERGY CONTRIBUTION    RADIAL
 FREQUENCY          3085.69         C  2 -- H 13         +59.7% ( 79.7%)     98.3%
 TRANSITION DIPOLE   0.0358         C  2 -- H 14         +36.0% ( 61.9%)     94.5%
 TRAVEL (Ang.)       0.2056         C  2 -- H 12          +3.2% ( 18.4%)     39.0%
 REDUCED MASS        0.5169         C  1 -- C  2          +1.0% ( 10.4%)      0.0%
 EFFECTIVE MASS      1.5080
 FORCE CONSTANT      2.8995

 VIBRATION         52   52A           ATOM PAIR      ENERGY CONTRIBUTION    RADIAL
 FREQUENCY          3126.25         C  7 -- H 19         +52.2% ( 73.6%)    100.0%
 TRANSITION DIPOLE   0.3874         C  5 -- H 15         +44.5% ( 68.0%)    100.0%
 TRAVEL (Ang.)       0.2147         C  5 -- C  7          +1.2% ( 11.0%)      0.1%
 REDUCED MASS        0.4679         C  4 -- C  7          +0.8% (  9.3%)     30.5%
 EFFECTIVE MASS      1.4729
 FORCE CONSTANT      2.6942

 VIBRATION         53   53A           ATOM PAIR      ENERGY CONTRIBUTION    RADIAL
 FREQUENCY          3143.71         C  5 -- H 15         +51.1% ( 73.2%)     99.9%
 TRANSITION DIPOLE   0.4269         C  7 -- H 19         +43.5% ( 67.6%)     99.9%
 TRAVEL (Ang.)       0.2135         C  5 -- C  7          +2.4% ( 16.0%)     99.9%
 REDUCED MASS        0.4704         C  4 -- C  5          +1.0% ( 10.2%)     97.6%
 EFFECTIVE MASS      1.6503
 FORCE CONSTANT      2.7393

 VIBRATION         54   54A           ATOM PAIR      ENERGY CONTRIBUTION    RADIAL
 FREQUENCY          3178.64         C  2 -- H 14         +37.0% ( 58.5%)     97.6%
 TRANSITION DIPOLE   0.0399         C  2 -- H 13         +33.0% ( 55.3%)     97.1%
 TRAVEL (Ang.)       0.2539         C  2 -- H 12         +29.8% ( 52.5%)     96.4%
 REDUCED MASS        0.3292         C  1 -- C  2          +0.3% (  5.0%)     99.3%
 EFFECTIVE MASS      1.1348
 FORCE CONSTANT      1.9596

      SYMMETRY NUMBER FOR POINT-GROUP C1  =  1


          SYSTEM IS A GROUND STATE



 InChI=1S/C10H10/c1-8-6-7-9-4-2-3-5-10(8)9/h2-8H,1H3


          MOLECULE IS NOT LINEAR

          THERE ARE 54 GENUINE VIBRATIONS IN THIS SYSTEM
          THIS THERMODYNAMICS CALCULATION IS LIMITED TO
          MOLECULES WHICH HAVE NO INTERNAL ROTATIONS




                    CALCULATED THERMODYNAMIC PROPERTIES
                                          *
   TEMP. (K)   PARTITION FUNCTION   H.O.F.    ENTHALPY  HEAT CAPACITY ENTROPY
                                   KCAL/MOL   CAL/MOLE    CAL/K/MOL  CAL/K/MOL


 298.00  VIB.     0.3156D+02                  3249.9037    26.2880    17.7654
         ROT.     0.5078D+06                   888.2803     2.9808    29.0884
         INT.     0.1603D+08                  4138.1840    29.2688    46.8539
         TRA.     0.1436D+28                  1480.4672     4.9680    40.5022
         TOT.                       35.710    5618.6512    34.2368    87.3561

 200.00  VIB.     0.5935D+01                  1236.5996    15.0484     9.7219
         ROT.     0.2792D+06                   596.1613     2.9808    27.8998
         INT.     0.1657D+07                  1832.7608    18.0292    37.6217
         TRA.     0.7896D+27                   993.6021     4.9680    38.5210
         TOT.                       32.917    2826.3630    22.9972    76.1427

 210.00  VIB.     0.6946D+01                  1392.3687    16.1100    10.4817
         ROT.     0.3004D+06                   625.9693     2.9808    28.0452
         INT.     0.2086D+07                  2018.3381    19.0908    38.5269
         TRA.     0.8496D+27                  1043.2822     4.9680    38.7634
         TOT.                       33.153    3061.6203    24.0589    77.2904

 220.00  VIB.     0.8155D+01                  1558.8889    17.1982    11.2562
         ROT.     0.3221D+06                   655.7774     2.9808    28.1839
         INT.     0.2627D+07                  2214.6663    20.1791    39.4401
         TRA.     0.9110D+27                  1092.9623     4.9680    38.9945
         TOT.                       33.399    3307.6287    25.1471    78.4346

 230.00  VIB.     0.9604D+01                  1736.4146    18.3107    12.0451
         ROT.     0.3443D+06                   685.5855     2.9808    28.3164
         INT.     0.3307D+07                  2422.0000    21.2915    40.3615
         TRA.     0.9738D+27                  1142.6424     4.9680    39.2154
         TOT.                       33.656    3564.6425    26.2595    79.5769

 240.00  VIB.     0.1135D+02                  1925.1750    19.4447    12.8483
         ROT.     0.3670D+06                   715.3935     2.9808    28.4432
         INT.     0.4165D+07                  2640.5685    22.4255    41.2916
         TRA.     0.1038D+28                  1192.3226     4.9680    39.4268
         TOT.                       33.924    3832.8910    27.3935    80.7184

 250.00  VIB.     0.1344D+02                  2125.3710    20.5973    13.6654
         ROT.     0.3902D+06                   745.2016     2.9808    28.5649
         INT.     0.5246D+07                  2870.5726    23.5781    42.2303
         TRA.     0.1103D+28                  1242.0027     4.9680    39.6296
         TOT.                       34.204    4112.5753    28.5461    81.8599

 260.00  VIB.     0.1598D+02                  2337.1728    21.7653    14.4960
         ROT.     0.4138D+06                   775.0097     2.9808    28.6818
         INT.     0.6612D+07                  3112.1824    24.7461    43.1778
         TRA.     0.1170D+28                  1291.6828     4.9680    39.8245
         TOT.                       34.495    4403.8652    29.7142    83.0022

 270.00  VIB.     0.1904D+02                  2560.7184    22.9456    15.3395
         ROT.     0.4380D+06                   804.8177     2.9808    28.7943
         INT.     0.8338D+07                  3365.5362    25.9264    44.1338
         TRA.     0.1239D+28                  1341.3629     4.9680    40.0120
         TOT.                       34.798    4706.8990    30.8944    84.1458

 280.00  VIB.     0.2275D+02                  2796.1139    24.1348    16.1954
         ROT.     0.4625D+06                   834.6258     2.9808    28.9027
         INT.     0.1052D+08                  3630.7397    27.1156    45.0982
         TRA.     0.1308D+28                  1391.0430     4.9680    40.1926
         TOT.                       35.113    5021.7826    32.0836    85.2908

 290.00  VIB.     0.2726D+02                  3043.4331    25.3298    17.0632
         ROT.     0.4875D+06                   864.4339     2.9808    29.0073
         INT.     0.1329D+08                  3907.8670    28.3106    46.0705
         TRA.     0.1379D+28                  1440.7231     4.9680    40.3670
         TOT.                       35.440    5348.5901    33.2786    86.4375

 300.00  VIB.     0.3275D+02                  3302.7194    26.5277    17.9421
         ROT.     0.5129D+06                   894.2419     2.9808    29.1084
         INT.     0.1680D+08                  4196.9613    29.5085    47.0505
         TRA.     0.1451D+28                  1490.4032     4.9680    40.5354
         TOT.                       35.778    5687.3645    34.4765    87.5859

 310.00  VIB.     0.3944D+02                  3573.9867    27.7255    18.8315
         ROT.     0.5388D+06                   924.0500     2.9808    29.2061
         INT.     0.2125D+08                  4498.0366    30.7064    48.0376
         TRA.     0.1524D+28                  1540.0833     4.9680    40.6983
         TOT.                       36.129    6038.1200    35.6744    88.7359

 320.00  VIB.     0.4761D+02                  3857.2214    28.9207    19.7306
         ROT.     0.5651D+06                   953.8580     2.9808    29.3008
         INT.     0.2690D+08                  4811.0794    31.9016    49.0314
         TRA.     0.1598D+28                  1589.7634     4.9680    40.8560
         TOT.                       36.492    6400.8428    36.8696    89.8874

 330.00  VIB.     0.5762D+02                  4152.3845    30.1108    20.6388
         ROT.     0.5918D+06                   983.6661     2.9808    29.3925
         INT.     0.3410D+08                  5136.0506    33.0917    50.0313
         TRA.     0.1674D+28                  1639.4435     4.9680    41.0089
         TOT.                       36.867    6775.4941    38.0597    91.0402

 340.00  VIB.     0.6988D+02                  4459.4139    31.2936    21.5553
         ROT.     0.6189D+06                  1013.4742     2.9808    29.4815
         INT.     0.4325D+08                  5472.8881    34.2744    51.0367
         TRA.     0.1750D+28                  1689.1236     4.9680    41.1572
         TOT.                       37.253    7162.0117    39.2425    92.1939

 350.00  VIB.     0.8495D+02                  4778.2262    32.4671    22.4793
         ROT.     0.6464D+06                  1043.2822     2.9808    29.5679
         INT.     0.5491D+08                  5821.5084    35.4479    52.0472
         TRA.     0.1828D+28                  1738.8037     4.9680    41.3012
         TOT.                       37.651    7560.3122    40.4159    93.3484

 360.00  VIB.     0.1035D+03                  5108.7195    33.6296    23.4103
         ROT.     0.6743D+06                  1073.0903     2.9808    29.6519
         INT.     0.6977D+08                  6181.8098    36.6104    53.0621
         TRA.     0.1907D+28                  1788.4838     4.9680    41.4412
         TOT.                       38.061    7970.2936    41.5784    94.5033

 370.00  VIB.     0.1263D+03                  5450.7752    34.7794    24.3474
         ROT.     0.7026D+06                  1102.8984     2.9808    29.7335
         INT.     0.8874D+08                  6553.6736    37.7602    54.0809
         TRA.     0.1987D+28                  1838.1639     4.9680    41.5773
         TOT.                       38.483    8391.8375    42.7282    95.6582

 380.00  VIB.     0.1545D+03                  5804.2604    35.9152    25.2900
         ROT.     0.7312D+06                  1132.7064     2.9808    29.8130
         INT.     0.1130D+09                  6936.9669    38.8961    55.1030
         TRA.     0.2068D+28                  1887.8440     4.9680    41.7098
         TOT.                       38.916    8824.8109    43.8641    96.8128

 390.00  VIB.     0.1893D+03                  6169.0299    37.0360    26.2375
         ROT.     0.7603D+06                  1162.5145     2.9808    29.8904
         INT.     0.1439D+09                  7331.5444    40.0168    56.1279
         TRA.     0.2150D+28                  1937.5242     4.9680    41.8388
         TOT.                       39.360    9269.0685    44.9849    97.9667

 400.00  VIB.     0.2324D+03                  6544.9277    38.1408    27.1891
         ROT.     0.7897D+06                  1192.3226     2.9808    29.9659
         INT.     0.1835D+09                  7737.2503    41.1216    57.1550
         TRA.     0.2233D+28                  1987.2043     4.9680    41.9646
         TOT.                       39.816    9724.4546    46.0896    99.1196

   *: NOTE: HEATS OF FORMATION ARE RELATIVE TO THE
            ELEMENTS IN THEIR STANDARD STATE AT 298K
              (=  Standard Enthalpy of Formation).

            Hvib:  Zero-point energy is not included.
                   frequencies of less than zero cm-1 are not included.
            Hrot = (3/2)RT
            Htra = (3/2)RT + pV = (5/2)RT

            Heat capacity is Cp, not Cv

          For more information, see: HTTP://OpenMOPAC.net/Manual/thermochemistry.html


           FORCE CONSTANT IN CARTESIAN COORDINATES (Millidynes/A)

    ATOM   CHEMICAL       X               Y               Z
   NUMBER   SYMBOL  FORCE CONSTANT  FORCE CONSTANT  FORCE CONSTANT

      1       C        8.872644        8.158925        8.578647
      2       C        8.269480        8.370399        8.296186
      3       C        5.979380       11.868443       10.018895
      4       C        6.614996       13.131028        8.642852
      5       C        6.782451       12.469587        7.486979
      6       C        6.196786       10.774788        9.596597
      7       C        7.294834        9.871013       10.366968
      8       C        6.327313       10.851285        9.379403
      9       C        6.141356       10.774751        9.300966
     10       C        6.182348       10.815087        9.236858
     11       H        1.143051        1.657891        3.114991
     12       H        1.246665        1.591566        3.907413
     13       H        1.251090        4.846429        0.662678
     14       H        1.289158        1.816596        3.670026
     15       H        0.718829        4.707127        1.006644
     16       H        2.054414        0.732692        3.475802
     17       H        1.543627        3.975023        0.745384
     18       H        2.052593        0.730331        3.491518
     19       H        1.703020        0.745146        3.980382
     20       H        0.555810        3.266150        2.443552

 **********************
 *                    *
 * JOB ENDED NORMALLY *
 *                    *
 **********************



 TOTAL JOB TIME:             2.41 SECONDS

 == MOPAC DONE ==
