 *******************************************************************************
 **                                                                           **
 **                              MOPAC v23.1.2                                **
 **                                                                           **
 *******************************************************************************
 **          Digital Object Identifier (DOI): 10.5281/zenodo.6511958          **
 **    Visit the DOI location for information on how to cite this program.    **
 *******************************************************************************

                              PM3 CALCULATION RESULTS

 *******************************************************************************
 *  CALCULATION DONE: (MAX THREADS = 1)              Tue Jun  3 16:26:53 2025  *
 *  PM3        - The PM3 Hamiltonian to be used
 *  PRECISE    - TIGHTER CRITERIA TO BE USED
 *  NOSYM      - POINT-GROUP SYMMETRY SET TO C1
 *  THREADS=1  - MULTI-THREADING NOT USED
 *  T=         - A TIME OF 172800.0 SECONDS REQUESTED
 *  DUMP=N     - RESTART FILE WRITTEN EVERY 7200.0 SECONDS REQUESTED
 *******************************************************************************
pm3  precise nosym THREADS=1
 InChI=1S/C10H10/c1-3-6-10-8-5-4-7-9(10)2/h4-8,10H,1-2H2

   ATOM   CHEMICAL          X               Y               Z
  NUMBER   SYMBOL      (ANGSTROMS)     (ANGSTROMS)     (ANGSTROMS)

     1       C          0.29760000  *   0.34510000  *   0.25410000  *
     2       C         -0.96510000  *  -0.39560000  *   0.65550000  *
     3       C          0.00930000  *   1.70120000  *  -0.34770000  *
     4       C         -2.27770000  *   0.05590000  *   0.14900000  *
     5       C          1.06310000  *  -0.47200000  *  -0.74820000  *
     6       C         -1.21670000  *   2.07470000  *  -0.73000000  *
     7       C         -2.38750000  *   1.21020000  *  -0.50900000  *
     8       C         -0.89160000  *  -1.47570000  *   1.43870000  *
     9       C          3.45240000  *  -1.37060000  *  -0.21290000  *
    10       C          2.25980000  *  -0.92190000  *  -0.48140000  *
    11       H          0.91180000  *   0.51460000  *   1.16820000  *
    12       H          0.83960000  *   2.37350000  *  -0.52710000  *
    13       H          0.61120000  *  -0.71310000  *  -1.70240000  *
    14       H         -3.16630000  *  -0.53880000  *   0.32570000  *
    15       H         -3.35790000  *   1.53540000  *  -0.86180000  *
    16       H         -1.35820000  *   3.04000000  *  -1.19900000  *
    17       H          0.06390000  *  -1.82800000  *   1.80730000  *
    18       H         -1.78260000  *  -2.02180000  *   1.72340000  *
    19       H          3.75130000  *  -1.52890000  *   0.81430000  *
    20       H          4.14350000  *  -1.58420000  *  -1.01670000  *



          CARTESIAN COORDINATES 

    NO.       ATOM           X           Y           Z

     1         C          0.2976      0.3451      0.2541
     2         C         -0.9651     -0.3956      0.6555
     3         C          0.0093      1.7012     -0.3477
     4         C         -2.2777      0.0559      0.1490
     5         C          1.0631     -0.4720     -0.7482
     6         C         -1.2167      2.0747     -0.7300
     7         C         -2.3875      1.2102     -0.5090
     8         C         -0.8916     -1.4757      1.4387
     9         C          3.4524     -1.3706     -0.2129
    10         C          2.2598     -0.9219     -0.4814
    11         H          0.9118      0.5146      1.1682
    12         H          0.8396      2.3735     -0.5271
    13         H          0.6112     -0.7131     -1.7024
    14         H         -3.1663     -0.5388      0.3257
    15         H         -3.3579      1.5354     -0.8618
    16         H         -1.3582      3.0400     -1.1990
    17         H          0.0639     -1.8280      1.8073
    18         H         -1.7826     -2.0218      1.7234
    19         H          3.7513     -1.5289      0.8143
    20         H          4.1435     -1.5842     -1.0167

  H: (PM3): J. J. P. STEWART, J. COMP. CHEM. 10, 209 (1989).
  C: (PM3): J. J. P. STEWART, J. COMP. CHEM. 10, 209 (1989).

           Empirical Formula: C10 H10  =    20 atoms



      MOLECULAR POINT GROUP   :   C1  


      RHF CALCULATION, NO. OF DOUBLY OCCUPIED LEVELS = 25


          Geometry optimization using EF

          DIAGONAL MATRIX USED AS START HESSIAN

 CYCLE:     1 TIME:   0.016 TIME LEFT:  2.00D  GRAD.:    83.182 HEAT:  120.4714
 CYCLE:     2 TIME:   0.016 TIME LEFT:  2.00D  GRAD.:   118.989 HEAT:  119.4871
 CYCLE:     3 TIME:   0.008 TIME LEFT:  2.00D  GRAD.:   117.472 HEAT:  116.4422
 CYCLE:     4 TIME:   0.008 TIME LEFT:  2.00D  GRAD.:   145.174 HEAT:  115.6377
 CYCLE:     5 TIME:   0.004 TIME LEFT:  2.00D  GRAD.:   122.492 HEAT:  111.4268
 CYCLE:     6 TIME:   0.016 TIME LEFT:  2.00D  GRAD.:    89.611 HEAT:  108.1102
 CYCLE:     7 TIME:   0.004 TIME LEFT:  2.00D  GRAD.:   110.656 HEAT:  106.3172
 CYCLE:     8 TIME:   0.008 TIME LEFT:  2.00D  GRAD.:   108.642 HEAT:  105.0161
 CYCLE:     9 TIME:   0.008 TIME LEFT:  2.00D  GRAD.:   117.431 HEAT:  103.5496
 CYCLE:    10 TIME:   0.008 TIME LEFT:  2.00D  GRAD.:   129.449 HEAT:  102.3829
 CYCLE:    11 TIME:   0.008 TIME LEFT:  2.00D  GRAD.:    74.594 HEAT:  100.4234
 CYCLE:    12 TIME:   0.008 TIME LEFT:  2.00D  GRAD.:    66.094 HEAT:  98.67220
 CYCLE:    13 TIME:   0.008 TIME LEFT:  2.00D  GRAD.:    84.183 HEAT:  97.84111
 CYCLE:    14 TIME:   0.008 TIME LEFT:  2.00D  GRAD.:   101.895 HEAT:  97.31830
 CYCLE:    15 TIME:   0.004 TIME LEFT:  2.00D  GRAD.:    87.279 HEAT:  96.82165
 CYCLE:    16 TIME:   0.008 TIME LEFT:  2.00D  GRAD.:    55.039 HEAT:  95.31555
 CYCLE:    17 TIME:   0.012 TIME LEFT:  2.00D  GRAD.:    31.722 HEAT:  94.80292
 CYCLE:    18 TIME:   0.012 TIME LEFT:  2.00D  GRAD.:    19.214 HEAT:  94.55788
 CYCLE:    19 TIME:   0.008 TIME LEFT:  2.00D  GRAD.:    21.344 HEAT:  94.43061
 CYCLE:    20 TIME:   0.004 TIME LEFT:  2.00D  GRAD.:    16.633 HEAT:  94.18282
 CYCLE:    21 TIME:   0.008 TIME LEFT:  2.00D  GRAD.:    18.795 HEAT:  93.90602
 CYCLE:    22 TIME:   0.008 TIME LEFT:  2.00D  GRAD.:    19.482 HEAT:  93.62737
 CYCLE:    23 TIME:   0.008 TIME LEFT:  2.00D  GRAD.:    12.473 HEAT:  93.30220
 CYCLE:    24 TIME:   0.008 TIME LEFT:  2.00D  GRAD.:    10.748 HEAT:  93.06553
 CYCLE:    25 TIME:   0.008 TIME LEFT:  2.00D  GRAD.:    13.355 HEAT:  92.91200
 CYCLE:    26 TIME:   0.008 TIME LEFT:  2.00D  GRAD.:    10.465 HEAT:  92.82729
 CYCLE:    27 TIME:   0.008 TIME LEFT:  2.00D  GRAD.:    11.192 HEAT:  92.78843
 CYCLE:    28 TIME:   0.008 TIME LEFT:  2.00D  GRAD.:     5.663 HEAT:  92.73793
 CYCLE:    29 TIME:   0.004 TIME LEFT:  2.00D  GRAD.:     4.950 HEAT:  92.71356
 CYCLE:    30 TIME:   0.008 TIME LEFT:  2.00D  GRAD.:     3.173 HEAT:  92.69491
 CYCLE:    31 TIME:   0.008 TIME LEFT:  2.00D  GRAD.:     3.095 HEAT:  92.68246
 CYCLE:    32 TIME:   0.004 TIME LEFT:  2.00D  GRAD.:     2.737 HEAT:  92.67625
 CYCLE:    33 TIME:   0.008 TIME LEFT:  2.00D  GRAD.:     2.217 HEAT:  92.67015
 CYCLE:    34 TIME:   0.008 TIME LEFT:  2.00D  GRAD.:     1.875 HEAT:  92.66570
 CYCLE:    35 TIME:   0.008 TIME LEFT:  2.00D  GRAD.:     1.753 HEAT:  92.66213
 CYCLE:    36 TIME:   0.008 TIME LEFT:  2.00D  GRAD.:     1.488 HEAT:  92.65906
 CYCLE:    37 TIME:   0.004 TIME LEFT:  2.00D  GRAD.:     1.337 HEAT:  92.65636
 CYCLE:    38 TIME:   0.008 TIME LEFT:  2.00D  GRAD.:     0.946 HEAT:  92.65478
 CYCLE:    39 TIME:   0.008 TIME LEFT:  2.00D  GRAD.:     0.670 HEAT:  92.65340
 CYCLE:    40 TIME:   0.004 TIME LEFT:  2.00D  GRAD.:     0.598 HEAT:  92.65246
 CYCLE:    41 TIME:   0.008 TIME LEFT:  2.00D  GRAD.:     0.631 HEAT:  92.65198
 CYCLE:    42 TIME:   0.008 TIME LEFT:  2.00D  GRAD.:     0.422 HEAT:  92.65161
 CYCLE:    43 TIME:   0.008 TIME LEFT:  2.00D  GRAD.:     0.397 HEAT:  92.65126
 CYCLE:    44 TIME:   0.004 TIME LEFT:  2.00D  GRAD.:     0.419 HEAT:  92.65084
 CYCLE:    45 TIME:   0.008 TIME LEFT:  2.00D  GRAD.:     0.429 HEAT:  92.65040
 CYCLE:    46 TIME:   0.008 TIME LEFT:  2.00D  GRAD.:     0.456 HEAT:  92.64987
 CYCLE:    47 TIME:   0.008 TIME LEFT:  2.00D  GRAD.:     0.421 HEAT:  92.64935
 CYCLE:    48 TIME:   0.008 TIME LEFT:  2.00D  GRAD.:     0.362 HEAT:  92.64895
 CYCLE:    49 TIME:   0.008 TIME LEFT:  2.00D  GRAD.:     0.296 HEAT:  92.64867
 CYCLE:    50 TIME:   0.004 TIME LEFT:  2.00D  GRAD.:     0.267 HEAT:  92.64846
 CYCLE:    51 TIME:   0.008 TIME LEFT:  2.00D  GRAD.:     0.280 HEAT:  92.64822
 CYCLE:    52 TIME:   0.008 TIME LEFT:  2.00D  GRAD.:     0.304 HEAT:  92.64793
 CYCLE:    53 TIME:   0.004 TIME LEFT:  2.00D  GRAD.:     0.343 HEAT:  92.64759
 CYCLE:    54 TIME:   0.008 TIME LEFT:  2.00D  GRAD.:     0.401 HEAT:  92.64716
 CYCLE:    55 TIME:   0.008 TIME LEFT:  2.00D  GRAD.:     0.488 HEAT:  92.64665
 CYCLE:    56 TIME:   0.004 TIME LEFT:  2.00D  GRAD.:     0.585 HEAT:  92.64605
 CYCLE:    57 TIME:   0.008 TIME LEFT:  2.00D  GRAD.:     0.603 HEAT:  92.64534
 CYCLE:    58 TIME:   0.012 TIME LEFT:  2.00D  GRAD.:     0.783 HEAT:  92.64403
 CYCLE:    59 TIME:   0.008 TIME LEFT:  2.00D  GRAD.:     0.676 HEAT:  92.64300
 CYCLE:    60 TIME:   0.008 TIME LEFT:  2.00D  GRAD.:     0.996 HEAT:  92.64027
 CYCLE:    61 TIME:   0.004 TIME LEFT:  2.00D  GRAD.:     0.754 HEAT:  92.63920
 CYCLE:    62 TIME:   0.012 TIME LEFT:  2.00D  GRAD.:     0.407 HEAT:  92.63796
 CYCLE:    63 TIME:   0.008 TIME LEFT:  2.00D  GRAD.:     0.502 HEAT:  92.63720
 CYCLE:    64 TIME:   0.008 TIME LEFT:  2.00D  GRAD.:     0.525 HEAT:  92.63662
 CYCLE:    65 TIME:   0.008 TIME LEFT:  2.00D  GRAD.:     0.513 HEAT:  92.63599
 CYCLE:    66 TIME:   0.008 TIME LEFT:  2.00D  GRAD.:     0.537 HEAT:  92.63519
 CYCLE:    67 TIME:   0.008 TIME LEFT:  2.00D  GRAD.:     0.427 HEAT:  92.63476
 CYCLE:    68 TIME:   0.008 TIME LEFT:  2.00D  GRAD.:     0.653 HEAT:  92.63466
 CYCLE:    69 TIME:   0.012 TIME LEFT:  2.00D  GRAD.:     0.396 HEAT:  92.63414
 CYCLE:    70 TIME:   0.012 TIME LEFT:  2.00D  GRAD.:     0.246 HEAT:  92.63394
 CYCLE:    71 TIME:   0.008 TIME LEFT:  2.00D  GRAD.:     0.196 HEAT:  92.63382
 CYCLE:    72 TIME:   0.004 TIME LEFT:  2.00D  GRAD.:     0.160 HEAT:  92.63361
 CYCLE:    73 TIME:   0.008 TIME LEFT:  2.00D  GRAD.:     0.191 HEAT:  92.63362
 CYCLE:    74 TIME:   0.008 TIME LEFT:  2.00D  GRAD.:     0.109 HEAT:  92.63359
 CYCLE:    75 TIME:   0.008 TIME LEFT:  2.00D  GRAD.:     0.103 HEAT:  92.63357
 CYCLE:    76 TIME:   0.004 TIME LEFT:  2.00D  GRAD.:     0.260 HEAT:  92.63368
 CYCLE:    77 TIME:   0.008 TIME LEFT:  2.00D  GRAD.:     0.116 HEAT:  92.63357
 CYCLE:    78 TIME:   0.008 TIME LEFT:  2.00D  GRAD.:     0.096 HEAT:  92.63356
 CYCLE:    79 TIME:   0.008 TIME LEFT:  2.00D  GRAD.:     0.069 HEAT:  92.63355
 CYCLE:    80 TIME:   0.004 TIME LEFT:  2.00D  GRAD.:     0.098 HEAT:  92.63353
 CYCLE:    81 TIME:   0.008 TIME LEFT:  2.00D  GRAD.:     0.074 HEAT:  92.63352
 CYCLE:    82 TIME:   0.008 TIME LEFT:  2.00D  GRAD.:     0.094 HEAT:  92.63349
 CYCLE:    83 TIME:   0.004 TIME LEFT:  2.00D  GRAD.:     0.087 HEAT:  92.63348
 CYCLE:    84 TIME:   0.008 TIME LEFT:  2.00D  GRAD.:     0.152 HEAT:  92.63343
 CYCLE:    85 TIME:   0.008 TIME LEFT:  2.00D  GRAD.:     0.168 HEAT:  92.63341
 CYCLE:    86 TIME:   0.004 TIME LEFT:  2.00D  GRAD.:     0.198 HEAT:  92.63338
 CYCLE:    87 TIME:   0.008 TIME LEFT:  2.00D  GRAD.:     0.245 HEAT:  92.63333
 CYCLE:    88 TIME:   0.008 TIME LEFT:  2.00D  GRAD.:     1.350 HEAT:  92.63435
 CYCLE:    89 TIME:   0.008 TIME LEFT:  2.00D  GRAD.:     0.331 HEAT:  92.63327
 CYCLE:    90 TIME:   0.008 TIME LEFT:  2.00D  GRAD.:     0.364 HEAT:  92.63321
 CYCLE:    91 TIME:   0.008 TIME LEFT:  2.00D  GRAD.:     0.365 HEAT:  92.63308
 CYCLE:    92 TIME:   0.004 TIME LEFT:  2.00D  GRAD.:     0.221 HEAT:  92.63300
 CYCLE:    93 TIME:   0.008 TIME LEFT:  2.00D  GRAD.:     0.123 HEAT:  92.63295
 CYCLE:    94 TIME:   0.008 TIME LEFT:  2.00D  GRAD.:     0.100 HEAT:  92.63291
 CYCLE:    95 TIME:   0.004 TIME LEFT:  2.00D  GRAD.:     0.074 HEAT:  92.63290
 CYCLE:    96 TIME:   0.008 TIME LEFT:  2.00D  GRAD.:     0.051 HEAT:  92.63290
 CYCLE:    97 TIME:   0.008 TIME LEFT:  2.00D  GRAD.:     0.041 HEAT:  92.63289

     GRADIENT =  0.04062 IS LESS THAN CUTOFF =  0.05000



 -------------------------------------------------------------------------------
 pm3  precise nosym THREADS=1
 InChI=1S/C10H10/c1-3-6-10-8-5-4-7-9(10)2/h4-8,10H,1-2H2



     GEOMETRY OPTIMISED USING EIGENVECTOR FOLLOWING (EF).     
     SCF FIELD WAS ACHIEVED                                   


                              PM3 CALCULATION
                                                       MOPAC v23.1.2 MacOS
                                                       Tue Jun  3 16:26:54 2025




          FINAL HEAT OF FORMATION =         92.63289 KCAL/MOL =     387.57600 KJ/MOL


          COSMO AREA              =        184.19 SQUARE ANGSTROMS
          COSMO VOLUME            =        185.53 CUBIC ANGSTROMS

          GRADIENT NORM           =          0.04062          =       0.00908 PER ATOM
          IONIZATION POTENTIAL    =          8.694397 EV
          HOMO LUMO ENERGIES (EV) =         -8.694 -0.244
          NO. OF FILLED LEVELS    =         25
          MOLECULAR WEIGHT        =        130.1890         POINT GROUP:  C1  

          MOLECULAR DIMENSIONS (Angstroms)

            Atom       Atom       Distance
            H    19    H    15     8.16113
            H    18    H    12     5.60926
            H    11    H    13     3.13200


          SCF CALCULATIONS        =        102

          WALL-CLOCK TIME         =      0.742 SECONDS
          COMPUTATION TIME        =      0.466 SECONDS




   ATOM   CHEMICAL          X               Y               Z
  NUMBER   SYMBOL      (ANGSTROMS)     (ANGSTROMS)     (ANGSTROMS)

     1       C          0.26160879  *   0.31991729  *   0.21106821  *
     2       C         -0.98870271  *  -0.40349914  *   0.64067321  *
     3       C          0.01109710  *   1.62195519  *  -0.48067951  *
     4       C         -2.28137098  *   0.12801347  *   0.22615042  *
     5       C          1.06225087  *  -0.55557770  *  -0.71358764  *
     6       C         -1.21714525  *   2.06917710  *  -0.77024112  *
     7       C         -2.39171917  *   1.29318340  *  -0.43181889  *
     8       C         -0.91590427  *  -1.50008750  *   1.40413693  *
     9       C          3.49629629  *  -1.29455068  *  -0.18321762  *
    10       C          2.28240306  *  -0.92344752  *  -0.44406856  *
    11       H          0.85367723  *   0.54880481  *   1.13317044  *
    12       H          0.90393251  *   2.19750742  *  -0.74946184  *
    13       H          0.57493113  *  -0.88125924  *  -1.64020817  *
    14       H         -3.16863021  *  -0.46280644  *   0.48315427  *
    15       H         -3.36796199  *   1.68795521  *  -0.73127650  *
    16       H         -1.36963468  *   3.03042669  *  -1.27188082  *
    17       H          0.02969582  *  -1.91680330  *   1.73866061  *
    18       H         -1.79444258  *  -2.04539659  *   1.73660402  *
    19       H          3.71945075  *  -2.20809466  *   0.36116310  *
    20       H          4.36084615  *  -0.71469625  *  -0.49459327  *

                             CARTESIAN COORDINATES

   1    C        0.261608794     0.319917286     0.211068208
   2    C       -0.988702714    -0.403499141     0.640673212
   3    C        0.011097098     1.621955193    -0.480679509
   4    C       -2.281370977     0.128013469     0.226150421
   5    C        1.062250872    -0.555577697    -0.713587638
   6    C       -1.217145248     2.069177100    -0.770241116
   7    C       -2.391719170     1.293183396    -0.431818886
   8    C       -0.915904266    -1.500087498     1.404136932
   9    C        3.496296295    -1.294550682    -0.183217620
  10    C        2.282403063    -0.923447522    -0.444068555
  11    H        0.853677227     0.548804813     1.133170445
  12    H        0.903932514     2.197507419    -0.749461836
  13    H        0.574931126    -0.881259242    -1.640208173
  14    H       -3.168630213    -0.462806441     0.483154268
  15    H       -3.367961985     1.687955214    -0.731276495
  16    H       -1.369634678     3.030426690    -1.271880824
  17    H        0.029695819    -1.916803296     1.738660609
  18    H       -1.794442578    -2.045396587     1.736604018
  19    H        3.719450752    -2.208094658     0.361163101
  20    H        4.360846146    -0.714696250    -0.494593265


           Empirical Formula: C10 H10  =    20 atoms



      MOLECULAR POINT GROUP   :   C1  


                  EIGENVALUES  
 -40.33134 -34.21264 -32.00059 -30.22227 -26.57254 -24.16447 -21.47991 -20.06053
 -18.11397 -17.63751 -16.66954 -16.40741 -15.94910 -15.14039 -14.89973 -14.64166
 -13.85558 -13.41267 -12.57388 -12.12318 -11.77434 -10.86376 -10.36382  -9.90855
  -8.69440  -0.24429   0.91425   1.05700   1.37093   2.30030   2.96537   3.20662
   3.32198   3.36542   3.59347   3.76851   3.87579   4.05020   4.16049   4.29791
   4.70275   4.77747   4.90743   4.96290   5.25969   5.36058   5.59611   6.12129
   6.23106   6.45946


              NET ATOMIC CHARGES AND DIPOLE CONTRIBUTIONS

  ATOM NO.   TYPE          CHARGE      No. of ELECS.   s-Pop       p-Pop       
    1          C           0.047392        3.9526     1.13844     2.81417
    2          C          -0.079371        4.0794     1.18433     2.89504
    3          C          -0.126879        4.1269     1.19838     2.92850
    4          C          -0.094099        4.0941     1.18141     2.91269
    5          C          -0.075414        4.0754     1.16334     2.91207
    6          C          -0.112202        4.1122     1.17819     2.93401
    7          C          -0.097783        4.0978     1.17975     2.91803
    8          C          -0.154951        4.1550     1.18369     2.97126
    9          C          -0.090516        4.0905     1.14679     2.94372
   10          C          -0.184215        4.1842     1.21478     2.96943
   11          H           0.079435        0.9206     0.92057
   12          H           0.103155        0.8968     0.89684
   13          H           0.119141        0.8809     0.88086
   14          H           0.102622        0.8974     0.89738
   15          H           0.101794        0.8982     0.89821
   16          H           0.102604        0.8974     0.89740
   17          H           0.085904        0.9141     0.91410
   18          H           0.084352        0.9156     0.91565
   19          H           0.094544        0.9055     0.90546
   20          H           0.094488        0.9055     0.90551
 DIPOLE           X         Y         Z       TOTAL
 POINT-CHG.     0.170     0.093     0.035     0.197
 HYBRID         0.051    -0.063    -0.027     0.086
 SUM            0.221     0.030     0.008     0.223


          ATOMIC ORBITAL ELECTRON POPULATIONS

     Atom    s        px        py        pz   
    1  C   1.13844   0.93508   0.91659   0.96250
    2  C   1.18433   0.93933   0.97034   0.98537
    3  C   1.19838   0.97400   0.96612   0.98839
    4  C   1.18141   0.95410   0.96803   0.99057
    5  C   1.16334   0.91867   0.99865   0.99475
    6  C   1.17819   0.93984   0.98760   1.00657
    7  C   1.17975   0.97060   0.95906   0.98837
    8  C   1.18369   1.01459   0.96811   0.98856
    9  C   1.14679   0.92395   1.00317   1.01660
   10  C   1.21478   0.97198   1.00041   0.99704
   11  H   0.92057
   12  H   0.89684
   13  H   0.88086
   14  H   0.89738
   15  H   0.89821
   16  H   0.89740
   17  H   0.91410
   18  H   0.91565
   19  H   0.90546
   20  H   0.90551
 *******************************************************************************
 **                                                                           **
 **                              MOPAC v23.1.2                                **
 **                                                                           **
 *******************************************************************************
 **          Digital Object Identifier (DOI): 10.5281/zenodo.6511958          **
 **    Visit the DOI location for information on how to cite this program.    **
 *******************************************************************************

                              PM3 CALCULATION RESULTS

 *******************************************************************************
 *  CALCULATION DONE: (MAX THREADS = 1)              Tue Jun  3 16:26:54 2025  *
 *  PM3        - The PM3 Hamiltonian to be used
 *  OLDGEO     - PREVIOUS GEOMETRY TO BE USED
 *  PRECISE    - TIGHTER CRITERIA TO BE USED
 *  NOSYM      - POINT-GROUP SYMMETRY SET TO C1
 *  THREADS=1  - MULTI-THREADING NOT USED
 *  T=         - A TIME OF 172800.0 SECONDS REQUESTED
 *  DUMP=N     - RESTART FILE WRITTEN EVERY 7200.0 SECONDS REQUESTED
 *  THERMO     - THERMODYNAMIC QUANTITIES TO BE CALCULATED
 *******************************************************************************
oldgeo thermo nosym precise THREADS=1  pm3
 InChI=1S/C10H10/c1-3-6-10-8-5-4-7-9(10)2/h4-8,10H,1-2H2

   ATOM   CHEMICAL          X               Y               Z
  NUMBER   SYMBOL      (ANGSTROMS)     (ANGSTROMS)     (ANGSTROMS)

     1       C          0.26160879  *   0.31991729  *   0.21106821  *
     2       C         -0.98870271  *  -0.40349914  *   0.64067321  *
     3       C          0.01109710  *   1.62195519  *  -0.48067951  *
     4       C         -2.28137098  *   0.12801347  *   0.22615042  *
     5       C          1.06225087  *  -0.55557770  *  -0.71358764  *
     6       C         -1.21714525  *   2.06917710  *  -0.77024112  *
     7       C         -2.39171917  *   1.29318340  *  -0.43181889  *
     8       C         -0.91590427  *  -1.50008750  *   1.40413693  *
     9       C          3.49629629  *  -1.29455068  *  -0.18321762  *
    10       C          2.28240306  *  -0.92344752  *  -0.44406856  *
    11       H          0.85367723  *   0.54880481  *   1.13317044  *
    12       H          0.90393251  *   2.19750742  *  -0.74946184  *
    13       H          0.57493113  *  -0.88125924  *  -1.64020817  *
    14       H         -3.16863021  *  -0.46280644  *   0.48315427  *
    15       H         -3.36796199  *   1.68795521  *  -0.73127650  *
    16       H         -1.36963468  *   3.03042669  *  -1.27188082  *
    17       H          0.02969582  *  -1.91680330  *   1.73866061  *
    18       H         -1.79444258  *  -2.04539659  *   1.73660402  *
    19       H          3.71945075  *  -2.20809466  *   0.36116310  *
    20       H          4.36084615  *  -0.71469625  *  -0.49459327  *



          CARTESIAN COORDINATES 

    NO.       ATOM           X           Y           Z

     1         C          0.2616      0.3199      0.2111
     2         C         -0.9887     -0.4035      0.6407
     3         C          0.0111      1.6220     -0.4807
     4         C         -2.2814      0.1280      0.2262
     5         C          1.0623     -0.5556     -0.7136
     6         C         -1.2171      2.0692     -0.7702
     7         C         -2.3917      1.2932     -0.4318
     8         C         -0.9159     -1.5001      1.4041
     9         C          3.4963     -1.2946     -0.1832
    10         C          2.2824     -0.9234     -0.4441
    11         H          0.8537      0.5488      1.1332
    12         H          0.9039      2.1975     -0.7495
    13         H          0.5749     -0.8813     -1.6402
    14         H         -3.1686     -0.4628      0.4832
    15         H         -3.3680      1.6880     -0.7313
    16         H         -1.3696      3.0304     -1.2719
    17         H          0.0297     -1.9168      1.7387
    18         H         -1.7944     -2.0454      1.7366
    19         H          3.7195     -2.2081      0.3612
    20         H          4.3608     -0.7147     -0.4946

  H: (PM3): J. J. P. STEWART, J. COMP. CHEM. 10, 209 (1989).
  C: (PM3): J. J. P. STEWART, J. COMP. CHEM. 10, 209 (1989).

           Empirical Formula: C10 H10  =    20 atoms



      MOLECULAR POINT GROUP   :   C1  


      RHF CALCULATION, NO. OF DOUBLY OCCUPIED LEVELS = 25



          HEAT OF FORMATION =      92.632888 KCALS/MOLE


          CARTESIAN COORDINATE DERIVATIVES

   NUMBER  ATOM         X            Y            Z

     1       C      0.000170     0.002602     0.002135
     2       C     -0.004649     0.003525     0.005288
     3       C     -0.001112     0.001866    -0.003821
     4       C      0.003884     0.002908     0.003328
     5       C     -0.008284     0.002038     0.000853
     6       C      0.001672     0.008576     0.000635
     7       C      0.007027     0.005445    -0.003916
     8       C     -0.001110    -0.006157    -0.009342
     9       C      0.007390    -0.002084     0.008278
    10       C      0.009385    -0.003219    -0.006941
    11       H     -0.006181    -0.001796     0.004078
    12       H     -0.002789     0.003555     0.001928
    13       H     -0.012097    -0.000418     0.006224
    14       H     -0.000702    -0.009133     0.006724
    15       H      0.005739     0.003716    -0.003098
    16       H      0.002439     0.003301    -0.004442
    17       H     -0.009878    -0.006374     0.001332
    18       H     -0.007147    -0.000465    -0.001633
    19       H      0.014068    -0.001995    -0.002348
    20       H      0.002176    -0.005891    -0.005262



          GRADIENT NORM =   0.04160

          MOLECULAR WEIGHT =  130.19



          ROTATIONAL CONSTANTS IN CM(-1)

          A =    0.08672515   B =    0.03106572   C =    0.02408037



           PRINCIPAL MOMENTS OF INERTIA IN UNITS OF 10**(-40)*GRAM-CM**2

          A =      322.7755   B =      901.0818   C =     1162.4719


          ORIENTATION OF MOLECULE IN FORCE CALCULATION

    NO.       ATOM         X         Y         Z

     1          C      -0.3142   -0.0857   -0.3564
     2          C       1.1928   -0.0857   -0.3564
     3          C      -0.9286    1.2778   -0.3564
     4          C       1.8920    1.1847   -0.2059
     5          C      -0.8218   -0.8285    0.8491
     6          C      -0.2068    2.4026   -0.2778
     7          C       1.2366    2.3561   -0.1749
     8          C       1.8764   -1.2256   -0.5116
     9          C      -2.3353   -2.9323    0.6621
    10          C      -1.5807   -1.8826    0.7510
    11          H      -0.6524   -0.5961   -1.2935
    12          H      -2.0222    1.3069   -0.4177
    13          H      -0.5253   -0.4462    1.8331
    14          H       2.9850    1.1456   -0.1271
    15          H       1.7717    3.3055   -0.0700
    16          H      -0.6847    3.3877   -0.2867
    17          H       1.3873   -2.1873   -0.6361
    18          H       2.9619   -1.2645   -0.5211
    19          H      -1.9267   -3.9378    0.6088
    20          H      -3.4197   -2.8681    0.6370


    FIRST DERIVATIVES WILL BE USED IN THE CALCULATION OF SECOND DERIVATIVES

          ESTIMATED TIME TO COMPLETE CALCULATION =        1.88 SECONDS

    FOR POINT-GROUP C1   THERE ARE   1 UNIQUE SYMMETRY FUNCTIONS.

 STEP:   1 TIME =     0.02 SECS, INTEGRAL =      0.02 TIME LEFT: 172799.97
 STEP:   2 TIME =     0.02 SECS, INTEGRAL =      0.04 TIME LEFT: 172799.95
 STEP:   3 TIME =     0.02 SECS, INTEGRAL =      0.06 TIME LEFT: 172799.93
 STEP:   4 TIME =     0.02 SECS, INTEGRAL =      0.08 TIME LEFT: 172799.91
 STEP:   5 TIME =     0.02 SECS, INTEGRAL =      0.11 TIME LEFT: 172799.89
 STEP:   6 TIME =     0.02 SECS, INTEGRAL =      0.13 TIME LEFT: 172799.86
 STEP:   7 TIME =     0.02 SECS, INTEGRAL =      0.15 TIME LEFT: 172799.84
 STEP:   8 TIME =     0.02 SECS, INTEGRAL =      0.17 TIME LEFT: 172799.82
 STEP:   9 TIME =     0.02 SECS, INTEGRAL =      0.19 TIME LEFT: 172799.80
 STEP:  10 TIME =     0.02 SECS, INTEGRAL =      0.21 TIME LEFT: 172799.78
 STEP:  11 TIME =     0.02 SECS, INTEGRAL =      0.23 TIME LEFT: 172799.76
 STEP:  12 TIME =     0.02 SECS, INTEGRAL =      0.25 TIME LEFT: 172799.74
 STEP:  13 TIME =     0.02 SECS, INTEGRAL =      0.27 TIME LEFT: 172799.72
 STEP:  14 TIME =     0.02 SECS, INTEGRAL =      0.30 TIME LEFT: 172799.70
 STEP:  15 TIME =     0.02 SECS, INTEGRAL =      0.32 TIME LEFT: 172799.68
 STEP:  16 TIME =     0.02 SECS, INTEGRAL =      0.34 TIME LEFT: 172799.65
 STEP:  17 TIME =     0.02 SECS, INTEGRAL =      0.36 TIME LEFT: 172799.63
 STEP:  18 TIME =     0.02 SECS, INTEGRAL =      0.38 TIME LEFT: 172799.61
 STEP:  19 TIME =     0.02 SECS, INTEGRAL =      0.40 TIME LEFT: 172799.59
 STEP:  20 TIME =     0.02 SECS, INTEGRAL =      0.42 TIME LEFT: 172799.57
 STEP:  21 TIME =     0.02 SECS, INTEGRAL =      0.44 TIME LEFT: 172799.55
 STEP:  22 TIME =     0.02 SECS, INTEGRAL =      0.46 TIME LEFT: 172799.54
 STEP:  23 TIME =     0.02 SECS, INTEGRAL =      0.48 TIME LEFT: 172799.52
 STEP:  24 TIME =     0.02 SECS, INTEGRAL =      0.50 TIME LEFT: 172799.49
 STEP:  25 TIME =     0.02 SECS, INTEGRAL =      0.52 TIME LEFT: 172799.47
 STEP:  26 TIME =     0.02 SECS, INTEGRAL =      0.54 TIME LEFT: 172799.45
 STEP:  27 TIME =     0.02 SECS, INTEGRAL =      0.56 TIME LEFT: 172799.43
 STEP:  28 TIME =     0.02 SECS, INTEGRAL =      0.58 TIME LEFT: 172799.41
 STEP:  29 TIME =     0.02 SECS, INTEGRAL =      0.60 TIME LEFT: 172799.39
 STEP:  30 TIME =     0.02 SECS, INTEGRAL =      0.62 TIME LEFT: 172799.37
 STEP:  31 TIME =     0.02 SECS, INTEGRAL =      0.64 TIME LEFT: 172799.35
 STEP:  32 TIME =     0.02 SECS, INTEGRAL =      0.66 TIME LEFT: 172799.33
 STEP:  33 TIME =     0.02 SECS, INTEGRAL =      0.68 TIME LEFT: 172799.31
 STEP:  34 TIME =     0.02 SECS, INTEGRAL =      0.70 TIME LEFT: 172799.29
 STEP:  35 TIME =     0.02 SECS, INTEGRAL =      0.72 TIME LEFT: 172799.27
 STEP:  36 TIME =     0.02 SECS, INTEGRAL =      0.74 TIME LEFT: 172799.25
 STEP:  37 TIME =     0.02 SECS, INTEGRAL =      0.76 TIME LEFT: 172799.23
 STEP:  38 TIME =     0.02 SECS, INTEGRAL =      0.78 TIME LEFT: 172799.21
 STEP:  39 TIME =     0.02 SECS, INTEGRAL =      0.80 TIME LEFT: 172799.19
 STEP:  40 TIME =     0.02 SECS, INTEGRAL =      0.82 TIME LEFT: 172799.17
 STEP:  41 TIME =     0.02 SECS, INTEGRAL =      0.84 TIME LEFT: 172799.15
 STEP:  42 TIME =     0.02 SECS, INTEGRAL =      0.86 TIME LEFT: 172799.13
 STEP:  43 TIME =     0.02 SECS, INTEGRAL =      0.88 TIME LEFT: 172799.11
 STEP:  44 TIME =     0.02 SECS, INTEGRAL =      0.90 TIME LEFT: 172799.09
 STEP:  45 TIME =     0.02 SECS, INTEGRAL =      0.93 TIME LEFT: 172799.07
 STEP:  46 TIME =     0.02 SECS, INTEGRAL =      0.95 TIME LEFT: 172799.05
 STEP:  47 TIME =     0.02 SECS, INTEGRAL =      0.96 TIME LEFT: 172799.03
 STEP:  48 TIME =     0.02 SECS, INTEGRAL =      0.98 TIME LEFT: 172799.01
 STEP:  49 TIME =     0.02 SECS, INTEGRAL =      1.00 TIME LEFT: 172798.99
 STEP:  50 TIME =     0.02 SECS, INTEGRAL =      1.02 TIME LEFT: 172798.97
 STEP:  51 TIME =     0.02 SECS, INTEGRAL =      1.04 TIME LEFT: 172798.95
 STEP:  52 TIME =     0.02 SECS, INTEGRAL =      1.06 TIME LEFT: 172798.93
 STEP:  53 TIME =     0.02 SECS, INTEGRAL =      1.08 TIME LEFT: 172798.91
 STEP:  54 TIME =     0.02 SECS, INTEGRAL =      1.11 TIME LEFT: 172798.89
 STEP:  55 TIME =     0.02 SECS, INTEGRAL =      1.12 TIME LEFT: 172798.87
 STEP:  56 TIME =     0.02 SECS, INTEGRAL =      1.14 TIME LEFT: 172798.85
 STEP:  57 TIME =     0.02 SECS, INTEGRAL =      1.16 TIME LEFT: 172798.83
 STEP:  58 TIME =     0.02 SECS, INTEGRAL =      1.18 TIME LEFT: 172798.81
 STEP:  59 TIME =     0.02 SECS, INTEGRAL =      1.20 TIME LEFT: 172798.79
 STEP:  60 TIME =     0.02 SECS, INTEGRAL =      1.23 TIME LEFT: 172798.77

(To convert to Hartree/Bohr^2, multiply by (10^(-21) x N x a0^2)/(4.184 x 627.51) =  0.0642)


           FORCE MATRIX IN MILLIDYNES/ANGSTROM


                  C  1       C  2       C  3       C  4       C  5       C  6
 ------------------------------------------------------------------------------
     C    1  15.020566
     C    2   4.313609  18.545709
     C    3   4.652779   0.666967  17.990470
     C    4   0.590999   5.392327   0.207387  18.363230
     C    5   4.312787   0.699277   0.775923   0.029450  18.153892
     C    6   0.817965   0.172927  10.255430   1.177507   0.047329  18.380416
     C    7   0.130465   1.084950   1.182250   9.989736   0.022772   5.695228
     C    8   0.793389  10.330197   0.061471   1.116764   0.054211   0.056948
     C    9   0.071171   0.011253   0.011537   0.001716   0.780699   0.002300
     C   10   0.894356   0.036707   0.037212   0.004293  11.483993   0.005361
     H   11   4.149937   0.400166   0.391626   0.028030   0.453869   0.039233
     H   12   0.428141   0.047663   4.833118   0.011500   0.017021   0.443141
     H   13   0.444787   0.011336   0.012062   0.001981   4.772942   0.004082
     H   14   0.041415   0.446219   0.011097   4.802235   0.004790   0.125177
     H   15   0.003616   0.123540   0.048454   0.440402   0.001017   0.435452
     H   16   0.122313   0.003064   0.442763   0.048652   0.018476   4.853826
     H   17   0.084233   0.476134   0.002469   0.127550   0.011568   0.008413
     H   18   0.117212   0.473558   0.007709   0.093403   0.016613   0.007450
     H   19   0.082725   0.010540   0.011118   0.001165   0.048874   0.001661
     H   20   0.082496   0.009932   0.010970   0.000991   0.047674   0.001871


                  C  7       C  8       C  9       C 10       H 11       H 12
 ------------------------------------------------------------------------------
     C    7  18.289333
     C    8   0.146153  17.858730
     C    9   0.000635   0.001496  18.144759
     C   10   0.001985   0.010259  11.857274  24.870624
     H   11   0.012779   0.039575   0.004837   0.043656   4.592383
     H   12   0.126059   0.009035   0.001671   0.005037   0.031591   5.205914
     H   13   0.003029   0.003797   0.043228   0.444624   0.037468   0.003918
     H   14   0.440826   0.046919   0.000470   0.001357   0.004582   0.009659
     H   15   4.861111   0.009560   0.000387   0.000758   0.000927   0.007715
     H   16   0.436394   0.001003   0.000997   0.001745   0.015057   0.066717
     H   17   0.010684   5.096594   0.001893   0.006282   0.014521   0.002363
     H   18   0.007104   5.090413   0.000824   0.001357   0.010498   0.004065
     H   19   0.000763   0.001315   5.026579   0.478178   0.000517   0.000401
     H   20   0.000640   0.000628   5.028221   0.477881   0.000643   0.000687


                  H 13       H 14       H 15       H 16       H 17       H 18
 ------------------------------------------------------------------------------
     H   13   5.148896
     H   14   0.000995   5.175327
     H   15   0.000654   0.064703   5.223365
     H   16   0.000905   0.007292   0.031579   5.217872
     H   17   0.001662   0.002365   0.009669   0.000287   5.477738
     H   18   0.001293   0.028742   0.006161   0.000611   0.409690   5.479556
     H   19   0.070470   0.000293   0.000127   0.000795   0.000991   0.000397
     H   20   0.070486   0.000222   0.000145   0.000673   0.000430   0.000609


                  H 19       H 20
 ------------------------------
     H   19   5.402661
     H   20   0.406694   5.404221


          HEAT OF FORMATION =      92.632888 KCALS/MOLE

          ZERO POINT ENERGY     102.412 KCAL/MOL


           NORMAL COORDINATE ANALYSIS (Total motion = 1 Angstrom)


   Root No.       1         2         3         4         5         6         7         8

                 1 A       2 A       3 A       4 A       5 A       6 A       7 A       8 A   

                  25.6      32.7     148.3     196.8     248.3     340.6     354.1     400.4
  
           1   -0.0216    0.0043    0.0011    0.0015   -0.0130    0.0003   -0.0091   -0.0345
           2    0.0212    0.0026    0.0049    0.0095    0.0151    0.0008   -0.0021    0.0001
           3    0.0040    0.0205   -0.0454    0.0120   -0.0101    0.0046    0.0277   -0.0168
           4   -0.0214    0.0042    0.0020    0.0030   -0.0142   -0.0013   -0.0075   -0.0328
           5   -0.0047    0.0049    0.0035    0.0125    0.0047    0.0033    0.0145   -0.0208
           6    0.0057    0.0099   -0.0208    0.0219   -0.0040    0.0027   -0.0117   -0.0250
           7    0.0012   -0.0005    0.0020    0.0115   -0.0098    0.0015    0.0136   -0.0058
           8    0.0313    0.0003    0.0063    0.0149    0.0155    0.0026    0.0085    0.0210
           9    0.0060    0.0477   -0.0118    0.0245   -0.0041   -0.0036   -0.0300    0.0119
          10    0.0005    0.0049    0.0025    0.0083   -0.0077   -0.0004    0.0073   -0.0236
          11   -0.0153    0.0117    0.0040    0.0095   -0.0041    0.0041    0.0122   -0.0303
          12   -0.0074   -0.0520   -0.0271    0.0319    0.0241   -0.0057   -0.0403    0.0041
          13   -0.0342    0.0087   -0.0032   -0.0204    0.0500   -0.0199   -0.0078   -0.0057
          14    0.0249   -0.0230   -0.0040   -0.0318   -0.0233    0.0107   -0.0222    0.0037
          15    0.0009    0.0063   -0.0532   -0.0243   -0.0087    0.0028    0.0224    0.0001
          16    0.0205   -0.0020    0.0001    0.0180    0.0001   -0.0001    0.0176    0.0127
          17    0.0195    0.0036    0.0036    0.0153    0.0114    0.0033    0.0070    0.0117
          18   -0.0017    0.0127    0.0447   -0.0306   -0.0261    0.0031   -0.0169   -0.0065
          19    0.0203    0.0025    0.0013    0.0176   -0.0018    0.0000    0.0134    0.0096
          20   -0.0041    0.0103    0.0019    0.0159    0.0002    0.0043    0.0125   -0.0152
          21   -0.0109   -0.0504    0.0250   -0.0277    0.0049    0.0025    0.0420   -0.0024
          22   -0.0409    0.0047    0.0036    0.0070   -0.0402   -0.0080   -0.0028    0.0555
          23   -0.0182   -0.0010   -0.0038    0.0211   -0.0140    0.0005    0.0159    0.0264
          24    0.0186    0.0542    0.0393   -0.0228    0.0211   -0.0036    0.0034    0.0115
          25    0.0601   -0.0199   -0.0064   -0.0252    0.0017   -0.0284   -0.0143   -0.0013
          26   -0.0419    0.0011   -0.0105   -0.0359    0.0117    0.0162   -0.0215    0.0011
          27   -0.0109   -0.0359    0.0536    0.0390    0.0006    0.0009   -0.0032   -0.0065
          28    0.0131   -0.0056   -0.0040   -0.0215    0.0388    0.0903   -0.0126    0.0100
          29   -0.0086   -0.0110   -0.0054   -0.0318   -0.0149   -0.0686   -0.0220   -0.0094
          30   -0.0049   -0.0142   -0.0255   -0.0280   -0.0043   -0.0018    0.0151    0.0225
          31   -0.0286    0.0018    0.0086    0.0132   -0.0251    0.0040   -0.0140   -0.0649
          32    0.0297    0.0215    0.0191    0.0391    0.0259   -0.0025   -0.0164    0.0126
          33    0.0018    0.0109   -0.0547   -0.0088   -0.0117    0.0049    0.0360   -0.0112
          34    0.0013   -0.0033    0.0027    0.0095   -0.0096    0.0021    0.0184   -0.0069
          35    0.0494   -0.0043    0.0085    0.0208    0.0212    0.0035    0.0253    0.0448
          36    0.0130    0.0948   -0.0226    0.0601    0.0000   -0.0147   -0.1075    0.0436
          37   -0.0812    0.0227    0.0003   -0.0296    0.1334   -0.1685    0.0096    0.0207
          38    0.0543   -0.0521   -0.0016   -0.0580   -0.0779    0.1140   -0.0494    0.0122
          39    0.0036    0.0133   -0.0542   -0.0104   -0.0126    0.0074    0.0276   -0.0112
          40    0.0003    0.0084    0.0051    0.0052   -0.0111    0.0004    0.0107   -0.0257
          41   -0.0330    0.0179    0.0055    0.0017   -0.0146    0.0039    0.0038   -0.0489
          42   -0.0134   -0.0964   -0.0613    0.0709    0.0625   -0.0169   -0.0894    0.0367
          43    0.0370    0.0042    0.0024    0.0211    0.0018    0.0001    0.0097    0.0342
          44   -0.0124    0.0143   -0.0006    0.0168   -0.0037    0.0043    0.0066   -0.0310
          45   -0.0204   -0.0947    0.0421   -0.0546    0.0224    0.0026    0.1130    0.0130
          46    0.0367   -0.0069   -0.0016    0.0203    0.0098   -0.0010    0.0212    0.0316
          47    0.0274    0.0014    0.0032    0.0163    0.0159    0.0029    0.0084    0.0209
          48   -0.0011    0.0309    0.0928   -0.0572   -0.0534    0.0027   -0.0790   -0.0058
          49   -0.0577    0.0046    0.0043    0.0111   -0.0666   -0.0160    0.0021    0.1598
          50   -0.0112   -0.0074   -0.0073    0.0231   -0.0004    0.0035    0.0058   -0.0229
          51    0.0297    0.1041    0.0635   -0.0535    0.0165    0.0021    0.0632    0.0008
          52   -0.0416    0.0047    0.0038    0.0071   -0.0415   -0.0085   -0.0027    0.0619
          53   -0.0371    0.0004   -0.0071    0.0270   -0.0456   -0.0062    0.0265    0.1322
          54    0.0194    0.0434    0.0701   -0.0340    0.0501   -0.0145   -0.0408    0.0601
          55    0.1044   -0.0334   -0.0076   -0.0277   -0.0384   -0.2017   -0.0155   -0.0196
          56   -0.0255   -0.0028   -0.0127   -0.0382    0.0008   -0.0597   -0.0199   -0.0035
          57    0.0194   -0.0662    0.0868    0.0612   -0.0964    0.1445   -0.0467   -0.0555
          58    0.0581   -0.0192   -0.0074   -0.0262    0.0016   -0.0157   -0.0152   -0.0009
          59   -0.0882    0.0159   -0.0126   -0.0375    0.0516    0.2072   -0.0234    0.0207
          60   -0.0465   -0.0252    0.0898    0.0751    0.1023   -0.1394    0.0224    0.0150


   Root No.       9        10        11        12        13        14        15        16

                 9 A      10 A      11 A      12 A      13 A      14 A      15 A      16 A   

                 436.7     486.1     547.6     586.7     612.7     621.0     659.8     766.2
  
           1    0.0149   -0.0066    0.0264   -0.0099   -0.0029    0.0026   -0.0103   -0.0003
           2    0.0091   -0.0239   -0.0037   -0.0059   -0.0254   -0.0126   -0.0300    0.0010
           3    0.0108   -0.0350   -0.0061    0.0144    0.0045    0.0065   -0.0288    0.0014
           4    0.0139   -0.0058    0.0243   -0.0230   -0.0122    0.0009   -0.0288   -0.0019
           5   -0.0103    0.0313   -0.0415   -0.0005   -0.0007   -0.0015   -0.0132   -0.0013
           6   -0.0328   -0.0411   -0.0081   -0.0069   -0.0313   -0.0153    0.0694    0.0290
           7   -0.0072    0.0116    0.0546    0.0057    0.0323    0.0188    0.0311    0.0020
           8    0.0004   -0.0201    0.0273    0.0042   -0.0190   -0.0121   -0.0208    0.0057
           9    0.0464    0.0201   -0.0092   -0.0120   -0.0041    0.0104    0.0203   -0.0295
          10   -0.0046    0.0138   -0.0589   -0.0180   -0.0255   -0.0091   -0.0373    0.0037
          11   -0.0036    0.0198    0.0087   -0.0076    0.0067    0.0083    0.0008   -0.0012
          12   -0.0132    0.0119    0.0038    0.0028    0.0119   -0.0095   -0.0122   -0.0239
          13    0.0042    0.0046    0.0054    0.0408   -0.0104   -0.0170    0.0082    0.0012
          14    0.0055   -0.0125   -0.0181   -0.0260    0.0117    0.0125    0.0042   -0.0017
          15   -0.0038   -0.0111   -0.0093    0.0214    0.0225    0.0183   -0.0233    0.0091
          16   -0.0113    0.0180   -0.0171    0.0060    0.0100    0.0032    0.0155   -0.0004
          17    0.0072   -0.0207    0.0759    0.0049   -0.0044   -0.0014   -0.0076    0.0086
          18   -0.0423   -0.0101    0.0078    0.0098    0.0067   -0.0041   -0.0149   -0.0254
          19   -0.0172    0.0191   -0.0232    0.0060    0.0089    0.0010    0.0086   -0.0015
          20   -0.0105    0.0221    0.0375    0.0047    0.0273    0.0152    0.0248   -0.0049
          21    0.0309   -0.0008   -0.0055   -0.0048   -0.0119    0.0070    0.0254   -0.0118
          22    0.0102   -0.0241    0.0154   -0.0062   -0.0064   -0.0005   -0.0132   -0.0024
          23   -0.0190    0.0165   -0.0544    0.0096   -0.0009   -0.0055    0.0083    0.0032
          24    0.0048    0.0100   -0.0073    0.0034    0.0027    0.0003   -0.0017    0.0018
          25    0.0049   -0.0068   -0.0114    0.0017    0.0053    0.0017    0.0109   -0.0009
          26    0.0071   -0.0083   -0.0154    0.0060    0.0058    0.0005    0.0153   -0.0020
          27    0.0065   -0.0111   -0.0075    0.0048    0.0042    0.0024   -0.0001    0.0002
          28   -0.0035   -0.0174   -0.0147   -0.0085    0.0080    0.0054    0.0080   -0.0001
          29    0.0148   -0.0043   -0.0136    0.0151    0.0050   -0.0007    0.0117   -0.0015
          30   -0.0278    0.0563    0.0509   -0.0360   -0.0368   -0.0207   -0.0028   -0.0031
          31   -0.0060   -0.0205    0.0092   -0.0383   -0.0262   -0.0212    0.0136    0.0198
          32    0.0386   -0.0199    0.0207   -0.0211   -0.0554   -0.0295   -0.0096   -0.0281
          33    0.0017   -0.0308   -0.0124    0.0318    0.0282    0.0236   -0.0483    0.0103
          34   -0.0111    0.0077    0.0545    0.0094    0.0305    0.0182    0.0281   -0.0095
          35   -0.0185   -0.0059    0.0005    0.0174   -0.0156   -0.0147   -0.0123   -0.0019
          36    0.1064    0.0931   -0.0300   -0.0696    0.0232    0.0138    0.0733    0.1736
          37   -0.0387    0.0024    0.0168    0.0309   -0.0317   -0.0420    0.0347    0.0264
          38    0.0135    0.0471    0.0012   -0.0533    0.0009    0.0087    0.0317   -0.0316
          39    0.0060   -0.0330   -0.0192    0.0339    0.0317    0.0265   -0.0417    0.0128
          40   -0.0068    0.0080   -0.0593   -0.0177   -0.0337   -0.0065   -0.0269   -0.0025
          41    0.0077   -0.0028    0.0338   -0.0240   -0.0167    0.0104   -0.0126   -0.0060
          42    0.0218    0.0778    0.0269   -0.0072    0.1132   -0.0457   -0.1613    0.0599
          43   -0.0247   -0.0013    0.0200    0.0230    0.0123   -0.0005    0.0228   -0.0124
          44   -0.0182    0.0294    0.0148   -0.0013    0.0228    0.0156    0.0179   -0.0222
          45    0.1401    0.0341   -0.0157   -0.0405    0.0079    0.0098    0.0097    0.2003
          46   -0.0028   -0.0007   -0.0443    0.0065   -0.0266   -0.0153   -0.0129   -0.0109
          47    0.0102   -0.0294    0.0626    0.0052   -0.0219   -0.0108   -0.0224    0.0059
          48   -0.1318    0.0006    0.0288    0.0090    0.0640   -0.0347   -0.0892    0.2205
          49    0.0059   -0.0516   -0.0052    0.0200   -0.0029   -0.0055    0.0121    0.0011
          50   -0.0251    0.0304   -0.0445    0.0038   -0.0214    0.0243   -0.0008    0.0107
          51    0.0674    0.0064   -0.0146   -0.0494    0.1458   -0.2133   -0.0279   -0.0682
          52    0.0099   -0.0258    0.0141   -0.0045   -0.0069    0.0001   -0.0125   -0.0022
          53   -0.0210   -0.0204   -0.0823    0.0313    0.0172   -0.0443    0.0511    0.0077
          54   -0.0160    0.0743    0.0017    0.0714   -0.0957    0.2422   -0.0925    0.0061
          55    0.0181    0.0103   -0.0037    0.0314   -0.0028   -0.0097    0.0162   -0.0035
          56    0.0079   -0.0045   -0.0131    0.0066    0.0049   -0.0004    0.0174   -0.0043
          57    0.0910    0.0419   -0.0014    0.2128   -0.0354   -0.0643    0.0101    0.0226
          58    0.0057   -0.0047   -0.0105    0.0046    0.0036   -0.0002    0.0117   -0.0005
          59   -0.0046   -0.0226   -0.0250   -0.0192    0.0129    0.0091    0.0186   -0.0002
          60   -0.0442   -0.1334   -0.0792   -0.1555    0.0942    0.0976   -0.0038   -0.0175


   Root No.      17        18        19        20        21        22        23        24

                17 A      18 A      19 A      20 A      21 A      22 A      23 A      24 A   

                 839.3     853.7     885.5     927.3     940.3     953.7     968.7     985.7
  
           1    0.0041   -0.0266    0.0022    0.0313   -0.0006   -0.0179    0.0117    0.0090
           2    0.0023    0.0094   -0.0040    0.0322   -0.0048   -0.0170    0.0074    0.0077
           3    0.0049   -0.0006   -0.0027    0.0283   -0.0015   -0.0200    0.0042    0.0053
           4   -0.0068    0.0201   -0.0013   -0.0123    0.0009    0.0037   -0.0016   -0.0012
           5   -0.0033   -0.0268    0.0070   -0.0025    0.0013   -0.0069    0.0019    0.0015
           6    0.0208    0.0045   -0.0038   -0.0126    0.0028    0.0058    0.0031   -0.0011
           7    0.0002   -0.0549    0.0273    0.0005   -0.0118    0.0051   -0.0074   -0.0025
           8   -0.0068    0.0078   -0.0094   -0.0119    0.0058    0.0077    0.0027   -0.0016
           9    0.0248   -0.0048    0.0071   -0.0054    0.0019   -0.0032   -0.0336    0.0002
          10   -0.0066   -0.0125    0.0107   -0.0118   -0.0112    0.0451   -0.0109   -0.0089
          11    0.0001    0.0284   -0.0044   -0.0008   -0.0042    0.0199   -0.0029   -0.0033
          12   -0.0348   -0.0006   -0.0025    0.0042    0.0016   -0.0003   -0.0378   -0.0071
          13    0.0029   -0.0147   -0.0456    0.0002    0.0303    0.0100    0.0039   -0.0011
          14   -0.0017    0.0107    0.0326   -0.0004   -0.0218   -0.0064   -0.0020    0.0018
          15   -0.0150    0.0034    0.0002   -0.0194    0.0008    0.0142    0.0003   -0.0000
          16    0.0015    0.0238   -0.0092    0.0063    0.0032   -0.0112    0.0008    0.0023
          17   -0.0093   -0.0411    0.0102   -0.0201    0.0001    0.0183   -0.0029   -0.0043
          18    0.0243   -0.0001    0.0081   -0.0130   -0.0044    0.0110    0.0240   -0.0055
          19    0.0055    0.0294   -0.0117    0.0078    0.0032   -0.0064    0.0027    0.0020
          20    0.0059    0.0580   -0.0175    0.0122    0.0010    0.0008    0.0004    0.0008
          21   -0.0323    0.0044   -0.0033    0.0087   -0.0019   -0.0009    0.0285    0.0086
          22   -0.0059    0.0271   -0.0041   -0.0322    0.0107   -0.0234   -0.0001   -0.0007
          23    0.0014   -0.0417    0.0099   -0.0137    0.0077   -0.0291    0.0038    0.0032
          24    0.0029   -0.0038    0.0008   -0.0073    0.0009    0.0049    0.0090   -0.0011
          25    0.0024    0.0052    0.0259    0.0084    0.0401    0.0041   -0.0000   -0.0012
          26    0.0051   -0.0035   -0.0178   -0.0043   -0.0288   -0.0066   -0.0028    0.0011
          27    0.0003   -0.0004   -0.0005    0.0051   -0.0012   -0.0068    0.0044   -0.0753
          28    0.0014    0.0007   -0.0078   -0.0064   -0.0429   -0.0082   -0.0022   -0.0011
          29    0.0025   -0.0001    0.0060    0.0048    0.0308    0.0045    0.0005   -0.0037
          30    0.0048   -0.0026    0.0001    0.0106   -0.0000   -0.0052    0.0007    0.0262
          31    0.0292   -0.0427    0.0054    0.0762   -0.0018   -0.0600    0.0575    0.0392
          32    0.0360    0.0121   -0.0092    0.0823   -0.0080   -0.0511   -0.0268    0.0300
          33   -0.0226    0.0052   -0.0017   -0.0157    0.0009    0.0139    0.0064   -0.0172
          34    0.0118   -0.0545    0.0277   -0.0011   -0.0101    0.0036   -0.0191   -0.0027
          35   -0.0055    0.0748   -0.0357   -0.0615    0.0229    0.0291   -0.0188   -0.0184
          36   -0.1798    0.0045   -0.0098   -0.0023   -0.0166    0.0315    0.1659   -0.0043
          37   -0.0140    0.1001    0.2490   -0.0206   -0.1151   -0.0212   -0.0200    0.0300
          38    0.0234   -0.0708   -0.1751   -0.0232    0.0856    0.0435   -0.0086    0.0307
          39   -0.0192    0.0003   -0.0079   -0.0035    0.0028    0.0037    0.0101   -0.0197
          40   -0.0244   -0.0136    0.0091   -0.0106   -0.0103    0.0454   -0.0274   -0.0119
          41   -0.0272    0.0314    0.0022   -0.0134   -0.0165    0.0747   -0.0410   -0.0202
          42    0.1958    0.0130    0.0233   -0.0223   -0.0189    0.0337    0.1690    0.0241
          43   -0.0076   -0.0148   -0.0090    0.0000    0.0202   -0.0605    0.0414    0.0183
          44   -0.0087    0.0839   -0.0194    0.0211   -0.0107    0.0331   -0.0031   -0.0040
          45    0.1644    0.0146   -0.0054   -0.0327    0.0159   -0.0033   -0.1398   -0.0340
          46   -0.0008    0.0205   -0.0209   -0.0299    0.0214   -0.0069    0.0261   -0.0003
          47   -0.0117   -0.0420    0.0035   -0.0382    0.0095    0.0213    0.0079   -0.0057
          48   -0.0792    0.0057   -0.0519    0.0722    0.0261   -0.0614   -0.1275    0.0227
          49    0.0136    0.0238   -0.0117    0.1250   -0.0497    0.1316   -0.0135   -0.0063
          50   -0.0003   -0.0404    0.0138   -0.0928    0.0367   -0.0994    0.0184    0.0057
          51   -0.0563   -0.0199    0.0041    0.0117    0.0055   -0.0457   -0.0510    0.0030
          52   -0.0049    0.0271   -0.0045   -0.0230    0.0072   -0.0150   -0.0010   -0.0009
          53    0.0267   -0.0752    0.0078    0.1538   -0.0545    0.1264   -0.0003    0.0007
          54   -0.0011   -0.0219    0.0067    0.0615   -0.0100   -0.0313   -0.0274    0.0108
          55    0.0102   -0.0250   -0.1166   -0.0296   -0.1724   -0.0307   -0.0074   -0.0143
          56    0.0092   -0.0174   -0.0761   -0.0166   -0.1091   -0.0220   -0.0044   -0.0248
          57   -0.0124    0.0416    0.0607   -0.0347   -0.0336    0.0246   -0.0226    0.3050
          58    0.0026    0.0075    0.0339    0.0113    0.0487    0.0038    0.0006   -0.0121
          59    0.0027    0.0298    0.1376    0.0423    0.1979    0.0207    0.0037   -0.0302
          60    0.0025   -0.0342   -0.0584   -0.0256    0.0414    0.0396   -0.0171    0.3041


   Root No.      25        26        27        28        29        30        31        32

                25 A      26 A      27 A      28 A      29 A      30 A      31 A      32 A   

                 996.3    1018.1    1038.3    1075.7    1084.1    1118.4    1140.7    1155.0
  
           1   -0.0091   -0.0133   -0.0180    0.0034    0.0096    0.0061    0.0049   -0.0077
           2   -0.0025   -0.0151    0.0231    0.0081    0.0006    0.0164   -0.0025    0.0016
           3    0.0003   -0.0046    0.0124   -0.0133    0.0015    0.0540   -0.0078    0.0044
           4    0.0003    0.0008   -0.0036   -0.0008    0.0042    0.0001    0.0105    0.0132
           5   -0.0004   -0.0059   -0.0077   -0.0006    0.0041   -0.0001    0.0030    0.0070
           6   -0.0044    0.0332    0.0098    0.0024   -0.0057    0.0010    0.0075   -0.0027
           7    0.0092    0.0003    0.0372   -0.0060    0.0121    0.0068   -0.0095    0.0001
           8   -0.0042    0.0033   -0.0143   -0.0023    0.0017   -0.0007   -0.0093   -0.0038
           9    0.0246    0.0126   -0.0292   -0.0014   -0.0002   -0.0032   -0.0017   -0.0007
          10    0.0082    0.0103    0.0077    0.0049   -0.0260   -0.0042   -0.0111   -0.0028
          11    0.0036    0.0062    0.0008   -0.0024    0.0016   -0.0031    0.0094   -0.0012
          12   -0.0218   -0.0274   -0.0013   -0.0007    0.0002   -0.0001   -0.0019    0.0005
          13   -0.0018    0.0006    0.0050    0.0097    0.0021    0.0068   -0.0016   -0.0001
          14    0.0000   -0.0026   -0.0069    0.0126    0.0053    0.0083    0.0030   -0.0013
          15   -0.0019   -0.0007   -0.0030    0.0453    0.0139   -0.0578    0.0002   -0.0005
          16    0.0020    0.0005    0.0047   -0.0104    0.0294    0.0046    0.0014   -0.0028
          17   -0.0002    0.0062   -0.0188    0.0053   -0.0225   -0.0067   -0.0039   -0.0056
          18   -0.0370   -0.0168    0.0152   -0.0013    0.0028    0.0027   -0.0010   -0.0002
          19   -0.0076   -0.0055   -0.0127    0.0135   -0.0295   -0.0028    0.0008   -0.0018
          20   -0.0061   -0.0031   -0.0086    0.0086   -0.0192   -0.0031    0.0003   -0.0058
          21    0.0341    0.0241   -0.0063    0.0020   -0.0049   -0.0013    0.0001   -0.0005
          22    0.0040    0.0004    0.0119    0.0014   -0.0071    0.0007   -0.0065   -0.0046
          23   -0.0022    0.0039    0.0048   -0.0000    0.0023    0.0018   -0.0004   -0.0017
          24    0.0269   -0.0537   -0.0074   -0.0017    0.0032    0.0012   -0.0022    0.0009
          25    0.0013    0.0022    0.0036   -0.0178   -0.0061   -0.0052   -0.0006    0.0005
          26    0.0020    0.0028    0.0030   -0.0251   -0.0083   -0.0074   -0.0007    0.0007
          27    0.0038    0.0031   -0.0019    0.0060    0.0016   -0.0010   -0.0002    0.0001
          28    0.0007    0.0005   -0.0022   -0.0034   -0.0005   -0.0010    0.0003   -0.0002
          29    0.0008    0.0015    0.0028   -0.0037   -0.0015   -0.0006   -0.0002    0.0001
          30   -0.0019   -0.0042    0.0039   -0.0215   -0.0066   -0.0025    0.0007   -0.0005
          31   -0.0625    0.0093   -0.2115    0.0273    0.0763   -0.1843   -0.1499    0.0405
          32    0.0488   -0.0240    0.2436    0.1069    0.0265   -0.2048    0.0449   -0.0036
          33   -0.0087   -0.0075   -0.0378   -0.0734   -0.0346    0.2414    0.0209   -0.0086
          34    0.0168    0.0042    0.0316   -0.0095    0.0188    0.0058   -0.0148    0.0051
          35    0.0128    0.0396    0.0142   -0.0879    0.1490    0.0012   -0.1658    0.1986
          36   -0.1043   -0.0347    0.0717   -0.0076    0.0094    0.0221   -0.0116    0.0105
          37    0.0041    0.0136   -0.0411    0.1431    0.0567    0.1385   -0.0088    0.0036
          38    0.0063    0.0205   -0.0014    0.2026    0.0694    0.2056   -0.0176    0.0081
          39   -0.0062   -0.0137    0.0089   -0.0645   -0.0257   -0.1717    0.0099   -0.0052
          40    0.0002    0.0012    0.0070    0.0040   -0.0245   -0.0048   -0.0080    0.0019
          41    0.0066    0.0193    0.0346   -0.0639    0.1451   -0.0006    0.1624    0.1408
          42    0.0885    0.1053    0.0140   -0.0031    0.0039    0.0033    0.0169    0.0088
          43   -0.0141   -0.0110   -0.0938    0.0476   -0.0885   -0.0251    0.1759    0.2320
          44    0.0160    0.0123    0.0345   -0.0104    0.0130    0.0086   -0.0985   -0.1405
          45   -0.1349   -0.0843    0.0098    0.0025   -0.0037    0.0010    0.0072    0.0083
          46   -0.0279    0.0062   -0.0810   -0.0558    0.1503   -0.0303    0.1524   -0.2151
          47   -0.0132    0.0103   -0.0626   -0.0169    0.0354   -0.0244    0.0682   -0.1103
          48    0.1463    0.0575   -0.0471   -0.0035    0.0081   -0.0001    0.0157   -0.0194
          49   -0.0116    0.0065   -0.0296    0.0029   -0.0079   -0.0055   -0.0011    0.0039
          50    0.0239   -0.0323    0.0206   -0.0017    0.0054    0.0055   -0.0036   -0.0046
          51   -0.1142    0.1988    0.0327    0.0063   -0.0111   -0.0024    0.0089   -0.0047
          52    0.0026    0.0016    0.0101    0.0016   -0.0072    0.0005   -0.0059   -0.0040
          53   -0.0025   -0.0275   -0.0413   -0.0031    0.0304    0.0004    0.0326    0.0253
          54   -0.1074    0.2057    0.0247    0.0024   -0.0040    0.0061    0.0074    0.0015
          55    0.0051    0.0065    0.0041   -0.0708   -0.0243   -0.0281   -0.0034    0.0040
          56    0.0047    0.0055    0.0032   -0.0491   -0.0166   -0.0180   -0.0020    0.0023
          57   -0.0136   -0.0083    0.0088   -0.0230   -0.0072   -0.0064   -0.0007    0.0006
          58    0.0022    0.0031    0.0044   -0.0242   -0.0084   -0.0080   -0.0010    0.0010
          59    0.0057    0.0087    0.0148   -0.0816   -0.0294   -0.0314   -0.0045    0.0047
          60   -0.0148   -0.0102    0.0070   -0.0244   -0.0065   -0.0076    0.0004   -0.0003


   Root No.      33        34        35        36        37        38        39        40

                33 A      34 A      35 A      36 A      37 A      38 A      39 A      40 A   

                1180.1    1212.3    1274.9    1306.3    1362.7    1398.2    1493.0    1511.8
  
           1   -0.0242   -0.0278    0.0298    0.0257   -0.0478   -0.0309   -0.0569   -0.0478
           2   -0.0369    0.0196    0.0208   -0.0411    0.0447   -0.0336    0.0327   -0.0417
           3    0.0446    0.0007   -0.0332    0.0105   -0.0024    0.0085   -0.0058    0.0380
           4   -0.0051   -0.0207    0.0154    0.0067    0.0090    0.0595    0.0916    0.0315
           5   -0.0013   -0.0146    0.0040   -0.0185   -0.0194    0.0325    0.0557    0.0177
           6   -0.0144   -0.0058    0.0067   -0.0036   -0.0029    0.0018    0.0057    0.0007
           7   -0.0033    0.0047   -0.0067   -0.0239    0.0267   -0.0075    0.0141    0.0017
           8   -0.0043    0.0145    0.0110    0.0110   -0.0208    0.0469   -0.0459   -0.0040
           9   -0.0135    0.0029    0.0045   -0.0043    0.0032   -0.0019    0.0001   -0.0008
          10    0.0137    0.0019   -0.0144   -0.0002    0.0137   -0.0249   -0.0452   -0.0118
          11    0.0083   -0.0133   -0.0089   -0.0181    0.0229    0.0139   -0.0638   -0.0120
          12    0.0052   -0.0005   -0.0030   -0.0010    0.0032   -0.0003   -0.0078   -0.0013
          13   -0.0191    0.0044   -0.0099   -0.0048    0.0066   -0.0086   -0.0148    0.0791
          14   -0.0254   -0.0061   -0.0116    0.0031   -0.0028   -0.0120   -0.0252    0.1111
          15   -0.0131    0.0008    0.0276   -0.0067    0.0010   -0.0024    0.0067   -0.0374
          16   -0.0122    0.0192    0.0118   -0.0080   -0.0076    0.0616   -0.0516   -0.0052
          17    0.0119    0.0042   -0.0046    0.0153   -0.0137   -0.0038    0.0141    0.0074
          18    0.0033    0.0013   -0.0006    0.0004   -0.0012    0.0049   -0.0033    0.0005
          19    0.0031    0.0146    0.0007    0.0272   -0.0234   -0.0389    0.0680    0.0131
          20    0.0056   -0.0069   -0.0047    0.0048    0.0097   -0.0223   -0.0055   -0.0049
          21   -0.0017    0.0009    0.0005    0.0021   -0.0011   -0.0047    0.0046    0.0003
          22    0.0031    0.0103   -0.0049    0.0007    0.0181   -0.0093   -0.0150   -0.0053
          23   -0.0033    0.0024    0.0005   -0.0032   -0.0264   -0.0103    0.0017   -0.0008
          24    0.0039    0.0011   -0.0015    0.0002   -0.0035   -0.0009    0.0003    0.0006
          25    0.0112    0.0005   -0.0134    0.0051   -0.0018    0.0121    0.0152   -0.0667
          26    0.0156    0.0004   -0.0186    0.0072   -0.0025    0.0169    0.0213   -0.0928
          27    0.0021    0.0001   -0.0006    0.0005   -0.0002    0.0016    0.0020   -0.0087
          28   -0.0031   -0.0015   -0.0113    0.0035   -0.0015    0.0014   -0.0021    0.0083
          29   -0.0043    0.0002   -0.0163    0.0029    0.0003    0.0022   -0.0014    0.0118
          30   -0.0054   -0.0003   -0.0046    0.0004    0.0003   -0.0014   -0.0012    0.0035
          31    0.0866    0.1178   -0.0710   -0.0442    0.0768   -0.0032    0.0050    0.0362
          32    0.0956   -0.0659   -0.0359    0.0533   -0.0555    0.0156   -0.0205    0.0468
          33   -0.0664   -0.0062    0.0348   -0.0157    0.0066   -0.0271    0.0026   -0.0408
          34   -0.0064   -0.0012   -0.0061   -0.0255    0.0286   -0.0134    0.0145   -0.0004
          35   -0.0107   -0.1836   -0.0051    0.0326   -0.0117   -0.1449    0.0372   -0.0186
          36    0.0267   -0.0055   -0.0115    0.0032    0.0006   -0.0017    0.0010    0.0043
          37    0.0696   -0.0076    0.0332    0.0055   -0.0116   -0.0003    0.0018   -0.0506
          38    0.0978    0.0120    0.0400   -0.0128    0.0076    0.0024    0.0182   -0.0698
          39   -0.0873   -0.0026   -0.0052   -0.0039    0.0026   -0.0120   -0.0176    0.0823
          40    0.0155    0.0073   -0.0156    0.0030    0.0129   -0.0306   -0.0438   -0.0118
          41    0.0084    0.2282   -0.0163    0.0578   -0.0917   -0.1189    0.0454    0.0007
          42   -0.0048    0.0170   -0.0011    0.0037   -0.0080   -0.0122   -0.0003   -0.0005
          43    0.0379   -0.0719   -0.0326   -0.0553    0.0611   -0.0154   -0.0818   -0.0225
          44   -0.0134    0.0433    0.0133    0.0539   -0.0385   -0.0418    0.0824    0.0153
          45    0.0033   -0.0035   -0.0016   -0.0008    0.0021   -0.0039   -0.0020   -0.0009
          46    0.0625   -0.0935   -0.0437   -0.0416    0.0681   -0.0840    0.0364   -0.0014
          47    0.0498   -0.0517   -0.0326    0.0018    0.0211   -0.0783    0.0613    0.0108
          48    0.0077   -0.0095   -0.0073   -0.0012    0.0046   -0.0077    0.0043    0.0033
          49    0.0090   -0.0365   -0.0346   -0.1845   -0.1692    0.0117    0.0594    0.0143
          50   -0.0043    0.0255    0.0168    0.0972    0.0726   -0.0183   -0.0326   -0.0092
          51   -0.0199   -0.0001    0.0098    0.0096    0.0087   -0.0050   -0.0045   -0.0047
          52    0.0027    0.0077   -0.0037    0.0016    0.0220   -0.0053   -0.0114   -0.0040
          53   -0.0261   -0.0304    0.0706    0.2110    0.1838    0.0690    0.0293    0.0156
          54   -0.0025   -0.0060    0.0062    0.0291    0.0237    0.0111    0.0036    0.0056
          55    0.1270    0.0100    0.2008   -0.0422    0.0077   -0.0424   -0.0335    0.1359
          56    0.0687    0.0046    0.0752   -0.0130    0.0012   -0.0053    0.0025   -0.0167
          57    0.0054    0.0036    0.0092   -0.0057    0.0053   -0.0014    0.0031    0.0024
          58    0.0243    0.0017    0.0068    0.0009   -0.0009    0.0086    0.0133   -0.0594
          59    0.1420    0.0128    0.2135   -0.0451    0.0086   -0.0417   -0.0305    0.1234
          60    0.0077   -0.0023    0.0152    0.0004   -0.0044   -0.0030   -0.0052    0.0046


   Root No.      41        42        43        44        45        46        47        48

                41 A      42 A      43 A      44 A      45 A      46 A      47 A      48 A   

                1830.0    1839.8    1871.1    2259.9    2851.4    3043.2    3043.7    3050.4
  
           1    0.0111   -0.0106    0.0119    0.0023   -0.0218   -0.0005    0.0003   -0.0003
           2   -0.0078   -0.0115   -0.0226    0.0028   -0.0331   -0.0008    0.0003    0.0000
           3   -0.0006   -0.0000   -0.0000   -0.0033   -0.0604   -0.0020    0.0001   -0.0004
           4   -0.0535    0.0693   -0.0471    0.0024   -0.0009    0.0001    0.0000    0.0003
           5    0.0560   -0.1164    0.1110    0.0002    0.0001    0.0001    0.0003   -0.0004
           6    0.0082   -0.0157    0.0138   -0.0011    0.0001   -0.0002    0.0000   -0.0000
           7    0.0258    0.0547    0.0419    0.0002    0.0014    0.0007   -0.0030   -0.0358
           8    0.0440    0.1239    0.0945    0.0033   -0.0010    0.0001   -0.0000    0.0005
           9    0.0023    0.0061    0.0045   -0.0011    0.0001   -0.0001   -0.0002   -0.0020
          10   -0.0620   -0.0009    0.0219   -0.0002    0.0002   -0.0026   -0.0464    0.0074
          11    0.1495    0.0155   -0.0919   -0.0002    0.0001    0.0002    0.0029   -0.0007
          12    0.0059    0.0016   -0.0054   -0.0000   -0.0002   -0.0002   -0.0032    0.0005
          13   -0.0003    0.0007   -0.0003   -0.0907    0.0005   -0.0227    0.0006   -0.0003
          14   -0.0004   -0.0029    0.0001   -0.1266    0.0005   -0.0297    0.0008   -0.0002
          15    0.0003    0.0017    0.0002    0.0045    0.0012   -0.0622    0.0017   -0.0006
          16   -0.0639   -0.0930   -0.0581   -0.0009    0.0004   -0.0001    0.0023    0.0135
          17   -0.0305   -0.1022   -0.0787   -0.0011    0.0005    0.0002   -0.0046   -0.0259
          18   -0.0050   -0.0090   -0.0061   -0.0001   -0.0002   -0.0000    0.0000    0.0003
          19    0.1173    0.0222   -0.0324    0.0002   -0.0002    0.0006    0.0117    0.0015
          20   -0.1336    0.0071    0.0622    0.0001    0.0000    0.0009    0.0170    0.0041
          21   -0.0003    0.0019    0.0016   -0.0000    0.0001    0.0001    0.0020    0.0004
          22    0.0378   -0.0576    0.0438   -0.0004   -0.0000   -0.0000   -0.0003    0.0000
          23   -0.0682    0.0950   -0.0732    0.0005   -0.0001    0.0000    0.0001    0.0000
          24   -0.0093    0.0130   -0.0099    0.0001   -0.0001   -0.0000   -0.0000    0.0000
          25    0.0002    0.0014    0.0004   -0.0827   -0.0001   -0.0006    0.0000    0.0000
          26    0.0003    0.0020    0.0005   -0.1151   -0.0001   -0.0008    0.0000   -0.0000
          27    0.0000    0.0002    0.0000   -0.0095   -0.0000   -0.0003    0.0000   -0.0000
          28   -0.0001   -0.0014   -0.0002    0.1791    0.0005    0.0048   -0.0001    0.0000
          29   -0.0003   -0.0018   -0.0006    0.2490    0.0007    0.0067   -0.0002    0.0001
          30    0.0000   -0.0005   -0.0001    0.0201   -0.0004    0.0003   -0.0000   -0.0000
          31   -0.0007    0.0240   -0.0091   -0.0084    0.2618    0.0038   -0.0004    0.0001
          32   -0.0003   -0.0214    0.0009   -0.0120    0.3961    0.0057   -0.0003    0.0043
          33    0.0008   -0.0020   -0.0037    0.0026    0.7356    0.0189   -0.0010    0.0049
          34    0.0333    0.0706    0.0570    0.0004   -0.0135   -0.0084    0.0339    0.4231
          35    0.0021   -0.0334   -0.0307   -0.0006   -0.0034    0.0001   -0.0015   -0.0158
          36    0.0033    0.0059    0.0040    0.0004   -0.0024   -0.0006    0.0019    0.0238
          37    0.0012    0.0003    0.0013   -0.0284   -0.0082    0.2222   -0.0060    0.0020
          38   -0.0001    0.0006   -0.0008   -0.0365   -0.0111    0.2862   -0.0078    0.0026
          39   -0.0003    0.0003   -0.0000   -0.1085   -0.0174    0.7512   -0.0205    0.0069
          40   -0.0934    0.0010    0.0360   -0.0001    0.0024    0.0299    0.5372   -0.0853
          41   -0.0156   -0.0168    0.0459   -0.0002    0.0003   -0.0008   -0.0145    0.0029
          42   -0.0080   -0.0030    0.0087   -0.0001   -0.0000    0.0022    0.0394   -0.0062
          43   -0.0678    0.0363    0.0554    0.0002    0.0001   -0.0066   -0.1280   -0.0200
          44   -0.0577    0.0005    0.0240    0.0001    0.0002   -0.0113   -0.2206   -0.0405
          45   -0.0096    0.0019    0.0066   -0.0000    0.0000   -0.0012   -0.0246   -0.0042
          46   -0.0198    0.0603    0.0616    0.0003   -0.0009    0.0013   -0.0242   -0.1550
          47   -0.0179   -0.0500   -0.0375   -0.0009    0.0030   -0.0024    0.0527    0.3132
          48   -0.0018    0.0028    0.0033    0.0003   -0.0009    0.0001   -0.0004   -0.0031
          49   -0.0511    0.0664   -0.0463    0.0004   -0.0015   -0.0003   -0.0021    0.0006
          50   -0.0383    0.0503   -0.0418    0.0002    0.0002   -0.0006   -0.0044    0.0012
          51   -0.0054    0.0053   -0.0044   -0.0002    0.0001   -0.0002   -0.0006    0.0002
          52    0.0502   -0.0780    0.0612   -0.0005   -0.0007    0.0001    0.0047   -0.0011
          53    0.0218   -0.0320    0.0265    0.0002    0.0003   -0.0001   -0.0015    0.0002
          54    0.0029   -0.0021    0.0020    0.0003   -0.0006    0.0001   -0.0002    0.0000
          55   -0.0001   -0.0011   -0.0002    0.0481    0.0002    0.0001   -0.0001   -0.0000
          56    0.0002    0.0013    0.0003   -0.1124   -0.0005   -0.0008    0.0002   -0.0000
          57   -0.0004    0.0009   -0.0009   -0.0057    0.0000   -0.0002    0.0000   -0.0000
          58    0.0002    0.0017    0.0004   -0.1222   -0.0005   -0.0008    0.0001   -0.0002
          59   -0.0002   -0.0007   -0.0002    0.0094   -0.0000   -0.0002   -0.0000   -0.0000
          60    0.0004   -0.0007    0.0009   -0.0026    0.0000   -0.0002    0.0000    0.0000


   Root No.      49        50        51        52        53        54

                49 A      50 A      51 A      52 A      53 A      54 A   

                3064.7    3075.2    3119.3    3125.1    3139.0    3141.9
  
           1   -0.0002    0.0004   -0.0001   -0.0000    0.0001    0.0004
           2   -0.0002    0.0004   -0.0001   -0.0000   -0.0000   -0.0004
           3   -0.0002    0.0003    0.0001    0.0000   -0.0000   -0.0001
           4    0.0000   -0.0003    0.0000   -0.0000    0.0030   -0.0007
           5    0.0003    0.0006   -0.0000    0.0000   -0.0052    0.0000
           6    0.0000    0.0000   -0.0000    0.0000   -0.0007    0.0000
           7   -0.0212    0.0181   -0.0001   -0.0000   -0.0001    0.0001
           8   -0.0020    0.0025   -0.0000   -0.0000   -0.0000    0.0000
           9   -0.0013    0.0011   -0.0000   -0.0000   -0.0000    0.0000
          10   -0.0142   -0.0115    0.0001   -0.0000    0.0008   -0.0002
          11    0.0030    0.0027   -0.0000    0.0000   -0.0004    0.0007
          12   -0.0009   -0.0007    0.0000   -0.0000    0.0000    0.0001
          13   -0.0000    0.0000   -0.0005   -0.0002    0.0000    0.0000
          14    0.0000   -0.0000   -0.0007    0.0001   -0.0000   -0.0000
          15   -0.0001    0.0001   -0.0000    0.0000    0.0000   -0.0001
          16   -0.0059    0.0102   -0.0000   -0.0000    0.0001    0.0000
          17    0.0183   -0.0258    0.0001    0.0000    0.0000   -0.0000
          18    0.0000    0.0001    0.0000    0.0000    0.0000    0.0000
          19   -0.0112   -0.0118    0.0000    0.0000   -0.0001    0.0001
          20   -0.0251   -0.0240    0.0001    0.0000    0.0003   -0.0001
          21   -0.0025   -0.0025    0.0000    0.0000    0.0000   -0.0000
          22   -0.0001    0.0000   -0.0000   -0.0000   -0.0272   -0.0542
          23   -0.0000   -0.0000    0.0002   -0.0001    0.0376   -0.0354
          24   -0.0000   -0.0000    0.0000   -0.0000    0.0051   -0.0045
          25    0.0000   -0.0001   -0.0255   -0.0539    0.0001   -0.0000
          26    0.0000   -0.0001   -0.0401    0.0361    0.0003   -0.0001
          27   -0.0000   -0.0000   -0.0032    0.0009    0.0000   -0.0000
          28    0.0000    0.0000    0.0051   -0.0001   -0.0001    0.0001
          29    0.0000   -0.0000    0.0070    0.0006   -0.0000    0.0000
          30   -0.0000    0.0000    0.0006    0.0000   -0.0000   -0.0000
          31    0.0003   -0.0005    0.0001   -0.0000    0.0001    0.0009
          32    0.0025   -0.0024    0.0001    0.0000    0.0002   -0.0004
          33    0.0032   -0.0034    0.0003    0.0000    0.0001    0.0004
          34    0.2364   -0.1910    0.0010    0.0003    0.0002   -0.0004
          35   -0.0064    0.0046   -0.0000   -0.0000    0.0000    0.0000
          36    0.0133   -0.0108    0.0001    0.0000    0.0001   -0.0000
          37    0.0002   -0.0001   -0.0003   -0.0002   -0.0000    0.0001
          38    0.0003   -0.0002   -0.0005    0.0001   -0.0000    0.0000
          39    0.0008   -0.0005   -0.0011   -0.0000   -0.0001    0.0002
          40    0.1521    0.1171   -0.0006    0.0000   -0.0084    0.0003
          41   -0.0064   -0.0050    0.0000   -0.0000    0.0010    0.0017
          42    0.0110    0.0085   -0.0000   -0.0000   -0.0005    0.0003
          43    0.1493    0.1451   -0.0004   -0.0000   -0.0005    0.0002
          44    0.2679    0.2540   -0.0007   -0.0001   -0.0010    0.0003
          45    0.0294    0.0282   -0.0001   -0.0000   -0.0001    0.0000
          46    0.0890   -0.1325    0.0005    0.0001   -0.0001   -0.0001
          47   -0.1896    0.2701   -0.0011   -0.0001    0.0002    0.0002
          48    0.0015   -0.0026    0.0000    0.0000    0.0000   -0.0000
          49   -0.0009   -0.0009   -0.0015    0.0004   -0.2070    0.2164
          50   -0.0018   -0.0018   -0.0026    0.0007   -0.3802    0.4407
          51   -0.0002   -0.0003   -0.0003    0.0001   -0.0493    0.0572
          52    0.0020    0.0014    0.0018   -0.0003    0.4945    0.4319
          53   -0.0004   -0.0003    0.0000   -0.0000   -0.0065   -0.0239
          54   -0.0001   -0.0000    0.0000   -0.0000   -0.0029   -0.0047
          55    0.0000   -0.0003   -0.1947    0.1609    0.0012   -0.0005
          56   -0.0001    0.0008    0.4440   -0.4153   -0.0027    0.0010
          57   -0.0000    0.0000    0.0231   -0.0221   -0.0002    0.0001
          58   -0.0003    0.0010    0.4449    0.4856   -0.0017    0.0004
          59    0.0000   -0.0001   -0.0403   -0.0227    0.0002   -0.0001
          60    0.0000    0.0000    0.0094    0.0115   -0.0001    0.0000


           MASS-WEIGHTED COORDINATE ANALYSIS (NORMAL COORDINATES)


   Root No.       1         2         3         4         5         6         7         8

                 1 A       2 A       3 A       4 A       5 A       6 A       7 A       8 A   

                  25.6      32.7     148.3     196.8     248.3     340.6     354.1     400.4
  
           1   -0.1593    0.0317    0.0081    0.0113   -0.1044    0.0017   -0.0751   -0.2635
           2    0.1562    0.0193    0.0364    0.0702    0.1206    0.0048   -0.0173    0.0007
           3    0.0295    0.1502   -0.3368    0.0890   -0.0809    0.0269    0.2295   -0.1283
           4   -0.1580    0.0309    0.0148    0.0222   -0.1138   -0.0077   -0.0620   -0.2506
           5   -0.0350    0.0358    0.0262    0.0928    0.0377    0.0195    0.1201   -0.1585
           6    0.0421    0.0724   -0.1546    0.1629   -0.0318    0.0159   -0.0972   -0.1912
           7    0.0092   -0.0038    0.0151    0.0852   -0.0780    0.0085    0.1128   -0.0442
           8    0.2305    0.0019    0.0470    0.1104    0.1240    0.0154    0.0702    0.1606
           9    0.0445    0.3499   -0.0874    0.1820   -0.0330   -0.0213   -0.2487    0.0906
          10    0.0035    0.0359    0.0187    0.0616   -0.0616   -0.0022    0.0605   -0.1800
          11   -0.1128    0.0861    0.0297    0.0704   -0.0326    0.0241    0.1012   -0.2312
          12   -0.0544   -0.3813   -0.2010    0.2372    0.1930   -0.0333   -0.3338    0.0312
          13   -0.2523    0.0635   -0.0239   -0.1517    0.3998   -0.1170   -0.0645   -0.0437
          14    0.1836   -0.1689   -0.0299   -0.2365   -0.1867    0.0630   -0.1843    0.0285
          15    0.0069    0.0464   -0.3951   -0.1808   -0.0699    0.0164    0.1861    0.0005
          16    0.1509   -0.0147    0.0010    0.1335    0.0007   -0.0004    0.1459    0.0969
          17    0.1437    0.0264    0.0267    0.1134    0.0910    0.0193    0.0580    0.0895
          18   -0.0126    0.0933    0.3315   -0.2277   -0.2089    0.0180   -0.1405   -0.0497
          19    0.1499    0.0183    0.0098    0.1307   -0.0145    0.0001    0.1115    0.0734
          20   -0.0304    0.0757    0.0141    0.1183    0.0016    0.0253    0.1037   -0.1159
          21   -0.0805   -0.3693    0.1858   -0.2058    0.0391    0.0146    0.3482   -0.0181
          22   -0.3018    0.0348    0.0268    0.0517   -0.3213   -0.0471   -0.0232    0.4234
          23   -0.1343   -0.0072   -0.0285    0.1570   -0.1118    0.0027    0.1316    0.2018
          24    0.1374    0.3970    0.2920   -0.1692    0.1684   -0.0211    0.0281    0.0881
          25    0.4432   -0.1457   -0.0477   -0.1872    0.0137   -0.1668   -0.1186   -0.0100
          26   -0.3089    0.0084   -0.0779   -0.2670    0.0938    0.0954   -0.1782    0.0086
          27   -0.0804   -0.2635    0.3977    0.2899    0.0050    0.0051   -0.0264   -0.0497
          28    0.0970   -0.0408   -0.0293   -0.1600    0.3102    0.5305   -0.1042    0.0765
          29   -0.0638   -0.0805   -0.0404   -0.2362   -0.1194   -0.4029   -0.1823   -0.0719
          30   -0.0360   -0.1042   -0.1893   -0.2079   -0.0345   -0.0107    0.1252    0.1718
          31   -0.0611    0.0039    0.0184    0.0284   -0.0582    0.0067   -0.0337   -0.1435
          32    0.0634    0.0456    0.0411    0.0842    0.0601   -0.0043   -0.0395    0.0280
          33    0.0039    0.0231   -0.1175   -0.0189   -0.0271    0.0083    0.0866   -0.0248
          34    0.0029   -0.0071    0.0058    0.0205   -0.0223    0.0036    0.0442   -0.0153
          35    0.1055   -0.0092    0.0183    0.0447    0.0492    0.0060    0.0607    0.0990
          36    0.0278    0.2013   -0.0485    0.1294    0.0001   -0.0250   -0.2582    0.0963
          37   -0.1734    0.0483    0.0006   -0.0638    0.3091   -0.2867    0.0230    0.0457
          38    0.1160   -0.1107   -0.0035   -0.1248   -0.1804    0.1939   -0.1186    0.0271
          39    0.0078    0.0283   -0.1166   -0.0225   -0.0293    0.0127    0.0662   -0.0247
          40    0.0006    0.0178    0.0111    0.0113   -0.0256    0.0007    0.0256   -0.0567
          41   -0.0705    0.0380    0.0118    0.0037   -0.0337    0.0066    0.0092   -0.1080
          42   -0.0287   -0.2047   -0.1318    0.1527    0.1449   -0.0288   -0.2147    0.0811
          43    0.0790    0.0089    0.0051    0.0455    0.0042    0.0001    0.0232    0.0757
          44   -0.0266    0.0303   -0.0012    0.0363   -0.0087    0.0073    0.0159   -0.0686
          45   -0.0436   -0.2012    0.0905   -0.1176    0.0520    0.0044    0.2715    0.0288
          46    0.0784   -0.0146   -0.0035    0.0437    0.0227   -0.0017    0.0509    0.0700
          47    0.0585    0.0030    0.0069    0.0350    0.0368    0.0049    0.0202    0.0463
          48   -0.0023    0.0656    0.1995   -0.1232   -0.1238    0.0045   -0.1897   -0.0128
          49   -0.1233    0.0098    0.0093    0.0238   -0.1543   -0.0272    0.0050    0.3535
[...]
 REDUCED MASS        0.5684         C  1 -- H 11         +11.1% ( 41.3%)      0.0%
 EFFECTIVE MASS      4.8361
 FORCE CONSTANT      0.5715

 VIBRATION         37   37A           ATOM PAIR      ENERGY CONTRIBUTION    RADIAL
 FREQUENCY          1362.75         C  1 -- C  3         +16.3% ( 54.9%)     82.6%
 TRANSITION DIPOLE   0.1034         C  1 -- H 11         +12.7% ( 48.6%)      0.1%
 TRAVEL (Ang.)       0.2231         C  1 -- C  2         +12.5% ( 48.2%)     44.0%
 REDUCED MASS        0.9944         C  8 -- H 18         +10.7% ( 44.6%)      3.3%
 EFFECTIVE MASS      6.3680         C  8 -- H 17         +10.7% ( 44.6%)      2.3%
 FORCE CONSTANT      1.0880

 VIBRATION         38   38A           ATOM PAIR      ENERGY CONTRIBUTION    RADIAL
 FREQUENCY          1398.22         C  6 -- C  7         +14.2% ( 55.3%)     95.5%
 TRANSITION DIPOLE   0.1977         C  1 -- C  2         +12.6% ( 52.2%)     64.9%
 TRAVEL (Ang.)       0.1925         C  2 -- C  4          +9.3% ( 44.8%)     43.3%
 REDUCED MASS        1.3011         C  6 -- H 16          +8.7% ( 43.3%)      5.5%
 EFFECTIVE MASS      9.3038
 FORCE CONSTANT      1.4987

 VIBRATION         39   39A           ATOM PAIR      ENERGY CONTRIBUTION    RADIAL
 FREQUENCY          1493.04         C  2 -- C  4         +19.9% ( 67.4%)     88.3%
 TRANSITION DIPOLE   0.1801         C  1 -- C  2         +14.7% ( 57.9%)     97.1%
 TRAVEL (Ang.)       0.1486         C  6 -- C  7          +9.5% ( 46.6%)     98.3%
 REDUCED MASS        2.0451         C  2 -- C  8          +9.2% ( 45.9%)      0.4%
 EFFECTIVE MASS     11.2176
 FORCE CONSTANT      2.6860

 VIBRATION         40   40A           ATOM PAIR      ENERGY CONTRIBUTION    RADIAL
 FREQUENCY          1511.83         C  1 -- C  5         +21.5% ( 74.6%)     70.7%
 TRANSITION DIPOLE   0.1183         C  5 -- H 13         +17.0% ( 66.3%)      0.9%
 TRAVEL (Ang.)       0.1132         C  5 -- C 10         +13.7% ( 59.6%)     84.9%
 REDUCED MASS        3.4808         C  9 -- C 10         +13.3% ( 58.7%)     99.9%
 EFFECTIVE MASS     11.0055         C  9 -- H 19         +11.2% ( 53.8%)      9.2%
 FORCE CONSTANT      4.6874         C  9 -- H 20         +11.2% ( 53.8%)      9.3%

 VIBRATION         41   41A           ATOM PAIR      ENERGY CONTRIBUTION    RADIAL
 FREQUENCY          1829.96         C  4 -- C  7         +33.4% ( 85.8%)     99.7%
 TRANSITION DIPOLE   0.0940         C  6 -- C  7         +14.2% ( 55.8%)     78.1%
 TRAVEL (Ang.)       0.1047         C  7 -- H 15         +10.9% ( 49.0%)      3.6%
 REDUCED MASS        3.3607         C  2 -- C  4         +10.7% ( 48.6%)     67.5%
 EFFECTIVE MASS     11.9386
 FORCE CONSTANT      6.6307

 VIBRATION         42   42A           ATOM PAIR      ENERGY CONTRIBUTION    RADIAL
 FREQUENCY          1839.76         C  3 -- C  6         +24.1% ( 73.0%)    100.0%
 TRANSITION DIPOLE   0.3646         C  2 -- C  8         +20.5% ( 67.4%)    100.0%
 TRAVEL (Ang.)       0.1147         C  6 -- C  7          +8.1% ( 42.4%)     49.6%
 REDUCED MASS        2.7873         C  2 -- C  4          +7.8% ( 41.6%)     30.5%
 EFFECTIVE MASS     11.8782
 FORCE CONSTANT      5.5585

 VIBRATION         43   43A           ATOM PAIR      ENERGY CONTRIBUTION    RADIAL
 FREQUENCY          1871.07         C  2 -- C  8         +17.3% ( 61.2%)     99.3%
 TRANSITION DIPOLE   0.2835         C  3 -- C  6         +15.9% ( 58.7%)     99.8%
 TRAVEL (Ang.)       0.1339         C  2 -- C  4         +13.2% ( 53.5%)     45.9%
 REDUCED MASS        2.0086         C  4 -- C  7         +10.4% ( 47.5%)     97.1%
 EFFECTIVE MASS     11.8222
 FORCE CONSTANT      4.1430

 VIBRATION         44   44A           ATOM PAIR      ENERGY CONTRIBUTION    RADIAL
 FREQUENCY          2259.95         C  5 -- C 10         +42.8% ( 85.9%)     99.8%
 TRANSITION DIPOLE   0.5139         C  9 -- C 10         +41.5% ( 84.6%)    100.0%
 TRAVEL (Ang.)       0.0714         C  1 -- C  5          +4.4% ( 27.4%)     40.5%
 REDUCED MASS        5.8531         C  5 -- H 13          +4.3% ( 27.3%)      4.3%
 EFFECTIVE MASS     11.8461
 FORCE CONSTANT     17.6131

 VIBRATION         45   45A           ATOM PAIR      ENERGY CONTRIBUTION    RADIAL
 FREQUENCY          2851.35         C  1 -- H 11         +96.8% (100.0%)    100.0%
 TRANSITION DIPOLE   0.1035         C  1 -- C  5          +1.0% ( 10.4%)     11.8%
 TRAVEL (Ang.)       0.1596         C  1 -- C  2          +1.0% ( 10.3%)      8.4%
 REDUCED MASS        0.9282         C  1 -- C  3          +1.0% ( 10.3%)      7.5%
 EFFECTIVE MASS      1.4441
 FORCE CONSTANT      4.4460

 VIBRATION         46   46A           ATOM PAIR      ENERGY CONTRIBUTION    RADIAL
 FREQUENCY          3043.25         C  5 -- H 13         +96.8% ( 99.8%)    100.0%
 TRANSITION DIPOLE   0.3444         C  5 -- C 10          +1.6% ( 12.7%)     42.1%
 TRAVEL (Ang.)       0.1549         C  1 -- C  5          +1.3% ( 11.7%)     14.2%
 REDUCED MASS        0.9240         C  4 -- H 14          +0.1% (  3.6%)    100.0%
 EFFECTIVE MASS      1.5193
 FORCE CONSTANT      5.0422

 VIBRATION         47   47A           ATOM PAIR      ENERGY CONTRIBUTION    RADIAL
 FREQUENCY          3043.75         C  4 -- H 14         +78.3% ( 89.9%)    100.0%
 TRANSITION DIPOLE   0.2971         C  7 -- H 15         +17.7% ( 42.7%)     99.9%
 TRAVEL (Ang.)       0.1870         C  4 -- C  7          +1.2% ( 11.3%)      7.0%
 REDUCED MASS        0.6338         C  2 -- C  4          +1.1% ( 10.8%)     19.1%
 EFFECTIVE MASS      1.4834
 FORCE CONSTANT      3.4595

 VIBRATION         48   48A           ATOM PAIR      ENERGY CONTRIBUTION    RADIAL
 FREQUENCY          3050.39         C  3 -- H 12         +56.3% ( 76.2%)    100.0%
 TRANSITION DIPOLE   0.2451         C  6 -- H 16         +38.3% ( 62.8%)    100.0%
 TRAVEL (Ang.)       0.2208         C  4 -- H 14          +2.3% ( 15.3%)    100.0%
 REDUCED MASS        0.4535         C  3 -- C  6          +1.1% ( 10.6%)      0.6%
 EFFECTIVE MASS      1.4654
 FORCE CONSTANT      2.4861

 VIBRATION         49   49A           ATOM PAIR      ENERGY CONTRIBUTION    RADIAL
 FREQUENCY          3064.73         C  7 -- H 15         +42.0% ( 65.9%)     99.9%
 TRANSITION DIPOLE   0.3637         C  3 -- H 12         +24.7% ( 50.5%)     99.9%
 TRAVEL (Ang.)       0.2776         C  6 -- H 16         +19.5% ( 44.8%)     99.8%
 REDUCED MASS        0.2854         C  4 -- H 14         +10.3% ( 32.6%)     99.8%
 EFFECTIVE MASS      1.5670
 FORCE CONSTANT      1.5797

 VIBRATION         50   50A           ATOM PAIR      ENERGY CONTRIBUTION    RADIAL
 FREQUENCY          3075.16         C  6 -- H 16         +38.3% ( 62.8%)    100.0%
 TRANSITION DIPOLE   0.4240         C  7 -- H 15         +36.6% ( 61.3%)    100.0%
 TRAVEL (Ang.)       0.2664         C  3 -- H 12         +15.6% ( 40.0%)     99.8%
 REDUCED MASS        0.3090         C  4 -- H 14          +5.9% ( 24.6%)     99.7%
 EFFECTIVE MASS      1.6008
 FORCE CONSTANT      1.7219

 VIBRATION         51   51A           ATOM PAIR      ENERGY CONTRIBUTION    RADIAL
 FREQUENCY          3119.34         C  9 -- H 19         +53.2% ( 73.1%)     95.9%
 TRANSITION DIPOLE   0.3701         C  9 -- H 20         +44.9% ( 67.1%)     94.3%
 TRAVEL (Ang.)       0.2103         C  9 -- C 10          +1.8% ( 13.4%)     99.8%
 REDUCED MASS        0.4890
 EFFECTIVE MASS      1.4149
 FORCE CONSTANT      2.8031

 VIBRATION         52   52A           ATOM PAIR      ENERGY CONTRIBUTION    RADIAL
 FREQUENCY          3125.05         C  9 -- H 20         +53.4% ( 74.8%)     97.6%
 TRANSITION DIPOLE   0.2310         C  9 -- H 19         +45.4% ( 69.0%)     96.6%
 TRAVEL (Ang.)       0.2006         C  9 -- C 10          +1.2% ( 11.2%)      0.1%
 REDUCED MASS        0.5364
 EFFECTIVE MASS      1.5950
 FORCE CONSTANT      3.0864

 VIBRATION         53   53A           ATOM PAIR      ENERGY CONTRIBUTION    RADIAL
 FREQUENCY          3139.02         C  8 -- H 18         +55.6% ( 74.5%)     96.3%
 TRANSITION DIPOLE   0.3442         C  8 -- H 17         +42.9% ( 65.4%)     93.8%
 TRAVEL (Ang.)       0.2087         C  2 -- C  8          +1.5% ( 12.1%)     99.4%
 REDUCED MASS        0.4930
 EFFECTIVE MASS      1.3799
 FORCE CONSTANT      2.8619

 VIBRATION         54   54A           ATOM PAIR      ENERGY CONTRIBUTION    RADIAL
 FREQUENCY          3141.88         C  8 -- H 17         +55.4% ( 76.3%)     97.7%
 TRANSITION DIPOLE   0.1872         C  8 -- H 18         +43.3% ( 67.4%)     96.3%
 TRAVEL (Ang.)       0.1990         C  2 -- C  8          +1.3% ( 11.8%)      0.3%
 REDUCED MASS        0.5418
 EFFECTIVE MASS      1.6070
 FORCE CONSTANT      3.1511

      SYMMETRY NUMBER FOR POINT-GROUP C1  =  1


          SYSTEM IS A GROUND STATE



 InChI=1S/C10H10/c1-3-6-10-8-5-4-7-9(10)2/h4-8,10H,1-2H2


          MOLECULE IS NOT LINEAR

          THERE ARE 54 GENUINE VIBRATIONS IN THIS SYSTEM
          THIS THERMODYNAMICS CALCULATION IS LIMITED TO
          MOLECULES WHICH HAVE NO INTERNAL ROTATIONS




                    CALCULATED THERMODYNAMIC PROPERTIES
                                          *
   TEMP. (K)   PARTITION FUNCTION   H.O.F.    ENTHALPY  HEAT CAPACITY ENTROPY
                                   KCAL/MOL   CAL/MOLE    CAL/K/MOL  CAL/K/MOL


 298.00  VIB.     0.9521D+03                  4139.3992    29.9874    27.5201
         ROT.     0.6559D+06                   888.2803     2.9808    29.5971
         INT.     0.6245D+09                  5027.6795    32.9682    57.1172
         TRA.     0.1436D+28                  1480.4672     4.9680    40.5022
         TOT.                       92.633    6508.1467    37.9362    97.6193

 200.00  VIB.     0.1014D+03                  1773.0593    18.4119    18.0446
         ROT.     0.3606D+06                   596.1613     2.9808    28.4084
         INT.     0.3657D+08                  2369.2205    21.3927    46.4530
         TRA.     0.7896D+27                   993.6021     4.9680    38.5210
         TOT.                       89.488    3362.8227    26.3607    84.9740

 210.00  VIB.     0.1268D+03                  1962.8377    19.5470    18.9703
         ROT.     0.3880D+06                   625.9693     2.9808    28.5538
         INT.     0.4921D+08                  2588.8070    22.5278    47.5241
         TRA.     0.8496D+27                  1043.2822     4.9680    38.7634
         TOT.                       89.757    3632.0893    27.4958    86.2875

 220.00  VIB.     0.1587D+03                  2164.0588    20.7000    19.9062
         ROT.     0.4161D+06                   655.7774     2.9808    28.6925
         INT.     0.6604D+08                  2819.8362    23.6808    48.5987
         TRA.     0.9110D+27                  1092.9623     4.9680    38.9945
         TOT.                       90.038    3912.7986    28.6488    87.5932

 230.00  VIB.     0.1989D+03                  2376.8889    21.8683    20.8520
         ROT.     0.4448D+06                   685.5855     2.9808    28.8250
         INT.     0.8846D+08                  3062.4744    24.8491    49.6770
         TRA.     0.9738D+27                  1142.6424     4.9680    39.2154
         TOT.                       90.330    4205.1168    29.8171    88.8924

 240.00  VIB.     0.2495D+03                  2601.4665    23.0490    21.8077
         ROT.     0.4741D+06                   715.3935     2.9808    28.9519
         INT.     0.1183D+09                  3316.8600    26.0298    50.7595
         TRA.     0.1038D+28                  1192.3226     4.9680    39.4268
         TOT.                       90.634    4509.1826    30.9978    90.1863

 250.00  VIB.     0.3133D+03                  2837.9004    24.2391    22.7727
         ROT.     0.5040D+06                   745.2016     2.9808    29.0735
         INT.     0.1579D+09                  3583.1020    27.2199    51.8462
         TRA.     0.1103D+28                  1242.0027     4.9680    39.6296
         TOT.                       90.950    4825.1046    32.1879    91.4758

 260.00  VIB.     0.3940D+03                  3086.2691    25.4355    23.7466
         ROT.     0.5346D+06                   775.0097     2.9808    29.1905
         INT.     0.2106D+09                  3861.2788    28.4163    52.9371
         TRA.     0.1170D+28                  1291.6828     4.9680    39.8245
         TOT.                       91.278    5152.9616    33.3843    92.7615

 270.00  VIB.     0.4961D+03                  3346.6207    26.6351    24.7291
         ROT.     0.5657D+06                   804.8177     2.9808    29.3030
         INT.     0.2806D+09                  4151.4384    29.6159    54.0320
         TRA.     0.1239D+28                  1341.3629     4.9680    40.0120
         TOT.                       91.618    5492.8013    34.5840    94.0440

 280.00  VIB.     0.6254D+03                  3618.9732    27.8352    25.7194
         ROT.     0.5974D+06                   834.6258     2.9808    29.4114
         INT.     0.3736D+09                  4453.5990    30.8160    55.1308
         TRA.     0.1308D+28                  1391.0430     4.9680    40.1926
         TOT.                       91.969    5844.6419    35.7840    95.3234

 290.00  VIB.     0.7895D+03                  3903.3160    29.0328    26.7171
         ROT.     0.6297D+06                   864.4339     2.9808    29.5160
         INT.     0.4971D+09                  4767.7499    32.0136    56.2330
         TRA.     0.1379D+28                  1440.7231     4.9680    40.3670
         TOT.                       92.333    6208.4730    36.9816    96.6000

 300.00  VIB.     0.9978D+03                  4199.6120    30.2254    27.7215
         ROT.     0.6626D+06                   894.2419     2.9808    29.6170
         INT.     0.6611D+09                  5093.8539    33.2062    57.3385
         TRA.     0.1451D+28                  1490.4032     4.9680    40.5354
         TOT.                       92.709    6584.2571    38.1742    97.8739

 310.00  VIB.     0.1263D+04                  4507.7987    31.4106    28.7319
         ROT.     0.6960D+06                   924.0500     2.9808    29.7148
         INT.     0.8788D+09                  5431.8487    34.3914    58.4466
         TRA.     0.1524D+28                  1540.0833     4.9680    40.6983
         TOT.                       93.097    6971.9320    39.3594    99.1449

 320.00  VIB.     0.1600D+04                  4827.7914    32.5862    29.7477
         ROT.     0.7299D+06                   953.8580     2.9808    29.8094
         INT.     0.1168D+10                  5781.6495    35.5670    59.5571
         TRA.     0.1598D+28                  1589.7634     4.9680    40.8560
         TOT.                       93.496    7371.4129    40.5350   100.4131

 330.00  VIB.     0.2029D+04                  5159.4848    33.7504    30.7683
         ROT.     0.7644D+06                   983.6661     2.9808    29.9011
         INT.     0.1551D+10                  6143.1509    36.7312    60.6694
         TRA.     0.1674D+28                  1639.4435     4.9680    41.0089
         TOT.                       93.907    7782.5945    41.6992   101.6783

 340.00  VIB.     0.2577D+04                  5502.7559    34.9015    31.7930
         ROT.     0.7994D+06                  1013.4742     2.9808    29.9901
         INT.     0.2060D+10                  6516.2300    37.8823    61.7831
         TRA.     0.1750D+28                  1689.1236     4.9680    41.1572
         TOT.                       94.330    8205.3537    42.8503   102.9403

 350.00  VIB.     0.3277D+04                  5857.4657    36.0380    32.8211
         ROT.     0.8349D+06                  1043.2822     2.9808    30.0765
         INT.     0.2736D+10                  6900.7479    39.0188    62.8976
         TRA.     0.1828D+28                  1738.8037     4.9680    41.3012
         TOT.                       94.764    8639.5517    43.9868   104.1989

 360.00  VIB.     0.4170D+04                  6223.4622    37.1586    33.8521
         ROT.     0.8710D+06                  1073.0903     2.9808    30.1605
         INT.     0.3632D+10                  7296.5525    40.1394    64.0126
         TRA.     0.1907D+28                  1788.4838     4.9680    41.4412
         TOT.                       95.210    9085.0363    45.1074   105.4538

 370.00  VIB.     0.5313D+04                  6600.5820    38.2625    34.8853
         ROT.     0.9075D+06                  1102.8984     2.9808    30.2421
         INT.     0.4821D+10                  7703.4803    41.2433    65.1274
         TRA.     0.1987D+28                  1838.1639     4.9680    41.5773
         TOT.                       95.666    9541.6443    46.2113   106.7047

 380.00  VIB.     0.6774D+04                  6988.6523    39.3486    35.9202
         ROT.     0.9445D+06                  1132.7064     2.9808    30.3216
         INT.     0.6399D+10                  8121.3588    42.3294    66.2418
         TRA.     0.2068D+28                  1887.8440     4.9680    41.7098
         TOT.                       96.134   10009.2028    47.2974   107.9516

 390.00  VIB.     0.8646D+04                  7387.4933    40.4165    36.9561
         ROT.     0.9821D+06                  1162.5145     2.9808    30.3991
         INT.     0.8491D+10                  8550.0077    43.3973    67.3552
         TRA.     0.2150D+28                  1937.5242     4.9680    41.8388
         TOT.                       96.612   10487.5319    48.3653   109.1940

 400.00  VIB.     0.1104D+05                  7796.9189    41.4655    37.9926
         ROT.     0.1020D+07                  1192.3226     2.9808    30.4745
         INT.     0.1127D+11                  8989.2415    44.4463    68.4672
         TRA.     0.2233D+28                  1987.2043     4.9680    41.9646
         TOT.                       97.101   10976.4457    49.4143   110.4318

   *: NOTE: HEATS OF FORMATION ARE RELATIVE TO THE
            ELEMENTS IN THEIR STANDARD STATE AT 298K
              (=  Standard Enthalpy of Formation).

            Hvib:  Zero-point energy is not included.
                   frequencies of less than zero cm-1 are not included.
            Hrot = (3/2)RT
            Htra = (3/2)RT + pV = (5/2)RT

            Heat capacity is Cp, not Cv

          For more information, see: HTTP://OpenMOPAC.net/Manual/thermochemistry.html


           FORCE CONSTANT IN CARTESIAN COORDINATES (Millidynes/A)

    ATOM   CHEMICAL       X               Y               Z
   NUMBER   SYMBOL  FORCE CONSTANT  FORCE CONSTANT  FORCE CONSTANT

      1       C        8.842097        9.052613        8.087539
      2       C       11.037495       14.154565        2.886139
      3       C       11.338188       13.136092        2.510469
      4       C       11.332456       13.844506        2.287914
      5       C        7.001216       11.284911        8.484679
      6       C       11.643047       13.728070        2.251008
      7       C       11.377419       13.866046        2.271808
      8       C       10.794238       13.416354        2.155042
      9       C       10.989843       13.343292        1.914302
     10       C        9.480466       16.813702        1.943377
     11       H        1.028515        1.437156        3.374145
     12       H        5.118278        0.767363        0.360176
     13       H        0.755023        1.075952        4.264432
     14       H        5.073827        0.792620        0.370295
     15       H        1.815890        4.055807        0.387964
     16       H        1.602056        4.306237        0.347898
     17       H        1.658175        4.389681        0.396855
     18       H        5.417344        0.712159        0.332826
     19       H        1.300579        4.658433        0.310726
     20       H        5.338729        0.630130        0.302273

 **********************
 *                    *
 * JOB ENDED NORMALLY *
 *                    *
 **********************



 TOTAL JOB TIME:             2.84 SECONDS

 == MOPAC DONE ==
