 *******************************************************************************
 **                                                                           **
 **                              MOPAC v23.1.2                                **
 **                                                                           **
 *******************************************************************************
 **          Digital Object Identifier (DOI): 10.5281/zenodo.6511958          **
 **    Visit the DOI location for information on how to cite this program.    **
 *******************************************************************************

                              PM3 CALCULATION RESULTS

 *******************************************************************************
 *  CALCULATION DONE: (MAX THREADS = 1)              Tue Jun  3 16:30:54 2025  *
 *  PM3        - The PM3 Hamiltonian to be used
 *  PRECISE    - TIGHTER CRITERIA TO BE USED
 *  NOSYM      - POINT-GROUP SYMMETRY SET TO C1
 *  THREADS=1  - MULTI-THREADING NOT USED
 *  T=         - A TIME OF 172800.0 SECONDS REQUESTED
 *  DUMP=N     - RESTART FILE WRITTEN EVERY 7200.0 SECONDS REQUESTED
 *******************************************************************************
pm3  precise nosym THREADS=1
 InChI=1S/C6H8/c1-6-4-2-3-5-6/h2-3H,1,4-5H2

   ATOM   CHEMICAL          X               Y               Z
  NUMBER   SYMBOL      (ANGSTROMS)     (ANGSTROMS)     (ANGSTROMS)

     1       C         -0.82240000  *  -0.83170000  *   0.41950000  *
     2       C          0.61230000  *   0.98840000  *  -0.43870000  *
     3       C          0.56480000  *  -0.42090000  *   0.05150000  *
     4       C         -1.59270000  *   0.40890000  *   0.12110000  *
     5       C         -0.82000000  *   1.38910000  *  -0.34110000  *
     6       C          1.63320000  *  -1.21720000  *   0.14890000  *
     7       H         -0.89050000  *  -1.08440000  *   1.49890000  *
     8       H         -1.17180000  *  -1.67190000  *  -0.21740000  *
     9       H          1.24130000  *   1.62010000  *   0.22370000  *
    10       H          0.96000000  *   1.03260000  *  -1.49260000  *
    11       H         -2.66380000  *   0.50850000  *   0.26260000  *
    12       H         -1.19720000  *   2.36900000  *  -0.61460000  *
    13       H          2.61660000  *  -0.85630000  *  -0.13580000  *
    14       H          1.53040000  *  -2.23430000  *   0.51390000  *



          CARTESIAN COORDINATES 

    NO.       ATOM           X           Y           Z

     1         C         -0.8224     -0.8317      0.4195
     2         C          0.6123      0.9884     -0.4387
     3         C          0.5648     -0.4209      0.0515
     4         C         -1.5927      0.4089      0.1211
     5         C         -0.8200      1.3891     -0.3411
     6         C          1.6332     -1.2172      0.1489
     7         H         -0.8905     -1.0844      1.4989
     8         H         -1.1718     -1.6719     -0.2174
     9         H          1.2413      1.6201      0.2237
    10         H          0.9600      1.0326     -1.4926
    11         H         -2.6638      0.5085      0.2626
    12         H         -1.1972      2.3690     -0.6146
    13         H          2.6166     -0.8563     -0.1358
    14         H          1.5304     -2.2343      0.5139

  H: (PM3): J. J. P. STEWART, J. COMP. CHEM. 10, 209 (1989).
  C: (PM3): J. J. P. STEWART, J. COMP. CHEM. 10, 209 (1989).

           Empirical Formula: C6 H8  =    14 atoms



      MOLECULAR POINT GROUP   :   C1  


      RHF CALCULATION, NO. OF DOUBLY OCCUPIED LEVELS = 16


          Geometry optimization using EF

          DIAGONAL MATRIX USED AS START HESSIAN

 CYCLE:     1 TIME:   0.004 TIME LEFT:  2.00D  GRAD.:    57.767 HEAT:  25.91510
 CYCLE:     2 TIME:   0.008 TIME LEFT:  2.00D  GRAD.:    52.272 HEAT:  25.41918
 CYCLE:     3 TIME:   0.004 TIME LEFT:  2.00D  GRAD.:    21.082 HEAT:  24.66553
 CYCLE:     4 TIME:   0.004 TIME LEFT:  2.00D  GRAD.:    47.877 HEAT:  24.43867
 CYCLE:     5 TIME:   0.004 TIME LEFT:  2.00D  GRAD.:    53.868 HEAT:  24.38611
 CYCLE:     6 TIME:   0.008 TIME LEFT:  2.00D  GRAD.:    24.518 HEAT:  23.94268
 CYCLE:     7 TIME:   0.004 TIME LEFT:  2.00D  GRAD.:    13.164 HEAT:  23.79055
 CYCLE:     8 TIME:   0.008 TIME LEFT:  2.00D  GRAD.:    11.957 HEAT:  23.74505
 CYCLE:     9 TIME:   0.004 TIME LEFT:  2.00D  GRAD.:     7.874 HEAT:  23.69870
 CYCLE:    10 TIME:   0.008 TIME LEFT:  2.00D  GRAD.:     9.190 HEAT:  23.69196
 CYCLE:    11 TIME:   0.004 TIME LEFT:  2.00D  GRAD.:     6.055 HEAT:  23.67320
 CYCLE:    12 TIME:   0.004 TIME LEFT:  2.00D  GRAD.:     3.462 HEAT:  23.66413
 CYCLE:    13 TIME:   0.004 TIME LEFT:  2.00D  GRAD.:     3.372 HEAT:  23.66117
 CYCLE:    14 TIME:   0.004 TIME LEFT:  2.00D  GRAD.:     2.212 HEAT:  23.65707
 CYCLE:    15 TIME:   0.004 TIME LEFT:  2.00D  GRAD.:     1.856 HEAT:  23.65521
 CYCLE:    16 TIME:   0.004 TIME LEFT:  2.00D  GRAD.:     1.496 HEAT:  23.65340
 CYCLE:    17 TIME:   0.008 TIME LEFT:  2.00D  GRAD.:     1.658 HEAT:  23.65272
 CYCLE:    18 TIME:   0.004 TIME LEFT:  2.00D  GRAD.:     0.626 HEAT:  23.65177
 CYCLE:    19 TIME:   0.004 TIME LEFT:  2.00D  GRAD.:     0.493 HEAT:  23.65155
 CYCLE:    20 TIME:   0.004 TIME LEFT:  2.00D  GRAD.:     0.566 HEAT:  23.65128
 CYCLE:    21 TIME:   0.004 TIME LEFT:  2.00D  GRAD.:     0.389 HEAT:  23.65090
 CYCLE:    22 TIME:   0.004 TIME LEFT:  2.00D  GRAD.:     0.464 HEAT:  23.65069
 CYCLE:    23 TIME:   0.004 TIME LEFT:  2.00D  GRAD.:     0.447 HEAT:  23.65047
 CYCLE:    24 TIME:   0.004 TIME LEFT:  2.00D  GRAD.:     0.291 HEAT:  23.65024
 CYCLE:    25 TIME:   0.004 TIME LEFT:  2.00D  GRAD.:     0.144 HEAT:  23.65011
 CYCLE:    26 TIME:   0.004 TIME LEFT:  2.00D  GRAD.:     0.090 HEAT:  23.65009
 CYCLE:    27 TIME:   0.004 TIME LEFT:  2.00D  GRAD.:     0.090 HEAT:  23.65007
 CYCLE:    28 TIME:   0.004 TIME LEFT:  2.00D  GRAD.:     0.060 HEAT:  23.65006
 CYCLE:    29 TIME:   0.004 TIME LEFT:  2.00D  GRAD.:     0.034 HEAT:  23.65005

     GRADIENT =  0.03360 IS LESS THAN CUTOFF =  0.05000



 -------------------------------------------------------------------------------
 pm3  precise nosym THREADS=1
 InChI=1S/C6H8/c1-6-4-2-3-5-6/h2-3H,1,4-5H2



     GEOMETRY OPTIMISED USING EIGENVECTOR FOLLOWING (EF).     
     SCF FIELD WAS ACHIEVED                                   


                              PM3 CALCULATION
                                                       MOPAC v23.1.2 MacOS
                                                       Tue Jun  3 16:30:54 2025




          FINAL HEAT OF FORMATION =         23.65005 KCAL/MOL =      98.95182 KJ/MOL


          COSMO AREA              =        127.62 SQUARE ANGSTROMS
          COSMO VOLUME            =        116.89 CUBIC ANGSTROMS

          GRADIENT NORM           =          0.03360          =       0.00898 PER ATOM
          IONIZATION POTENTIAL    =          9.360421 EV
          HOMO LUMO ENERGIES (EV) =         -9.360  1.047
          NO. OF FILLED LEVELS    =         16
          MOLECULAR WEIGHT        =         80.1292         POINT GROUP:  C1  

          MOLECULAR DIMENSIONS (Angstroms)

            Atom       Atom       Distance
            H    13    H    11     5.52643
            H    12    H    14     4.09447
            H    10    H     7     1.77465


          SCF CALCULATIONS        =         37

          WALL-CLOCK TIME         =      0.148 SECONDS
          COMPUTATION TIME        =      0.075 SECONDS




   ATOM   CHEMICAL          X               Y               Z
  NUMBER   SYMBOL      (ANGSTROMS)     (ANGSTROMS)     (ANGSTROMS)

     1       C         -0.82358508  *  -0.81527026  *   0.41471302  *
     2       C          0.59586078  *   0.98550272  *  -0.43451549  *
     3       C          0.58706743  *  -0.43738668  *   0.05370562  *
     4       C         -1.61758986  *   0.42237710  *   0.12009335  *
     5       C         -0.84002349  *   1.40885182  *  -0.34491437  *
     6       C          1.64828102  *  -1.22869697  *   0.14970965  *
     7       H         -0.90975179  *  -1.10688946  *   1.47801571  *
     8       H         -1.18150581  *  -1.67639508  *  -0.17976298  *
     9       H          1.24613240  *   1.62775429  *   0.18815128  *
    10       H          0.97536536  *   1.06040860  *  -1.47057636  *
    11       H         -2.69374691  *   0.45830371  *   0.28344357  *
    12       H         -1.15567580  *   2.40965351  *  -0.63618084  *
    13       H          2.64660335  *  -0.90359918  *  -0.12560309  *
    14       H          1.58453436  *  -2.25075861  *   0.50952606  *

                             CARTESIAN COORDINATES

   1    C       -0.823585083    -0.815270255     0.414713018
   2    C        0.595860785     0.985502717    -0.434515492
   3    C        0.587067433    -0.437386682     0.053705617
   4    C       -1.617589862     0.422377099     0.120093353
   5    C       -0.840023495     1.408851822    -0.344914368
   6    C        1.648281015    -1.228696972     0.149709652
   7    H       -0.909751785    -1.106889464     1.478015712
   8    H       -1.181505809    -1.676395080    -0.179762980
   9    H        1.246132398     1.627754289     0.188151284
  10    H        0.975365362     1.060408601    -1.470576358
  11    H       -2.693746909     0.458303714     0.283443572
  12    H       -1.155675799     2.409653508    -0.636180844
  13    H        2.646603348    -0.903599182    -0.125603086
  14    H        1.584534355    -2.250758611     0.509526064


           Empirical Formula: C6 H8  =    14 atoms



      MOLECULAR POINT GROUP   :   C1  


                  EIGENVALUES  
 -39.89998 -30.67900 -28.28550 -23.77542 -18.92958 -18.78186 -17.12720 -15.51774
 -14.67225 -13.90007 -13.81525 -13.58425 -12.69920 -12.01972 -10.42086  -9.36042
   1.04657   1.12066   3.30279   3.34747   3.76058   3.80965   3.90385   4.08942
   4.23280   4.46141   4.58149   4.66332   5.21906   5.63022   5.98268   5.98831


              NET ATOMIC CHARGES AND DIPOLE CONTRIBUTIONS

  ATOM NO.   TYPE          CHARGE      No. of ELECS.   s-Pop       p-Pop       
    1          C          -0.026605        4.0266     1.14086     2.88575
    2          C          -0.026590        4.0266     1.14085     2.88574
    3          C          -0.117270        4.1173     1.20658     2.91069
    4          C          -0.154890        4.1549     1.20314     2.95174
    5          C          -0.154895        4.1549     1.20315     2.95175
    6          C          -0.173239        4.1732     1.17557     2.99767
    7          H           0.064938        0.9351     0.93506
    8          H           0.064938        0.9351     0.93506
    9          H           0.064942        0.9351     0.93506
   10          H           0.064940        0.9351     0.93506
   11          H           0.112133        0.8879     0.88787
   12          H           0.112131        0.8879     0.88787
   13          H           0.084736        0.9153     0.91526
   14          H           0.084731        0.9153     0.91527
 DIPOLE           X         Y         Z       TOTAL
 POINT-CHG.    -0.155     0.116    -0.014     0.194
 HYBRID         0.018    -0.013     0.002     0.022
 SUM           -0.138     0.103    -0.012     0.172


          ATOMIC ORBITAL ELECTRON POPULATIONS

     Atom    s        px        py        pz   
    1  C   1.14086   0.91958   0.96271   1.00346
    2  C   1.14085   0.95095   0.93302   1.00177
    3  C   1.20658   0.95895   0.96321   0.98853
    4  C   1.20314   0.98303   0.96085   1.00786
    5  C   1.20315   0.95914   0.98342   1.00918
    6  C   1.17557   0.97080   0.99220   1.03466
    7  H   0.93506
    8  H   0.93506
    9  H   0.93506
   10  H   0.93506
   11  H   0.88787
   12  H   0.88787
   13  H   0.91526
   14  H   0.91527
 *******************************************************************************
 **                                                                           **
 **                              MOPAC v23.1.2                                **
 **                                                                           **
 *******************************************************************************
 **          Digital Object Identifier (DOI): 10.5281/zenodo.6511958          **
 **    Visit the DOI location for information on how to cite this program.    **
 *******************************************************************************

                              PM3 CALCULATION RESULTS

 *******************************************************************************
 *  CALCULATION DONE: (MAX THREADS = 1)              Tue Jun  3 16:30:54 2025  *
 *  PM3        - The PM3 Hamiltonian to be used
 *  OLDGEO     - PREVIOUS GEOMETRY TO BE USED
 *  PRECISE    - TIGHTER CRITERIA TO BE USED
 *  NOSYM      - POINT-GROUP SYMMETRY SET TO C1
 *  THREADS=1  - MULTI-THREADING NOT USED
 *  T=         - A TIME OF 172800.0 SECONDS REQUESTED
 *  DUMP=N     - RESTART FILE WRITTEN EVERY 7200.0 SECONDS REQUESTED
 *  THERMO     - THERMODYNAMIC QUANTITIES TO BE CALCULATED
 *******************************************************************************
oldgeo thermo nosym precise THREADS=1  pm3
 InChI=1S/C6H8/c1-6-4-2-3-5-6/h2-3H,1,4-5H2

   ATOM   CHEMICAL          X               Y               Z
  NUMBER   SYMBOL      (ANGSTROMS)     (ANGSTROMS)     (ANGSTROMS)

     1       C         -0.82358508  *  -0.81527026  *   0.41471302  *
     2       C          0.59586078  *   0.98550272  *  -0.43451549  *
     3       C          0.58706743  *  -0.43738668  *   0.05370562  *
     4       C         -1.61758986  *   0.42237710  *   0.12009335  *
     5       C         -0.84002349  *   1.40885182  *  -0.34491437  *
     6       C          1.64828102  *  -1.22869697  *   0.14970965  *
     7       H         -0.90975179  *  -1.10688946  *   1.47801571  *
     8       H         -1.18150581  *  -1.67639508  *  -0.17976298  *
     9       H          1.24613240  *   1.62775429  *   0.18815128  *
    10       H          0.97536536  *   1.06040860  *  -1.47057636  *
    11       H         -2.69374691  *   0.45830371  *   0.28344357  *
    12       H         -1.15567580  *   2.40965351  *  -0.63618084  *
    13       H          2.64660335  *  -0.90359918  *  -0.12560309  *
    14       H          1.58453436  *  -2.25075861  *   0.50952606  *



          CARTESIAN COORDINATES 

    NO.       ATOM           X           Y           Z

     1         C         -0.8236     -0.8153      0.4147
     2         C          0.5959      0.9855     -0.4345
     3         C          0.5871     -0.4374      0.0537
     4         C         -1.6176      0.4224      0.1201
     5         C         -0.8400      1.4089     -0.3449
     6         C          1.6483     -1.2287      0.1497
     7         H         -0.9098     -1.1069      1.4780
     8         H         -1.1815     -1.6764     -0.1798
     9         H          1.2461      1.6278      0.1882
    10         H          0.9754      1.0604     -1.4706
    11         H         -2.6937      0.4583      0.2834
    12         H         -1.1557      2.4097     -0.6362
    13         H          2.6466     -0.9036     -0.1256
    14         H          1.5845     -2.2508      0.5095

  H: (PM3): J. J. P. STEWART, J. COMP. CHEM. 10, 209 (1989).
  C: (PM3): J. J. P. STEWART, J. COMP. CHEM. 10, 209 (1989).

           Empirical Formula: C6 H8  =    14 atoms



      MOLECULAR POINT GROUP   :   C1  


      RHF CALCULATION, NO. OF DOUBLY OCCUPIED LEVELS = 16



          HEAT OF FORMATION =      23.650054 KCALS/MOLE


          CARTESIAN COORDINATE DERIVATIVES

   NUMBER  ATOM         X            Y            Z

     1       C      0.003787    -0.002805    -0.001354
     2       C      0.001551    -0.000740     0.000574
     3       C      0.004010     0.000171    -0.004906
     4       C      0.002254    -0.004976     0.000514
     5       C      0.004149    -0.001456    -0.000099
     6       C     -0.000632    -0.006324     0.004180
     7       H      0.009609    -0.003742    -0.002735
     8       H      0.005029     0.016784    -0.004581
     9       H     -0.013875     0.003445    -0.001279
    10       H     -0.008216     0.000646     0.003391
    11       H     -0.009931    -0.000457     0.005318
    12       H      0.005430     0.001568    -0.004283
    13       H     -0.001097     0.000190    -0.000536
    14       H     -0.002067    -0.002304     0.005795



          GRADIENT NORM =   0.03353

          MOLECULAR WEIGHT =   80.13



          ROTATIONAL CONSTANTS IN CM(-1)

          A =    0.24437537   B =    0.11771593   C =    0.08189446



           PRINCIPAL MOMENTS OF INERTIA IN UNITS OF 10**(-40)*GRAM-CM**2

          A =      114.5482   B =      237.7992   C =      341.8150


          ORIENTATION OF MOLECULE IN FORCE CALCULATION

    NO.       ATOM         X         Y         Z

     1          C      -1.2226   -0.0662   -0.0005
     2          C       1.2226   -0.0662   -0.0005
     3          C       0.0000    0.8104   -0.0005
     4          C      -0.6697   -1.4602    0.0010
     5          C       0.6697   -1.4602    0.0008
     6          C      -0.0001    2.1376   -0.0002
     7          H      -1.8566    0.1159   -0.8881
     8          H      -1.8581    0.1178    0.8857
     9          H       1.8568    0.1161   -0.8880
    10          H       1.8579    0.1174    0.8859
    11          H      -1.3247   -2.3303    0.0021
    12          H       1.3247   -2.3303    0.0015
    13          H       0.9145    2.7221   -0.0001
    14          H      -0.9147    2.7220    0.0001


    FIRST DERIVATIVES WILL BE USED IN THE CALCULATION OF SECOND DERIVATIVES

          ESTIMATED TIME TO COMPLETE CALCULATION =        0.66 SECONDS

    FOR POINT-GROUP C1   THERE ARE   1 UNIQUE SYMMETRY FUNCTIONS.

 STEP:   1 TIME =     0.01 SECS, INTEGRAL =      0.01 TIME LEFT: 172799.99
 STEP:   2 TIME =     0.01 SECS, INTEGRAL =      0.02 TIME LEFT: 172799.98
 STEP:   3 TIME =     0.01 SECS, INTEGRAL =      0.02 TIME LEFT: 172799.97
 STEP:   4 TIME =     0.01 SECS, INTEGRAL =      0.03 TIME LEFT: 172799.96
 STEP:   5 TIME =     0.01 SECS, INTEGRAL =      0.04 TIME LEFT: 172799.96
 STEP:   6 TIME =     0.01 SECS, INTEGRAL =      0.05 TIME LEFT: 172799.95
 STEP:   7 TIME =     0.01 SECS, INTEGRAL =      0.06 TIME LEFT: 172799.94
 STEP:   8 TIME =     0.01 SECS, INTEGRAL =      0.07 TIME LEFT: 172799.93
 STEP:   9 TIME =     0.01 SECS, INTEGRAL =      0.08 TIME LEFT: 172799.92
 STEP:  10 TIME =     0.01 SECS, INTEGRAL =      0.09 TIME LEFT: 172799.91
 STEP:  11 TIME =     0.01 SECS, INTEGRAL =      0.10 TIME LEFT: 172799.90
 STEP:  12 TIME =     0.01 SECS, INTEGRAL =      0.11 TIME LEFT: 172799.89
 STEP:  13 TIME =     0.01 SECS, INTEGRAL =      0.12 TIME LEFT: 172799.88
 STEP:  14 TIME =     0.01 SECS, INTEGRAL =      0.13 TIME LEFT: 172799.87
 STEP:  15 TIME =     0.01 SECS, INTEGRAL =      0.14 TIME LEFT: 172799.86
 STEP:  16 TIME =     0.01 SECS, INTEGRAL =      0.15 TIME LEFT: 172799.85
 STEP:  17 TIME =     0.01 SECS, INTEGRAL =      0.16 TIME LEFT: 172799.84
 STEP:  18 TIME =     0.01 SECS, INTEGRAL =      0.17 TIME LEFT: 172799.83
 STEP:  19 TIME =     0.01 SECS, INTEGRAL =      0.18 TIME LEFT: 172799.82
 STEP:  20 TIME =     0.01 SECS, INTEGRAL =      0.18 TIME LEFT: 172799.81
 STEP:  21 TIME =     0.01 SECS, INTEGRAL =      0.19 TIME LEFT: 172799.80
 STEP:  22 TIME =     0.01 SECS, INTEGRAL =      0.20 TIME LEFT: 172799.80
 STEP:  23 TIME =     0.01 SECS, INTEGRAL =      0.21 TIME LEFT: 172799.79
 STEP:  24 TIME =     0.01 SECS, INTEGRAL =      0.22 TIME LEFT: 172799.78
 STEP:  25 TIME =     0.01 SECS, INTEGRAL =      0.23 TIME LEFT: 172799.77
 STEP:  26 TIME =     0.01 SECS, INTEGRAL =      0.24 TIME LEFT: 172799.76
 STEP:  27 TIME =     0.01 SECS, INTEGRAL =      0.25 TIME LEFT: 172799.75
 STEP:  28 TIME =     0.01 SECS, INTEGRAL =      0.25 TIME LEFT: 172799.74
 STEP:  29 TIME =     0.01 SECS, INTEGRAL =      0.27 TIME LEFT: 172799.73
 STEP:  30 TIME =     0.01 SECS, INTEGRAL =      0.28 TIME LEFT: 172799.72
 STEP:  31 TIME =     0.01 SECS, INTEGRAL =      0.29 TIME LEFT: 172799.71
 STEP:  32 TIME =     0.01 SECS, INTEGRAL =      0.29 TIME LEFT: 172799.70
 STEP:  33 TIME =     0.01 SECS, INTEGRAL =      0.30 TIME LEFT: 172799.69
 STEP:  34 TIME =     0.01 SECS, INTEGRAL =      0.32 TIME LEFT: 172799.68
 STEP:  35 TIME =     0.01 SECS, INTEGRAL =      0.32 TIME LEFT: 172799.67
 STEP:  36 TIME =     0.01 SECS, INTEGRAL =      0.33 TIME LEFT: 172799.66
 STEP:  37 TIME =     0.01 SECS, INTEGRAL =      0.34 TIME LEFT: 172799.65
 STEP:  38 TIME =     0.01 SECS, INTEGRAL =      0.35 TIME LEFT: 172799.64
 STEP:  39 TIME =     0.01 SECS, INTEGRAL =      0.36 TIME LEFT: 172799.64
 STEP:  40 TIME =     0.01 SECS, INTEGRAL =      0.37 TIME LEFT: 172799.62
 STEP:  41 TIME =     0.01 SECS, INTEGRAL =      0.38 TIME LEFT: 172799.62
 STEP:  42 TIME =     0.01 SECS, INTEGRAL =      0.39 TIME LEFT: 172799.61

(To convert to Hartree/Bohr^2, multiply by (10^(-21) x N x a0^2)/(4.184 x 627.51) =  0.0642)


           FORCE MATRIX IN MILLIDYNES/ANGSTROM


                  C  1       C  2       C  3       C  4       C  5       C  6
 ------------------------------------------------------------------------------
     C    1  14.928496
     C    2   0.742305  14.928537
     C    3   4.395115   4.395228  19.064523
     C    4   4.588524   1.189001   1.008385  18.308063
     C    5   1.189036   4.588522   1.008410  10.488677  18.308132
     C    6   0.710022   0.709899  10.955905   0.055393   0.055395  18.111408
     H    7   4.495686   0.030890   0.433417   0.429691   0.037781   0.020536
     H    8   4.496216   0.030959   0.433481   0.429809   0.037818   0.020536
     H    9   0.030892   4.496010   0.433412   0.037792   0.429732   0.020535
     H   10   0.030956   4.496063   0.433486   0.037809   0.429743   0.020523
     H   11   0.409201   0.119309   0.045080   5.036222   0.450102   0.007762
     H   12   0.119311   0.409197   0.045080   0.450096   5.036364   0.007761
     H   13   0.128470   0.090481   0.479581   0.006376   0.001958   5.111335
     H   14   0.090488   0.128471   0.479580   0.001957   0.006376   5.111210


                  H  7       H  8       H  9       H 10       H 11       H 12
 ------------------------------------------------------------------------------
     H    7   5.095858
     H    8   0.558351   5.096488
     H    9   0.001917   0.002276   5.096135
     H   10   0.002275   0.001922   0.558238   5.096206
     H   11   0.012631   0.012636   0.016120   0.016114   5.431159
     H   12   0.016123   0.016111   0.012626   0.012646   0.049327   5.431298
     H   13   0.013435   0.013402   0.011217   0.011208   0.001257   0.000766
     H   14   0.011221   0.011208   0.013430   0.013405   0.000766   0.001257


                  H 13       H 14
 ------------------------------
     H   13   5.491158
     H   14   0.411101   5.491029


          HEAT OF FORMATION =      23.650054 KCALS/MOLE

          ZERO POINT ENERGY      75.328 KCAL/MOL


           NORMAL COORDINATE ANALYSIS (Total motion = 1 Angstrom)


   Root No.       1         2         3         4         5         6         7         8

                 1 A       2 A       3 A       4 A       5 A       6 A       7 A       8 A   

                 114.1     362.8     366.8     448.6     604.9     628.5     738.4     782.4
  
           1    0.0000   -0.0314   -0.0003    0.0001    0.0000    0.0596   -0.0000   -0.0345
           2   -0.0000   -0.0292   -0.0003   -0.0000   -0.0000   -0.0206    0.0000    0.0530
           3   -0.0473    0.0002   -0.0174   -0.0068    0.0018    0.0000   -0.0142   -0.0001
           4   -0.0000   -0.0314   -0.0003   -0.0001   -0.0000   -0.0596   -0.0000   -0.0345
           5   -0.0000    0.0292    0.0003   -0.0000    0.0000   -0.0206   -0.0000   -0.0530
           6   -0.0473   -0.0002    0.0174   -0.0068   -0.0018    0.0000   -0.0142    0.0001
           7   -0.0000   -0.0511   -0.0005   -0.0000   -0.0000   -0.0000   -0.0000   -0.0425
           8   -0.0000   -0.0000    0.0000    0.0001    0.0000    0.0727    0.0000   -0.0000
           9   -0.0194   -0.0000    0.0000    0.1011   -0.0000   -0.0002    0.0227   -0.0000
          10   -0.0000    0.0135    0.0001   -0.0000   -0.0000    0.0038    0.0000    0.0716
          11    0.0001   -0.0180   -0.0001   -0.0001   -0.0000   -0.0592   -0.0000    0.0815
          12    0.0323   -0.0007    0.0616   -0.0048   -0.0067    0.0000   -0.0223   -0.0000
          13    0.0000    0.0135    0.0001   -0.0000   -0.0000   -0.0038    0.0000    0.0716
          14    0.0000    0.0180    0.0001   -0.0001    0.0000   -0.0592   -0.0001   -0.0815
          15    0.0323    0.0007   -0.0616   -0.0048    0.0067    0.0000   -0.0223    0.0001
          16   -0.0000    0.0679    0.0007    0.0000    0.0000   -0.0000   -0.0000   -0.0209
          17   -0.0000    0.0000    0.0000    0.0001    0.0000    0.0900    0.0000   -0.0000
          18    0.0520    0.0000    0.0000   -0.0275    0.0000    0.0000    0.0006   -0.0000
          19    0.0497   -0.0382    0.0711    0.1226    0.0552    0.0588   -0.0448   -0.0533
          20   -0.0353   -0.0513   -0.0607    0.0191    0.0051   -0.0444    0.0688    0.0261
          21   -0.0905    0.0009   -0.0829   -0.0934   -0.0386   -0.0030    0.0345    0.0053
          22   -0.0496   -0.0366   -0.0718   -0.1223   -0.0550    0.0591    0.0447   -0.0531
          23    0.0351   -0.0528    0.0594   -0.0193   -0.0052   -0.0443   -0.0687    0.0260
          24   -0.0906    0.0010   -0.0831   -0.0935   -0.0387    0.0032    0.0347   -0.0053
          25   -0.0497   -0.0382    0.0711   -0.1226    0.0551   -0.0589    0.0448   -0.0534
          26   -0.0353    0.0513    0.0607    0.0192   -0.0051   -0.0445    0.0688   -0.0262
          27   -0.0905   -0.0009    0.0829   -0.0934    0.0386   -0.0030    0.0345   -0.0054
          28    0.0497   -0.0366   -0.0718    0.1224   -0.0551   -0.0591   -0.0448   -0.0530
          29    0.0351    0.0528   -0.0595   -0.0193    0.0051   -0.0443   -0.0688   -0.0259
          30   -0.0906   -0.0010    0.0830   -0.0935    0.0387    0.0032    0.0347    0.0053
          31   -0.0000    0.0412    0.0004   -0.0000   -0.0000   -0.0343    0.0000    0.0273
          32    0.0001   -0.0389   -0.0002   -0.0001   -0.0001   -0.0309    0.0003    0.1159
          33    0.0820   -0.0019    0.1574   -0.0141   -0.0256   -0.0001    0.2502   -0.0002
          34    0.0000    0.0412    0.0004    0.0000   -0.0000    0.0343    0.0001    0.0273
          35    0.0001    0.0389    0.0003   -0.0000    0.0000   -0.0309    0.0002   -0.1159
          36    0.0821    0.0019   -0.1574   -0.0141    0.0256   -0.0000    0.2502   -0.0004
          37    0.0000    0.1473    0.0015    0.0000   -0.0000   -0.0057   -0.0000    0.0154
          38   -0.0000   -0.1204   -0.0013    0.0001    0.0001    0.1021    0.0000   -0.0565
          39    0.0844   -0.0001    0.0131   -0.0994   -0.3309    0.0004   -0.0235   -0.0002
          40   -0.0000    0.1473    0.0015    0.0000    0.0001    0.0057    0.0000    0.0154
          41   -0.0000    0.1204    0.0013    0.0002   -0.0001    0.1021    0.0001    0.0565
          42    0.0844    0.0001   -0.0131   -0.0994    0.3309    0.0001   -0.0235    0.0003


   Root No.       9        10        11        12        13        14        15        16

                 9 A      10 A      11 A      12 A      13 A      14 A      15 A      16 A   

                 858.5     915.0     925.4     953.0     968.5    1003.5    1031.2    1053.2
  
           1   -0.0000    0.0343    0.0489   -0.0000   -0.0000   -0.0000   -0.0141    0.0000
           2    0.0001   -0.0016    0.0233    0.0000    0.0000   -0.0000    0.0212   -0.0000
           3    0.0413    0.0000    0.0000    0.0377    0.0184   -0.0140   -0.0000   -0.0160
           4   -0.0000    0.0343   -0.0489    0.0000    0.0000    0.0000   -0.0141    0.0000
           5   -0.0001    0.0016    0.0233    0.0000   -0.0000   -0.0000   -0.0212    0.0000
           6   -0.0413   -0.0000    0.0000    0.0377   -0.0184   -0.0140    0.0001    0.0160
           7   -0.0000   -0.0093    0.0000   -0.0000   -0.0000    0.0000    0.0055   -0.0000
           8   -0.0000   -0.0000   -0.0219   -0.0000    0.0000    0.0000   -0.0000    0.0000
           9   -0.0000   -0.0000   -0.0000   -0.0245   -0.0000    0.0150   -0.0000    0.0000
          10    0.0000   -0.0101   -0.0022   -0.0000   -0.0000    0.0000    0.0041   -0.0000
          11    0.0000    0.0002   -0.0082   -0.0000   -0.0000    0.0000   -0.0212    0.0000
          12    0.0030    0.0000    0.0000   -0.0249   -0.0307    0.0161    0.0001    0.0449
          13    0.0000   -0.0101    0.0022   -0.0000    0.0000    0.0000    0.0041   -0.0000
          14   -0.0000   -0.0002   -0.0082   -0.0000    0.0000    0.0000    0.0212   -0.0001
          15   -0.0030   -0.0000    0.0000   -0.0249    0.0307    0.0161   -0.0001   -0.0449
          16   -0.0000   -0.0624   -0.0000   -0.0000   -0.0000   -0.0000   -0.0113    0.0000
          17   -0.0000   -0.0000   -0.0387   -0.0000    0.0000    0.0000   -0.0000    0.0000
          18   -0.0000    0.0000   -0.0000   -0.0240   -0.0000   -0.0469    0.0000   -0.0000
          19    0.1119    0.0453    0.0816    0.0843    0.0783   -0.0040    0.0058    0.0121
          20   -0.0320    0.0123    0.0977   -0.0472    0.1055    0.1042    0.1165    0.1647
          21   -0.0491   -0.0048   -0.0071   -0.0354   -0.0172    0.0115    0.0054    0.0102
          22   -0.1118    0.0454    0.0816   -0.0842   -0.0782    0.0040    0.0059   -0.0121
          23    0.0319    0.0123    0.0976    0.0471   -0.1054   -0.1040    0.1164   -0.1648
          24   -0.0494    0.0049    0.0071   -0.0356   -0.0171    0.0117   -0.0056    0.0105
          25    0.1119    0.0454   -0.0816   -0.0843    0.0783    0.0040    0.0058    0.0121
          26    0.0320   -0.0123    0.0977   -0.0472   -0.1055    0.1041   -0.1166   -0.1646
          27    0.0492    0.0048   -0.0071   -0.0354    0.0172    0.0116   -0.0054   -0.0102
          28   -0.1118    0.0454   -0.0816    0.0842   -0.0781   -0.0040    0.0059   -0.0121
          29   -0.0319   -0.0123    0.0976    0.0471    0.1053   -0.1041   -0.1164    0.1648
          30    0.0493   -0.0048    0.0071   -0.0356    0.0171    0.0117    0.0055   -0.0105
          31    0.0000   -0.0510   -0.0745    0.0000    0.0001    0.0000    0.1315   -0.0002
          32   -0.0001    0.0305    0.0475    0.0001    0.0001   -0.0001   -0.1147   -0.0000
          33   -0.1424   -0.0000   -0.0000    0.0896    0.1562   -0.0442   -0.0000   -0.1051
          34    0.0000   -0.0510    0.0745   -0.0000    0.0000   -0.0000    0.1315   -0.0002
          35    0.0001   -0.0305    0.0475    0.0001   -0.0001   -0.0000    0.1148   -0.0000
          36    0.1424    0.0001   -0.0001    0.0896   -0.1562   -0.0442    0.0000    0.1051
          37    0.0000    0.0998    0.0126    0.0000   -0.0000    0.0000    0.0112   -0.0000
          38   -0.0000   -0.2462   -0.0626   -0.0001   -0.0000   -0.0000   -0.0348    0.0001
          39    0.0607   -0.0000    0.0000    0.1179    0.0299    0.1851   -0.0000    0.0030
          40   -0.0000    0.0998   -0.0126    0.0000   -0.0000    0.0000    0.0112   -0.0000
          41    0.0000    0.2463   -0.0626   -0.0001    0.0000   -0.0000    0.0348   -0.0001
          42   -0.0607    0.0000    0.0000    0.1179   -0.0299    0.1852   -0.0000   -0.0029


   Root No.      17        18        19        20        21        22        23        24

                17 A      18 A      19 A      20 A      21 A      22 A      23 A      24 A   

                1074.7    1085.3    1117.3    1217.0    1297.2    1318.3    1350.9    1373.4
  
           1    0.0000   -0.0199   -0.0348   -0.0000   -0.0032   -0.0104    0.0175    0.0332
           2   -0.0000    0.0096    0.0066    0.0214   -0.0340   -0.0062    0.0499    0.0854
           3   -0.0170   -0.0000    0.0000   -0.0000    0.0000    0.0000   -0.0000   -0.0001
           4   -0.0000    0.0199    0.0348   -0.0000    0.0032   -0.0103   -0.0175    0.0332
           5   -0.0000    0.0096    0.0066   -0.0214   -0.0340    0.0062    0.0499   -0.0854
           6   -0.0170   -0.0000   -0.0000    0.0000    0.0000   -0.0000   -0.0000    0.0001
           7    0.0000    0.0000    0.0000    0.0388   -0.0000    0.0554    0.0000   -0.0716
           8   -0.0000    0.0011    0.0011    0.0000   -0.0211    0.0000   -0.0204   -0.0000
           9    0.0528    0.0000   -0.0000    0.0000   -0.0000   -0.0000    0.0000    0.0000
          10   -0.0000   -0.0032   -0.0100   -0.0163   -0.0001    0.0144    0.0006    0.0145
          11    0.0000   -0.0285   -0.0335    0.0147    0.0221   -0.0217   -0.0191   -0.0685
          12   -0.0065    0.0000    0.0000   -0.0000   -0.0000    0.0000    0.0000    0.0001
          13    0.0000    0.0032    0.0100   -0.0164    0.0001    0.0144   -0.0006    0.0145
          14   -0.0000   -0.0285   -0.0335   -0.0147    0.0221    0.0216   -0.0191    0.0685
          15   -0.0065    0.0000    0.0000    0.0000   -0.0000   -0.0000    0.0000   -0.0001
          16   -0.0000   -0.0000   -0.0000   -0.0123    0.0000   -0.0112    0.0000    0.0071
          17    0.0000    0.0101    0.0122   -0.0000   -0.0087    0.0000   -0.0346   -0.0000
          18   -0.0269   -0.0000    0.0000    0.0000   -0.0000    0.0000   -0.0000   -0.0000
          19   -0.0849   -0.0017   -0.0566   -0.0432    0.0632   -0.1242   -0.0583   -0.0406
          20   -0.1473    0.1264    0.0500   -0.1190    0.0468    0.0249   -0.0689   -0.0756
          21    0.0147    0.0098    0.0204    0.0023   -0.0269    0.0775    0.0262    0.0171
          22    0.0849   -0.0016   -0.0567   -0.0433    0.0632   -0.1242   -0.0583   -0.0406
          23    0.1471    0.1267    0.0499   -0.1192    0.0469    0.0247   -0.0691   -0.0756
          24    0.0145   -0.0101   -0.0206   -0.0021    0.0269   -0.0777   -0.0261   -0.0170
          25    0.0849    0.0017    0.0566   -0.0433   -0.0632   -0.1243    0.0583   -0.0405
          26   -0.1472    0.1264    0.0500    0.1191    0.0468   -0.0249   -0.0690    0.0756
          27    0.0146    0.0099    0.0205   -0.0022   -0.0269   -0.0775    0.0262   -0.0170
          28   -0.0849    0.0016    0.0567   -0.0433   -0.0632   -0.1242    0.0583   -0.0405
          29    0.1471    0.1266    0.0499    0.1192    0.0468   -0.0247   -0.0690    0.0756
          30    0.0145   -0.0100   -0.0206    0.0021    0.0269    0.0777   -0.0261    0.0170
          31   -0.0002    0.1147   -0.2016    0.1103   -0.0123   -0.0778    0.0231   -0.0854
          32    0.0001   -0.1184    0.1065   -0.0803    0.0329    0.0468   -0.0365    0.0056
          33    0.0082    0.0001   -0.0001    0.0001   -0.0000   -0.0000    0.0000    0.0000
          34    0.0002   -0.1146    0.2017    0.1103    0.0123   -0.0778   -0.0231   -0.0854
          35    0.0001   -0.1184    0.1065    0.0803    0.0329   -0.0468   -0.0365   -0.0056
          36    0.0082    0.0001   -0.0001   -0.0001   -0.0000    0.0001    0.0000    0.0000
          37    0.0000   -0.0075   -0.0132    0.0137   -0.1199    0.0145   -0.1029   -0.0174
          38   -0.0000    0.0238    0.0359   -0.0389    0.1933   -0.0381    0.1343    0.0343
          39    0.0874    0.0000   -0.0000   -0.0000    0.0001   -0.0000    0.0000   -0.0000
          40    0.0000    0.0075    0.0132    0.0136    0.1198    0.0145    0.1029   -0.0173
          41   -0.0000    0.0238    0.0359    0.0389    0.1933    0.0380    0.1344   -0.0343
          42    0.0874    0.0000   -0.0000    0.0000    0.0000    0.0000    0.0000    0.0000


   Root No.      25        26        27        28        29        30        31        32

                25 A      26 A      27 A      28 A      29 A      30 A      31 A      32 A   

                1384.0    1399.7    1817.6    1917.5    2971.5    2972.3    3044.8    3046.0
  
           1    0.0399   -0.0481    0.0173   -0.0164   -0.0000   -0.0000    0.0204    0.0207
           2   -0.0318    0.0157   -0.0037   -0.0248   -0.0000   -0.0000   -0.0060   -0.0060
           3    0.0001   -0.0000    0.0000   -0.0000   -0.0312   -0.0300   -0.0000   -0.0000
           4   -0.0400   -0.0480   -0.0173    0.0165    0.0000   -0.0000    0.0208   -0.0203
           5   -0.0318   -0.0157   -0.0037   -0.0248    0.0000   -0.0000    0.0061   -0.0059
           6    0.0000    0.0000    0.0000   -0.0000    0.0300   -0.0312   -0.0000    0.0000
           7    0.0001    0.0493    0.0000   -0.0000   -0.0000   -0.0000    0.0006    0.0000
           8   -0.0003    0.0000   -0.0264    0.2558   -0.0000   -0.0000   -0.0000    0.0005
           9   -0.0000   -0.0000   -0.0000    0.0000   -0.0000   -0.0001   -0.0000   -0.0000
          10    0.0026    0.0178   -0.2093   -0.0290   -0.0000   -0.0000   -0.0002   -0.0001
          11    0.0189   -0.0259    0.0224   -0.0040    0.0000    0.0000   -0.0006   -0.0009
          12   -0.0000    0.0000    0.0000    0.0000    0.0001   -0.0002    0.0000    0.0000
          13   -0.0025    0.0178    0.2093    0.0290   -0.0000    0.0000   -0.0002    0.0001
          14    0.0189    0.0258    0.0224   -0.0040    0.0000   -0.0000    0.0006   -0.0009
          15   -0.0000   -0.0000   -0.0000   -0.0000   -0.0001   -0.0002   -0.0000    0.0000
          16   -0.0000   -0.0098   -0.0000    0.0000    0.0000    0.0000    0.0000   -0.0000
          17    0.0006   -0.0000    0.0255   -0.1945    0.0000    0.0000    0.0000   -0.0001
          18    0.0000    0.0000    0.0000   -0.0000   -0.0000   -0.0001   -0.0000   -0.0000
          19   -0.1390    0.0921    0.0023    0.0014    0.1403    0.1346   -0.1231   -0.1223
          20    0.0658   -0.0405   -0.0360    0.0184   -0.0403   -0.0390    0.0353    0.0352
          21    0.1297   -0.0967   -0.0013   -0.0017    0.1894    0.1818   -0.1969   -0.1958
          22   -0.1388    0.0918    0.0024    0.0015   -0.1403   -0.1346   -0.1238   -0.1229
          23    0.0656   -0.0403   -0.0361    0.0185    0.0406    0.0393    0.0358    0.0357
          24   -0.1301    0.0969    0.0014    0.0017    0.1886    0.1810    0.1971    0.1960
          25    0.1391    0.0918   -0.0024   -0.0015    0.1348   -0.1400   -0.1258    0.1200
          26    0.0658    0.0404   -0.0360    0.0184    0.0387   -0.0405   -0.0361    0.0346
          27    0.1300    0.0965   -0.0013   -0.0017   -0.1818    0.1889    0.2011   -0.1921
          28    0.1389    0.0916   -0.0024   -0.0015   -0.1350    0.1402   -0.1260    0.1203
          29    0.0657    0.0403   -0.0360    0.0185   -0.0390    0.0408   -0.0364    0.0349
          30   -0.1302   -0.0966    0.0013    0.0017   -0.1815    0.1886   -0.2009    0.1919
          31    0.0127   -0.0687   -0.0475   -0.0154    0.0000    0.0000    0.0016    0.0087
          32    0.0143    0.0385   -0.1473   -0.0281    0.0000    0.0000    0.0009    0.0099
          33   -0.0000   -0.0000    0.0002    0.0000   -0.0003   -0.0010   -0.0000   -0.0000
          34   -0.0128   -0.0687    0.0474    0.0154    0.0000   -0.0000    0.0018   -0.0087
          35    0.0142   -0.0386   -0.1473   -0.0281   -0.0000    0.0000   -0.0011    0.0099
          36   -0.0000    0.0000    0.0001    0.0000    0.0002   -0.0010    0.0000   -0.0000
          37   -0.0036    0.0100    0.0188   -0.1434    0.0000    0.0000    0.0005   -0.0012
          38    0.0067   -0.0295    0.0024   -0.0313    0.0000    0.0000    0.0001   -0.0004
          39    0.0000   -0.0000    0.0000   -0.0000   -0.0007   -0.0002    0.0000   -0.0000
          40    0.0036    0.0100   -0.0188    0.1434   -0.0000   -0.0000    0.0005    0.0012
          41    0.0067    0.0295    0.0024   -0.0313    0.0000    0.0000   -0.0001   -0.0004
          42    0.0000    0.0000    0.0000   -0.0000    0.0007   -0.0002   -0.0000   -0.0000


   Root No.      33        34        35        36

                33 A      34 A      35 A      36 A   

                3120.4    3139.2    3144.2    3146.7
  
           1   -0.0000   -0.0018   -0.0001    0.0001
           2   -0.0002    0.0006   -0.0000    0.0005
           3    0.0000    0.0000   -0.0000    0.0000
           4   -0.0000    0.0018    0.0001    0.0001
           5    0.0002    0.0006   -0.0000   -0.0005
           6   -0.0000   -0.0000   -0.0000    0.0000
           7    0.0001   -0.0000   -0.0000   -0.0005
           8    0.0000    0.0011   -0.0067    0.0001
           9   -0.0000   -0.0000   -0.0000    0.0000
          10   -0.0230   -0.0277    0.0012    0.0001
          11   -0.0308   -0.0287    0.0012    0.0000
          12    0.0000    0.0000   -0.0000   -0.0000
          13   -0.0230    0.0277   -0.0012    0.0001
          14    0.0307   -0.0287    0.0012   -0.0001
          15   -0.0000    0.0000   -0.0000    0.0000
          16   -0.0001   -0.0000   -0.0005   -0.0649
          17    0.0000    0.0014    0.0458   -0.0004
          18    0.0000    0.0000    0.0000    0.0000
          19    0.0010    0.0060    0.0004    0.0003
          20   -0.0017   -0.0028   -0.0001    0.0004
          21    0.0019    0.0096    0.0005    0.0003
          22    0.0010    0.0060    0.0004    0.0003
          23   -0.0017   -0.0028   -0.0001    0.0004
          24   -0.0019   -0.0096   -0.0005   -0.0003
          25    0.0010   -0.0060   -0.0004    0.0003
          26    0.0017   -0.0028   -0.0001   -0.0004
          27   -0.0018    0.0096    0.0005   -0.0004
          28    0.0010   -0.0060   -0.0004    0.0003
          29    0.0017   -0.0028   -0.0001   -0.0004
          30    0.0018   -0.0096   -0.0005    0.0004
          31    0.2716    0.2502   -0.0102   -0.0004
          32    0.3658    0.3330   -0.0135   -0.0006
          33   -0.0004   -0.0004    0.0000    0.0000
          34    0.2710   -0.2508    0.0102   -0.0005
          35   -0.3650    0.3338   -0.0136    0.0007
          36    0.0003   -0.0003    0.0000   -0.0000
          37    0.0007   -0.0142   -0.3862    0.3912
          38    0.0005   -0.0085   -0.2317    0.2577
          39    0.0000   -0.0000   -0.0000    0.0000
          40    0.0007    0.0142    0.3921    0.3848
          41   -0.0005   -0.0086   -0.2355   -0.2538
          42   -0.0000   -0.0000   -0.0001   -0.0001


           MASS-WEIGHTED COORDINATE ANALYSIS (NORMAL COORDINATES)


   Root No.       1         2         3         4         5         6         7         8

                 1 A       2 A       3 A       4 A       5 A       6 A       7 A       8 A   

                 114.1     362.8     366.8     448.6     604.9     628.5     738.4     782.4
  
           1    0.0001   -0.2228   -0.0024    0.0004    0.0002    0.3316   -0.0000   -0.1774
           2   -0.0002   -0.2071   -0.0025   -0.0002   -0.0001   -0.1148    0.0000    0.2720
           3   -0.3746    0.0013   -0.1308   -0.0471    0.0127    0.0001   -0.1152   -0.0004
           4   -0.0001   -0.2228   -0.0024   -0.0005   -0.0001   -0.3316   -0.0002   -0.1774
           5   -0.0002    0.2071    0.0024   -0.0001    0.0000   -0.1148   -0.0003   -0.2720
           6   -0.3746   -0.0013    0.1308   -0.0471   -0.0127    0.0000   -0.1152    0.0006
           7   -0.0000   -0.3620   -0.0041   -0.0000   -0.0000   -0.0000   -0.0001   -0.2186
           8   -0.0001   -0.0000    0.0000    0.0005    0.0001    0.4043    0.0001   -0.0000
           9   -0.1534   -0.0001    0.0000    0.6993   -0.0000   -0.0012    0.1843   -0.0001
          10   -0.0000    0.0956    0.0011   -0.0000   -0.0002    0.0211    0.0002    0.3677
          11    0.0004   -0.1276   -0.0010   -0.0004   -0.0003   -0.3294   -0.0001    0.4184
          12    0.2552   -0.0052    0.4640   -0.0329   -0.0474    0.0003   -0.1810   -0.0002
          13    0.0000    0.0956    0.0010   -0.0000   -0.0002   -0.0211    0.0002    0.3677
          14    0.0004    0.1276    0.0010   -0.0004    0.0000   -0.3294   -0.0006   -0.4184
          15    0.2553    0.0052   -0.4639   -0.0329    0.0474    0.0003   -0.1811    0.0004
          16   -0.0000    0.4811    0.0053    0.0000    0.0001   -0.0000   -0.0001   -0.1071
          17   -0.0002    0.0000    0.0000    0.0007    0.0002    0.5004    0.0002   -0.0000
          18    0.4117    0.0000    0.0000   -0.1905    0.0000    0.0002    0.0051   -0.0000
          19    0.1140   -0.0784    0.1553    0.2457    0.1127    0.0948   -0.1053   -0.0793
          20   -0.0808   -0.1054   -0.1326    0.0383    0.0104   -0.0716    0.1619    0.0388
          21   -0.2075    0.0018   -0.1809   -0.1871   -0.0789   -0.0048    0.0811    0.0079
          22   -0.1138   -0.0751   -0.1567   -0.2451   -0.1124    0.0952    0.1051   -0.0791
          23    0.0805   -0.1084    0.1297   -0.0387   -0.0106   -0.0714   -0.1615    0.0387
          24   -0.2078    0.0021   -0.1814   -0.1874   -0.0791    0.0052    0.0816   -0.0079
          25   -0.1140   -0.0784    0.1552   -0.2457    0.1126   -0.0948    0.1052   -0.0794
          26   -0.0808    0.1054    0.1325    0.0384   -0.0105   -0.0716    0.1618   -0.0390
          27   -0.2075   -0.0018    0.1809   -0.1872    0.0789   -0.0048    0.0812   -0.0080
          28    0.1138   -0.0752   -0.1568    0.2451   -0.1125   -0.0952   -0.1053   -0.0789
          29    0.0805    0.1084   -0.1298   -0.0386    0.0105   -0.0714   -0.1617   -0.0385
          30   -0.2078   -0.0020    0.1813   -0.1874    0.0790    0.0051    0.0815    0.0078
          31   -0.0000    0.0847    0.0010   -0.0001   -0.0001   -0.0553    0.0001    0.0407
          32    0.0003   -0.0798   -0.0005   -0.0001   -0.0001   -0.0497    0.0007    0.1725
          33    0.1881   -0.0038    0.3436   -0.0283   -0.0522   -0.0001    0.5884   -0.0002
          34    0.0000    0.0847    0.0009    0.0001   -0.0000    0.0553    0.0001    0.0407
          35    0.0002    0.0798    0.0006   -0.0001    0.0001   -0.0497    0.0004   -0.1725
          36    0.1881    0.0038   -0.3436   -0.0283    0.0522   -0.0001    0.5884   -0.0006
          37    0.0000    0.3024    0.0034    0.0000   -0.0000   -0.0093   -0.0000    0.0230
          38   -0.0001   -0.2472   -0.0028    0.0002    0.0002    0.1645    0.0001   -0.0841
          39    0.1934   -0.0003    0.0287   -0.1992   -0.6759    0.0006   -0.0552   -0.0003
          40   -0.0000    0.3024    0.0033    0.0000    0.0001    0.0092    0.0000    0.0230
          41   -0.0001    0.2472    0.0028    0.0003   -0.0001    0.1645    0.0001    0.0841
          42    0.1934    0.0003   -0.0286   -0.1992    0.6759    0.0001   -0.0552    0.0004


   Root No.       9        10        11        12        13        14        15        16

                 9 A      10 A      11 A      12 A      13 A      14 A      15 A      16 A   

                 858.5     915.0     925.4     953.0     968.5    1003.5    1031.2    1053.2
  
           1   -0.0002    0.2439    0.3933   -0.0002   -0.0001   -0.0001   -0.1272    0.0002
           2    0.0006   -0.0113    0.1879    0.0003    0.0002   -0.0001    0.1910   -0.0004
           3    0.3651    0.0001    0.0001    0.3371    0.1634   -0.1221   -0.0003   -0.1284
           4   -0.0002    0.2440   -0.3933    0.0002    0.0000    0.0001   -0.1273    0.0003
           5   -0.0005    0.0113    0.1880    0.0002   -0.0002   -0.0002   -0.1910    0.0003
           6   -0.3650   -0.0001    0.0000    0.3372   -0.1633   -0.1221    0.0005    0.1283
           7   -0.0002   -0.0662    0.0000   -0.0000   -0.0001    0.0000    0.0498   -0.0002
           8   -0.0000   -0.0000   -0.1764   -0.0000    0.0000    0.0000   -0.0000    0.0000
           9   -0.0000   -0.0000   -0.0001   -0.2192   -0.0000    0.1308   -0.0001    0.0000
          10    0.0003   -0.0719   -0.0180   -0.0000   -0.0001    0.0000    0.0367   -0.0001
          11    0.0004    0.0017   -0.0656   -0.0001   -0.0004    0.0000   -0.1912    0.0004
          12    0.0261    0.0000    0.0001   -0.2227   -0.2726    0.1410    0.0007    0.3597
          13    0.0003   -0.0719    0.0180   -0.0000    0.0000    0.0000    0.0366   -0.0002
          14   -0.0003   -0.0017   -0.0656   -0.0002    0.0004    0.0002    0.1913   -0.0005
          15   -0.0261   -0.0000    0.0001   -0.2228    0.2726    0.1410   -0.0007   -0.3597
          16   -0.0001   -0.4445   -0.0000   -0.0000   -0.0000   -0.0000   -0.1021    0.0002
          17   -0.0001   -0.0000   -0.3116   -0.0001    0.0000    0.0002   -0.0000    0.0000
          18   -0.0000    0.0000   -0.0001   -0.2145   -0.0000   -0.4094    0.0001   -0.0000
          19    0.2864    0.0935    0.1902    0.2185    0.2013   -0.0102    0.0151    0.0281
          20   -0.0819    0.0254    0.2278   -0.1225    0.2713    0.2636    0.3043    0.3820
          21   -0.1258   -0.0099   -0.0166   -0.0917   -0.0443    0.0292    0.0141    0.0236
          22   -0.2861    0.0936    0.1902   -0.2183   -0.2010    0.0100    0.0153   -0.0281
          23    0.0817    0.0254    0.2276    0.1222   -0.2709   -0.2632    0.3041   -0.3821
          24   -0.1264    0.0100    0.0165   -0.0923   -0.0441    0.0297   -0.0146    0.0244
          25    0.2863    0.0935   -0.1902   -0.2185    0.2012    0.0102    0.0151    0.0282
          26    0.0818   -0.0254    0.2277   -0.1223   -0.2713    0.2635   -0.3045   -0.3819
          27    0.1258    0.0099   -0.0166   -0.0918    0.0443    0.0292   -0.0142   -0.0237
          28   -0.2862    0.0936   -0.1902    0.2184   -0.2009   -0.0100    0.0153   -0.0281
          29   -0.0817   -0.0254    0.2276    0.1222    0.2709   -0.2635   -0.3040    0.3823
          30    0.1263   -0.0100    0.0165   -0.0922    0.0441    0.0296    0.0145   -0.0242
          31    0.0000   -0.1052   -0.1737    0.0001    0.0002    0.0001    0.3435   -0.0004
          32   -0.0003    0.0629    0.1108    0.0002    0.0003   -0.0002   -0.2997   -0.0001
          33   -0.3645   -0.0001   -0.0000    0.2322    0.4017   -0.1118   -0.0001   -0.2437
          34    0.0001   -0.1052    0.1737   -0.0001    0.0000   -0.0000    0.3435   -0.0004
          35    0.0002   -0.0629    0.1108    0.0001   -0.0002   -0.0001    0.2998   -0.0001
          36    0.3645    0.0001   -0.0002    0.2323   -0.4016   -0.1118    0.0001    0.2437
          37    0.0000    0.2059    0.0294    0.0000   -0.0000    0.0000    0.0292   -0.0001
          38   -0.0001   -0.5077   -0.1461   -0.0001   -0.0000   -0.0001   -0.0909    0.0002
          39    0.1554   -0.0001    0.0001    0.3057    0.0769    0.4686   -0.0001    0.0069
          40   -0.0000    0.2058   -0.0294    0.0000   -0.0000    0.0001    0.0291   -0.0001
          41    0.0000    0.5078   -0.1461   -0.0002    0.0000   -0.0001    0.0908   -0.0002
          42   -0.1554    0.0001    0.0000    0.3057   -0.0768    0.4686   -0.0000   -0.0068


   Root No.      17        18        19        20        21        22        23        24

                17 A      18 A      19 A      20 A      21 A      22 A      23 A      24 A   

                1074.7    1085.3    1117.3    1217.0    1297.2    1318.3    1350.9    1373.4
  
           1    0.0001   -0.1763   -0.2741   -0.0003   -0.0260   -0.0878    0.1379    0.1755
           2   -0.0001    0.0850    0.0517    0.1923   -0.2774   -0.0523    0.3943    0.4511
           3   -0.1377   -0.0002    0.0000   -0.0002    0.0002    0.0001   -0.0002   -0.0003
           4   -0.0001    0.1763    0.2741   -0.0003    0.0260   -0.0876   -0.1380    0.1754
           5   -0.0000    0.0849    0.0516   -0.1923   -0.2775    0.0524    0.3944   -0.4510
           6   -0.1377   -0.0002   -0.0000    0.0001    0.0002   -0.0001   -0.0002    0.0003
           7    0.0000    0.0000    0.0000    0.3495   -0.0000    0.4696    0.0001   -0.3785
           8   -0.0001    0.0095    0.0088    0.0000   -0.1720    0.0000   -0.1608   -0.0000
           9    0.4281    0.0001   -0.0002    0.0000   -0.0001   -0.0000    0.0001    0.0000
          10   -0.0000   -0.0284   -0.0787   -0.1472   -0.0011    0.1222    0.0050    0.0766
          11    0.0000   -0.2518   -0.2640    0.1320    0.1801   -0.1837   -0.1507   -0.3621
          12   -0.0524    0.0002    0.0003   -0.0001   -0.0002    0.0002    0.0002    0.0003
          13    0.0000    0.0284    0.0787   -0.1472    0.0011    0.1222   -0.0050    0.0766
          14   -0.0000   -0.2518   -0.2640   -0.1319    0.1801    0.1836   -0.1508    0.3621
          15   -0.0523    0.0003    0.0002    0.0002   -0.0002   -0.0002    0.0001   -0.0003
          16   -0.0000   -0.0000   -0.0000   -0.1109    0.0000   -0.0950    0.0000    0.0373
          17    0.0001    0.0891    0.0959   -0.0000   -0.0710    0.0000   -0.2731   -0.0000
          18   -0.2177   -0.0000    0.0001    0.0000   -0.0000    0.0000   -0.0001   -0.0000
          19   -0.1994   -0.0043   -0.1291   -0.1128    0.1494   -0.3051   -0.1335   -0.0621
          20   -0.3456    0.3236    0.1140   -0.3105    0.1105    0.0612   -0.1577   -0.1157
          21    0.0344    0.0252    0.0466    0.0059   -0.0635    0.1903    0.0599    0.0262
          22    0.1992   -0.0040   -0.1293   -0.1130    0.1493   -0.3050   -0.1335   -0.0621
          23    0.3454    0.3244    0.1138   -0.3109    0.1107    0.0607   -0.1580   -0.1158
          24    0.0340   -0.0258   -0.0471   -0.0055    0.0635   -0.1909   -0.0598   -0.0260
          25    0.1993    0.0043    0.1291   -0.1128   -0.1494   -0.3053    0.1335   -0.0620
          26   -0.3456    0.3238    0.1141    0.3105    0.1105   -0.0612   -0.1578    0.1157
          27    0.0344    0.0253    0.0467   -0.0058   -0.0635   -0.1905    0.0599   -0.0261
          28   -0.1992    0.0040    0.1293   -0.1130   -0.1493   -0.3052    0.1335   -0.0619
          29    0.3454    0.3242    0.1138    0.3108    0.1107   -0.0608   -0.1580    0.1157
          30    0.0341   -0.0257   -0.0470    0.0055    0.0636    0.1910   -0.0598    0.0259
          31   -0.0004    0.2936   -0.4597    0.2875   -0.0292   -0.1911    0.0528   -0.1307
          32    0.0003   -0.3032    0.2428   -0.2094    0.0778    0.1150   -0.0836    0.0086
          33    0.0192    0.0003   -0.0002    0.0002   -0.0001   -0.0001    0.0001    0.0000
          34    0.0004   -0.2935    0.4597    0.2875    0.0291   -0.1910   -0.0528   -0.1307
          35    0.0003   -0.3031    0.2428    0.2094    0.0778   -0.1150   -0.0836   -0.0086
          36    0.0192    0.0003   -0.0003   -0.0003   -0.0001    0.0001    0.0001    0.0000
          37    0.0000   -0.0191   -0.0301    0.0356   -0.2832    0.0357   -0.2356   -0.0266
          38   -0.0000    0.0609    0.0818   -0.1014    0.4565   -0.0935    0.3074    0.0525
          39    0.2052    0.0001   -0.0000   -0.0001    0.0002   -0.0000    0.0001   -0.0000
          40    0.0000    0.0191    0.0301    0.0356    0.2831    0.0356    0.2355   -0.0265
          41   -0.0000    0.0610    0.0818    0.1014    0.4565    0.0935    0.3075   -0.0525
          42    0.2052    0.0001   -0.0000    0.0001    0.0001    0.0000    0.0001    0.0000


   Root No.      25        26        27        28        29        30        31        32

                25 A      26 A      27 A      28 A      29 A      30 A      31 A      32 A   

                1384.0    1399.7    1817.6    1917.5    2971.5    2972.3    3044.8    3046.0
  
           1    0.2849   -0.3652    0.0561   -0.0494   -0.0000   -0.0000    0.1449    0.1507
           2   -0.2272    0.1195   -0.0120   -0.0744   -0.0002   -0.0002   -0.0424   -0.0437
           3    0.0004   -0.0003    0.0000   -0.0000   -0.2188   -0.2110   -0.0001   -0.0001
           4   -0.2858   -0.3646   -0.0561    0.0495    0.0001   -0.0001    0.1479   -0.1478
           5   -0.2273   -0.1191   -0.0120   -0.0744    0.0002   -0.0002    0.0432   -0.0428
           6    0.0003    0.0003    0.0000   -0.0000    0.2103   -0.2195   -0.0001    0.0001
           7    0.0005    0.3744    0.0000   -0.0000   -0.0000   -0.0000    0.0041    0.0000
           8   -0.0019    0.0000   -0.0855    0.7690   -0.0000   -0.0000   -0.0000    0.0034
           9   -0.0000   -0.0000   -0.0000    0.0001   -0.0000   -0.0007   -0.0000   -0.0000
          10    0.0183    0.1353   -0.6787   -0.0871   -0.0000   -0.0000   -0.0013   -0.0010
          11    0.1347   -0.1966    0.0725   -0.0120    0.0000    0.0000   -0.0042   -0.0069
          12   -0.0002    0.0002    0.0000    0.0000    0.0005   -0.0015    0.0000    0.0000
          13   -0.0180    0.1354    0.6787    0.0871   -0.0000    0.0000   -0.0013    0.0009
          14    0.1351    0.1964    0.0725   -0.0120    0.0000   -0.0000    0.0043   -0.0068
          15   -0.0001   -0.0002   -0.0002   -0.0000   -0.0005   -0.0015   -0.0000    0.0000
          16   -0.0001   -0.0746   -0.0000    0.0000    0.0000    0.0000    0.0000   -0.0000
          17    0.0040   -0.0000    0.0826   -0.5848    0.0000    0.0000    0.0000   -0.0006
          18    0.0000    0.0000    0.0000   -0.0001   -0.0000   -0.0009   -0.0000   -0.0000
          19   -0.2874    0.2026    0.0022    0.0013    0.2854    0.2741   -0.2530   -0.2574
          20    0.1361   -0.0892   -0.0338    0.0160   -0.0820   -0.0793    0.0725    0.0741
          21    0.2683   -0.2128   -0.0012   -0.0015    0.3852    0.3702   -0.4047   -0.4122
          22   -0.2869    0.2022    0.0022    0.0013   -0.2853   -0.2740   -0.2543   -0.2588
          23    0.1356   -0.0888   -0.0339    0.0161    0.0826    0.0799    0.0736    0.0752
          24   -0.2691    0.2133    0.0013    0.0015    0.3835    0.3685    0.4051    0.4126
          25    0.2876    0.2020   -0.0022   -0.0013    0.2741   -0.2849   -0.2585    0.2527
          26    0.1361    0.0889   -0.0338    0.0160    0.0788   -0.0825   -0.0742    0.0729
          27    0.2687    0.2124   -0.0012   -0.0015   -0.3698    0.3845    0.4132   -0.4044
          28    0.2873    0.2017   -0.0022   -0.0013   -0.2745    0.2853   -0.2590    0.2533
          29    0.1358    0.0886   -0.0339    0.0161   -0.0793    0.0831   -0.0748    0.0735
          30   -0.2693   -0.2127    0.0013    0.0015   -0.3692    0.3839   -0.4128    0.4041
          31    0.0262   -0.1513   -0.0446   -0.0134    0.0000    0.0000    0.0032    0.0184
          32    0.0296    0.0848   -0.1384   -0.0244    0.0000    0.0000    0.0019    0.0209
          33   -0.0000   -0.0001    0.0002    0.0000   -0.0006   -0.0021   -0.0000   -0.0000
          34   -0.0265   -0.1513    0.0446    0.0134    0.0000   -0.0000    0.0036   -0.0183
          35    0.0294   -0.0849   -0.1383   -0.0244   -0.0000    0.0000   -0.0023    0.0209
          36   -0.0000    0.0001    0.0001    0.0000    0.0005   -0.0021    0.0000   -0.0000
          37   -0.0075    0.0220    0.0176   -0.1249    0.0000    0.0000    0.0011   -0.0026
          38    0.0138   -0.0648    0.0022   -0.0273    0.0000    0.0000    0.0001   -0.0008
          39    0.0000   -0.0000    0.0000   -0.0000   -0.0015   -0.0004    0.0000   -0.0000
          40    0.0075    0.0220   -0.0176    0.1249   -0.0000   -0.0000    0.0010    0.0026
          41    0.0140    0.0648    0.0022   -0.0273    0.0000    0.0000   -0.0001   -0.0008
          42    0.0000    0.0000    0.0000   -0.0000    0.0014   -0.0004   -0.0000   -0.0000


   Root No.      33        34        35        36

                33 A      34 A      35 A      36 A   

                3120.4    3139.2    3144.2    3146.7
  
           1   -0.0001   -0.0101   -0.0003    0.0005
           2   -0.0008    0.0036   -0.0002    0.0024
           3    0.0000    0.0000   -0.0000    0.0000
           4   -0.0000    0.0101    0.0003    0.0005
           5    0.0008    0.0036   -0.0002   -0.0024
           6   -0.0000   -0.0000   -0.0000    0.0000
           7    0.0008   -0.0000   -0.0000   -0.0027
           8    0.0000    0.0059   -0.0348    0.0003
           9   -0.0000   -0.0000   -0.0000    0.0000
          10   -0.1187   -0.1535    0.0062    0.0003
          11   -0.1584   -0.1590    0.0065    0.0002
          12    0.0002    0.0002   -0.0000   -0.0000
          13   -0.1183    0.1538   -0.0062    0.0004
          14    0.1580   -0.1594    0.0065   -0.0003
          15   -0.0001    0.0001   -0.0000    0.0000
          16   -0.0004   -0.0000   -0.0026   -0.3229
          17    0.0000    0.0080    0.2387   -0.0019
          18    0.0000    0.0000    0.0001    0.0000
          19    0.0015    0.0096    0.0006    0.0005
          20   -0.0025   -0.0045   -0.0002    0.0005
          21    0.0028    0.0155    0.0007    0.0005
          22    0.0015    0.0097    0.0006    0.0005
          23   -0.0025   -0.0046   -0.0002    0.0005
          24   -0.0028   -0.0155   -0.0007   -0.0005
          25    0.0015   -0.0096   -0.0006    0.0005
          26    0.0025   -0.0045   -0.0002   -0.0005
          27   -0.0027    0.0155    0.0007   -0.0005
          28    0.0015   -0.0097   -0.0005    0.0005
          29    0.0025   -0.0046   -0.0002   -0.0005
          30    0.0028   -0.0155   -0.0007    0.0005
          31    0.4051    0.4023   -0.0154   -0.0006
          32    0.5457    0.5354   -0.0205   -0.0008
          33   -0.0007   -0.0007    0.0000    0.0000
          34    0.4042   -0.4031    0.0154   -0.0008
          35   -0.5445    0.5366   -0.0205    0.0011
          36    0.0004   -0.0004    0.0000   -0.0000
          37    0.0010   -0.0228   -0.5835    0.5633
          38    0.0007   -0.0137   -0.3500    0.3712
          39    0.0000   -0.0000   -0.0001    0.0001
          40    0.0010    0.0229    0.5923    0.5541
          41   -0.0007   -0.0138   -0.3557   -0.3655
          42   -0.0000   -0.0000   -0.0002   -0.0002


          DESCRIPTION OF VIBRATIONS


 VIBRATION          1    1A           ATOM PAIR      ENERGY CONTRIBUTION    RADIAL
 FREQUENCY           114.13         C  2 -- C  5         +14.6% (399.4%)      0.0%
 TRANSITION DIPOLE   0.0678         C  1 -- C  4         +14.6% (399.4%)      0.0%
 TRAVEL (Ang.)       0.7894         C  1 -- C  3         +10.2% (334.5%)      0.0%
 REDUCED MASS        0.9480         C  2 -- C  3         +10.2% (334.5%)      0.0%
 EFFECTIVE MASS    193.2529
 FORCE CONSTANT      0.0073

 VIBRATION          2    2A           ATOM PAIR      ENERGY CONTRIBUTION    RADIAL
 FREQUENCY           362.77         C  3 -- C  6         +23.7% (198.8%)      0.0%
 TRANSITION DIPOLE   0.0013         C  6 -- H 13         +12.6% (144.8%)     86.5%
 TRAVEL (Ang.)       0.4075         C  6 -- H 14         +12.6% (144.8%)     86.5%
 REDUCED MASS        1.1195         C  2 -- C  3          +7.3% (110.5%)      0.1%
 EFFECTIVE MASS     29.7054
 FORCE CONSTANT      0.0868

 VIBRATION          3    3A           ATOM PAIR      ENERGY CONTRIBUTION    RADIAL
 FREQUENCY           366.83         C  4 -- C  5         +23.8% (124.8%)      0.0%
 TRANSITION DIPOLE   0.0000         C  1 -- C  4         +12.4% ( 90.2%)      0.0%
 TRAVEL (Ang.)       0.3963         C  2 -- C  5         +12.4% ( 90.2%)      0.0%
 REDUCED MASS        1.1705         C  1 -- H  8          +9.3% ( 78.2%)     11.2%
 EFFECTIVE MASS     16.5310
 FORCE CONSTANT      0.0928

 VIBRATION          4    4A           ATOM PAIR      ENERGY CONTRIBUTION    RADIAL
 FREQUENCY           448.63         C  3 -- C  6         +22.1% (109.1%)      0.0%
 TRANSITION DIPOLE   0.3564         C  2 -- C  3         +18.8% (100.7%)      0.0%
 TRAVEL (Ang.)       0.2265         C  1 -- C  3         +18.8% (100.7%)      0.0%
 REDUCED MASS        2.9293         C  1 -- H  7          +9.5% ( 71.7%)      0.6%
 EFFECTIVE MASS     11.6349
 FORCE CONSTANT      0.3474

 VIBRATION          5    5A           ATOM PAIR      ENERGY CONTRIBUTION    RADIAL
 FREQUENCY           604.91         C  6 -- H 14         +42.3% ( 83.3%)      0.0%
 TRANSITION DIPOLE   0.0000         C  6 -- H 13         +42.3% ( 83.3%)      0.0%
 TRAVEL (Ang.)       0.5138         C  2 -- H  9          +3.6% ( 24.3%)      0.5%
 REDUCED MASS        0.4223         C  1 -- H  7          +3.6% ( 24.3%)      0.5%
 EFFECTIVE MASS      1.0816
 FORCE CONSTANT      0.0910

 VIBRATION          6    6A           ATOM PAIR      ENERGY CONTRIBUTION    RADIAL
 FREQUENCY           628.46         C  1 -- C  3         +13.7% (116.6%)      0.3%
 TRANSITION DIPOLE   0.1031         C  2 -- C  3         +13.7% (116.6%)      0.3%
 TRAVEL (Ang.)       0.2493         C  6 -- H 14         +12.5% (111.7%)     31.5%
 REDUCED MASS        1.7258         C  6 -- H 13         +12.5% (111.7%)     31.5%
 EFFECTIVE MASS     16.8530
 FORCE CONSTANT      0.4016

 VIBRATION          7    7A           ATOM PAIR      ENERGY CONTRIBUTION    RADIAL
 FREQUENCY           738.36         C  5 -- H 12         +29.5% ( 71.4%)      0.0%
 TRANSITION DIPOLE   0.4880         C  4 -- H 11         +29.5% ( 71.4%)      0.0%
 TRAVEL (Ang.)       0.5580         C  2 -- H  9          +6.6% ( 33.9%)      6.5%
 REDUCED MASS        0.2933         C  1 -- H  7          +6.6% ( 33.9%)      6.6%
 EFFECTIVE MASS      2.2520
 FORCE CONSTANT      0.0942

 VIBRATION          8    8A           ATOM PAIR      ENERGY CONTRIBUTION    RADIAL
 FREQUENCY           782.44         C  4 -- C  5         +21.8% (118.3%)      0.0%
 TRANSITION DIPOLE   0.0331         C  1 -- C  4         +16.4% (102.5%)      1.3%
 TRAVEL (Ang.)       0.1817         C  2 -- C  5         +16.4% (102.5%)      1.3%
 REDUCED MASS        2.6108         C  4 -- H 11         +10.4% ( 81.7%)     92.3%
 EFFECTIVE MASS     16.1735         C  5 -- H 12         +10.4% ( 81.7%)     92.3%
 FORCE CONSTANT      0.9417

 VIBRATION          9    9A           ATOM PAIR      ENERGY CONTRIBUTION    RADIAL
 FREQUENCY           858.55         C  1 -- H  8         +13.8% ( 57.3%)     14.1%
 TRANSITION DIPOLE   0.0001         C  1 -- H  7         +13.8% ( 57.3%)     14.2%
 TRAVEL (Ang.)       0.3934         C  2 -- H  9         +13.8% ( 57.3%)     14.1%
 REDUCED MASS        0.5075         C  2 -- H 10         +13.8% ( 57.3%)     14.2%
 EFFECTIVE MASS      4.6912
 FORCE CONSTANT      0.2204

 VIBRATION         10   10A           ATOM PAIR      ENERGY CONTRIBUTION    RADIAL
 FREQUENCY           914.99         C  6 -- H 14         +27.2% ( 83.7%)     11.1%
 TRANSITION DIPOLE   0.0284         C  6 -- H 13         +27.2% ( 83.7%)     11.1%
 TRAVEL (Ang.)       0.3161         C  3 -- C  6         +11.6% ( 54.5%)      0.0%
 REDUCED MASS        0.7376         C  2 -- C  3          +4.7% ( 34.6%)     62.6%
 EFFECTIVE MASS      5.9375
 FORCE CONSTANT      0.3638

 VIBRATION         11   11A           ATOM PAIR      ENERGY CONTRIBUTION    RADIAL
 FREQUENCY           925.44         C  1 -- C  3         +12.5% ( 64.7%)     98.4%
 TRANSITION DIPOLE   0.0182         C  2 -- C  3         +12.5% ( 64.7%)     98.4%
 TRAVEL (Ang.)       0.2661         C  2 -- C  5          +8.8% ( 54.3%)      3.0%
 REDUCED MASS        1.0289         C  1 -- C  4          +8.8% ( 54.3%)      3.0%
 EFFECTIVE MASS      8.9527
 FORCE CONSTANT      0.5192

 VIBRATION         12   12A           ATOM PAIR      ENERGY CONTRIBUTION    RADIAL
 FREQUENCY           952.97         C  2 -- H 10         +10.1% ( 44.8%)     16.0%
 TRANSITION DIPOLE   0.6189         C  2 -- H  9         +10.1% ( 44.8%)     16.0%
 TRAVEL (Ang.)       0.3894         C  1 -- H  8         +10.1% ( 44.8%)     16.0%
 REDUCED MASS        0.4666         C  1 -- H  7         +10.1% ( 44.8%)     16.0%
 EFFECTIVE MASS      5.5830
 FORCE CONSTANT      0.2497

 VIBRATION         13   13A           ATOM PAIR      ENERGY CONTRIBUTION    RADIAL
 FREQUENCY           968.47         C  4 -- H 11         +14.8% ( 44.5%)      0.0%
 TRANSITION DIPOLE   0.0001         C  5 -- H 12         +14.8% ( 44.5%)      0.0%
 TRAVEL (Ang.)       0.5211         C  1 -- H  7         +12.1% ( 40.3%)      5.8%
 REDUCED MASS        0.2564         C  2 -- H  9         +12.1% ( 40.3%)      5.9%
 EFFECTIVE MASS      3.0729         C  1 -- H  8         +12.1% ( 40.2%)      5.9%
 FORCE CONSTANT      0.1417         C  2 -- H 10         +12.1% ( 40.2%)      5.9%

 VIBRATION         14   14A           ATOM PAIR      ENERGY CONTRIBUTION    RADIAL
 FREQUENCY          1003.50         C  6 -- H 14         +24.3% ( 52.9%)      0.0%
 TRANSITION DIPOLE   0.3004         C  6 -- H 13         +24.3% ( 52.9%)      0.0%
 TRAVEL (Ang.)       0.3768         C  1 -- H  7          +7.7% ( 29.8%)      5.6%
 REDUCED MASS        0.4733         C  2 -- H 10          +7.7% ( 29.8%)      5.6%
 EFFECTIVE MASS      3.0664
 FORCE CONSTANT      0.2808

 VIBRATION         15   15A           ATOM PAIR      ENERGY CONTRIBUTION    RADIAL
 FREQUENCY          1031.23         C  5 -- H 12         +14.6% ( 48.0%)      9.0%
 TRANSITION DIPOLE   0.1380         C  4 -- H 11         +14.5% ( 48.0%)      9.0%
 TRAVEL (Ang.)       0.5394         C  2 -- C  5         +10.2% ( 40.3%)     99.9%
 REDUCED MASS        0.2247         C  1 -- C  4         +10.2% ( 40.2%)     99.9%
 EFFECTIVE MASS      4.0635
 FORCE CONSTANT      0.1408

 VIBRATION         16   16A           ATOM PAIR      ENERGY CONTRIBUTION    RADIAL
 FREQUENCY          1053.21         C  2 -- H 10         +13.7% ( 39.6%)      3.3%
 TRANSITION DIPOLE   0.0001         C  1 -- H  8         +13.7% ( 39.6%)      3.3%
 TRAVEL (Ang.)       0.3566         C  1 -- H  7         +13.7% ( 39.6%)      3.3%
 REDUCED MASS        0.5033         C  2 -- H  9         +13.7% ( 39.6%)      3.3%
 EFFECTIVE MASS      3.5290         C  4 -- H 11         +10.3% ( 34.4%)      0.0%
 FORCE CONSTANT      0.3290         C  5 -- H 12         +10.3% ( 34.4%)      0.0%

 VIBRATION         17   17A           ATOM PAIR      ENERGY CONTRIBUTION    RADIAL
 FREQUENCY          1074.67         C  1 -- H  7         +15.1% ( 40.9%)      3.4%
 TRANSITION DIPOLE   0.2021         C  2 -- H  9         +15.1% ( 40.9%)      3.4%
 TRAVEL (Ang.)       0.3388         C  2 -- H 10         +15.1% ( 40.8%)      3.5%
 REDUCED MASS        0.5465         C  1 -- H  8         +15.1% ( 40.8%)      3.5%
 EFFECTIVE MASS      3.3707
 FORCE CONSTANT      0.3719

 VIBRATION         18   18A           ATOM PAIR      ENERGY CONTRIBUTION    RADIAL
 FREQUENCY          1085.34         C  4 -- H 11         +13.6% ( 44.8%)     21.9%
 TRANSITION DIPOLE   0.0459         C  5 -- H 12         +13.6% ( 44.8%)     21.9%
 TRAVEL (Ang.)       0.5046         C  1 -- C  4         +10.4% ( 39.3%)     99.9%
 REDUCED MASS        0.2440         C  2 -- C  5         +10.4% ( 39.3%)     99.9%
 EFFECTIVE MASS      4.0643
 FORCE CONSTANT      0.1694

 VIBRATION         19   19A           ATOM PAIR      ENERGY CONTRIBUTION    RADIAL
 FREQUENCY          1117.34         C  5 -- H 12         +18.5% ( 58.4%)      7.7%
 TRANSITION DIPOLE   0.0037         C  4 -- H 11         +18.5% ( 58.4%)      7.7%
 TRAVEL (Ang.)       0.3719         C  1 -- C  4         +11.1% ( 45.1%)     96.9%
 REDUCED MASS        0.4363         C  2 -- C  5         +11.1% ( 45.1%)     96.9%
 EFFECTIVE MASS      5.3961         C  4 -- C  5         +10.2% ( 43.3%)    100.0%
 FORCE CONSTANT      0.3210

 VIBRATION         20   20A           ATOM PAIR      ENERGY CONTRIBUTION    RADIAL
 FREQUENCY          1216.99         C  4 -- H 11         +12.4% ( 41.6%)      0.0%
 TRANSITION DIPOLE   0.0014         C  5 -- H 12         +12.4% ( 41.6%)      0.0%
 TRAVEL (Ang.)       0.4089         C  1 -- H  8          +9.6% ( 36.6%)      0.2%
 REDUCED MASS        0.3313         C  2 -- H 10          +9.6% ( 36.6%)      0.2%
 EFFECTIVE MASS      3.2157
 FORCE CONSTANT      0.2891

 VIBRATION         21   21A           ATOM PAIR      ENERGY CONTRIBUTION    RADIAL
 FREQUENCY          1297.20         C  6 -- H 13         +16.5% ( 46.0%)      0.6%
 TRANSITION DIPOLE   0.0508         C  6 -- H 14         +16.5% ( 46.0%)      0.6%
 TRAVEL (Ang.)       0.3827         C  2 -- C  5          +8.8% ( 33.6%)     82.5%
 REDUCED MASS        0.3549         C  1 -- C  4          +8.8% ( 33.6%)     82.5%
 EFFECTIVE MASS      3.5991
 FORCE CONSTANT      0.3518

 VIBRATION         22   22A           ATOM PAIR      ENERGY CONTRIBUTION    RADIAL
 FREQUENCY          1318.28         C  1 -- C  3         +14.9% ( 42.6%)     74.6%
 TRANSITION DIPOLE   0.0718         C  2 -- C  3         +14.9% ( 42.6%)     74.6%
 TRAVEL (Ang.)       0.2663         C  3 -- C  6         +13.5% ( 40.5%)      0.0%
 REDUCED MASS        0.7214         C  4 -- H 11          +7.3% ( 29.8%)      1.3%
 EFFECTIVE MASS      4.5280
 FORCE CONSTANT      0.7386

 VIBRATION         23   23A           ATOM PAIR      ENERGY CONTRIBUTION    RADIAL
 FREQUENCY          1350.89         C  6 -- H 14         +11.0% ( 44.8%)      3.3%
 TRANSITION DIPOLE   0.0998         C  6 -- H 13         +11.0% ( 44.8%)      3.3%
 TRAVEL (Ang.)       0.2390         C  2 -- C  3          +9.2% ( 41.0%)     58.0%
 REDUCED MASS        0.8735         C  1 -- C  3          +9.2% ( 41.0%)     58.0%
 EFFECTIVE MASS      6.0513
 FORCE CONSTANT      0.9392

 VIBRATION         24   24A           ATOM PAIR      ENERGY CONTRIBUTION    RADIAL
 FREQUENCY          1373.37         C  1 -- C  4         +13.4% ( 57.2%)     77.1%
 TRANSITION DIPOLE   0.1162         C  2 -- C  5         +13.4% ( 57.2%)     77.1%
 TRAVEL (Ang.)       0.1560         C  1 -- C  3         +12.1% ( 54.5%)     99.6%
 REDUCED MASS        2.0173         C  2 -- C  3         +12.1% ( 54.4%)     99.6%
 EFFECTIVE MASS     10.7769
 FORCE CONSTANT      2.2417

 VIBRATION         25   25A           ATOM PAIR      ENERGY CONTRIBUTION    RADIAL
 FREQUENCY          1384.03         C  2 -- H 10         +15.9% ( 46.6%)      5.6%
 TRANSITION DIPOLE   0.0304         C  2 -- H  9         +15.9% ( 46.6%)      5.6%
 TRAVEL (Ang.)       0.2964         C  1 -- H  7         +15.8% ( 46.5%)      5.6%
 REDUCED MASS        0.5547         C  1 -- H  8         +15.8% ( 46.5%)      5.6%
 EFFECTIVE MASS      4.2202
 FORCE CONSTANT      0.6260

 VIBRATION         26   26A           ATOM PAIR      ENERGY CONTRIBUTION    RADIAL
 FREQUENCY          1399.73         C  1 -- C  3         +13.1% ( 49.0%)     50.3%
 TRANSITION DIPOLE   0.1143         C  2 -- C  3         +13.1% ( 49.0%)     50.4%
 TRAVEL (Ang.)       0.2349         C  1 -- C  4         +10.0% ( 42.8%)     65.3%
 REDUCED MASS        0.8733         C  2 -- C  5         +10.0% ( 42.8%)     65.3%
 EFFECTIVE MASS      6.9951
 FORCE CONSTANT      1.0081

 VIBRATION         27   27A           ATOM PAIR      ENERGY CONTRIBUTION    RADIAL
 FREQUENCY          1817.61         C  4 -- C  5         +45.1% ( 99.5%)    100.0%
 TRANSITION DIPOLE   0.0114         C  2 -- C  5         +13.7% ( 54.7%)     22.3%
 TRAVEL (Ang.)       0.0843         C  1 -- C  4         +13.7% ( 54.7%)     22.3%
 REDUCED MASS        5.2166         C  5 -- H 12         +12.7% ( 52.8%)     10.2%
 EFFECTIVE MASS     11.8594         C  4 -- H 11         +12.7% ( 52.8%)     10.2%
 FORCE CONSTANT     10.1540

 VIBRATION         28   28A           ATOM PAIR      ENERGY CONTRIBUTION    RADIAL
 FREQUENCY          1917.51         C  3 -- C  6         +43.8% ( 98.2%)    100.0%
 TRANSITION DIPOLE   0.2616         C  2 -- C  3         +18.2% ( 63.4%)     39.6%
 TRAVEL (Ang.)       0.0792         C  1 -- C  3         +18.2% ( 63.4%)     39.6%
 REDUCED MASS        5.6079         C  6 -- H 14          +8.8% ( 44.0%)     11.6%
 EFFECTIVE MASS     11.9025
 FORCE CONSTANT     12.1486

 VIBRATION         29   29A           ATOM PAIR      ENERGY CONTRIBUTION    RADIAL
 FREQUENCY          2971.53         C  1 -- H  7         +25.5% ( 52.3%)     96.7%
 TRANSITION DIPOLE   0.0016         C  1 -- H  8         +25.4% ( 52.2%)     96.7%
 TRAVEL (Ang.)       0.2960         C  2 -- H  9         +23.5% ( 50.3%)     96.7%
 REDUCED MASS        0.2591         C  2 -- H 10         +23.5% ( 50.2%)     96.7%
 EFFECTIVE MASS      1.5329
 FORCE CONSTANT      1.3477

 VIBRATION         30   30A           ATOM PAIR      ENERGY CONTRIBUTION    RADIAL
 FREQUENCY          2972.32         C  2 -- H  9         +25.4% ( 52.3%)     96.7%
 TRANSITION DIPOLE   0.0822         C  2 -- H 10         +25.4% ( 52.3%)     96.7%
 TRAVEL (Ang.)       0.2957         C  1 -- H  7         +23.6% ( 50.3%)     96.7%
 REDUCED MASS        0.2594         C  1 -- H  8         +23.4% ( 50.2%)     96.7%
 EFFECTIVE MASS      1.5372
 FORCE CONSTANT      1.3505

 VIBRATION         31   31A           ATOM PAIR      ENERGY CONTRIBUTION    RADIAL
 FREQUENCY          3044.80         C  2 -- H 10         +25.1% ( 49.5%)     97.5%
 TRANSITION DIPOLE   0.1699         C  2 -- H  9         +25.1% ( 49.5%)     97.5%
 TRAVEL (Ang.)       0.3024         C  1 -- H  8         +24.2% ( 48.6%)     97.6%
 REDUCED MASS        0.2421         C  1 -- H  7         +24.1% ( 48.5%)     97.5%
 EFFECTIVE MASS      1.2764
 FORCE CONSTANT      1.3225

 VIBRATION         32   32A           ATOM PAIR      ENERGY CONTRIBUTION    RADIAL
 FREQUENCY          3046.01         C  1 -- H  8         +25.1% ( 49.5%)     97.4%
 TRANSITION DIPOLE   0.0405         C  1 -- H  7         +25.0% ( 49.4%)     97.4%
 TRAVEL (Ang.)       0.3027         C  2 -- H 10         +24.1% ( 48.5%)     97.4%
 REDUCED MASS        0.2415         C  2 -- H  9         +24.1% ( 48.5%)     97.4%
 EFFECTIVE MASS      1.2929
 FORCE CONSTANT      1.3203

 VIBRATION         33   33A           ATOM PAIR      ENERGY CONTRIBUTION    RADIAL
 FREQUENCY          3120.37         C  4 -- H 11         +48.8% ( 71.0%)    100.0%
 TRANSITION DIPOLE   0.3860         C  5 -- H 12         +48.6% ( 70.8%)    100.0%
 TRAVEL (Ang.)       0.2156         C  4 -- C  5          +1.1% ( 10.8%)      0.0%
 REDUCED MASS        0.4649         C  1 -- C  4          +0.7% (  8.7%)     27.1%
 EFFECTIVE MASS      1.4644
 FORCE CONSTANT      2.6669

 VIBRATION         34   34A           ATOM PAIR      ENERGY CONTRIBUTION    RADIAL
 FREQUENCY          3139.19         C  5 -- H 12         +47.8% ( 70.4%)     99.9%
 TRANSITION DIPOLE   0.3470         C  4 -- H 11         +47.6% ( 70.3%)     99.9%
 TRAVEL (Ang.)       0.2150         C  4 -- C  5          +2.5% ( 16.1%)    100.0%
 REDUCED MASS        0.4648         C  2 -- C  5          +0.9% (  9.9%)     20.5%
 EFFECTIVE MASS      1.6519
 FORCE CONSTANT      2.6987

 VIBRATION         35   35A           ATOM PAIR      ENERGY CONTRIBUTION    RADIAL
 FREQUENCY          3144.22         C  6 -- H 14         +49.9% ( 70.6%)     95.4%
 TRANSITION DIPOLE   0.3177         C  6 -- H 13         +48.3% ( 69.5%)     95.1%
 TRAVEL (Ang.)       0.2103         C  3 -- C  6          +1.5% ( 12.4%)    100.0%
 REDUCED MASS        0.4847
 EFFECTIVE MASS      1.3905
 FORCE CONSTANT      2.8234

 VIBRATION         36   36A           ATOM PAIR      ENERGY CONTRIBUTION    RADIAL
 FREQUENCY          3146.67         C  6 -- H 13         +50.1% ( 72.5%)     97.1%
 TRANSITION DIPOLE   0.1939         C  6 -- H 14         +48.6% ( 71.5%)     97.0%
 TRAVEL (Ang.)       0.2001         C  3 -- C  6          +1.3% ( 11.7%)      0.0%
 REDUCED MASS        0.5350
 EFFECTIVE MASS      1.6057
 FORCE CONSTANT      3.1208

      SYMMETRY NUMBER FOR POINT-GROUP C1  =  1


          SYSTEM IS A GROUND STATE



 InChI=1S/C6H8/c1-6-4-2-3-5-6/h2-3H,1,4-5H2


          MOLECULE IS NOT LINEAR

          THERE ARE 36 GENUINE VIBRATIONS IN THIS SYSTEM
          THIS THERMODYNAMICS CALCULATION IS LIMITED TO
          MOLECULES WHICH HAVE NO INTERNAL ROTATIONS




                    CALCULATED THERMODYNAMIC PROPERTIES
                                          *
   TEMP. (K)   PARTITION FUNCTION   H.O.F.    ENTHALPY  HEAT CAPACITY ENTROPY
                                   KCAL/MOL   CAL/MOLE    CAL/K/MOL  CAL/K/MOL


 298.00  VIB.     0.5062D+01                  1657.3483    15.0432     8.7843
         ROT.     0.1089D+06                   888.2803     2.9808    26.0279
         INT.     0.5510D+06                  2545.6286    18.0240    34.8122
         TRA.     0.6934D+27                  1480.4672     4.9680    39.0554
         TOT.                       23.650    4026.0958    22.9920    73.8676

 200.00  VIB.     0.2256D+01                   561.9068     7.5494     4.4261
         ROT.     0.5985D+05                   596.1613     2.9808    24.8392
         INT.     0.1350D+06                  1158.0680    10.5302    29.2653
         TRA.     0.3813D+27                   993.6021     4.9680    37.0743
         TOT.                       21.776    2151.6702    15.4982    66.3396

 210.00  VIB.     0.2424D+01                   640.7970     8.2331     4.8109
         ROT.     0.6439D+05                   625.9693     2.9808    24.9846
         INT.     0.1561D+06                  1266.7663    11.2139    29.7955
         TRA.     0.4102D+27                  1043.2822     4.9680    37.3167
         TOT.                       21.934    2310.0486    16.1819    67.1122

 220.00  VIB.     0.2611D+01                   726.6531     8.9422     5.2102
         ROT.     0.6905D+05                   655.7774     2.9808    25.1233
         INT.     0.1803D+06                  1382.4305    11.9230    30.3335
         TRA.     0.4399D+27                  1092.9623     4.9680    37.5478
         TOT.                       22.099    2475.3928    16.8910    67.8813

 230.00  VIB.     0.2819D+01                   819.7174     9.6743     5.6237
         ROT.     0.7381D+05                   685.5855     2.9808    25.2558
         INT.     0.2081D+06                  1505.3028    12.6551    30.8796
         TRA.     0.4702D+27                  1142.6424     4.9680    37.7686
         TOT.                       22.272    2647.9453    17.6231    68.6482

 240.00  VIB.     0.3052D+01                   920.2063    10.4267     6.0513
         ROT.     0.7867D+05                   715.3935     2.9808    25.3827
         INT.     0.2401D+06                  1635.5998    13.4075    31.4340
         TRA.     0.5012D+27                  1192.3226     4.9680    37.9801
         TOT.                       22.452    2827.9224    18.3755    69.4141

 250.00  VIB.     0.3311D+01                  1028.3086    11.1965     6.4925
         ROT.     0.8364D+05                   745.2016     2.9808    25.5044
         INT.     0.2769D+06                  1773.5102    14.1773    31.9969
         TRA.     0.5328D+27                  1242.0027     4.9680    38.1829
         TOT.                       22.639    3015.5128    19.1453    70.1797

 260.00  VIB.     0.3601D+01                  1144.1838    11.9808     6.9469
         ROT.     0.8871D+05                   775.0097     2.9808    25.6213
         INT.     0.3195D+06                  1919.1934    14.9616    32.5681
         TRA.     0.5651D+27                  1291.6828     4.9680    38.3777
         TOT.                       22.835    3210.8762    19.9296    70.9459

 270.00  VIB.     0.3926D+01                  1267.9624    12.7767     7.4139
         ROT.     0.9388D+05                   804.8177     2.9808    25.7338
         INT.     0.3686D+06                  2072.7801    15.7575    33.1477
         TRA.     0.5980D+27                  1341.3629     4.9680    38.5652
         TOT.                       23.038    3414.1430    20.7255    71.7129

 280.00  VIB.     0.4290D+01                  1399.7462    13.5813     7.8931
         ROT.     0.9914D+05                   834.6258     2.9808    25.8422
         INT.     0.4253D+06                  2234.3719    16.5621    33.7353
         TRA.     0.6316D+27                  1391.0430     4.9680    38.7459
         TOT.                       23.249    3625.4149    21.5301    72.4812

 290.00  VIB.     0.4699D+01                  1539.6088    14.3920     8.3838
         ROT.     0.1045D+06                   864.4339     2.9808    25.9468
         INT.     0.4910D+06                  2404.0426    17.3728    34.3306
         TRA.     0.6657D+27                  1440.7231     4.9680    38.9202
         TOT.                       23.469    3844.7657    22.3408    73.2508

 300.00  VIB.     0.5158D+01                  1687.5976    15.2061     8.8854
         ROT.     0.1099D+06                   894.2419     2.9808    26.0478
         INT.     0.5671D+06                  2581.8395    18.1869    34.9333
         TRA.     0.7004D+27                  1490.4032     4.9680    39.0887
         TOT.                       23.696    4072.2427    23.1550    74.0219

 310.00  VIB.     0.5675D+01                  1843.7352    16.0214     9.3973
         ROT.     0.1155D+06                   924.0500     2.9808    26.1456
         INT.     0.6554D+06                  2767.7852    19.0022    35.5429
         TRA.     0.7357D+27                  1540.0833     4.9680    39.2516
         TOT.                       23.932    4307.8685    23.9702    74.7945

 320.00  VIB.     0.6257D+01                  2008.0213    16.8355     9.9188
         ROT.     0.1211D+06                   953.8580     2.9808    26.2402
         INT.     0.7578D+06                  2961.8793    19.8163    36.1591
         TRA.     0.7716D+27                  1589.7634     4.9680    39.4093
         TOT.                       24.176    4551.6427    24.7843    75.5683

 330.00  VIB.     0.6913D+01                  2180.4348    17.6465    10.4493
         ROT.     0.1268D+06                   983.6661     2.9808    26.3319
         INT.     0.8768D+06                  3164.1010    20.6274    36.7813
         TRA.     0.8081D+27                  1639.4435     4.9680    39.5622
         TOT.                       24.428    4803.5445    25.5954    76.3434

 340.00  VIB.     0.7653D+01                  2360.9360    18.4527    10.9881
         ROT.     0.1327D+06                  1013.4742     2.9808    26.4209
         INT.     0.1015D+07                  3374.4102    21.4335    37.4090
         TRA.     0.8451D+27                  1689.1236     4.9680    39.7105
         TOT.                       24.687    5063.5338    26.4016    77.1195

 350.00  VIB.     0.8490D+01                  2549.4683    19.2525    11.5346
         ROT.     0.1386D+06                  1043.2822     2.9808    26.5073
         INT.     0.1176D+07                  3592.7505    22.2333    38.0419
         TRA.     0.8827D+27                  1738.8037     4.9680    39.8545
         TOT.                       24.956    5331.5543    27.2013    77.8964

 360.00  VIB.     0.9436D+01                  2745.9606    20.0445    12.0881
         ROT.     0.1445D+06                  1073.0903     2.9808    26.5913
         INT.     0.1364D+07                  3819.0509    23.0253    38.6794
         TRA.     0.9207D+27                  1788.4838     4.9680    39.9944
         TOT.                       25.231    5607.5348    27.9934    78.6738

 370.00  VIB.     0.1051D+02                  2950.3292    20.8276    12.6480
         ROT.     0.1506D+06                  1102.8984     2.9808    26.6730
         INT.     0.1582D+07                  4053.2275    23.8084    39.3209
         TRA.     0.9594D+27                  1838.1639     4.9680    40.1306
         TOT.                       25.515    5891.3915    28.7764    79.4515

 380.00  VIB.     0.1172D+02                  3162.4793    21.6007    13.2137
         ROT.     0.1567D+06                  1132.7064     2.9808    26.7525
         INT.     0.1837D+07                  4295.1857    24.5815    39.9661
         TRA.     0.9985D+27                  1887.8440     4.9680    40.2630
         TOT.                       25.807    6183.0298    29.5495    80.2292

 390.00  VIB.     0.1310D+02                  3382.3073    22.3630    13.7846
         ROT.     0.1630D+06                  1162.5145     2.9808    26.8299
         INT.     0.2135D+07                  4544.8218    25.3438    40.6145
         TRA.     0.1038D+28                  1937.5242     4.9680    40.3921
         TOT.                       26.106    6482.3459    30.3118    81.0066

 400.00  VIB.     0.1466D+02                  3609.7017    23.1139    14.3603
         ROT.     0.1693D+06                  1192.3226     2.9808    26.9054
         INT.     0.2482D+07                  4802.0242    26.0947    41.2657
         TRA.     0.1078D+28                  1987.2043     4.9680    40.5179
         TOT.                       26.413    6789.2285    31.0627    81.7836

   *: NOTE: HEATS OF FORMATION ARE RELATIVE TO THE
            ELEMENTS IN THEIR STANDARD STATE AT 298K
              (=  Standard Enthalpy of Formation).

            Hvib:  Zero-point energy is not included.
                   frequencies of less than zero cm-1 are not included.
            Hrot = (3/2)RT
            Htra = (3/2)RT + pV = (5/2)RT

            Heat capacity is Cp, not Cv

          For more information, see: HTTP://OpenMOPAC.net/Manual/thermochemistry.html


           FORCE CONSTANT IN CARTESIAN COORDINATES (Millidynes/A)

    ATOM   CHEMICAL       X               Y               Z
   NUMBER   SYMBOL  FORCE CONSTANT  FORCE CONSTANT  FORCE CONSTANT

      1       C        9.548046        8.322514        7.853666
      2       C        9.548043        8.322279        7.854020
      3       C        8.221903       16.977787        2.758817
      4       C       15.032501        9.957265        2.341000
      5       C       15.032489        9.957424        2.340930
      6       C        9.152515       15.507187        1.944662
      7       H        2.001867        0.756043        3.543960
      8       H        2.008437        0.758677        3.535639
      9       H        2.002671        0.756380        3.543073
     10       H        2.007542        0.758218        3.536639
     11       H        2.378562        3.702993        0.346360
     12       H        2.378532        3.703170        0.346330
     13       H        4.076787        2.034385        0.329712
     14       H        4.077396        2.033640        0.329717

 **********************
 *                    *
 * JOB ENDED NORMALLY *
 *                    *
 **********************



 TOTAL JOB TIME:             0.76 SECONDS

 == MOPAC DONE ==
