 *******************************************************************************
 **                                                                           **
 **                              MOPAC v23.1.2                                **
 **                                                                           **
 *******************************************************************************
 **          Digital Object Identifier (DOI): 10.5281/zenodo.6511958          **
 **    Visit the DOI location for information on how to cite this program.    **
 *******************************************************************************

                              PM3 CALCULATION RESULTS

 *******************************************************************************
 *  CALCULATION DONE: (MAX THREADS = 1)              Tue Jun  3 16:42:46 2025  *
 *  PM3        - The PM3 Hamiltonian to be used
 *  PRECISE    - TIGHTER CRITERIA TO BE USED
 *  NOSYM      - POINT-GROUP SYMMETRY SET TO C1
 *  THREADS=1  - MULTI-THREADING NOT USED
 *  T=         - A TIME OF 172800.0 SECONDS REQUESTED
 *  DUMP=N     - RESTART FILE WRITTEN EVERY 7200.0 SECONDS REQUESTED
 *******************************************************************************
pm3  precise nosym THREADS=1
 InChI=1S/C12H20/c1-4-7-10(5-2)12-9-8-11(12)6-3/h4,7-12H,5-6H2,1-3H3

   ATOM   CHEMICAL          X               Y               Z
  NUMBER   SYMBOL      (ANGSTROMS)     (ANGSTROMS)     (ANGSTROMS)

     1       C         -1.07420000  *   0.53940000  *  -0.58230000  *
     2       C          0.45980000  *   0.55670000  *  -0.79580000  *
     3       C         -1.64770000  *  -0.78300000  *  -0.41730000  *
     4       C          0.93610000  *   1.96800000  *  -1.20230000  *
     5       C         -2.58100000  *  -0.94590000  *   0.79600000  *
     6       C          2.42140000  *   1.99690000  *  -1.56620000  *
     7       C         -1.78980000  *  -1.06210000  *   2.09630000  *
     8       C          2.41800000  *  -1.44960000  *   1.88610000  *
     9       C          1.14170000  *   0.13370000  *   0.48700000  *
    10       C         -2.41660000  *  -0.58310000  *  -1.68490000  *
    11       C         -1.84500000  *   0.67640000  *  -1.86280000  *
    12       C          1.78640000  *  -1.03640000  *   0.59360000  *
    13       H          0.72010000  *  -0.14610000  *  -1.62190000  *
    14       H         -0.93230000  *  -1.63010000  *  -0.52390000  *
    15       H         -1.41240000  *   1.29100000  *   0.16810000  *
    16       H          0.74710000  *   2.68970000  *  -0.37710000  *
    17       H         -3.17940000  *  -1.87350000  *   0.66450000  *
    18       H         -3.29070000  *  -0.09190000  *   0.87170000  *
    19       H          0.36490000  *   2.31470000  *  -2.09000000  *
    20       H          3.04630000  *   1.73730000  *  -0.68580000  *
    21       H          2.63130000  *   1.28140000  *  -2.38940000  *
    22       H          2.70020000  *   3.01720000  *  -1.90410000  *
    23       H         -1.23210000  *  -0.12340000  *   2.29640000  *
    24       H         -1.07380000  *  -1.90950000  *   2.03880000  *
    25       H         -2.48770000  *  -1.24320000  *   2.94060000  *
    26       H          2.89310000  *  -2.44600000  *   1.76940000  *
    27       H          3.19500000  *  -0.71280000  *   2.18030000  *
    28       H          1.64580000  *  -1.51090000  *   2.68190000  *
    29       H          1.85200000  *  -1.70690000  *  -0.25870000  *
    30       H          1.06620000  *   0.78460000  *   1.35480000  *
    31       H         -3.12430000  *  -1.18300000  *  -2.24680000  *
    32       H         -1.93840000  *   1.45070000  *  -2.61650000  *



          CARTESIAN COORDINATES 

    NO.       ATOM           X           Y           Z

     1         C         -1.0742      0.5394     -0.5823
     2         C          0.4598      0.5567     -0.7958
     3         C         -1.6477     -0.7830     -0.4173
     4         C          0.9361      1.9680     -1.2023
     5         C         -2.5810     -0.9459      0.7960
     6         C          2.4214      1.9969     -1.5662
     7         C         -1.7898     -1.0621      2.0963
     8         C          2.4180     -1.4496      1.8861
     9         C          1.1417      0.1337      0.4870
    10         C         -2.4166     -0.5831     -1.6849
    11         C         -1.8450      0.6764     -1.8628
    12         C          1.7864     -1.0364      0.5936
    13         H          0.7201     -0.1461     -1.6219
    14         H         -0.9323     -1.6301     -0.5239
    15         H         -1.4124      1.2910      0.1681
    16         H          0.7471      2.6897     -0.3771
    17         H         -3.1794     -1.8735      0.6645
    18         H         -3.2907     -0.0919      0.8717
    19         H          0.3649      2.3147     -2.0900
    20         H          3.0463      1.7373     -0.6858
    21         H          2.6313      1.2814     -2.3894
    22         H          2.7002      3.0172     -1.9041
    23         H         -1.2321     -0.1234      2.2964
    24         H         -1.0738     -1.9095      2.0388
    25         H         -2.4877     -1.2432      2.9406
    26         H          2.8931     -2.4460      1.7694
    27         H          3.1950     -0.7128      2.1803
    28         H          1.6458     -1.5109      2.6819
    29         H          1.8520     -1.7069     -0.2587
    30         H          1.0662      0.7846      1.3548
    31         H         -3.1243     -1.1830     -2.2468
    32         H         -1.9384      1.4507     -2.6165

  H: (PM3): J. J. P. STEWART, J. COMP. CHEM. 10, 209 (1989).
  C: (PM3): J. J. P. STEWART, J. COMP. CHEM. 10, 209 (1989).

           Empirical Formula: C12 H20  =    32 atoms



      MOLECULAR POINT GROUP   :   C1  


      RHF CALCULATION, NO. OF DOUBLY OCCUPIED LEVELS = 34


          Geometry optimization using EF

          DIAGONAL MATRIX USED AS START HESSIAN

 CYCLE:     1 TIME:   0.012 TIME LEFT:  2.00D  GRAD.:   211.722 HEAT:  32.49121
 CYCLE:     2 TIME:   0.020 TIME LEFT:  2.00D  GRAD.:    65.039 HEAT:  22.88381
 CYCLE:     3 TIME:   0.020 TIME LEFT:  2.00D  GRAD.:    82.095 HEAT:  22.17141
 CYCLE:     4 TIME:   0.020 TIME LEFT:  2.00D  GRAD.:    41.027 HEAT:  21.23497
 CYCLE:     5 TIME:   0.008 TIME LEFT:  2.00D  GRAD.:    46.712 HEAT:  21.20402
 CYCLE:     6 TIME:   0.012 TIME LEFT:  2.00D  GRAD.:    45.692 HEAT:  20.90298
 CYCLE:     7 TIME:   0.020 TIME LEFT:  2.00D  GRAD.:    18.507 HEAT:  20.41849
 CYCLE:     8 TIME:   0.016 TIME LEFT:  2.00D  GRAD.:    19.752 HEAT:  20.34476
 CYCLE:     9 TIME:   0.012 TIME LEFT:  2.00D  GRAD.:    21.001 HEAT:  20.28170
 CYCLE:    10 TIME:   0.012 TIME LEFT:  2.00D  GRAD.:    13.897 HEAT:  20.19511
 CYCLE:    11 TIME:   0.016 TIME LEFT:  2.00D  GRAD.:    10.914 HEAT:  20.13700
 CYCLE:    12 TIME:   0.020 TIME LEFT:  2.00D  GRAD.:     7.825 HEAT:  20.10096
 CYCLE:    13 TIME:   0.012 TIME LEFT:  2.00D  GRAD.:     9.441 HEAT:  20.07302
 CYCLE:    14 TIME:   0.012 TIME LEFT:  2.00D  GRAD.:     7.610 HEAT:  20.03515
 CYCLE:    15 TIME:   0.016 TIME LEFT:  2.00D  GRAD.:     7.503 HEAT:  20.01916
 CYCLE:    16 TIME:   0.012 TIME LEFT:  2.00D  GRAD.:     5.067 HEAT:  19.99669
 CYCLE:    17 TIME:   0.012 TIME LEFT:  2.00D  GRAD.:     6.217 HEAT:  19.98049
 CYCLE:    18 TIME:   0.016 TIME LEFT:  2.00D  GRAD.:     6.128 HEAT:  19.97057
 CYCLE:    19 TIME:   0.020 TIME LEFT:  2.00D  GRAD.:     5.345 HEAT:  19.96167
 CYCLE:    20 TIME:   0.008 TIME LEFT:  2.00D  GRAD.:     4.235 HEAT:  19.95275
 CYCLE:    21 TIME:   0.012 TIME LEFT:  2.00D  GRAD.:     6.113 HEAT:  19.94901
 CYCLE:    22 TIME:   0.012 TIME LEFT:  2.00D  GRAD.:     6.044 HEAT:  19.94167
 CYCLE:    23 TIME:   0.016 TIME LEFT:  2.00D  GRAD.:     3.403 HEAT:  19.93310
 CYCLE:    24 TIME:   0.012 TIME LEFT:  2.00D  GRAD.:     3.849 HEAT:  19.92909
 CYCLE:    25 TIME:   0.012 TIME LEFT:  2.00D  GRAD.:     6.020 HEAT:  19.92355
 CYCLE:    26 TIME:   0.012 TIME LEFT:  2.00D  GRAD.:     3.459 HEAT:  19.91705
 CYCLE:    27 TIME:   0.016 TIME LEFT:  2.00D  GRAD.:     3.422 HEAT:  19.91390
 CYCLE:    28 TIME:   0.012 TIME LEFT:  2.00D  GRAD.:     2.204 HEAT:  19.90954
 CYCLE:    29 TIME:   0.012 TIME LEFT:  2.00D  GRAD.:     6.491 HEAT:  19.91333
 CYCLE:    30 TIME:   0.012 TIME LEFT:  2.00D  GRAD.:     4.056 HEAT:  19.90305
 CYCLE:    31 TIME:   0.012 TIME LEFT:  2.00D  GRAD.:     5.638 HEAT:  19.90474
 CYCLE:    32 TIME:   0.008 TIME LEFT:  2.00D  GRAD.:     2.344 HEAT:  19.89451
 CYCLE:    33 TIME:   0.012 TIME LEFT:  2.00D  GRAD.:     5.054 HEAT:  19.89631
 CYCLE:    34 TIME:   0.012 TIME LEFT:  2.00D  GRAD.:     1.966 HEAT:  19.88738
 CYCLE:    35 TIME:   0.012 TIME LEFT:  2.00D  GRAD.:     2.681 HEAT:  19.88541
 CYCLE:    36 TIME:   0.008 TIME LEFT:  2.00D  GRAD.:     2.002 HEAT:  19.88098
 CYCLE:    37 TIME:   0.012 TIME LEFT:  2.00D  GRAD.:     2.599 HEAT:  19.87900
 CYCLE:    38 TIME:   0.012 TIME LEFT:  2.00D  GRAD.:     1.827 HEAT:  19.87598
 CYCLE:    39 TIME:   0.012 TIME LEFT:  2.00D  GRAD.:     2.228 HEAT:  19.87406
 CYCLE:    40 TIME:   0.008 TIME LEFT:  2.00D  GRAD.:     2.485 HEAT:  19.87201
 CYCLE:    41 TIME:   0.012 TIME LEFT:  2.00D  GRAD.:     1.511 HEAT:  19.86819
 CYCLE:    42 TIME:   0.012 TIME LEFT:  2.00D  GRAD.:     1.876 HEAT:  19.86574
 CYCLE:    43 TIME:   0.012 TIME LEFT:  2.00D  GRAD.:     1.717 HEAT:  19.86182
 CYCLE:    44 TIME:   0.008 TIME LEFT:  2.00D  GRAD.:     1.768 HEAT:  19.85722
 CYCLE:    45 TIME:   0.012 TIME LEFT:  2.00D  GRAD.:     2.498 HEAT:  19.85268
 CYCLE:    46 TIME:   0.012 TIME LEFT:  2.00D  GRAD.:     1.714 HEAT:  19.84771
 CYCLE:    47 TIME:   0.012 TIME LEFT:  2.00D  GRAD.:     2.162 HEAT:  19.84221
 CYCLE:    48 TIME:   0.008 TIME LEFT:  2.00D  GRAD.:     2.490 HEAT:  19.83648
 CYCLE:    49 TIME:   0.012 TIME LEFT:  2.00D  GRAD.:     2.093 HEAT:  19.83204
 CYCLE:    50 TIME:   0.012 TIME LEFT:  2.00D  GRAD.:     1.603 HEAT:  19.82766
 CYCLE:    51 TIME:   0.012 TIME LEFT:  2.00D  GRAD.:     1.292 HEAT:  19.82397
 CYCLE:    52 TIME:   0.012 TIME LEFT:  2.00D  GRAD.:     1.137 HEAT:  19.82071
 CYCLE:    53 TIME:   0.012 TIME LEFT:  2.00D  GRAD.:     0.989 HEAT:  19.81825
 CYCLE:    54 TIME:   0.008 TIME LEFT:  2.00D  GRAD.:     0.958 HEAT:  19.81634
 CYCLE:    55 TIME:   0.012 TIME LEFT:  2.00D  GRAD.:     0.906 HEAT:  19.81480
 CYCLE:    56 TIME:   0.012 TIME LEFT:  2.00D  GRAD.:     0.719 HEAT:  19.81339
 CYCLE:    57 TIME:   0.012 TIME LEFT:  2.00D  GRAD.:     0.857 HEAT:  19.81211
 CYCLE:    58 TIME:   0.012 TIME LEFT:  2.00D  GRAD.:     0.669 HEAT:  19.81102
 CYCLE:    59 TIME:   0.012 TIME LEFT:  2.00D  GRAD.:     0.796 HEAT:  19.80989
 CYCLE:    60 TIME:   0.008 TIME LEFT:  2.00D  GRAD.:     0.957 HEAT:  19.80875
 CYCLE:    61 TIME:   0.012 TIME LEFT:  2.00D  GRAD.:     0.960 HEAT:  19.80740
 CYCLE:    62 TIME:   0.012 TIME LEFT:  2.00D  GRAD.:     0.769 HEAT:  19.80580
 CYCLE:    63 TIME:   0.012 TIME LEFT:  2.00D  GRAD.:     0.867 HEAT:  19.80394
 CYCLE:    64 TIME:   0.012 TIME LEFT:  2.00D  GRAD.:     1.014 HEAT:  19.80244
 CYCLE:    65 TIME:   0.012 TIME LEFT:  2.00D  GRAD.:     1.206 HEAT:  19.79943
 CYCLE:    66 TIME:   0.012 TIME LEFT:  2.00D  GRAD.:     1.174 HEAT:  19.79593
 CYCLE:    67 TIME:   0.012 TIME LEFT:  2.00D  GRAD.:     1.037 HEAT:  19.79288
 CYCLE:    68 TIME:   0.012 TIME LEFT:  2.00D  GRAD.:     1.072 HEAT:  19.79017
 CYCLE:    69 TIME:   0.012 TIME LEFT:  2.00D  GRAD.:     1.159 HEAT:  19.78738
 CYCLE:    70 TIME:   0.008 TIME LEFT:  2.00D  GRAD.:     1.307 HEAT:  19.78430
 CYCLE:    71 TIME:   0.012 TIME LEFT:  2.00D  GRAD.:     1.241 HEAT:  19.78090
 CYCLE:    72 TIME:   0.012 TIME LEFT:  2.00D  GRAD.:     1.131 HEAT:  19.77809
 CYCLE:    73 TIME:   0.012 TIME LEFT:  2.00D  GRAD.:     1.200 HEAT:  19.77501
 CYCLE:    74 TIME:   0.012 TIME LEFT:  2.00D  GRAD.:     1.475 HEAT:  19.77307
 CYCLE:    75 TIME:   0.012 TIME LEFT:  2.00D  GRAD.:     1.096 HEAT:  19.77043
 CYCLE:    76 TIME:   0.008 TIME LEFT:  2.00D  GRAD.:     1.002 HEAT:  19.76739
 CYCLE:    77 TIME:   0.012 TIME LEFT:  2.00D  GRAD.:     1.167 HEAT:  19.76509
 CYCLE:    78 TIME:   0.012 TIME LEFT:  2.00D  GRAD.:     1.340 HEAT:  19.76164
 CYCLE:    79 TIME:   0.012 TIME LEFT:  2.00D  GRAD.:     1.353 HEAT:  19.75769
 CYCLE:    80 TIME:   0.012 TIME LEFT:  2.00D  GRAD.:     1.739 HEAT:  19.75207
 CYCLE:    81 TIME:   0.012 TIME LEFT:  2.00D  GRAD.:     1.696 HEAT:  19.74826
 CYCLE:    82 TIME:   0.008 TIME LEFT:  2.00D  GRAD.:     2.573 HEAT:  19.73997
 CYCLE:    83 TIME:   0.012 TIME LEFT:  2.00D  GRAD.:     2.513 HEAT:  19.72842
 CYCLE:    84 TIME:   0.016 TIME LEFT:  2.00D  GRAD.:     3.710 HEAT:  19.71162
 CYCLE:    85 TIME:   0.008 TIME LEFT:  2.00D  GRAD.:     3.404 HEAT:  19.70112
 CYCLE:    86 TIME:   0.012 TIME LEFT:  2.00D  GRAD.:     3.746 HEAT:  19.68630
 CYCLE:    87 TIME:   0.012 TIME LEFT:  2.00D  GRAD.:     2.664 HEAT:  19.67381
 CYCLE:    88 TIME:   0.012 TIME LEFT:  2.00D  GRAD.:     2.827 HEAT:  19.65880
 CYCLE:    89 TIME:   0.012 TIME LEFT:  2.00D  GRAD.:     2.619 HEAT:  19.63209
 CYCLE:    90 TIME:   0.008 TIME LEFT:  2.00D  GRAD.:     4.508 HEAT:  19.62022
 CYCLE:    91 TIME:   0.012 TIME LEFT:  2.00D  GRAD.:     2.948 HEAT:  19.59898
 CYCLE:    92 TIME:   0.012 TIME LEFT:  2.00D  GRAD.:     2.587 HEAT:  19.58618
 CYCLE:    93 TIME:   0.012 TIME LEFT:  2.00D  GRAD.:     3.105 HEAT:  19.55846
 CYCLE:    94 TIME:   0.012 TIME LEFT:  2.00D  GRAD.:     4.112 HEAT:  19.54247
 CYCLE:    95 TIME:   0.008 TIME LEFT:  2.00D  GRAD.:     3.258 HEAT:  19.52855
 CYCLE:    96 TIME:   0.012 TIME LEFT:  2.00D  GRAD.:     3.068 HEAT:  19.51152
 CYCLE:    97 TIME:   0.012 TIME LEFT:  2.00D  GRAD.:     1.938 HEAT:  19.50169
 CYCLE:    98 TIME:   0.012 TIME LEFT:  2.00D  GRAD.:     1.806 HEAT:  19.49145
 CYCLE:    99 TIME:   0.016 TIME LEFT:  2.00D  GRAD.:     2.088 HEAT:  19.47875
 CYCLE:   100 TIME:   0.012 TIME LEFT:  2.00D  GRAD.:     2.292 HEAT:  19.46692
 CYCLE:   101 TIME:   0.012 TIME LEFT:  2.00D  GRAD.:     2.327 HEAT:  19.45177
 CYCLE:   102 TIME:   0.012 TIME LEFT:  2.00D  GRAD.:     2.894 HEAT:  19.43900
 CYCLE:   103 TIME:   0.012 TIME LEFT:  2.00D  GRAD.:     4.527 HEAT:  19.43404
 CYCLE:   104 TIME:   0.008 TIME LEFT:  2.00D  GRAD.:     2.225 HEAT:  19.41928
 CYCLE:   105 TIME:   0.012 TIME LEFT:  2.00D  GRAD.:     1.935 HEAT:  19.41065
 CYCLE:   106 TIME:   0.012 TIME LEFT:  2.00D  GRAD.:     2.081 HEAT:  19.39958
 CYCLE:   107 TIME:   0.012 TIME LEFT:  2.00D  GRAD.:     1.724 HEAT:  19.38799
 CYCLE:   108 TIME:   0.008 TIME LEFT:  2.00D  GRAD.:     1.446 HEAT:  19.38059
 CYCLE:   109 TIME:   0.012 TIME LEFT:  2.00D  GRAD.:     1.236 HEAT:  19.37494
 CYCLE:   110 TIME:   0.012 TIME LEFT:  2.00D  GRAD.:     1.188 HEAT:  19.37074
 CYCLE:   111 TIME:   0.012 TIME LEFT:  2.00D  GRAD.:     1.051 HEAT:  19.36707
 CYCLE:   112 TIME:   0.012 TIME LEFT:  2.00D  GRAD.:     1.081 HEAT:  19.36362
 CYCLE:   113 TIME:   0.012 TIME LEFT:  2.00D  GRAD.:     1.126 HEAT:  19.36033
 CYCLE:   114 TIME:   0.012 TIME LEFT:  2.00D  GRAD.:     1.093 HEAT:  19.35712
 CYCLE:   115 TIME:   0.012 TIME LEFT:  2.00D  GRAD.:     1.274 HEAT:  19.35391
 CYCLE:   116 TIME:   0.012 TIME LEFT:  2.00D  GRAD.:     0.979 HEAT:  19.35128
 CYCLE:   117 TIME:   0.008 TIME LEFT:  2.00D  GRAD.:     0.943 HEAT:  19.34920
 CYCLE:   118 TIME:   0.012 TIME LEFT:  2.00D  GRAD.:     0.710 HEAT:  19.34758
 CYCLE:   119 TIME:   0.012 TIME LEFT:  2.00D  GRAD.:     0.564 HEAT:  19.34636
 CYCLE:   120 TIME:   0.012 TIME LEFT:  2.00D  GRAD.:     0.486 HEAT:  19.34568
 CYCLE:   121 TIME:   0.012 TIME LEFT:  2.00D  GRAD.:     0.437 HEAT:  19.34508
 CYCLE:   122 TIME:   0.008 TIME LEFT:  2.00D  GRAD.:     0.426 HEAT:  19.34465
 CYCLE:   123 TIME:   0.012 TIME LEFT:  2.00D  GRAD.:     0.449 HEAT:  19.34419
 CYCLE:   124 TIME:   0.012 TIME LEFT:  2.00D  GRAD.:     0.508 HEAT:  19.34366
 CYCLE:   125 TIME:   0.012 TIME LEFT:  2.00D  GRAD.:     0.609 HEAT:  19.34293
 CYCLE:   126 TIME:   0.012 TIME LEFT:  2.00D  GRAD.:     0.831 HEAT:  19.34165
 CYCLE:   127 TIME:   0.008 TIME LEFT:  2.00D  GRAD.:     0.860 HEAT:  19.34046
 CYCLE:   128 TIME:   0.012 TIME LEFT:  2.00D  GRAD.:     1.100 HEAT:  19.33662
 CYCLE:   129 TIME:   0.012 TIME LEFT:  2.00D  GRAD.:     1.023 HEAT:  19.33455
 CYCLE:   130 TIME:   0.012 TIME LEFT:  2.00D  GRAD.:     1.431 HEAT:  19.32711
 CYCLE:   131 TIME:   0.012 TIME LEFT:  2.00D  GRAD.:     1.010 HEAT:  19.32496
 CYCLE:   132 TIME:   0.012 TIME LEFT:  2.00D  GRAD.:     0.743 HEAT:  19.32239
 CYCLE:   133 TIME:   0.012 TIME LEFT:  2.00D  GRAD.:     0.447 HEAT:  19.32165
 CYCLE:   134 TIME:   0.012 TIME LEFT:  2.00D  GRAD.:     0.471 HEAT:  19.32100
 CYCLE:   135 TIME:   0.008 TIME LEFT:  2.00D  GRAD.:     0.499 HEAT:  19.32062
 CYCLE:   136 TIME:   0.012 TIME LEFT:  2.00D  GRAD.:     0.361 HEAT:  19.32018
 CYCLE:   137 TIME:   0.012 TIME LEFT:  2.00D  GRAD.:     0.362 HEAT:  19.31976
 CYCLE:   138 TIME:   0.012 TIME LEFT:  2.00D  GRAD.:     0.402 HEAT:  19.31938
 CYCLE:   139 TIME:   0.012 TIME LEFT:  2.00D  GRAD.:     0.438 HEAT:  19.31888
 CYCLE:   140 TIME:   0.012 TIME LEFT:  2.00D  GRAD.:     0.550 HEAT:  19.31811
 CYCLE:   141 TIME:   0.012 TIME LEFT:  2.00D  GRAD.:     0.650 HEAT:  19.31719
 CYCLE:   142 TIME:   0.008 TIME LEFT:  2.00D  GRAD.:     0.708 HEAT:  19.31586
 CYCLE:   143 TIME:   0.012 TIME LEFT:  2.00D  GRAD.:     0.591 HEAT:  19.31498
 CYCLE:   144 TIME:   0.012 TIME LEFT:  2.00D  GRAD.:     0.654 HEAT:  19.31374
 CYCLE:   145 TIME:   0.012 TIME LEFT:  2.00D  GRAD.:     0.381 HEAT:  19.31317
 CYCLE:   146 TIME:   0.012 TIME LEFT:  2.00D  GRAD.:     0.328 HEAT:  19.31296
 CYCLE:   147 TIME:   0.012 TIME LEFT:  2.00D  GRAD.:     0.276 HEAT:  19.31273
 CYCLE:   148 TIME:   0.012 TIME LEFT:  2.00D  GRAD.:     0.309 HEAT:  19.31246
 CYCLE:   149 TIME:   0.008 TIME LEFT:  2.00D  GRAD.:     0.302 HEAT:  19.31224
 CYCLE:   150 TIME:   0.012 TIME LEFT:  2.00D  GRAD.:     0.331 HEAT:  19.31192
 CYCLE:   151 TIME:   0.012 TIME LEFT:  2.00D  GRAD.:     0.382 HEAT:  19.31169
 CYCLE:   152 TIME:   0.012 TIME LEFT:  2.00D  GRAD.:     0.398 HEAT:  19.31145
 CYCLE:   153 TIME:   0.012 TIME LEFT:  2.00D  GRAD.:     0.474 HEAT:  19.31104
 CYCLE:   154 TIME:   0.012 TIME LEFT:  2.00D  GRAD.:     0.482 HEAT:  19.31072
 CYCLE:   155 TIME:   0.012 TIME LEFT:  2.00D  GRAD.:     0.635 HEAT:  19.31002
 CYCLE:   156 TIME:   0.008 TIME LEFT:  2.00D  GRAD.:     0.516 HEAT:  19.30951
 CYCLE:   157 TIME:   0.012 TIME LEFT:  2.00D  GRAD.:     0.743 HEAT:  19.31199
 CYCLE:   158 TIME:   0.012 TIME LEFT:  2.00D  GRAD.:     0.344 HEAT:  19.30855
 CYCLE:   159 TIME:   0.016 TIME LEFT:  2.00D  GRAD.:     0.378 HEAT:  19.30818
 CYCLE:   160 TIME:   0.012 TIME LEFT:  2.00D  GRAD.:     0.772 HEAT:  19.30784
 CYCLE:   161 TIME:   0.012 TIME LEFT:  2.00D  GRAD.:     0.498 HEAT:  19.30710
 CYCLE:   162 TIME:   0.012 TIME LEFT:  2.00D  GRAD.:     0.690 HEAT:  19.30571
 CYCLE:   163 TIME:   0.012 TIME LEFT:  2.00D  GRAD.:     0.604 HEAT:  19.30494
 CYCLE:   164 TIME:   0.020 TIME LEFT:  2.00D  GRAD.:     2.821 HEAT:  19.30828
 CYCLE:   165 TIME:   0.012 TIME LEFT:  2.00D  GRAD.:     0.621 HEAT:  19.30251
 CYCLE:   166 TIME:   0.012 TIME LEFT:  2.00D  GRAD.:     0.505 HEAT:  19.30202
 CYCLE:   167 TIME:   0.012 TIME LEFT:  2.00D  GRAD.:     1.042 HEAT:  19.30090
 CYCLE:   168 TIME:   0.012 TIME LEFT:  2.00D  GRAD.:     0.590 HEAT:  19.30032
 CYCLE:   169 TIME:   0.012 TIME LEFT:  2.00D  GRAD.:     0.337 HEAT:  19.29970
 CYCLE:   170 TIME:   0.012 TIME LEFT:  2.00D  GRAD.:     0.256 HEAT:  19.29944
 CYCLE:   171 TIME:   0.012 TIME LEFT:  2.00D  GRAD.:     0.456 HEAT:  19.29932
 CYCLE:   172 TIME:   0.012 TIME LEFT:  2.00D  GRAD.:     0.280 HEAT:  19.29906
 CYCLE:   173 TIME:   0.008 TIME LEFT:  2.00D  GRAD.:     0.232 HEAT:  19.29937
 CYCLE:   174 TIME:   0.012 TIME LEFT:  2.00D  GRAD.:     0.213 HEAT:  19.29892
 CYCLE:   175 TIME:   0.012 TIME LEFT:  2.00D  GRAD.:     0.544 HEAT:  19.29920
 CYCLE:   176 TIME:   0.012 TIME LEFT:  2.00D  GRAD.:     0.252 HEAT:  19.29872
 CYCLE:   177 TIME:   0.012 TIME LEFT:  2.00D  GRAD.:     0.247 HEAT:  19.29865
 CYCLE:   178 TIME:   0.012 TIME LEFT:  2.00D  GRAD.:     0.249 HEAT:  19.29850
 CYCLE:   179 TIME:   0.012 TIME LEFT:  2.00D  GRAD.:     0.985 HEAT:  19.29579
 CYCLE:   180 TIME:   0.012 TIME LEFT:  2.00D  GRAD.:     0.682 HEAT:  19.29425
 CYCLE:   181 TIME:   0.008 TIME LEFT:  2.00D  GRAD.:     0.630 HEAT:  19.29329
 CYCLE:   182 TIME:   0.012 TIME LEFT:  2.00D  GRAD.:     0.492 HEAT:  19.29286
 CYCLE:   183 TIME:   0.012 TIME LEFT:  2.00D  GRAD.:     0.314 HEAT:  19.29251
 CYCLE:   184 TIME:   0.012 TIME LEFT:  2.00D  GRAD.:     0.229 HEAT:  19.29239
 CYCLE:   185 TIME:   0.008 TIME LEFT:  2.00D  GRAD.:     0.173 HEAT:  19.29233
 CYCLE:   186 TIME:   0.012 TIME LEFT:  2.00D  GRAD.:     0.258 HEAT:  19.29228
 CYCLE:   187 TIME:   0.012 TIME LEFT:  2.00D  GRAD.:     0.169 HEAT:  19.29223
 CYCLE:   188 TIME:   0.012 TIME LEFT:  2.00D  GRAD.:     0.304 HEAT:  19.29221
 CYCLE:   189 TIME:   0.008 TIME LEFT:  2.00D  GRAD.:     0.174 HEAT:  19.29211
 CYCLE:   190 TIME:   0.012 TIME LEFT:  2.00D  GRAD.:     0.191 HEAT:  19.29199
 CYCLE:   191 TIME:   0.012 TIME LEFT:  2.00D  GRAD.:     0.357 HEAT:  19.29195
 CYCLE:   192 TIME:   0.012 TIME LEFT:  2.00D  GRAD.:     0.314 HEAT:  19.29185
 CYCLE:   193 TIME:   0.012 TIME LEFT:  2.00D  GRAD.:     0.587 HEAT:  19.29200
 CYCLE:   194 TIME:   0.012 TIME LEFT:  2.00D  GRAD.:     0.275 HEAT:  19.29158
 CYCLE:   195 TIME:   0.008 TIME LEFT:  2.00D  GRAD.:     0.264 HEAT:  19.29145
 CYCLE:   196 TIME:   0.012 TIME LEFT:  2.00D  GRAD.:     0.454 HEAT:  19.29070
 CYCLE:   197 TIME:   0.012 TIME LEFT:  2.00D  GRAD.:     1.003 HEAT:  19.28895
 CYCLE:   198 TIME:   0.016 TIME LEFT:  2.00D  GRAD.:     2.334 HEAT:  19.28720
 CYCLE:   199 TIME:   0.008 TIME LEFT:  2.00D  GRAD.:     1.364 HEAT:  19.28527
 CYCLE:   200 TIME:   0.012 TIME LEFT:  2.00D  GRAD.:     0.556 HEAT:  19.28230
 CYCLE:   201 TIME:   0.012 TIME LEFT:  2.00D  GRAD.:     2.869 HEAT:  19.28257
 CYCLE:   202 TIME:   0.012 TIME LEFT:  2.00D  GRAD.:     0.786 HEAT:  19.27980
 CYCLE:   203 TIME:   0.012 TIME LEFT:  2.00D  GRAD.:     0.463 HEAT:  19.27847
 CYCLE:   204 TIME:   0.012 TIME LEFT:  2.00D  GRAD.:     0.983 HEAT:  19.27656
 CYCLE:   205 TIME:   0.012 TIME LEFT:  2.00D  GRAD.:     0.444 HEAT:  19.27598
 CYCLE:   206 TIME:   0.016 TIME LEFT:  2.00D  GRAD.:     0.447 HEAT:  19.27528
 CYCLE:   207 TIME:   0.012 TIME LEFT:  2.00D  GRAD.:     1.142 HEAT:  19.27459
 CYCLE:   208 TIME:   0.012 TIME LEFT:  2.00D  GRAD.:     0.418 HEAT:  19.27414
 CYCLE:   209 TIME:   0.016 TIME LEFT:  2.00D  GRAD.:     0.356 HEAT:  19.27394
 CYCLE:   210 TIME:   0.012 TIME LEFT:  2.00D  GRAD.:     0.425 HEAT:  19.27365
 CYCLE:   211 TIME:   0.012 TIME LEFT:  2.00D  GRAD.:     1.345 HEAT:  19.27415
 CYCLE:   212 TIME:   0.016 TIME LEFT:  2.00D  GRAD.:     0.283 HEAT:  19.27329
 CYCLE:   213 TIME:   0.012 TIME LEFT:  2.00D  GRAD.:     0.258 HEAT:  19.27318
 CYCLE:   214 TIME:   0.012 TIME LEFT:  2.00D  GRAD.:     1.112 HEAT:  19.27375
 CYCLE:   215 TIME:   0.016 TIME LEFT:  2.00D  GRAD.:     0.215 HEAT:  19.27286
 CYCLE:   216 TIME:   0.012 TIME LEFT:  2.00D  GRAD.:     0.213 HEAT:  19.27278
 CYCLE:   217 TIME:   0.016 TIME LEFT:  2.00D  GRAD.:     0.276 HEAT:  19.27274
 CYCLE:   218 TIME:   0.016 TIME LEFT:  2.00D  GRAD.:     0.613 HEAT:  19.27272
 CYCLE:   219 TIME:   0.012 TIME LEFT:  2.00D  GRAD.:     0.222 HEAT:  19.27234
 CYCLE:   220 TIME:   0.012 TIME LEFT:  2.00D  GRAD.:     0.304 HEAT:  19.27202
 CYCLE:   221 TIME:   0.012 TIME LEFT:  2.00D  GRAD.:     0.621 HEAT:  19.27132
 CYCLE:   222 TIME:   0.012 TIME LEFT:  2.00D  GRAD.:     0.800 HEAT:  19.27054
 CYCLE:   223 TIME:   0.016 TIME LEFT:  2.00D  GRAD.:     0.973 HEAT:  19.26266
 CYCLE:   224 TIME:   0.012 TIME LEFT:  2.00D  GRAD.:     1.694 HEAT:  19.25939
 CYCLE:   225 TIME:   0.012 TIME LEFT:  2.00D  GRAD.:     1.330 HEAT:  19.25698
 CYCLE:   226 TIME:   0.012 TIME LEFT:  2.00D  GRAD.:     1.110 HEAT:  19.25548
 CYCLE:   227 TIME:   0.012 TIME LEFT:  2.00D  GRAD.:     1.255 HEAT:  19.25390
 CYCLE:   228 TIME:   0.012 TIME LEFT:  2.00D  GRAD.:     1.189 HEAT:  19.25191
 CYCLE:   229 TIME:   0.012 TIME LEFT:  2.00D  GRAD.:     0.478 HEAT:  19.25123
 CYCLE:   230 TIME:   0.012 TIME LEFT:  2.00D  GRAD.:     0.818 HEAT:  19.25084
 CYCLE:   231 TIME:   0.012 TIME LEFT:  2.00D  GRAD.:     0.459 HEAT:  19.25051
 CYCLE:   232 TIME:   0.012 TIME LEFT:  2.00D  GRAD.:     0.387 HEAT:  19.25029
 CYCLE:   233 TIME:   0.012 TIME LEFT:  2.00D  GRAD.:     1.124 HEAT:  19.25032
 CYCLE:   234 TIME:   0.012 TIME LEFT:  2.00D  GRAD.:     0.351 HEAT:  19.24984
 CYCLE:   235 TIME:   0.012 TIME LEFT:  2.00D  GRAD.:     0.191 HEAT:  19.24977
 CYCLE:   236 TIME:   0.012 TIME LEFT:  2.00D  GRAD.:     0.175 HEAT:  19.24966
 CYCLE:   237 TIME:   0.012 TIME LEFT:  2.00D  GRAD.:     1.066 HEAT:  19.25091
 CYCLE:   238 TIME:   0.012 TIME LEFT:  2.00D  GRAD.:     0.210 HEAT:  19.24957
 CYCLE:   239 TIME:   0.012 TIME LEFT:  2.00D  GRAD.:     0.149 HEAT:  19.24953
 CYCLE:   240 TIME:   0.012 TIME LEFT:  2.00D  GRAD.:     0.504 HEAT:  19.24998
 CYCLE:   241 TIME:   0.012 TIME LEFT:  2.00D  GRAD.:     0.119 HEAT:  19.24950
 CYCLE:   242 TIME:   0.012 TIME LEFT:  2.00D  GRAD.:     0.210 HEAT:  19.24953
 CYCLE:   243 TIME:   0.012 TIME LEFT:  2.00D  GRAD.:     0.174 HEAT:  19.24946
 CYCLE:   244 TIME:   0.012 TIME LEFT:  2.00D  GRAD.:     0.210 HEAT:  19.24948
 CYCLE:   245 TIME:   0.012 TIME LEFT:  2.00D  GRAD.:     0.096 HEAT:  19.24942
 CYCLE:   246 TIME:   0.012 TIME LEFT:  2.00D  GRAD.:     2.162 HEAT:  19.25499
 CYCLE:   247 TIME:   0.012 TIME LEFT:  2.00D  GRAD.:     0.147 HEAT:  19.24941
 CYCLE:   248 TIME:   0.012 TIME LEFT:  2.00D  GRAD.:     0.091 HEAT:  19.24941
 CYCLE:   249 TIME:   0.012 TIME LEFT:  2.00D  GRAD.:     0.108 HEAT:  19.24941
 CYCLE:   250 TIME:   0.012 TIME LEFT:  2.00D  GRAD.:     0.081 HEAT:  19.24939
 CYCLE:   251 TIME:   0.008 TIME LEFT:  2.00D  GRAD.:     0.053 HEAT:  19.24939
 CYCLE:   252 TIME:   0.008 TIME LEFT:  2.00D  GRAD.:     0.073 HEAT:  19.24939
 CYCLE:   253 TIME:   0.012 TIME LEFT:  2.00D  GRAD.:     0.037 HEAT:  19.24939

     GRADIENT =  0.03702 IS LESS THAN CUTOFF =  0.05000



 -------------------------------------------------------------------------------
 pm3  precise nosym THREADS=1
 InChI=1S/C12H20/c1-4-7-10(5-2)12-9-8-11(12)6-3/h4,7-12H,5-6H2,1-3H3



     GEOMETRY OPTIMISED USING EIGENVECTOR FOLLOWING (EF).     
     SCF FIELD WAS ACHIEVED                                   


                              PM3 CALCULATION
                                                       MOPAC v23.1.2 MacOS
                                                       Tue Jun  3 16:42:49 2025




          FINAL HEAT OF FORMATION =         19.24939 KCAL/MOL =      80.53943 KJ/MOL


          COSMO AREA              =        229.61 SQUARE ANGSTROMS
          COSMO VOLUME            =        255.18 CUBIC ANGSTROMS

          GRADIENT NORM           =          0.03702          =       0.00654 PER ATOM
          IONIZATION POTENTIAL    =          9.656966 EV
          HOMO LUMO ENERGIES (EV) =         -9.657  0.992
          NO. OF FILLED LEVELS    =         34
          MOLECULAR WEIGHT        =        164.2900         POINT GROUP:  C1  

          MOLECULAR DIMENSIONS (Angstroms)

            Atom       Atom       Distance
            H    25    H    22     8.29981
            H    26    H    31     7.73194
            H    29    H    16     3.83486


          SCF CALCULATIONS        =        267

          WALL-CLOCK TIME         =      2.980 SECONDS
          COMPUTATION TIME        =      2.252 SECONDS




   ATOM   CHEMICAL          X               Y               Z
  NUMBER   SYMBOL      (ANGSTROMS)     (ANGSTROMS)     (ANGSTROMS)

     1       C         -1.04155803  *   0.59719870  *  -0.59186749  *
     2       C          0.47033074  *   0.54885729  *  -0.76860083  *
     3       C         -1.76223853  *  -0.80149741  *  -0.39423649  *
     4       C          0.99366278  *   1.92574004  *  -1.19153355  *
     5       C         -2.66223028  *  -0.92190246  *   0.81424433  *
     6       C          2.43081826  *   1.86871965  *  -1.65701963  *
     7       C         -1.87172645  *  -1.17961830  *   2.07734626  *
     8       C          2.52437005  *  -1.35458546  *   1.89957636  *
     9       C          1.10848207  *   0.13300801  *   0.52084647  *
    10       C         -2.47870600  *  -0.48280942  *  -1.70096800  *
    11       C         -1.84996817  *   0.69389364  *  -1.88193777  *
    12       C          1.89573081  *  -0.93858404  *   0.62632454  *
    13       H          0.71477200  *  -0.18909673  *  -1.57343781  *
    14       H         -1.06762882  *  -1.66496256  *  -0.46431377  *
    15       H         -1.32766543  *   1.35135792  *   0.17159128  *
    16       H          0.89309671  *   2.64065216  *  -0.35056532  *
    17       H         -3.38625898  *  -1.74270720  *   0.64239821  *
    18       H         -3.27283419  *  -0.00414190  *   0.92901816  *
    19       H          0.35204047  *   2.32528949  *  -2.00285656  *
    20       H          3.09037158  *   1.46631640  *  -0.87615417  *
    21       H          2.54580561  *   1.22841677  *  -2.54184895  *
    22       H          2.80249812  *   2.86639007  *  -1.92282619  *
    23       H         -1.12560904  *  -0.39031414  *   2.24986605  *
    24       H         -1.32797393  *  -2.13259844  *   2.02866560  *
    25       H         -2.52591492  *  -1.21769627  *   2.95725195  *
    26       H          3.61760070  *  -1.38403813  *   1.79862699  *
    27       H          2.28619072  *  -0.68226333  *   2.73471013  *
    28       H          2.19059444  *  -2.36264789  *   2.18067035  *
    29       H          2.11129441  *  -1.56980597  *  -0.24519146  *
    30       H          0.88731062  *   0.76603162  *   1.39091476  *
    31       H         -3.22865812  *  -1.05130105  *  -2.23401091  *
    32       H         -1.85816549  *   1.46915833  *  -2.63668926  *

                             CARTESIAN COORDINATES

   1    C       -1.041558034     0.597198700    -0.591867492
   2    C        0.470330739     0.548857288    -0.768600834
   3    C       -1.762238533    -0.801497410    -0.394236488
   4    C        0.993662783     1.925740041    -1.191533550
   5    C       -2.662230278    -0.921902460     0.814244333
   6    C        2.430818264     1.868719654    -1.657019631
   7    C       -1.871726453    -1.179618303     2.077346258
   8    C        2.524370052    -1.354585462     1.899576360
   9    C        1.108482067     0.133008013     0.520846473
  10    C       -2.478706000    -0.482809423    -1.700968004
  11    C       -1.849968172     0.693893638    -1.881937773
  12    C        1.895730814    -0.938584036     0.626324540
  13    H        0.714772001    -0.189096726    -1.573437809
  14    H       -1.067628818    -1.664962563    -0.464313770
  15    H       -1.327665426     1.351357919     0.171591275
  16    H        0.893096712     2.640652158    -0.350565325
  17    H       -3.386258977    -1.742707202     0.642398212
  18    H       -3.272834192    -0.004141899     0.929018163
  19    H        0.352040468     2.325289495    -2.002856562
  20    H        3.090371577     1.466316397    -0.876154166
  21    H        2.545805610     1.228416773    -2.541848946
  22    H        2.802498123     2.866390074    -1.922826191
  23    H       -1.125609037    -0.390314143     2.249866052
  24    H       -1.327973928    -2.132598440     2.028665599
  25    H       -2.525914922    -1.217696272     2.957251948
  26    H        3.617600695    -1.384038131     1.798626993
  27    H        2.286190725    -0.682263335     2.734710126
  28    H        2.190594439    -2.362647886     2.180670353
  29    H        2.111294412    -1.569805969    -0.245191461
  30    H        0.887310619     0.766031618     1.390914764
  31    H       -3.228658116    -1.051301055    -2.234010906
  32    H       -1.858165494     1.469158329    -2.636689260


           Empirical Formula: C12 H20  =    32 atoms



      MOLECULAR POINT GROUP   :   C1  


                  EIGENVALUES  
 -41.93054 -37.04280 -34.16339 -32.63736 -28.72796 -25.29594 -24.49805 -22.40684
 -21.05036 -20.08058 -19.83540 -17.78965 -17.23873 -16.48170 -15.72074 -15.47696
 -15.10000 -14.61350 -14.52040 -14.20898 -14.00175 -13.72834 -13.43159 -12.94263
 -12.69789 -12.50171 -12.22860 -12.06862 -11.95774 -11.72977 -11.32883 -11.18495
 -10.01022  -9.65697   0.99170   1.14791   3.13188   3.17950   3.27052   3.49343
   3.64924   3.78285   3.86827   3.93202   3.95195   4.00899   4.03989   4.09486
   4.19908   4.22816   4.29719   4.34722   4.38936   4.48016   4.48423   4.51711
   4.62507   4.69894   4.86263   4.95939   4.99081   5.05333   5.07531   5.22499
   5.33191   5.73331   5.97817   6.20562


              NET ATOMIC CHARGES AND DIPOLE CONTRIBUTIONS

  ATOM NO.   TYPE          CHARGE      No. of ELECS.   s-Pop       p-Pop       
    1          C          -0.066436        4.0664     1.19485     2.87159
    2          C          -0.034367        4.0344     1.16570     2.86867
    3          C          -0.068463        4.0685     1.19209     2.87637
    4          C          -0.094729        4.0947     1.16096     2.93377
    5          C          -0.084385        4.0844     1.15393     2.93046
    6          C          -0.112993        4.1130     1.13856     2.97443
    7          C          -0.114658        4.1147     1.13933     2.97533
    8          C          -0.074413        4.0744     1.12528     2.94913
    9          C          -0.147854        4.1479     1.19908     2.94877
   10          C          -0.158272        4.1583     1.22038     2.93789
   11          C          -0.159768        4.1598     1.22007     2.93970
   12          C          -0.147928        4.1479     1.19398     2.95395
   13          H           0.072499        0.9275     0.92750
   14          H           0.084003        0.9160     0.91600
   15          H           0.082403        0.9176     0.91760
   16          H           0.050338        0.9497     0.94966
   17          H           0.050126        0.9499     0.94987
   18          H           0.052305        0.9477     0.94770
   19          H           0.051549        0.9485     0.94845
   20          H           0.043657        0.9563     0.95634
   21          H           0.037643        0.9624     0.96236
   22          H           0.036906        0.9631     0.96309
   23          H           0.043375        0.9566     0.95662
   24          H           0.039114        0.9609     0.96089
   25          H           0.036893        0.9631     0.96311
   26          H           0.043872        0.9561     0.95613
   27          H           0.040814        0.9592     0.95919
   28          H           0.043702        0.9563     0.95630
   29          H           0.099660        0.9003     0.90034
   30          H           0.104395        0.8956     0.89561
   31          H           0.125028        0.8750     0.87497
   32          H           0.125983        0.8740     0.87402
 DIPOLE           X         Y         Z       TOTAL
 POINT-CHG.     0.135    -0.094     0.202     0.260
 HYBRID        -0.005     0.002    -0.029     0.030
 SUM            0.129    -0.092     0.172     0.234


          ATOMIC ORBITAL ELECTRON POPULATIONS

     Atom    s        px        py        pz   
    1  C   1.19485   0.93612   0.97127   0.96420
    2  C   1.16570   0.93528   0.97587   0.95752
    3  C   1.19209   0.96927   0.97210   0.93500
    4  C   1.16096   0.96524   0.96011   1.00843
    5  C   1.15393   0.97152   1.01640   0.94254
    6  C   1.13856   0.96086   1.00768   1.00589
    7  C   1.13933   0.99699   1.01172   0.96662
    8  C   1.12528   0.99347   1.00299   0.95267
    9  C   1.19908   0.98820   0.98013   0.98043
   10  C   1.22038   0.99151   0.97223   0.97415
   11  C   1.22007   0.98538   0.97568   0.97864
   12  C   1.19398   0.99029   0.97960   0.98406
   13  H   0.92750
   14  H   0.91600
   15  H   0.91760
   16  H   0.94966
   17  H   0.94987
   18  H   0.94770
   19  H   0.94845
   20  H   0.95634
   21  H   0.96236
   22  H   0.96309
   23  H   0.95662
   24  H   0.96089
   25  H   0.96311
   26  H   0.95613
   27  H   0.95919
   28  H   0.95630
   29  H   0.90034
   30  H   0.89561
   31  H   0.87497
   32  H   0.87402
 *******************************************************************************
 **                                                                           **
 **                              MOPAC v23.1.2                                **
 **                                                                           **
 *******************************************************************************
 **          Digital Object Identifier (DOI): 10.5281/zenodo.6511958          **
 **    Visit the DOI location for information on how to cite this program.    **
 *******************************************************************************

                              PM3 CALCULATION RESULTS

 *******************************************************************************
 *  CALCULATION DONE: (MAX THREADS = 1)              Tue Jun  3 16:42:49 2025  *
 *  PM3        - The PM3 Hamiltonian to be used
 *  OLDGEO     - PREVIOUS GEOMETRY TO BE USED
 *  PRECISE    - TIGHTER CRITERIA TO BE USED
 *  NOSYM      - POINT-GROUP SYMMETRY SET TO C1
 *  THREADS=1  - MULTI-THREADING NOT USED
 *  T=         - A TIME OF 172800.0 SECONDS REQUESTED
 *  DUMP=N     - RESTART FILE WRITTEN EVERY 7200.0 SECONDS REQUESTED
 *  THERMO     - THERMODYNAMIC QUANTITIES TO BE CALCULATED
 *******************************************************************************
oldgeo thermo nosym precise THREADS=1  pm3
 InChI=1S/C12H20/c1-4-7-10(5-2)12-9-8-11(12)6-3/h4,7-12H,5-6H2,1-3H3

   ATOM   CHEMICAL          X               Y               Z
  NUMBER   SYMBOL      (ANGSTROMS)     (ANGSTROMS)     (ANGSTROMS)

     1       C         -1.04155803  *   0.59719870  *  -0.59186749  *
     2       C          0.47033074  *   0.54885729  *  -0.76860083  *
     3       C         -1.76223853  *  -0.80149741  *  -0.39423649  *
     4       C          0.99366278  *   1.92574004  *  -1.19153355  *
     5       C         -2.66223028  *  -0.92190246  *   0.81424433  *
     6       C          2.43081826  *   1.86871965  *  -1.65701963  *
     7       C         -1.87172645  *  -1.17961830  *   2.07734626  *
     8       C          2.52437005  *  -1.35458546  *   1.89957636  *
     9       C          1.10848207  *   0.13300801  *   0.52084647  *
    10       C         -2.47870600  *  -0.48280942  *  -1.70096800  *
    11       C         -1.84996817  *   0.69389364  *  -1.88193777  *
    12       C          1.89573081  *  -0.93858404  *   0.62632454  *
    13       H          0.71477200  *  -0.18909673  *  -1.57343781  *
    14       H         -1.06762882  *  -1.66496256  *  -0.46431377  *
    15       H         -1.32766543  *   1.35135792  *   0.17159128  *
    16       H          0.89309671  *   2.64065216  *  -0.35056532  *
    17       H         -3.38625898  *  -1.74270720  *   0.64239821  *
    18       H         -3.27283419  *  -0.00414190  *   0.92901816  *
    19       H          0.35204047  *   2.32528949  *  -2.00285656  *
    20       H          3.09037158  *   1.46631640  *  -0.87615417  *
    21       H          2.54580561  *   1.22841677  *  -2.54184895  *
    22       H          2.80249812  *   2.86639007  *  -1.92282619  *
    23       H         -1.12560904  *  -0.39031414  *   2.24986605  *
    24       H         -1.32797393  *  -2.13259844  *   2.02866560  *
    25       H         -2.52591492  *  -1.21769627  *   2.95725195  *
    26       H          3.61760070  *  -1.38403813  *   1.79862699  *
    27       H          2.28619072  *  -0.68226333  *   2.73471013  *
    28       H          2.19059444  *  -2.36264789  *   2.18067035  *
    29       H          2.11129441  *  -1.56980597  *  -0.24519146  *
    30       H          0.88731062  *   0.76603162  *   1.39091476  *
    31       H         -3.22865812  *  -1.05130105  *  -2.23401091  *
    32       H         -1.85816549  *   1.46915833  *  -2.63668926  *



          CARTESIAN COORDINATES 

    NO.       ATOM           X           Y           Z

     1         C         -1.0416      0.5972     -0.5919
     2         C          0.4703      0.5489     -0.7686
     3         C         -1.7622     -0.8015     -0.3942
     4         C          0.9937      1.9257     -1.1915
     5         C         -2.6622     -0.9219      0.8142
     6         C          2.4308      1.8687     -1.6570
     7         C         -1.8717     -1.1796      2.0773
     8         C          2.5244     -1.3546      1.8996
     9         C          1.1085      0.1330      0.5208
    10         C         -2.4787     -0.4828     -1.7010
    11         C         -1.8500      0.6939     -1.8819
    12         C          1.8957     -0.9386      0.6263
    13         H          0.7148     -0.1891     -1.5734
    14         H         -1.0676     -1.6650     -0.4643
    15         H         -1.3277      1.3514      0.1716
    16         H          0.8931      2.6407     -0.3506
    17         H         -3.3863     -1.7427      0.6424
    18         H         -3.2728     -0.0041      0.9290
    19         H          0.3520      2.3253     -2.0029
    20         H          3.0904      1.4663     -0.8762
    21         H          2.5458      1.2284     -2.5418
    22         H          2.8025      2.8664     -1.9228
    23         H         -1.1256     -0.3903      2.2499
    24         H         -1.3280     -2.1326      2.0287
    25         H         -2.5259     -1.2177      2.9573
    26         H          3.6176     -1.3840      1.7986
    27         H          2.2862     -0.6823      2.7347
    28         H          2.1906     -2.3626      2.1807
    29         H          2.1113     -1.5698     -0.2452
    30         H          0.8873      0.7660      1.3909
    31         H         -3.2287     -1.0513     -2.2340
    32         H         -1.8582      1.4692     -2.6367

  H: (PM3): J. J. P. STEWART, J. COMP. CHEM. 10, 209 (1989).
  C: (PM3): J. J. P. STEWART, J. COMP. CHEM. 10, 209 (1989).

           Empirical Formula: C12 H20  =    32 atoms



      MOLECULAR POINT GROUP   :   C1  


      RHF CALCULATION, NO. OF DOUBLY OCCUPIED LEVELS = 34



          HEAT OF FORMATION =      19.249386 KCALS/MOLE


          CARTESIAN COORDINATE DERIVATIVES

   NUMBER  ATOM         X            Y            Z

     1       C      0.000034     0.000368    -0.000934
     2       C     -0.003557     0.000692    -0.000118
     3       C     -0.001644     0.001269     0.000134
     4       C     -0.002812     0.000526    -0.000181
     5       C      0.000349     0.002207    -0.000572
     6       C      0.003549     0.000637    -0.000062
     7       C      0.001036     0.000253     0.000919
     8       C      0.002277     0.000661     0.006000
     9       C     -0.000834    -0.011633     0.004920
    10       C     -0.000616     0.000086     0.003164
    11       C     -0.003250    -0.002987     0.000107
    12       C      0.004034     0.011017    -0.003129
    13       H     -0.000613    -0.000760    -0.000115
    14       H      0.000607     0.000113     0.000173
    15       H     -0.001072    -0.000251    -0.001330
    16       H     -0.001979    -0.001324    -0.001606
    17       H      0.001530     0.002957     0.000589
    18       H     -0.000683     0.001160     0.000786
    19       H      0.000109     0.000336     0.000375
    20       H     -0.002049     0.000503    -0.000253
    21       H     -0.000261     0.001291    -0.000639
    22       H      0.003607     0.000462     0.000127
    23       H     -0.005959     0.003082     0.003144
    24       H     -0.001496    -0.003109    -0.000868
    25       H     -0.000157    -0.000127     0.000222
    26       H      0.013406     0.005047     0.001883
    27       H      0.005631    -0.012089    -0.008410
    28       H     -0.008955     0.002102    -0.002392
    29       H      0.001986     0.006470     0.003681
    30       H     -0.002870    -0.006011    -0.006424
    31       H     -0.000014    -0.000026     0.000995
    32       H      0.000665    -0.002922    -0.000187



          GRADIENT NORM =   0.03526

          MOLECULAR WEIGHT =  164.29



          ROTATIONAL CONSTANTS IN CM(-1)

          A =    0.03287768   B =    0.02425963   C =    0.01544367



           PRINCIPAL MOMENTS OF INERTIA IN UNITS OF 10**(-40)*GRAM-CM**2

          A =      851.4211   B =     1153.8820   C =     1812.5715


          ORIENTATION OF MOLECULE IN FORCE CALCULATION

    NO.       ATOM         X         Y         Z

     1          C      -0.8532   -0.6067    0.4955
     2          C       0.6697   -0.6067    0.4955
     3          C      -1.5472    0.8192    0.4955
     4          C       1.1946   -2.0249    0.7435
     5          C      -2.5771    1.0585   -0.5848
     6          C       2.6772   -2.0383    1.0389
     7          C      -1.9307    1.4014   -1.9082
     8          C       2.4596    1.4633   -2.2382
     9          C       1.1668   -0.1006   -0.8235
    10          C      -2.1170    0.4103    1.8485
    11          C      -1.5091   -0.7910    1.8604
    12          C       1.9701    0.9582   -0.9364
    13          H       1.0292    0.0571    1.3215
    14          H      -0.8221    1.6583    0.5509
    15          H      -1.2498   -1.2890   -0.2859
    16          H       0.9745   -2.6660   -0.1334
    17          H      -3.2499    1.8783   -0.2643
    18          H      -3.2257    0.1671   -0.6987
    19          H       0.6391   -2.4754    1.5909
    20          H       3.2541   -1.5880    0.2197
    21          H       2.9143   -1.4756    1.9517
    22          H       3.0453   -3.0625    1.1793
    23          H      -1.2351    0.6125   -2.2295
    24          H      -1.3550    2.3348   -1.8491
    25          H      -2.6811    1.5261   -2.6988
    26          H       3.5576    1.4600   -2.2652
    27          H       2.1049    0.8673   -3.0898
    28          H       2.1276    2.4982   -2.3974
    29          H       2.3053    1.5108   -0.0494
    30          H       0.8262   -0.6550   -1.7086
    31          H      -2.7816    0.9497    2.5097
    32          H      -1.4543   -1.6252    2.5472


    FIRST DERIVATIVES WILL BE USED IN THE CALCULATION OF SECOND DERIVATIVES

          ESTIMATED TIME TO COMPLETE CALCULATION =        4.50 SECONDS

    FOR POINT-GROUP C1   THERE ARE   1 UNIQUE SYMMETRY FUNCTIONS.

 STEP:   1 TIME =     0.04 SECS, INTEGRAL =      0.04 TIME LEFT: 172799.95
 STEP:   2 TIME =     0.04 SECS, INTEGRAL =      0.07 TIME LEFT: 172799.92
 STEP:   3 TIME =     0.04 SECS, INTEGRAL =      0.11 TIME LEFT: 172799.88
 STEP:   4 TIME =     0.04 SECS, INTEGRAL =      0.15 TIME LEFT: 172799.84
 STEP:   5 TIME =     0.04 SECS, INTEGRAL =      0.18 TIME LEFT: 172799.80
 STEP:   6 TIME =     0.04 SECS, INTEGRAL =      0.22 TIME LEFT: 172799.77
 STEP:   7 TIME =     0.04 SECS, INTEGRAL =      0.26 TIME LEFT: 172799.73
 STEP:   8 TIME =     0.04 SECS, INTEGRAL =      0.29 TIME LEFT: 172799.70
 STEP:   9 TIME =     0.04 SECS, INTEGRAL =      0.33 TIME LEFT: 172799.66
 STEP:  10 TIME =     0.04 SECS, INTEGRAL =      0.36 TIME LEFT: 172799.62
 STEP:  11 TIME =     0.04 SECS, INTEGRAL =      0.40 TIME LEFT: 172799.59
 STEP:  12 TIME =     0.04 SECS, INTEGRAL =      0.44 TIME LEFT: 172799.55
 STEP:  13 TIME =     0.04 SECS, INTEGRAL =      0.48 TIME LEFT: 172799.51
 STEP:  14 TIME =     0.04 SECS, INTEGRAL =      0.52 TIME LEFT: 172799.47
 STEP:  15 TIME =     0.04 SECS, INTEGRAL =      0.55 TIME LEFT: 172799.44
 STEP:  16 TIME =     0.04 SECS, INTEGRAL =      0.59 TIME LEFT: 172799.40
 STEP:  17 TIME =     0.04 SECS, INTEGRAL =      0.63 TIME LEFT: 172799.36
 STEP:  18 TIME =     0.04 SECS, INTEGRAL =      0.67 TIME LEFT: 172799.32
 STEP:  19 TIME =     0.04 SECS, INTEGRAL =      0.71 TIME LEFT: 172799.28
 STEP:  20 TIME =     0.04 SECS, INTEGRAL =      0.75 TIME LEFT: 172799.24
 STEP:  21 TIME =     0.04 SECS, INTEGRAL =      0.79 TIME LEFT: 172799.20
 STEP:  22 TIME =     0.04 SECS, INTEGRAL =      0.82 TIME LEFT: 172799.16
 STEP:  23 TIME =     0.04 SECS, INTEGRAL =      0.86 TIME LEFT: 172799.12
 STEP:  24 TIME =     0.04 SECS, INTEGRAL =      0.90 TIME LEFT: 172799.09
 STEP:  25 TIME =     0.04 SECS, INTEGRAL =      0.93 TIME LEFT: 172799.05
 STEP:  26 TIME =     0.04 SECS, INTEGRAL =      0.97 TIME LEFT: 172799.02
 STEP:  27 TIME =     0.04 SECS, INTEGRAL =      1.01 TIME LEFT: 172798.98
 STEP:  28 TIME =     0.04 SECS, INTEGRAL =      1.05 TIME LEFT: 172798.94
 STEP:  29 TIME =     0.04 SECS, INTEGRAL =      1.09 TIME LEFT: 172798.90
 STEP:  30 TIME =     0.04 SECS, INTEGRAL =      1.12 TIME LEFT: 172798.86
 STEP:  31 TIME =     0.04 SECS, INTEGRAL =      1.16 TIME LEFT: 172798.83
 STEP:  32 TIME =     0.04 SECS, INTEGRAL =      1.20 TIME LEFT: 172798.79
 STEP:  33 TIME =     0.04 SECS, INTEGRAL =      1.23 TIME LEFT: 172798.76
 STEP:  34 TIME =     0.04 SECS, INTEGRAL =      1.27 TIME LEFT: 172798.72
 STEP:  35 TIME =     0.04 SECS, INTEGRAL =      1.30 TIME LEFT: 172798.69
 STEP:  36 TIME =     0.04 SECS, INTEGRAL =      1.34 TIME LEFT: 172798.65
 STEP:  37 TIME =     0.04 SECS, INTEGRAL =      1.38 TIME LEFT: 172798.61
 STEP:  38 TIME =     0.04 SECS, INTEGRAL =      1.42 TIME LEFT: 172798.57
 STEP:  39 TIME =     0.04 SECS, INTEGRAL =      1.46 TIME LEFT: 172798.53
 STEP:  40 TIME =     0.04 SECS, INTEGRAL =      1.50 TIME LEFT: 172798.49
 STEP:  41 TIME =     0.04 SECS, INTEGRAL =      1.53 TIME LEFT: 172798.46
 STEP:  42 TIME =     0.04 SECS, INTEGRAL =      1.57 TIME LEFT: 172798.42
 STEP:  43 TIME =     0.04 SECS, INTEGRAL =      1.61 TIME LEFT: 172798.38
 STEP:  44 TIME =     0.04 SECS, INTEGRAL =      1.64 TIME LEFT: 172798.34
 STEP:  45 TIME =     0.04 SECS, INTEGRAL =      1.68 TIME LEFT: 172798.30
 STEP:  46 TIME =     0.04 SECS, INTEGRAL =      1.72 TIME LEFT: 172798.27
 STEP:  47 TIME =     0.04 SECS, INTEGRAL =      1.76 TIME LEFT: 172798.23
 STEP:  48 TIME =     0.04 SECS, INTEGRAL =      1.79 TIME LEFT: 172798.20
 STEP:  49 TIME =     0.04 SECS, INTEGRAL =      1.83 TIME LEFT: 172798.16
 STEP:  50 TIME =     0.04 SECS, INTEGRAL =      1.87 TIME LEFT: 172798.12
 STEP:  51 TIME =     0.04 SECS, INTEGRAL =      1.91 TIME LEFT: 172798.08
 STEP:  52 TIME =     0.04 SECS, INTEGRAL =      1.95 TIME LEFT: 172798.04
 STEP:  53 TIME =     0.04 SECS, INTEGRAL =      1.98 TIME LEFT: 172798.01
 STEP:  54 TIME =     0.04 SECS, INTEGRAL =      2.02 TIME LEFT: 172797.97
 STEP:  55 TIME =     0.04 SECS, INTEGRAL =      2.06 TIME LEFT: 172797.93
 STEP:  56 TIME =     0.04 SECS, INTEGRAL =      2.09 TIME LEFT: 172797.89
 STEP:  57 TIME =     0.04 SECS, INTEGRAL =      2.13 TIME LEFT: 172797.86
 STEP:  58 TIME =     0.04 SECS, INTEGRAL =      2.16 TIME LEFT: 172797.82
 STEP:  59 TIME =     0.04 SECS, INTEGRAL =      2.20 TIME LEFT: 172797.79
 STEP:  60 TIME =     0.04 SECS, INTEGRAL =      2.24 TIME LEFT: 172797.75
 STEP:  61 TIME =     0.04 SECS, INTEGRAL =      2.28 TIME LEFT: 172797.71
 STEP:  62 TIME =     0.04 SECS, INTEGRAL =      2.31 TIME LEFT: 172797.68
 STEP:  63 TIME =     0.04 SECS, INTEGRAL =      2.35 TIME LEFT: 172797.64
 STEP:  64 TIME =     0.04 SECS, INTEGRAL =      2.38 TIME LEFT: 172797.61
 STEP:  65 TIME =     0.04 SECS, INTEGRAL =      2.42 TIME LEFT: 172797.57
 STEP:  66 TIME =     0.04 SECS, INTEGRAL =      2.46 TIME LEFT: 172797.53
 STEP:  67 TIME =     0.04 SECS, INTEGRAL =      2.50 TIME LEFT: 172797.49
 STEP:  68 TIME =     0.04 SECS, INTEGRAL =      2.54 TIME LEFT: 172797.45
 STEP:  69 TIME =     0.04 SECS, INTEGRAL =      2.58 TIME LEFT: 172797.41
 STEP:  70 TIME =     0.04 SECS, INTEGRAL =      2.61 TIME LEFT: 172797.38
 STEP:  71 TIME =     0.04 SECS, INTEGRAL =      2.65 TIME LEFT: 172797.34
 STEP:  72 TIME =     0.04 SECS, INTEGRAL =      2.69 TIME LEFT: 172797.30
 STEP:  73 TIME =     0.04 SECS, INTEGRAL =      2.73 TIME LEFT: 172797.26
 STEP:  74 TIME =     0.04 SECS, INTEGRAL =      2.77 TIME LEFT: 172797.21
 STEP:  75 TIME =     0.04 SECS, INTEGRAL =      2.81 TIME LEFT: 172797.18
 STEP:  76 TIME =     0.04 SECS, INTEGRAL =      2.85 TIME LEFT: 172797.14
 STEP:  77 TIME =     0.04 SECS, INTEGRAL =      2.89 TIME LEFT: 172797.10
 STEP:  78 TIME =     0.04 SECS, INTEGRAL =      2.93 TIME LEFT: 172797.06
 STEP:  79 TIME =     0.04 SECS, INTEGRAL =      2.97 TIME LEFT: 172797.02
 STEP:  80 TIME =     0.04 SECS, INTEGRAL =      3.01 TIME LEFT: 172796.98
 STEP:  81 TIME =     0.04 SECS, INTEGRAL =      3.04 TIME LEFT: 172796.95
 STEP:  82 TIME =     0.04 SECS, INTEGRAL =      3.08 TIME LEFT: 172796.91
 STEP:  83 TIME =     0.04 SECS, INTEGRAL =      3.11 TIME LEFT: 172796.88
 STEP:  84 TIME =     0.04 SECS, INTEGRAL =      3.16 TIME LEFT: 172796.83
 STEP:  85 TIME =     0.04 SECS, INTEGRAL =      3.20 TIME LEFT: 172796.79
 STEP:  86 TIME =     0.04 SECS, INTEGRAL =      3.23 TIME LEFT: 172796.75
 STEP:  87 TIME =     0.04 SECS, INTEGRAL =      3.27 TIME LEFT: 172796.71
 STEP:  88 TIME =     0.04 SECS, INTEGRAL =      3.31 TIME LEFT: 172796.68
 STEP:  89 TIME =     0.04 SECS, INTEGRAL =      3.35 TIME LEFT: 172796.64
 STEP:  90 TIME =     0.04 SECS, INTEGRAL =      3.39 TIME LEFT: 172796.60
 STEP:  91 TIME =     0.04 SECS, INTEGRAL =      3.43 TIME LEFT: 172796.56
 STEP:  92 TIME =     0.04 SECS, INTEGRAL =      3.46 TIME LEFT: 172796.52
 STEP:  93 TIME =     0.04 SECS, INTEGRAL =      3.50 TIME LEFT: 172796.48
 STEP:  94 TIME =     0.04 SECS, INTEGRAL =      3.55 TIME LEFT: 172796.44
 STEP:  95 TIME =     0.04 SECS, INTEGRAL =      3.59 TIME LEFT: 172796.40
 STEP:  96 TIME =     0.04 SECS, INTEGRAL =      3.62 TIME LEFT: 172796.36

(To convert to Hartree/Bohr^2, multiply by (10^(-21) x N x a0^2)/(4.184 x 627.51) =  0.0642)


           FORCE MATRIX IN MILLIDYNES/ANGSTROM


                  C  1       C  2       C  3       C  4       C  5       C  6
 ------------------------------------------------------------------------------
     C    1  14.204847
     C    2   3.991038  14.625858
     C    3   2.592491   0.463281  14.332061
     C    4   0.651423   3.766611   0.045396  14.278679
     C    5   0.483662   0.028287   4.375350   0.005923  14.507574
     C    6   0.052990   0.631281   0.008678   4.481721   0.001588  14.379782
     C    7   0.024681   0.001534   0.668191   0.000293   4.468763   0.000211
     C    8   0.021491   0.145672   0.001209   0.022136   0.000683   0.000918
     C    9   0.705174   4.641128   0.033140   0.689049   0.002812   0.046576
     C   10   2.227498   0.048121   3.932677   0.006204   0.553346   0.001354
     C   11   3.878562   0.531350   2.231904   0.045383   0.048542   0.002950
     C   12   0.037968   0.794598   0.008006   0.035282   0.002041   0.014912
     H   13   0.430646   4.173354   0.019893   0.426576   0.000925   0.036359
     H   14   0.423529   0.026369   4.408825   0.002462   0.435995   0.000721
     H   15   4.398529   0.440519   0.421692   0.025094   0.025764   0.001463
     H   16   0.019502   0.450829   0.000807   4.445609   0.000421   0.438327
     H   17   0.043721   0.005696   0.432691   0.001409   4.459854   0.000457
     H   18   0.023775   0.001416   0.450453   0.000523   4.450435   0.000152
     H   19   0.050851   0.441440   0.002242   4.428533   0.000527   0.436718
     H   20   0.001940   0.022662   0.000605   0.465003   0.000137   4.716857
     H   21   0.001707   0.021989   0.000484   0.463795   0.000094   4.721417
     H   22   0.009273   0.051141   0.001694   0.450002   0.000408   4.752756
     H   23   0.005149   0.003418   0.022718   0.000410   0.462974   0.000202
     H   24   0.001865   0.000706   0.022519   0.000174   0.463559   0.000135
     H   25   0.001640   0.000370   0.052514   0.000195   0.450874   0.000106
     H   26   0.002537   0.019733   0.000226   0.003918   0.000172   0.000235
     H   27   0.000650   0.002260   0.000166   0.000651   0.000240   0.000185
     H   28   0.003831   0.019772   0.000433   0.002440   0.000393   0.000237
     H   29   0.009643   0.084734   0.001601   0.010319   0.000820   0.000871
     H   30   0.022937   0.434174   0.003493   0.018035   0.000790   0.002727
     H   31   0.117594   0.016717   0.340580   0.001556   0.011072   0.000491
     H   32   0.338570   0.009834   0.117673   0.011371   0.016931   0.001886


                  C  7       C  8       C  9       C 10       C 11       C 12
 ------------------------------------------------------------------------------
     C    7  14.366793
     C    8   0.001531  14.714524
     C    9   0.018186   0.847249  18.123683
     C   10   0.049923   0.000996   0.008862  18.385967
     C   11   0.008371   0.003937   0.046888  10.403452  18.356112
     C   12   0.003876   5.263182  10.686945   0.001553   0.006272  18.170020
     H   13   0.000404   0.002100   0.444474   0.003410   0.019286   0.055725
     H   14   0.030264   0.000782   0.004237   0.413249   0.042738   0.005187
     H   15   0.006080   0.000703   0.025392   0.042828   0.414309   0.001664
     H   16   0.000135   0.000957   0.036208   0.000585   0.002800   0.002361
     H   17   0.440677   0.000211   0.000754   0.018253   0.003482   0.000475
     H   18   0.437070   0.000171   0.000576   0.013929   0.003057   0.000529
     H   19   0.000120   0.003828   0.048524   0.000565   0.014541   0.005383
     H   20   0.000053   0.000935   0.009303   0.000325   0.000502   0.008164
     H   21   0.000062   0.000255   0.002252   0.000211   0.000681   0.000950
     H   22   0.000069   0.000256   0.002846   0.000344   0.000624   0.000679
     H   23   4.674347   0.000674   0.009360   0.001753   0.001038   0.003629
     H   24   4.722699   0.000451   0.001012   0.001413   0.000826   0.001409
     H   25   4.758080   0.000228   0.001905   0.009023   0.001407   0.000702
     H   26   0.000210   4.709951   0.035933   0.000195   0.000345   0.439980
     H   27   0.000577   4.721327   0.041805   0.000253   0.000247   0.480824
     H   28   0.000513   4.702195   0.035363   0.000341   0.001037   0.438771
     H   29   0.000599   0.424241   0.470329   0.001122   0.002305   4.769491
     H   30   0.010279   0.085064   4.735983   0.001070   0.002915   0.467775
     H   31   0.002361   0.000394   0.002078   5.276157   0.423060   0.000572
     H   32   0.002694   0.000407   0.003724   0.423118   5.259487   0.000778


                  H 13       H 14       H 15       H 16       H 17       H 18
 ------------------------------------------------------------------------------
     H   13   4.652301
     H   14   0.018082   4.924326
     H   15   0.040251   0.022412   4.920812
     H   16   0.042383   0.000495   0.013263   5.066788
     H   17   0.000387   0.021663   0.002472   0.000124   5.066451
     H   18   0.000496   0.043014   0.025027   0.000145   0.571720   5.062255
     H   19   0.021182   0.000519   0.002982   0.568142   0.000141   0.000122
     H   20   0.002416   0.000215   0.000475   0.022757   0.000038   0.000037
     H   21   0.023324   0.000183   0.000460   0.048462   0.000035   0.000047
     H   22   0.002265   0.000162   0.000447   0.031238   0.000119   0.000054
     H   23   0.000278   0.002386   0.005938   0.000121   0.049115   0.022573
     H   24   0.000214   0.019651   0.000562   0.000072   0.026062   0.048252
     H   25   0.000168   0.002153   0.000503   0.000057   0.026865   0.031766
     H   26   0.000501   0.000211   0.000121   0.000207   0.000072   0.000065
     H   27   0.000534   0.000226   0.000207   0.000216   0.000110   0.000073
     H   28   0.000416   0.000268   0.000185   0.000173   0.000128   0.000140
     H   29   0.029735   0.002091   0.000671   0.000794   0.000199   0.000232
     H   30   0.036844   0.001198   0.016199   0.019626   0.000421   0.000384
     H   31   0.001368   0.005954   0.014583   0.000209   0.004630   0.002030
     H   32   0.002463   0.014642   0.005955   0.000879   0.001160   0.001314


                  H 19       H 20       H 21       H 22       H 23       H 24
 ------------------------------------------------------------------------------
     H   19   5.049545
     H   20   0.048683   5.449851
     H   21   0.026358   0.577196   5.464831
     H   22   0.028766   0.567877   0.573652   5.487633
     H   23   0.000160   0.000096   0.000044   0.000062   5.409789
     H   24   0.000088   0.000044   0.000029   0.000035   0.579903   5.464208
     H   25   0.000110   0.000039   0.000020   0.000027   0.562378   0.571860
     H   26   0.000864   0.000218   0.000118   0.000160   0.000229   0.000139
     H   27   0.000153   0.000169   0.000139   0.000088   0.001749   0.000233
     H   28   0.000300   0.000214   0.000083   0.000096   0.000324   0.001866
     H   29   0.002036   0.001012   0.000554   0.000395   0.000444   0.000399
     H   30   0.001764   0.001250   0.000527   0.000498   0.015950   0.000689
     H   31   0.000612   0.000144   0.000137   0.000119   0.000664   0.000641
     H   32   0.021547   0.000581   0.000445   0.000412   0.000438   0.000204


                  H 25       H 26       H 27       H 28       H 29       H 30
 ------------------------------------------------------------------------------
     H   25   5.489251
     H   26   0.000081   5.427406
     H   27   0.000086   0.564824   5.447583
     H   28   0.000123   0.575096   0.566090   5.420742
     H   29   0.000234   0.024059   0.041588   0.023302   5.147477
     H   30   0.000529   0.009641   0.029716   0.009763   0.106641   5.123919
     H   31   0.000596   0.000098   0.000095   0.000145   0.000340   0.000568
     H   32   0.000640   0.000111   0.000093   0.000136   0.000366   0.001118


                  H 31       H 32
 ------------------------------
     H   31   5.661959
     H   32   0.031261   5.647689


          HEAT OF FORMATION =      19.249386 KCALS/MOLE

          ZERO POINT ENERGY     179.598 KCAL/MOL


           NORMAL COORDINATE ANALYSIS (Total motion = 1 Angstrom)


   Root No.       1         2         3         4         5         6         7         8

                 1 A       2 A       3 A       4 A       5 A       6 A       7 A       8 A   

                  18.9      35.0      67.3      76.0      99.2     122.4     143.8     154.8
  
           1   -0.0050    0.0005    0.0019    0.0040    0.0014    0.0039   -0.0084    0.0105
           2    0.0019   -0.0035    0.0000   -0.0080    0.0023    0.0014   -0.0164    0.0094
           3   -0.0033   -0.0054   -0.0117    0.0078   -0.0080   -0.0132   -0.0074   -0.0017
           4   -0.0051    0.0004    0.0020    0.0039    0.0015    0.0044   -0.0083    0.0119
           5    0.0110    0.0019   -0.0050   -0.0084    0.0008   -0.0015   -0.0163    0.0090
           6   -0.0063   -0.0002   -0.0147    0.0006   -0.0028   -0.0008   -0.0004    0.0075
           7   -0.0144   -0.0028    0.0090    0.0021   -0.0002    0.0068    0.0130   -0.0017
           8   -0.0026   -0.0049    0.0035   -0.0089    0.0017    0.0031   -0.0049    0.0035
           9    0.0037    0.0084    0.0024   -0.0155   -0.0042   -0.0051   -0.0120   -0.0002
          10    0.0038    0.0071   -0.0004    0.0034   -0.0032   -0.0024    0.0108   -0.0039
          11    0.0135    0.0076   -0.0072   -0.0102    0.0006   -0.0005   -0.0059    0.0041
          12   -0.0089    0.0180   -0.0213   -0.0081    0.0072    0.0190    0.0109    0.0142
          13   -0.0209    0.0083   -0.0003   -0.0030   -0.0130   -0.0063    0.0043   -0.0027
          14   -0.0059    0.0099    0.0138   -0.0288   -0.0033    0.0042    0.0137   -0.0017
          15    0.0091    0.0013    0.0135   -0.0152    0.0065    0.0072    0.0005   -0.0010
          16    0.0015    0.0063   -0.0158   -0.0013   -0.0016    0.0003    0.0148   -0.0036
          17    0.0233    0.0195   -0.0012   -0.0105   -0.0048   -0.0083    0.0254   -0.0248
          18    0.0026    0.0226    0.0559    0.0153   -0.0017    0.0047   -0.0032    0.0080
          19   -0.0305    0.0229   -0.0114   -0.0115   -0.0302   -0.0247   -0.0119   -0.0096
          20    0.0091    0.0449   -0.0120    0.0373    0.0118    0.0046    0.0112    0.0006
          21    0.0084    0.0174    0.0014   -0.0023    0.0023   -0.0013   -0.0079   -0.0035
          22    0.0436   -0.0135   -0.0051   -0.0114    0.0218    0.0054   -0.0141   -0.0236
          23   -0.0244   -0.0194    0.0118    0.0072   -0.0068    0.0024    0.0048    0.0162
          24   -0.0013   -0.0259   -0.0068    0.0028    0.0051    0.0036    0.0158   -0.0125
          25   -0.0074    0.0000    0.0015   -0.0031    0.0129    0.0162   -0.0106    0.0089
          26    0.0133   -0.0121    0.0007   -0.0015   -0.0066   -0.0107   -0.0128    0.0087
          27   -0.0062   -0.0059   -0.0127    0.0007   -0.0013    0.0003    0.0004    0.0065
          28   -0.0073   -0.0134    0.0173    0.0095    0.0087    0.0125    0.0169   -0.0092
          29   -0.0108   -0.0250   -0.0018    0.0156    0.0019   -0.0004    0.0118   -0.0087
          30    0.0042   -0.0022    0.0043   -0.0050   -0.0004   -0.0037   -0.0054   -0.0068
          31   -0.0001   -0.0085    0.0080    0.0122    0.0044    0.0015   -0.0085    0.0006
          32   -0.0072   -0.0226   -0.0066    0.0172   -0.0002   -0.0059   -0.0010   -0.0036
          33   -0.0021   -0.0123   -0.0095    0.0151   -0.0065   -0.0153   -0.0058   -0.0085
          34    0.0405   -0.0111   -0.0013   -0.0006    0.0008   -0.0140    0.0025    0.0350
          35   -0.0226   -0.0051    0.0033   -0.0032    0.0029    0.0122   -0.0216   -0.0119
          36   -0.0017   -0.0194   -0.0086    0.0028    0.0009   -0.0000    0.0111   -0.0008
          37   -0.0078   -0.0043    0.0037    0.0077   -0.0015   -0.0015   -0.0167    0.0119
          38    0.0124    0.0134   -0.0093   -0.0122    0.0036    0.0045   -0.0098    0.0092
          39   -0.0062   -0.0074   -0.0118    0.0020   -0.0037   -0.0028   -0.0011    0.0068
          40   -0.0201   -0.0050    0.0134    0.0015   -0.0017    0.0075    0.0284   -0.0102
          41    0.0022   -0.0042   -0.0002   -0.0071    0.0033    0.0025   -0.0171    0.0099
          42    0.0039    0.0281    0.0001   -0.0329   -0.0122   -0.0106   -0.0228    0.0074
          43   -0.0028    0.0061   -0.0032    0.0007    0.0027    0.0075   -0.0114    0.0182
          44    0.0020    0.0048    0.0075   -0.0234    0.0037    0.0076   -0.0158    0.0119
          45   -0.0046   -0.0156   -0.0154    0.0230   -0.0097   -0.0201   -0.0055   -0.0083
          46    0.0154    0.0132    0.0496    0.0185   -0.0118   -0.0164    0.0132   -0.0195
          47    0.0166   -0.0039    0.0113   -0.0005   -0.0066   -0.0151   -0.0195    0.0015
          48   -0.0141    0.0249   -0.0473   -0.0190    0.0145    0.0332    0.0206    0.0200
          49   -0.0275   -0.0029    0.0202   -0.0430   -0.0194   -0.0025    0.0218   -0.0053
          50   -0.0144   -0.0030    0.0301   -0.0685   -0.0130    0.0037    0.0229   -0.0042
          51    0.0173    0.0109    0.0147    0.0025    0.0179    0.0164    0.0141    0.0002
          52   -0.0128    0.0174   -0.0193    0.0388   -0.0039   -0.0076   -0.0109    0.0004
          53   -0.0114    0.0068    0.0254   -0.0558   -0.0101    0.0039    0.0242   -0.0043
          54    0.0062   -0.0266    0.0307   -0.0426    0.0077    0.0155    0.0056    0.0008
          55    0.0008    0.0074   -0.0393   -0.0088   -0.0001    0.0028    0.0249   -0.0070
          56    0.0048    0.0143   -0.0323   -0.0215    0.0111    0.0195   -0.0031    0.0194
          57   -0.0155    0.0217   -0.0601   -0.0220    0.0148    0.0331    0.0214    0.0207
          58    0.0040    0.0063    0.0230    0.0105   -0.0033   -0.0012   -0.0025    0.0074
          59    0.0375    0.0131    0.0294    0.0037   -0.0232   -0.0545    0.0285   -0.0912
          60    0.0121    0.0191    0.1002    0.0315   -0.0130   -0.0216   -0.0139   -0.0205
          61   -0.0107    0.0004   -0.0693   -0.0175    0.0080    0.0179    0.0130    0.0188
          62    0.0156    0.0314   -0.0269   -0.0240    0.0092    0.0298    0.0401    0.0203
          63    0.0106    0.0168    0.0858    0.0278   -0.0129   -0.0233   -0.0117   -0.0256
          64    0.0095    0.0116   -0.0128   -0.0006   -0.0082   -0.0135    0.0366   -0.0362
          65    0.0251    0.0231   -0.0018   -0.0116   -0.0051   -0.0074    0.0344   -0.0287
          66   -0.0055    0.0356    0.0443    0.0055    0.0138    0.0477    0.0041    0.0657
          67   -0.0277    0.0387   -0.0347    0.0372   -0.0148   -0.0135   -0.0606   -0.0316
          68    0.0161    0.0608   -0.0310    0.0848    0.0273    0.0142   -0.0167   -0.0110
          69   -0.0024    0.0124   -0.0023   -0.0134   -0.0026   -0.0009   -0.0441   -0.0220
          70   -0.0362    0.0091    0.0116   -0.0667   -0.0507   -0.0409    0.0371    0.0122
          71    0.0122    0.0517   -0.0252    0.0697    0.0246    0.0153   -0.0194   -0.0132
          72    0.0128    0.0442   -0.0143    0.0227   -0.0013   -0.0142   -0.0018    0.0018
          73   -0.0359    0.0328   -0.0200   -0.0120   -0.0386   -0.0343   -0.0264   -0.0161
          74    0.0109    0.0502   -0.0007    0.0109   -0.0044   -0.0151    0.0674    0.0277
          75    0.0137    0.0088    0.0114   -0.0060    0.0077    0.0046    0.0146    0.0068
          76    0.0430   -0.0134   -0.0050   -0.0118    0.0238    0.0050   -0.0143   -0.0248
          77   -0.0792   -0.0092    0.0246   -0.0077    0.1301   -0.0862    0.0257    0.0546
          78   -0.0200   -0.0238   -0.0055   -0.0123    0.0744   -0.0103    0.0074   -0.0544
          79   -0.0010   -0.0061    0.0029   -0.0315    0.1509   -0.0537   -0.0099   -0.0357
          80    0.0084   -0.0352    0.0098    0.0233   -0.0969    0.0483    0.0115    0.0151
          81   -0.0056   -0.0179   -0.0087   -0.0001    0.0145   -0.0039    0.0095   -0.0067
          82    0.0932   -0.0232   -0.0170    0.0008   -0.0988    0.0878   -0.0348   -0.0658
          83   -0.0049   -0.0249    0.0083    0.0139   -0.0569    0.0324    0.0012    0.0069
          84    0.0224   -0.0416   -0.0046    0.0210   -0.0707    0.0287    0.0346    0.0130
          85    0.0815   -0.0195   -0.0020    0.0092   -0.0274   -0.0494    0.0211    0.0880
          86   -0.0536    0.0118    0.0001   -0.0121    0.0207    0.0363   -0.0447   -0.0419
          87    0.0020   -0.0268   -0.0064    0.0047    0.0006   -0.0015    0.0186   -0.0023
          88   -0.0472    0.0088    0.0019   -0.0123    0.0350    0.0489   -0.0289   -0.0325
          89    0.0436   -0.0286    0.0042    0.0068   -0.0213   -0.0345    0.0055    0.0350
          90   -0.0100    0.0011   -0.0150   -0.0009   -0.0004    0.0028   -0.0037    0.0057
          91   -0.0084   -0.0214    0.0265    0.0117    0.0145    0.0201    0.0337   -0.0204
          92   -0.0171   -0.0363   -0.0018    0.0272    0.0029    0.0006    0.0285   -0.0186
          93    0.0083   -0.0010    0.0135   -0.0122    0.0046    0.0032   -0.0020   -0.0100
          94    0.0068   -0.0110    0.0057    0.0187    0.0041   -0.0057   -0.0218    0.0003
          95   -0.0093   -0.0307   -0.0125    0.0308   -0.0022   -0.0123   -0.0007   -0.0072
          96   -0.0052   -0.0219   -0.0164    0.0311   -0.0089   -0.0224   -0.0044   -0.0128


   Root No.       9        10        11        12        13        14        15        16

                 9 A      10 A      11 A      12 A      13 A      14 A      15 A      16 A   

                 176.1     181.7     228.0     263.2     310.1     314.7     368.5     388.9
  
           1   -0.0080    0.0044   -0.0013   -0.0098   -0.0077   -0.0011    0.0114    0.0141
           2   -0.0063   -0.0008    0.0051   -0.0067   -0.0248    0.0129   -0.0017    0.0325
           3    0.0031    0.0076   -0.0048   -0.0163   -0.0081   -0.0124    0.0181   -0.0142
           4   -0.0091    0.0045   -0.0024   -0.0115   -0.0077   -0.0024    0.0025    0.0048
           5   -0.0035    0.0042    0.0026    0.0111    0.0057   -0.0096    0.0011    0.0067
           6   -0.0160    0.0020   -0.0186    0.0033    0.0002   -0.0001    0.0019    0.0045
           7   -0.0046   -0.0071   -0.0102    0.0119   -0.0130   -0.0184    0.0276   -0.0027
           8   -0.0055   -0.0073   -0.0004   -0.0023   -0.0287    0.0073   -0.0050    0.0270
           9    0.0033   -0.0032    0.0025   -0.0017   -0.0163   -0.0018    0.0138    0.0097
          10   -0.0023    0.0013   -0.0159   -0.0200   -0.0088   -0.0125   -0.0319    0.0033
          11   -0.0001    0.0010    0.0066    0.0108    0.0084   -0.0162   -0.0074    0.0058
          12   -0.0144   -0.0045    0.0265    0.0062    0.0136   -0.0153   -0.0007   -0.0007
          13    0.0017   -0.0042   -0.0066    0.0043   -0.0060   -0.0193    0.0440    0.0086
          14   -0.0047   -0.0105   -0.0087   -0.0310    0.0282    0.0011   -0.0057   -0.0035
          15   -0.0016   -0.0065   -0.0022   -0.0003   -0.0100   -0.0033    0.0002   -0.0118
          16   -0.0063   -0.0004   -0.0118   -0.0201   -0.0084   -0.0133   -0.0346    0.0035
          17    0.0107   -0.0101    0.0011    0.0062   -0.0063    0.0268    0.0267   -0.0021
          18    0.0057    0.0022    0.0017   -0.0033    0.0021   -0.0093   -0.0081    0.0010
          19    0.0181   -0.0040    0.0111    0.0160    0.0024    0.0061   -0.0156   -0.0016
          20   -0.0037    0.0102   -0.0026   -0.0065    0.0081   -0.0010    0.0049    0.0011
          21    0.0061   -0.0009    0.0075    0.0110   -0.0134    0.0081   -0.0267   -0.0182
          22    0.0122    0.0115    0.0094   -0.0035   -0.0026   -0.0183    0.0035   -0.0148
          23    0.0086   -0.0076    0.0283   -0.0073   -0.0079   -0.0104    0.0046   -0.0232
          24    0.0084   -0.0038    0.0075   -0.0079   -0.0037    0.0013   -0.0044    0.0260
          25   -0.0147    0.0031    0.0034   -0.0040   -0.0069    0.0410    0.0063   -0.0360
          26    0.0006    0.0050   -0.0211    0.0216    0.0216   -0.0194    0.0003   -0.0025
          27   -0.0170    0.0019   -0.0277    0.0109    0.0095    0.0167    0.0007   -0.0041
          28    0.0045   -0.0076    0.0035    0.0408    0.0157    0.0008   -0.0085    0.0106
          29    0.0017   -0.0032   -0.0038    0.0107   -0.0175   -0.0016   -0.0173   -0.0167
          30    0.0090   -0.0021    0.0071    0.0142    0.0002    0.0029    0.0007    0.0070
          31    0.0080    0.0097    0.0182   -0.0101    0.0382    0.0227    0.0055    0.0366
          32    0.0034    0.0058    0.0036   -0.0156   -0.0058    0.0096   -0.0100   -0.0038
          33    0.0127    0.0114    0.0052   -0.0179    0.0158   -0.0020    0.0154   -0.0185
          34   -0.0062   -0.0130    0.0021    0.0066    0.0033    0.0185    0.0032   -0.0249
          35   -0.0042    0.0167   -0.0178    0.0131    0.0141   -0.0026    0.0028   -0.0123
          36   -0.0040   -0.0033   -0.0143    0.0050    0.0081    0.0184   -0.0042    0.0199
          37   -0.0065    0.0069    0.0022   -0.0245   -0.0232   -0.0073    0.0147    0.0167
          38   -0.0007    0.0018    0.0201    0.0099    0.0089   -0.0206   -0.0036    0.0057
          39   -0.0185    0.0025   -0.0339    0.0098    0.0047    0.0112    0.0011    0.0005
          40   -0.0014   -0.0112   -0.0159    0.0152    0.0025   -0.0270    0.0279   -0.0258
          41   -0.0075   -0.0034    0.0048   -0.0035   -0.0397    0.0148   -0.0072    0.0445
          42    0.0005   -0.0011    0.0028   -0.0276   -0.0160   -0.0007    0.0351    0.0278
          43   -0.0181    0.0050   -0.0091    0.0010   -0.0088   -0.0063    0.0064    0.0140
          44   -0.0114   -0.0098    0.0023    0.0011   -0.0434    0.0152   -0.0017    0.0511
          45    0.0128    0.0150    0.0014   -0.0281    0.0105   -0.0115    0.0194   -0.0318
          46    0.0129    0.0023   -0.0402   -0.0303   -0.0235    0.0039   -0.0367    0.0032
          47   -0.0028    0.0070   -0.0233    0.0081   -0.0010   -0.0075   -0.0093    0.0108
          48   -0.0160   -0.0092    0.0547    0.0107    0.0242   -0.0256    0.0022   -0.0043
          49   -0.0012   -0.0111   -0.0167   -0.0259    0.0414   -0.0248    0.0392   -0.0210
          50   -0.0049   -0.0186   -0.0147   -0.0547    0.0632   -0.0001   -0.0132   -0.0215
          51   -0.0075    0.0003   -0.0090   -0.0048    0.0012   -0.0124    0.0110   -0.0290
          52    0.0028    0.0029    0.0020    0.0345   -0.0538   -0.0157    0.0509    0.0365
          53   -0.0045   -0.0140   -0.0138   -0.0518    0.0644   -0.0005   -0.0128   -0.0245
          54   -0.0088   -0.0186   -0.0108   -0.0111   -0.0128   -0.0093    0.0090   -0.0111
          55   -0.0091   -0.0039   -0.0053   -0.0176   -0.0037   -0.0120   -0.0301    0.0023
          56   -0.0027   -0.0023    0.0447    0.0185    0.0235   -0.0359   -0.0034    0.0020
          57   -0.0200   -0.0095    0.0540    0.0122    0.0256   -0.0263    0.0027   -0.0036
          58    0.0146    0.0079   -0.0290   -0.0251   -0.0107   -0.0255   -0.0548    0.0082
          59   -0.1254   -0.0219    0.0465    0.0098   -0.0032    0.0314    0.0379   -0.0063
          60   -0.0539    0.0018    0.0143   -0.0050    0.0023   -0.0159   -0.0169    0.0022
          61   -0.0040    0.0006   -0.0007   -0.0137    0.0036   -0.0343   -0.0466    0.0064
          62    0.1413   -0.0058   -0.0428    0.0014   -0.0181    0.0519    0.0445   -0.0043
          63   -0.0751   -0.0007    0.0257   -0.0020    0.0062   -0.0190   -0.0155    0.0016
          64   -0.0319   -0.0110   -0.0024   -0.0209   -0.0171    0.0192   -0.0025   -0.0042
          65    0.0230   -0.0127   -0.0033    0.0050   -0.0114    0.0418    0.0402   -0.0049
          66    0.1635    0.0115   -0.0560   -0.0111   -0.0116    0.0107    0.0001    0.0013
          67    0.0283   -0.1200    0.0009    0.0074    0.0150    0.0025   -0.0206   -0.0053
          68    0.0001   -0.0559   -0.0105   -0.0077    0.0097   -0.0089    0.0177    0.0032
          69    0.0183   -0.0883    0.0044   -0.0051    0.0104    0.0191   -0.0669   -0.0307
          70    0.0111    0.1227    0.0271    0.0289   -0.0100    0.0180   -0.0300   -0.0026
          71    0.0003   -0.0710   -0.0135   -0.0160    0.0167   -0.0091    0.0151    0.0017
          72    0.0121    0.0542    0.0256    0.0391   -0.0300    0.0236   -0.0568   -0.0231
          73    0.0291   -0.0150    0.0215    0.0232    0.0080    0.0238   -0.0620   -0.0122
          74   -0.0109    0.1741    0.0210    0.0245   -0.0193    0.0127   -0.0070    0.0022
          75   -0.0054    0.0353    0.0015    0.0094   -0.0232   -0.0061    0.0143   -0.0085
          76    0.0127    0.0120    0.0097   -0.0038   -0.0028   -0.0196    0.0035   -0.0146
          77    0.0132   -0.0296    0.0364   -0.0083   -0.0112   -0.0073    0.0051   -0.0299
          78    0.0269    0.0126    0.0154   -0.0183   -0.0103   -0.0375   -0.0044    0.0401
          79    0.0286    0.0130    0.0181   -0.0111   -0.0083   -0.0463    0.0037   -0.0076
          80    0.0144   -0.0130    0.0581   -0.0216   -0.0234   -0.0159    0.0060   -0.0313
          81   -0.0023   -0.0006   -0.0164    0.0050    0.0091    0.0162   -0.0053    0.0284
          82    0.0109    0.0342    0.0047   -0.0048   -0.0014   -0.0283    0.0035   -0.0092
          83    0.0088   -0.0035    0.0328   -0.0101   -0.0105   -0.0128    0.0049   -0.0239
          84    0.0122   -0.0236    0.0449   -0.0233   -0.0224    0.0062   -0.0029    0.0125
          85   -0.0081   -0.0368   -0.0074    0.0219    0.0184    0.0007    0.0008   -0.0124
          86   -0.0169    0.0383   -0.0338    0.0145    0.0135    0.0211    0.0068   -0.0351
          87    0.0050   -0.0078    0.0003   -0.0022    0.0021    0.0095   -0.0056    0.0292
          88   -0.0178    0.0189    0.0070   -0.0110   -0.0159    0.0790    0.0077   -0.0649
          89    0.0082   -0.0085   -0.0241    0.0294    0.0332   -0.0383   -0.0023    0.0162
[...]
 TRANSITION DIPOLE   0.0953         C  5 -- H 18         +20.3% ( 46.3%)     96.5%
 TRAVEL (Ang.)       0.2457         C  5 -- H 17         +19.7% ( 45.7%)     96.4%
 REDUCED MASS        0.3784         C  3 -- H 14          +2.3% ( 15.5%)     99.7%
 EFFECTIVE MASS      1.4762
 FORCE CONSTANT      1.9432

 VIBRATION         75   75A           ATOM PAIR      ENERGY CONTRIBUTION    RADIAL
 FREQUENCY          2958.41         C  3 -- H 14         +50.9% ( 73.1%)    100.0%
 TRANSITION DIPOLE   0.1210         C  5 -- H 18         +17.4% ( 42.7%)     96.8%
 TRAVEL (Ang.)       0.2581         C  5 -- H 17         +17.1% ( 42.3%)     96.5%
 REDUCED MASS        0.3422         C  1 -- H 15         +11.2% ( 34.2%)     99.9%
 EFFECTIVE MASS      1.4680
 FORCE CONSTANT      1.7647

 VIBRATION         76   76A           ATOM PAIR      ENERGY CONTRIBUTION    RADIAL
 FREQUENCY          3028.37         C  4 -- H 16         +44.7% ( 66.1%)     98.0%
 TRANSITION DIPOLE   0.1115         C  4 -- H 19         +38.8% ( 61.7%)     97.3%
 TRAVEL (Ang.)       0.2447         C  9 -- H 30         +14.4% ( 37.5%)    100.0%
 REDUCED MASS        0.3719         C  4 -- C  6          +0.5% (  7.2%)     26.3%
 EFFECTIVE MASS      1.3057
 FORCE CONSTANT      2.0097

 VIBRATION         77   77A           ATOM PAIR      ENERGY CONTRIBUTION    RADIAL
 FREQUENCY          3030.17         C  9 -- H 30         +83.3% ( 92.1%)    100.0%
 TRANSITION DIPOLE   0.2276         C  4 -- H 16          +7.2% ( 27.1%)     98.2%
 TRAVEL (Ang.)       0.1809         C  4 -- H 19          +6.1% ( 24.9%)     97.3%
 REDUCED MASS        0.6804         C  9 -- C 12          +1.2% ( 11.1%)     40.5%
 EFFECTIVE MASS      1.4684
 FORCE CONSTANT      3.6807

 VIBRATION         78   78A           ATOM PAIR      ENERGY CONTRIBUTION    RADIAL
 FREQUENCY          3033.21         C  5 -- H 17         +50.6% ( 70.1%)     97.9%
 TRANSITION DIPOLE   0.0301         C  5 -- H 18         +47.3% ( 67.7%)     97.5%
 TRAVEL (Ang.)       0.2160         C  5 -- C  7          +0.6% (  7.8%)     26.0%
 REDUCED MASS        0.4765         C  3 -- C  5          +0.6% (  7.7%)     29.4%
 EFFECTIVE MASS      1.2757
 FORCE CONSTANT      2.5828

 VIBRATION         79   79A           ATOM PAIR      ENERGY CONTRIBUTION    RADIAL
 FREQUENCY          3037.66         C 12 -- H 29         +94.2% ( 98.6%)    100.0%
 TRANSITION DIPOLE   0.2203         C  9 -- C 12          +1.6% ( 12.7%)     39.0%
 TRAVEL (Ang.)       0.1589         C  8 -- H 27          +1.5% ( 12.2%)     98.0%
 REDUCED MASS        0.8795         C  8 -- C 12          +1.4% ( 12.0%)     10.9%
 EFFECTIVE MASS      1.5265
 FORCE CONSTANT      4.7816

 VIBRATION         80   80A           ATOM PAIR      ENERGY CONTRIBUTION    RADIAL
 FREQUENCY          3067.90         C  7 -- H 23         +65.9% ( 83.7%)     98.7%
 TRANSITION DIPOLE   0.0434         C  7 -- H 24         +28.9% ( 55.4%)     92.8%
 TRAVEL (Ang.)       0.2007         C  7 -- H 25          +3.3% ( 18.7%)     42.2%
 REDUCED MASS        0.5455         C  5 -- C  7          +1.0% ( 10.2%)      0.0%
 EFFECTIVE MASS      1.4990
 FORCE CONSTANT      3.0248

 VIBRATION         81   81A           ATOM PAIR      ENERGY CONTRIBUTION    RADIAL
 FREQUENCY          3069.87         C  8 -- H 28         +56.7% ( 77.6%)     98.0%
 TRANSITION DIPOLE   0.0190         C  8 -- H 26         +39.9% ( 65.2%)     95.5%
 TRAVEL (Ang.)       0.2078         C  8 -- H 27          +2.1% ( 15.0%)     25.2%
 REDUCED MASS        0.5087         C  8 -- C 12          +1.0% ( 10.2%)      0.0%
 EFFECTIVE MASS      1.5014
 FORCE CONSTANT      2.8245

 VIBRATION         82   82A           ATOM PAIR      ENERGY CONTRIBUTION    RADIAL
 FREQUENCY          3075.11         C  8 -- H 27         +61.5% ( 80.8%)     98.8%
 TRANSITION DIPOLE   0.0557         C  8 -- H 26         +25.7% ( 52.3%)     90.9%
 TRAVEL (Ang.)       0.2135         C  8 -- H 28          +9.7% ( 32.2%)     73.2%
 REDUCED MASS        0.4809         C 12 -- H 29          +2.0% ( 14.5%)    100.0%
 EFFECTIVE MASS      1.5084
 FORCE CONSTANT      2.6796

 VIBRATION         83   83A           ATOM PAIR      ENERGY CONTRIBUTION    RADIAL
 FREQUENCY          3076.09         C  6 -- H 20         +53.2% ( 75.3%)     97.6%
 TRANSITION DIPOLE   0.0251         C  6 -- H 21         +44.5% ( 68.8%)     96.4%
 TRAVEL (Ang.)       0.2075         C  6 -- H 22          +1.0% ( 10.5%)      3.0%
 REDUCED MASS        0.5092         C  4 -- C  6          +1.0% ( 10.2%)      0.0%
 EFFECTIVE MASS      1.5020
 FORCE CONSTANT      2.8387

 VIBRATION         84   84A           ATOM PAIR      ENERGY CONTRIBUTION    RADIAL
 FREQUENCY          3084.32         C  6 -- H 22         +61.2% ( 80.7%)     98.7%
 TRANSITION DIPOLE   0.0128         C  6 -- H 21         +21.8% ( 48.2%)     88.4%
 TRAVEL (Ang.)       0.2146         C  6 -- H 20         +15.5% ( 40.7%)     82.9%
 REDUCED MASS        0.4746         C  4 -- C  6          +1.0% ( 10.4%)      0.0%
 EFFECTIVE MASS      1.5041
 FORCE CONSTANT      2.6598

 VIBRATION         85   85A           ATOM PAIR      ENERGY CONTRIBUTION    RADIAL
 FREQUENCY          3084.61         C  7 -- H 25         +56.6% ( 77.5%)     98.3%
 TRANSITION DIPOLE   0.0040         C  7 -- H 24         +35.3% ( 61.2%)     94.1%
 TRAVEL (Ang.)       0.2140         C  7 -- H 23          +6.6% ( 26.5%)     62.3%
 REDUCED MASS        0.4773         C  5 -- C  7          +1.0% ( 10.3%)      0.0%
 EFFECTIVE MASS      1.5040
 FORCE CONSTANT      2.6758

 VIBRATION         86   86A           ATOM PAIR      ENERGY CONTRIBUTION    RADIAL
 FREQUENCY          3168.90         C  8 -- H 27         +34.4% ( 56.5%)     97.2%
 TRANSITION DIPOLE   0.0657         C  8 -- H 26         +33.1% ( 55.4%)     97.1%
 TRAVEL (Ang.)       0.2551         C  8 -- H 28         +32.1% ( 54.5%)     97.0%
 REDUCED MASS        0.3270         C  8 -- C 12          +0.3% (  5.4%)    100.0%
 EFFECTIVE MASS      1.1393
 FORCE CONSTANT      1.9346

 VIBRATION         87   87A           ATOM PAIR      ENERGY CONTRIBUTION    RADIAL
 FREQUENCY          3175.24         C  7 -- H 25         +39.8% ( 60.7%)     97.9%
 TRANSITION DIPOLE   0.0221         C  7 -- H 24         +35.0% ( 57.0%)     97.3%
 TRAVEL (Ang.)       0.2513         C  7 -- H 23         +24.9% ( 48.0%)     95.2%
 REDUCED MASS        0.3362         C  5 -- C  7          +0.3% (  5.2%)     97.1%
 EFFECTIVE MASS      1.1393
 FORCE CONSTANT      1.9971

 VIBRATION         88   88A           ATOM PAIR      ENERGY CONTRIBUTION    RADIAL
 FREQUENCY          3178.80         C  6 -- H 22         +37.2% ( 58.7%)     97.7%
 TRANSITION DIPOLE   0.0206         C  6 -- H 21         +32.7% ( 55.0%)     97.0%
 TRAVEL (Ang.)       0.2538         C  6 -- H 20         +29.9% ( 52.6%)     96.4%
 REDUCED MASS        0.3292         C  4 -- C  6          +0.3% (  5.1%)     99.4%
 EFFECTIVE MASS      1.1368
 FORCE CONSTANT      1.9600

 VIBRATION         89   89A           ATOM PAIR      ENERGY CONTRIBUTION    RADIAL
 FREQUENCY          3190.62         C 11 -- H 32         +58.3% ( 78.2%)    100.0%
 TRANSITION DIPOLE   0.4652         C 10 -- H 31         +37.4% ( 62.7%)    100.0%
 TRAVEL (Ang.)       0.2083         C 10 -- C 11          +1.1% ( 10.6%)      2.1%
 REDUCED MASS        0.4872         C  3 -- C 11          +1.0% ( 10.3%)     99.8%
 EFFECTIVE MASS      1.4658
 FORCE CONSTANT      2.9220

 VIBRATION         90   90A           ATOM PAIR      ENERGY CONTRIBUTION    RADIAL
 FREQUENCY          3211.65         C 10 -- H 31         +56.5% ( 77.8%)     99.9%
 TRANSITION DIPOLE   0.3920         C 11 -- H 32         +36.1% ( 62.2%)     99.9%
 TRAVEL (Ang.)       0.2064         C 10 -- C 11          +3.0% ( 17.9%)     99.3%
 REDUCED MASS        0.4927         C  1 -- C 10          +1.3% ( 11.8%)     98.4%
 EFFECTIVE MASS      1.7344
 FORCE CONSTANT      2.9940

      SYMMETRY NUMBER FOR POINT-GROUP C1  =  1


          SYSTEM IS A GROUND STATE



 InChI=1S/C12H20/c1-4-7-10(5-2)12-9-8-11(12)6-3/h4,7-12H,5-6H2,1-3H3


          MOLECULE IS NOT LINEAR

          THERE ARE 90 GENUINE VIBRATIONS IN THIS SYSTEM
          THIS THERMODYNAMICS CALCULATION IS LIMITED TO
          MOLECULES WHICH HAVE NO INTERNAL ROTATIONS




                    CALCULATED THERMODYNAMIC PROPERTIES
                                          *
   TEMP. (K)   PARTITION FUNCTION   H.O.F.    ENTHALPY  HEAT CAPACITY ENTROPY
                                   KCAL/MOL   CAL/MOLE    CAL/K/MOL  CAL/K/MOL


 298.00  VIB.     0.5296D+06                  7409.4767    47.0301    51.0552
         ROT.     0.1505D+07                   888.2803     2.9808    31.2479
         INT.     0.7973D+12                  8297.7570    50.0109    82.3031
         TRA.     0.2036D+28                  1480.4672     4.9680    41.1956
         TOT.                       19.249    9778.2241    54.9789   123.4987

 200.00  VIB.     0.7710D+04                  3563.0075    32.0714    35.6010
         ROT.     0.8277D+06                   596.1613     2.9808    30.0592
         INT.     0.6381D+10                  4159.1688    35.0522    65.6602
         TRA.     0.1119D+28                   993.6021     4.9680    39.2145
         TOT.                       14.624    5152.7709    40.0202   104.8747

 210.00  VIB.     0.1204D+05                  3890.4265    33.4194    37.1983
         ROT.     0.8905D+06                   625.9693     2.9808    30.2046
         INT.     0.1073D+11                  4516.3958    36.4002    67.4029
         TRA.     0.1204D+28                  1043.2822     4.9680    39.4569
         TOT.                       15.031    5559.6781    41.3682   106.8598

 220.00  VIB.     0.1874D+05                  4231.5400    34.8107    38.7849
         ROT.     0.9549D+06                   655.7774     2.9808    30.3433
         INT.     0.1789D+11                  4887.3174    37.7915    69.1282
         TRA.     0.1291D+28                  1092.9623     4.9680    39.6880
         TOT.                       15.451    5980.2797    42.7595   108.8162

 230.00  VIB.     0.2904D+05                  4586.7892    36.2466    40.3638
         ROT.     0.1021D+07                   685.5855     2.9808    30.4758
         INT.     0.2964D+11                  5272.3746    39.2274    70.8396
         TRA.     0.1380D+28                  1142.6424     4.9680    39.9088
         TOT.                       15.886    6415.0171    44.1954   110.7484

 240.00  VIB.     0.4485D+05                  4956.6191    37.7266    41.9375
         ROT.     0.1088D+07                   715.3935     2.9808    30.6027
         INT.     0.4879D+11                  5672.0126    40.7074    72.5402
         TRA.     0.1471D+28                  1192.3226     4.9680    40.1203
         TOT.                       16.335    6864.3352    45.6754   112.6605

 250.00  VIB.     0.6905D+05                  5341.4629    39.2490    43.5083
         ROT.     0.1157D+07                   745.2016     2.9808    30.7244
         INT.     0.7987D+11                  6086.6645    42.2298    74.2327
         TRA.     0.1564D+28                  1242.0027     4.9680    40.3231
         TOT.                       16.800    7328.6672    47.1978   114.5558

 260.00  VIB.     0.1060D+06                  5741.7294    40.8106    45.0780
         ROT.     0.1227D+07                   775.0097     2.9808    30.8413
         INT.     0.1300D+12                  6516.7391    43.7914    75.9193
         TRA.     0.1659D+28                  1291.6828     4.9680    40.5179
         TOT.                       17.280    7808.4219    48.7594   116.4372

 270.00  VIB.     0.1623D+06                  6157.7934    42.4077    46.6481
         ROT.     0.1298D+07                   804.8177     2.9808    30.9538
         INT.     0.2108D+12                  6962.6111    45.3886    77.6018
         TRA.     0.1756D+28                  1341.3629     4.9680    40.7054
         TOT.                       17.775    8303.9740    50.3566   118.3072

 280.00  VIB.     0.2481D+06                  6589.9882    44.0360    48.2197
         ROT.     0.1371D+07                   834.6258     2.9808    31.0622
         INT.     0.3401D+12                  7424.6140    47.0168    79.2818
         TRA.     0.1854D+28                  1391.0430     4.9680    40.8861
         TOT.                       18.287    8815.6570    51.9848   120.1679

 290.00  VIB.     0.3783D+06                  7038.6018    45.6907    49.7937
         ROT.     0.1445D+07                   864.4339     2.9808    31.1668
         INT.     0.5467D+12                  7903.0357    48.6715    80.9605
         TRA.     0.1954D+28                  1440.7231     4.9680    41.0604
         TOT.                       18.815    9343.7587    53.6395   122.0209

 300.00  VIB.     0.5760D+06                  7503.8735    47.3668    51.3709
         ROT.     0.1521D+07                   894.2419     2.9808    31.2678
         INT.     0.8758D+12                  8398.1154    50.3476    82.6387
         TRA.     0.2056D+28                  1490.4032     4.9680    41.2289
         TOT.                       19.360    9888.5186    55.3156   123.8676

 310.00  VIB.     0.8756D+06                  7985.9932    49.0595    52.9516
         ROT.     0.1597D+07                   924.0500     2.9808    31.3656
         INT.     0.1399D+13                  8910.0432    52.0403    84.3172
         TRA.     0.2160D+28                  1540.0833     4.9680    41.3918
         TOT.                       19.921   10450.1265    57.0083   125.7090

 320.00  VIB.     0.1329D+07                  8485.1022    50.7639    54.5361
         ROT.     0.1675D+07                   953.8580     2.9808    31.4602
         INT.     0.2227D+13                  9438.9603    53.7447    85.9963
         TRA.     0.2265D+28                  1589.7634     4.9680    41.5495
         TOT.                       20.500   11028.7237    58.7127   127.5458

 330.00  VIB.     0.2016D+07                  9001.2942    52.4753    56.1244
         ROT.     0.1754D+07                   983.6661     2.9808    31.5519
         INT.     0.3537D+13                  9984.9603    55.4561    87.6763
         TRA.     0.2372D+28                  1639.4435     4.9680    41.7024
         TOT.                       21.096   11624.4038    60.4241   129.3787

 340.00  VIB.     0.3055D+07                  9534.6176    54.1895    57.7164
         ROT.     0.1835D+07                  1013.4742     2.9808    31.6409
         INT.     0.5604D+13                 10548.0918    57.1703    89.3573
         TRA.     0.2481D+28                  1689.1236     4.9680    41.8507
         TOT.                       21.708   12237.2154    62.1383   131.2080

 350.00  VIB.     0.4625D+07                 10085.0789    55.9022    59.3119
         ROT.     0.1916D+07                  1043.2822     2.9808    31.7273
         INT.     0.8861D+13                 11128.3612    58.8831    91.0392
         TRA.     0.2591D+28                  1738.8037     4.9680    41.9947
         TOT.                       22.338   12867.1649    63.8511   133.0339

 360.00  VIB.     0.6996D+07                 10652.6456    57.6099    60.9107
         ROT.     0.1999D+07                  1073.0903     2.9808    31.8113
         INT.     0.1398D+14                 11725.7359    60.5907    92.7220
         TRA.     0.2703D+28                  1788.4838     4.9680    42.1347
         TOT.                       22.985   13514.2197    65.5587   134.8566

 370.00  VIB.     0.1058D+08                 11237.2494    59.3092    62.5123
         ROT.     0.2083D+07                  1102.8984     2.9808    31.8930
         INT.     0.2203D+14                 12340.1477    62.2900    94.4053
         TRA.     0.2817D+28                  1838.1639     4.9680    42.2708
         TOT.                       23.649   14178.3117    67.2580   136.6760

 380.00  VIB.     0.1598D+08                 11838.7904    60.9969    64.1164
         ROT.     0.2168D+07                  1132.7064     2.9808    31.9724
         INT.     0.3464D+14                 12971.4968    63.9777    96.0889
         TRA.     0.2932D+28                  1887.8440     4.9680    42.4033
         TOT.                       24.331   14859.3409    68.9457   138.4921

 390.00  VIB.     0.2414D+08                 12457.1404    62.6705    65.7225
         ROT.     0.2254D+07                  1162.5145     2.9808    32.0499
         INT.     0.5440D+14                 13619.6549    65.6513    97.7724
         TRA.     0.3048D+28                  1937.5242     4.9680    42.5323
         TOT.                       25.028   15557.1791    70.6194   140.3047

 400.00  VIB.     0.3644D+08                 13092.1464    64.3277    67.3301
         ROT.     0.2341D+07                  1192.3226     2.9808    32.1253
         INT.     0.8532D+14                 14284.4689    67.3085    99.4555
         TRA.     0.3166D+28                  1987.2043     4.9680    42.6581
         TOT.                       25.743   16271.6732    72.2766   142.1136

   *: NOTE: HEATS OF FORMATION ARE RELATIVE TO THE
            ELEMENTS IN THEIR STANDARD STATE AT 298K
              (=  Standard Enthalpy of Formation).

            Hvib:  Zero-point energy is not included.
                   frequencies of less than zero cm-1 are not included.
            Hrot = (3/2)RT
            Htra = (3/2)RT + pV = (5/2)RT

            Heat capacity is Cp, not Cv

          For more information, see: HTTP://OpenMOPAC.net/Manual/thermochemistry.html


           FORCE CONSTANT IN CARTESIAN COORDINATES (Millidynes/A)

    ATOM   CHEMICAL       X               Y               Z
   NUMBER   SYMBOL  FORCE CONSTANT  FORCE CONSTANT  FORCE CONSTANT

      1       C        8.805138        6.819549        8.409132
      2       C        8.302010        8.127882        8.870142
      3       C        7.522546        8.177708        8.487658
      4       C        8.494278        7.933519        8.290016
      5       C        8.404241        8.285582        8.436601
      6       C        8.283771        8.402961        8.216983
      7       C        8.294456        8.187310        8.398181
      8       C        8.188682        8.294386        8.962382
      9       C        7.258525       10.730838        9.161965
     10       C        7.162749       11.761030        7.644882
     11       C        4.978032       13.832208        7.700584
     12       C        7.054491       10.574116        9.506292
     13       H        1.126525        2.079898        2.815692
     14       H        2.413732        3.100344        0.691065
     15       H        1.270555        2.247266        2.695436
     16       H        0.861033        2.094407        3.454671
     17       H        2.167908        3.130741        1.065991
     18       H        2.073157        3.544635        0.773797
     19       H        1.761494        1.365529        3.271346
     20       H        1.918964        1.457058        3.363347
     21       H        0.906580        1.925114        3.944486
     22       H        1.188471        4.859902        0.739694
     23       H        2.491167        3.154106        1.059971
     24       H        1.929298        4.092360        0.750457
     25       H        3.005533        0.722450        3.058554
     26       H        5.345838        0.643061        0.676247
     27       H        1.197421        2.136556        3.428352
     28       H        1.102481        4.805740        0.746446
     29       H        0.903879        1.708627        3.591554
     30       H        0.921715        1.713215        3.571631
     31       H        2.326789        1.820162        2.432747
     32       H        0.463727        3.535274        2.581938

 **********************
 *                    *
 * JOB ENDED NORMALLY *
 *                    *
 **********************



 TOTAL JOB TIME:             9.77 SECONDS

 == MOPAC DONE ==
