 *******************************************************************************
 **                                                                           **
 **                              MOPAC v23.1.2                                **
 **                                                                           **
 *******************************************************************************
 **          Digital Object Identifier (DOI): 10.5281/zenodo.6511958          **
 **    Visit the DOI location for information on how to cite this program.    **
 *******************************************************************************

                              PM3 CALCULATION RESULTS

 *******************************************************************************
 *  CALCULATION DONE: (MAX THREADS = 1)              Tue Jun  3 16:27:27 2025  *
 *  PM3        - The PM3 Hamiltonian to be used
 *  PRECISE    - TIGHTER CRITERIA TO BE USED
 *  NOSYM      - POINT-GROUP SYMMETRY SET TO C1
 *  THREADS=1  - MULTI-THREADING NOT USED
 *  T=         - A TIME OF 172800.0 SECONDS REQUESTED
 *  DUMP=N     - RESTART FILE WRITTEN EVERY 7200.0 SECONDS REQUESTED
 *******************************************************************************
pm3  precise nosym THREADS=1
 InChI=1S/C10H12/c1-8-6-7-9-4-2-3-5-10(8)9/h3-6,10H,2,7H2,1H3

   ATOM   CHEMICAL          X               Y               Z
  NUMBER   SYMBOL      (ANGSTROMS)     (ANGSTROMS)     (ANGSTROMS)

     1       C          0.10520000  *   0.33060000  *  -0.55760000  *
     2       C          0.96610000  *  -1.78370000  *   0.40270000  *
     3       C         -2.60330000  *  -0.57020000  *  -0.41170000  *
     4       C          2.24770000  *   1.76920000  *   0.04380000  *
     5       C         -0.20920000  *  -1.09290000  *  -0.20400000  *
     6       C          1.45380000  *   0.49730000  *   0.06730000  *
     7       C          1.92980000  *  -0.65220000  *   0.55400000  *
     8       C         -1.47570000  *  -1.53470000  *  -0.12470000  *
     9       C         -0.95890000  *   1.24820000  *   0.00390000  *
    10       C         -2.23750000  *   0.82600000  *   0.05490000  *
    11       H          0.16660000  *   0.44570000  *  -1.66110000  *
    12       H          1.36560000  *  -2.56240000  *  -0.28020000  *
    13       H          0.71600000  *  -2.20570000  *   1.39960000  *
    14       H         -3.53190000  *  -0.90940000  *   0.09350000  *
    15       H         -2.78210000  *  -0.54420000  *  -1.50740000  *
    16       H          2.44330000  *   2.10620000  *   1.08320000  *
    17       H          1.69080000  *   2.56450000  *  -0.49420000  *
    18       H          3.21440000  *   1.59990000  *  -0.47550000  *
    19       H          2.91260000  *  -0.75410000  *   1.00380000  *
    20       H         -0.70990000  *   2.25790000  *   0.31580000  *
    21       H         -3.01160000  *   1.48880000  *   0.42880000  *
    22       H         -1.69180000  *  -2.52490000  *   0.26510000  *



          CARTESIAN COORDINATES 

    NO.       ATOM           X           Y           Z

     1         C          0.1052      0.3306     -0.5576
     2         C          0.9661     -1.7837      0.4027
     3         C         -2.6033     -0.5702     -0.4117
     4         C          2.2477      1.7692      0.0438
     5         C         -0.2092     -1.0929     -0.2040
     6         C          1.4538      0.4973      0.0673
     7         C          1.9298     -0.6522      0.5540
     8         C         -1.4757     -1.5347     -0.1247
     9         C         -0.9589      1.2482      0.0039
    10         C         -2.2375      0.8260      0.0549
    11         H          0.1666      0.4457     -1.6611
    12         H          1.3656     -2.5624     -0.2802
    13         H          0.7160     -2.2057      1.3996
    14         H         -3.5319     -0.9094      0.0935
    15         H         -2.7821     -0.5442     -1.5074
    16         H          2.4433      2.1062      1.0832
    17         H          1.6908      2.5645     -0.4942
    18         H          3.2144      1.5999     -0.4755
    19         H          2.9126     -0.7541      1.0038
    20         H         -0.7099      2.2579      0.3158
    21         H         -3.0116      1.4888      0.4288
    22         H         -1.6918     -2.5249      0.2651

  H: (PM3): J. J. P. STEWART, J. COMP. CHEM. 10, 209 (1989).
  C: (PM3): J. J. P. STEWART, J. COMP. CHEM. 10, 209 (1989).

           Empirical Formula: C10 H12  =    22 atoms



      MOLECULAR POINT GROUP   :   C1  


      RHF CALCULATION, NO. OF DOUBLY OCCUPIED LEVELS = 26


          Geometry optimization using EF

          DIAGONAL MATRIX USED AS START HESSIAN

 CYCLE:     1 TIME:   0.008 TIME LEFT:  2.00D  GRAD.:    88.273 HEAT:  35.86941
 CYCLE:     2 TIME:   0.016 TIME LEFT:  2.00D  GRAD.:    64.083 HEAT:  34.26750
 CYCLE:     3 TIME:   0.008 TIME LEFT:  2.00D  GRAD.:    49.659 HEAT:  33.39485
 CYCLE:     4 TIME:   0.012 TIME LEFT:  2.00D  GRAD.:    40.793 HEAT:  32.94506
 CYCLE:     5 TIME:   0.008 TIME LEFT:  2.00D  GRAD.:    44.194 HEAT:  32.75836
 CYCLE:     6 TIME:   0.008 TIME LEFT:  2.00D  GRAD.:    25.578 HEAT:  32.40710
 CYCLE:     7 TIME:   0.008 TIME LEFT:  2.00D  GRAD.:    25.330 HEAT:  32.25131
 CYCLE:     8 TIME:   0.008 TIME LEFT:  2.00D  GRAD.:    18.442 HEAT:  32.08723
 CYCLE:     9 TIME:   0.008 TIME LEFT:  2.00D  GRAD.:    26.488 HEAT:  32.01345
 CYCLE:    10 TIME:   0.008 TIME LEFT:  2.00D  GRAD.:    24.964 HEAT:  31.89523
 CYCLE:    11 TIME:   0.008 TIME LEFT:  2.00D  GRAD.:    32.049 HEAT:  31.88273
 CYCLE:    12 TIME:   0.008 TIME LEFT:  2.00D  GRAD.:    26.899 HEAT:  31.78130
 CYCLE:    13 TIME:   0.008 TIME LEFT:  2.00D  GRAD.:    26.079 HEAT:  31.71378
 CYCLE:    14 TIME:   0.008 TIME LEFT:  2.00D  GRAD.:    12.960 HEAT:  31.56321
 CYCLE:    15 TIME:   0.012 TIME LEFT:  2.00D  GRAD.:     9.028 HEAT:  31.51431
 CYCLE:    16 TIME:   0.008 TIME LEFT:  2.00D  GRAD.:     8.790 HEAT:  31.48099
 CYCLE:    17 TIME:   0.008 TIME LEFT:  2.00D  GRAD.:     8.827 HEAT:  31.44226
 CYCLE:    18 TIME:   0.008 TIME LEFT:  2.00D  GRAD.:     9.222 HEAT:  31.39087
 CYCLE:    19 TIME:   0.008 TIME LEFT:  2.00D  GRAD.:    11.912 HEAT:  31.33066
 CYCLE:    20 TIME:   0.016 TIME LEFT:  2.00D  GRAD.:    13.165 HEAT:  31.31692
 CYCLE:    21 TIME:   0.008 TIME LEFT:  2.00D  GRAD.:     8.044 HEAT:  31.27302
 CYCLE:    22 TIME:   0.008 TIME LEFT:  2.00D  GRAD.:     6.481 HEAT:  31.24269
 CYCLE:    23 TIME:   0.008 TIME LEFT:  2.00D  GRAD.:     6.191 HEAT:  31.22709
 CYCLE:    24 TIME:   0.008 TIME LEFT:  2.00D  GRAD.:     6.368 HEAT:  31.21387
 CYCLE:    25 TIME:   0.004 TIME LEFT:  2.00D  GRAD.:     4.611 HEAT:  31.19576
 CYCLE:    26 TIME:   0.008 TIME LEFT:  2.00D  GRAD.:     4.829 HEAT:  31.17793
 CYCLE:    27 TIME:   0.008 TIME LEFT:  2.00D  GRAD.:     5.065 HEAT:  31.15854
 CYCLE:    28 TIME:   0.008 TIME LEFT:  2.00D  GRAD.:     5.570 HEAT:  31.14529
 CYCLE:    29 TIME:   0.008 TIME LEFT:  2.00D  GRAD.:     4.670 HEAT:  31.13425
 CYCLE:    30 TIME:   0.008 TIME LEFT:  2.00D  GRAD.:     4.062 HEAT:  31.12248
 CYCLE:    31 TIME:   0.004 TIME LEFT:  2.00D  GRAD.:     3.659 HEAT:  31.10650
 CYCLE:    32 TIME:   0.008 TIME LEFT:  2.00D  GRAD.:     3.730 HEAT:  31.08664
 CYCLE:    33 TIME:   0.008 TIME LEFT:  2.00D  GRAD.:     3.426 HEAT:  31.06878
 CYCLE:    34 TIME:   0.008 TIME LEFT:  2.00D  GRAD.:     2.805 HEAT:  31.05628
 CYCLE:    35 TIME:   0.008 TIME LEFT:  2.00D  GRAD.:     2.365 HEAT:  31.04692
 CYCLE:    36 TIME:   0.008 TIME LEFT:  2.00D  GRAD.:     1.905 HEAT:  31.04090
 CYCLE:    37 TIME:   0.008 TIME LEFT:  2.00D  GRAD.:     1.846 HEAT:  31.03557
 CYCLE:    38 TIME:   0.008 TIME LEFT:  2.00D  GRAD.:     2.024 HEAT:  31.02902
 CYCLE:    39 TIME:   0.008 TIME LEFT:  2.00D  GRAD.:     1.611 HEAT:  31.02375
 CYCLE:    40 TIME:   0.008 TIME LEFT:  2.00D  GRAD.:     1.458 HEAT:  31.01828
 CYCLE:    41 TIME:   0.004 TIME LEFT:  2.00D  GRAD.:     1.292 HEAT:  31.01452
 CYCLE:    42 TIME:   0.008 TIME LEFT:  2.00D  GRAD.:     1.403 HEAT:  31.01068
 CYCLE:    43 TIME:   0.008 TIME LEFT:  2.00D  GRAD.:     1.536 HEAT:  31.00615
 CYCLE:    44 TIME:   0.008 TIME LEFT:  2.00D  GRAD.:     1.526 HEAT:  31.00124
 CYCLE:    45 TIME:   0.008 TIME LEFT:  2.00D  GRAD.:     1.325 HEAT:  30.99733
 CYCLE:    46 TIME:   0.008 TIME LEFT:  2.00D  GRAD.:     1.174 HEAT:  30.99412
 CYCLE:    47 TIME:   0.004 TIME LEFT:  2.00D  GRAD.:     1.228 HEAT:  30.99084
 CYCLE:    48 TIME:   0.008 TIME LEFT:  2.00D  GRAD.:     1.074 HEAT:  30.98779
 CYCLE:    49 TIME:   0.008 TIME LEFT:  2.00D  GRAD.:     0.950 HEAT:  30.98528
 CYCLE:    50 TIME:   0.008 TIME LEFT:  2.00D  GRAD.:     0.865 HEAT:  30.98359
 CYCLE:    51 TIME:   0.008 TIME LEFT:  2.00D  GRAD.:     0.854 HEAT:  30.98185
 CYCLE:    52 TIME:   0.008 TIME LEFT:  2.00D  GRAD.:     0.770 HEAT:  30.98035
 CYCLE:    53 TIME:   0.008 TIME LEFT:  2.00D  GRAD.:     0.580 HEAT:  30.97935
 CYCLE:    54 TIME:   0.004 TIME LEFT:  2.00D  GRAD.:     0.539 HEAT:  30.97870
 CYCLE:    55 TIME:   0.008 TIME LEFT:  2.00D  GRAD.:     0.645 HEAT:  30.97787
 CYCLE:    56 TIME:   0.008 TIME LEFT:  2.00D  GRAD.:     0.789 HEAT:  30.97658
 CYCLE:    57 TIME:   0.008 TIME LEFT:  2.00D  GRAD.:     0.844 HEAT:  30.97475
 CYCLE:    58 TIME:   0.008 TIME LEFT:  2.00D  GRAD.:     0.726 HEAT:  30.97368
 CYCLE:    59 TIME:   0.008 TIME LEFT:  2.00D  GRAD.:     1.230 HEAT:  30.97134
 CYCLE:    60 TIME:   0.008 TIME LEFT:  2.00D  GRAD.:     1.190 HEAT:  30.96987
 CYCLE:    61 TIME:   0.008 TIME LEFT:  2.00D  GRAD.:     1.679 HEAT:  30.95905
 CYCLE:    62 TIME:   0.008 TIME LEFT:  2.00D  GRAD.:     1.609 HEAT:  30.95548
 CYCLE:    63 TIME:   0.008 TIME LEFT:  2.00D  GRAD.:     1.469 HEAT:  30.94806
 CYCLE:    64 TIME:   0.008 TIME LEFT:  2.00D  GRAD.:     5.008 HEAT:  30.94997
 CYCLE:    65 TIME:   0.008 TIME LEFT:  2.00D  GRAD.:     1.475 HEAT:  30.93485
 CYCLE:    66 TIME:   0.008 TIME LEFT:  2.00D  GRAD.:     1.475 HEAT:  30.92583
 CYCLE:    67 TIME:   0.016 TIME LEFT:  2.00D  GRAD.:     3.106 HEAT:  30.90661
 CYCLE:    68 TIME:   0.008 TIME LEFT:  2.00D  GRAD.:     2.182 HEAT:  30.89759
 CYCLE:    69 TIME:   0.008 TIME LEFT:  2.00D  GRAD.:     3.563 HEAT:  30.88676
 CYCLE:    70 TIME:   0.008 TIME LEFT:  2.00D  GRAD.:     3.339 HEAT:  30.86652
 CYCLE:    71 TIME:   0.008 TIME LEFT:  2.00D  GRAD.:     4.868 HEAT:  30.82724
 CYCLE:    72 TIME:   0.008 TIME LEFT:  2.00D  GRAD.:     5.576 HEAT:  30.81636
 CYCLE:    73 TIME:   0.008 TIME LEFT:  2.00D  GRAD.:     8.069 HEAT:  30.79181
 CYCLE:    74 TIME:   0.008 TIME LEFT:  2.00D  GRAD.:     3.309 HEAT:  30.76539
 CYCLE:    75 TIME:   0.004 TIME LEFT:  2.00D  GRAD.:     2.348 HEAT:  30.74833
 CYCLE:    76 TIME:   0.012 TIME LEFT:  2.00D  GRAD.:     7.748 HEAT:  30.73010
 CYCLE:    77 TIME:   0.008 TIME LEFT:  2.00D  GRAD.:     2.091 HEAT:  30.70965
 CYCLE:    78 TIME:   0.008 TIME LEFT:  2.00D  GRAD.:     2.141 HEAT:  30.70131
 CYCLE:    79 TIME:   0.008 TIME LEFT:  2.00D  GRAD.:     7.226 HEAT:  30.70103
 CYCLE:    80 TIME:   0.008 TIME LEFT:  2.00D  GRAD.:     1.342 HEAT:  30.68102
 CYCLE:    81 TIME:   0.008 TIME LEFT:  2.00D  GRAD.:     1.807 HEAT:  30.67680
 CYCLE:    82 TIME:   0.008 TIME LEFT:  2.00D  GRAD.:     4.836 HEAT:  30.66812
 CYCLE:    83 TIME:   0.008 TIME LEFT:  2.00D  GRAD.:     3.315 HEAT:  30.65948
 CYCLE:    84 TIME:   0.008 TIME LEFT:  2.00D  GRAD.:     2.446 HEAT:  30.63921
 CYCLE:    85 TIME:   0.004 TIME LEFT:  2.00D  GRAD.:     1.884 HEAT:  30.62430
 CYCLE:    86 TIME:   0.012 TIME LEFT:  2.00D  GRAD.:     5.630 HEAT:  30.61581
 CYCLE:    87 TIME:   0.008 TIME LEFT:  2.00D  GRAD.:     3.220 HEAT:  30.60416
 CYCLE:    88 TIME:   0.008 TIME LEFT:  2.00D  GRAD.:     2.200 HEAT:  30.59392
 CYCLE:    89 TIME:   0.008 TIME LEFT:  2.00D  GRAD.:     5.264 HEAT:  30.57389
 CYCLE:    90 TIME:   0.004 TIME LEFT:  2.00D  GRAD.:     2.930 HEAT:  30.56058
 CYCLE:    91 TIME:   0.008 TIME LEFT:  2.00D  GRAD.:     2.395 HEAT:  30.54845
 CYCLE:    92 TIME:   0.016 TIME LEFT:  2.00D  GRAD.:     2.600 HEAT:  30.53585
 CYCLE:    93 TIME:   0.008 TIME LEFT:  2.00D  GRAD.:     1.418 HEAT:  30.53063
 CYCLE:    94 TIME:   0.008 TIME LEFT:  2.00D  GRAD.:     2.300 HEAT:  30.52665
 CYCLE:    95 TIME:   0.004 TIME LEFT:  2.00D  GRAD.:     1.065 HEAT:  30.52385
 CYCLE:    96 TIME:   0.008 TIME LEFT:  2.00D  GRAD.:     0.805 HEAT:  30.52215
 CYCLE:    97 TIME:   0.008 TIME LEFT:  2.00D  GRAD.:     1.233 HEAT:  30.52061
 CYCLE:    98 TIME:   0.008 TIME LEFT:  2.00D  GRAD.:     1.266 HEAT:  30.51901
 CYCLE:    99 TIME:   0.008 TIME LEFT:  2.00D  GRAD.:     1.318 HEAT:  30.51712
 CYCLE:   100 TIME:   0.008 TIME LEFT:  2.00D  GRAD.:     0.540 HEAT:  30.51587
 CYCLE:   101 TIME:   0.008 TIME LEFT:  2.00D  GRAD.:     0.364 HEAT:  30.51472
 CYCLE:   102 TIME:   0.008 TIME LEFT:  2.00D  GRAD.:     0.521 HEAT:  30.51405
 CYCLE:   103 TIME:   0.008 TIME LEFT:  2.00D  GRAD.:     0.249 HEAT:  30.51381
 CYCLE:   104 TIME:   0.008 TIME LEFT:  2.00D  GRAD.:     0.199 HEAT:  30.51368
 CYCLE:   105 TIME:   0.008 TIME LEFT:  2.00D  GRAD.:     0.185 HEAT:  30.51359
 CYCLE:   106 TIME:   0.008 TIME LEFT:  2.00D  GRAD.:     0.173 HEAT:  30.51353
 CYCLE:   107 TIME:   0.008 TIME LEFT:  2.00D  GRAD.:     0.270 HEAT:  30.51349
 CYCLE:   108 TIME:   0.008 TIME LEFT:  2.00D  GRAD.:     0.122 HEAT:  30.51344
 CYCLE:   109 TIME:   0.008 TIME LEFT:  2.00D  GRAD.:     0.078 HEAT:  30.51342
 CYCLE:   110 TIME:   0.004 TIME LEFT:  2.00D  GRAD.:     0.088 HEAT:  30.51341
 CYCLE:   111 TIME:   0.008 TIME LEFT:  2.00D  GRAD.:     0.058 HEAT:  30.51340
 CYCLE:   112 TIME:   0.008 TIME LEFT:  2.00D  GRAD.:     0.071 HEAT:  30.51338
 CYCLE:   113 TIME:   0.008 TIME LEFT:  2.00D  GRAD.:     0.057 HEAT:  30.51337
 CYCLE:   114 TIME:   0.004 TIME LEFT:  2.00D  GRAD.:     0.056 HEAT:  30.51336
 CYCLE:   115 TIME:   0.008 TIME LEFT:  2.00D  GRAD.:     0.037 HEAT:  30.51336

     GRADIENT =  0.03676 IS LESS THAN CUTOFF =  0.05000



 -------------------------------------------------------------------------------
 pm3  precise nosym THREADS=1
 InChI=1S/C10H12/c1-8-6-7-9-4-2-3-5-10(8)9/h3-6,10H,2,7H2,1H3



     GEOMETRY OPTIMISED USING EIGENVECTOR FOLLOWING (EF).     
     SCF FIELD WAS ACHIEVED                                   


                              PM3 CALCULATION
                                                       MOPAC v23.1.2 MacOS
                                                       Tue Jun  3 16:27:28 2025




          FINAL HEAT OF FORMATION =         30.51336 KCAL/MOL =     127.66791 KJ/MOL


          COSMO AREA              =        174.78 SQUARE ANGSTROMS
          COSMO VOLUME            =        178.28 CUBIC ANGSTROMS

          GRADIENT NORM           =          0.03676          =       0.00784 PER ATOM
          IONIZATION POTENTIAL    =          9.093527 EV
          HOMO LUMO ENERGIES (EV) =         -9.094  0.963
          NO. OF FILLED LEVELS    =         26
          MOLECULAR WEIGHT        =        132.2048         POINT GROUP:  C1  

          MOLECULAR DIMENSIONS (Angstroms)

            Atom       Atom       Distance
            H    18    H    14     7.16853
            H    21    H    12     5.41816
            H    11    H    13     3.25346


          SCF CALCULATIONS        =        127

          WALL-CLOCK TIME         =      0.922 SECONDS
          COMPUTATION TIME        =      0.587 SECONDS




   ATOM   CHEMICAL          X               Y               Z
  NUMBER   SYMBOL      (ANGSTROMS)     (ANGSTROMS)     (ANGSTROMS)

     1       C          0.11483918  *   0.31940366  *  -0.51406924  *
     2       C          1.01051646  *  -1.81236780  *   0.28566795  *
     3       C         -2.61531963  *  -0.55213366  *  -0.29990916  *
     4       C          2.17826752  *   1.79510454  *   0.11465390  *
     5       C         -0.23872748  *  -1.09931125  *  -0.13300614  *
     6       C          1.49739939  *   0.48966348  *   0.07097164  *
     7       C          1.99320367  *  -0.69268028  *   0.47715823  *
     8       C         -1.50333235  *  -1.51427082  *  -0.05134701  *
     9       C         -0.94778939  *   1.26538992  *  -0.07311546  *
    10       C         -2.21780657  *   0.85609212  *  -0.00261162  *
    11       H          0.19322040  *   0.40304583  *  -1.62795673  *
    12       H          1.35792779  *  -2.52346196  *  -0.48747964  *
    13       H          0.86658320  *  -2.39610724  *   1.21322314  *
    14       H         -3.49365639  *  -0.83178261  *   0.31371904  *
    15       H         -2.94374734  *  -0.62338771  *  -1.35739315  *
    16       H          1.64419337  *   2.49037212  *   0.77750829  *
    17       H          2.21378584  *   2.25013747  *  -0.88427734  *
    18       H          3.20851240  *   1.70600672  *   0.48239105  *
    19       H          2.98146615  *  -0.86928263  *   0.90067083  *
    20       H         -0.64623214  *   2.29063429  *   0.16404385  *
    21       H         -3.02100696  *   1.54339279  *   0.28171417  *
    22       H         -1.76287241  *  -2.53695316  *   0.23715510  *

                             CARTESIAN COORDINATES

   1    C        0.114839179     0.319403659    -0.514069242
   2    C        1.010516459    -1.812367800     0.285667954
   3    C       -2.615319625    -0.552133662    -0.299909164
   4    C        2.178267517     1.795104537     0.114653900
   5    C       -0.238727476    -1.099311255    -0.133006141
   6    C        1.497399394     0.489663479     0.070971643
   7    C        1.993203672    -0.692680282     0.477158225
   8    C       -1.503332353    -1.514270822    -0.051347013
   9    C       -0.947789386     1.265389918    -0.073115460
  10    C       -2.217806566     0.856092119    -0.002611615
  11    H        0.193220402     0.403045835    -1.627956725
  12    H        1.357927795    -2.523461960    -0.487479643
  13    H        0.866583204    -2.396107243     1.213223138
  14    H       -3.493656386    -0.831782613     0.313719035
  15    H       -2.943747335    -0.623387706    -1.357393153
  16    H        1.644193371     2.490372115     0.777508290
  17    H        2.213785840     2.250137475    -0.884277342
  18    H        3.208512396     1.706006720     0.482391049
  19    H        2.981466152    -0.869282633     0.900670834
  20    H       -0.646232139     2.290634285     0.164043846
  21    H       -3.021006964     1.543392793     0.281714166
  22    H       -1.762872414    -2.536953157     0.237155105


           Empirical Formula: C10 H12  =    22 atoms



      MOLECULAR POINT GROUP   :   C1  


                  EIGENVALUES  
 -41.70557 -35.59796 -32.14862 -28.87496 -27.08996 -24.42905 -21.59171 -20.01750
 -18.74143 -16.86421 -16.44286 -16.04300 -15.80645 -14.93707 -14.42136 -14.24364
 -14.04939 -13.85256 -13.18737 -12.96770 -12.73783 -12.46017 -11.64042 -10.05889
  -9.73258  -9.09353   0.96276   1.00426   1.19619   3.23443   3.29537   3.42754
   3.55529   3.59747   3.75308   3.91924   4.03032   4.16004   4.33412   4.35024
   4.37533   4.44367   4.53198   4.62040   4.65662   4.77319   5.35028   5.45322
   5.56834   5.97922   6.13387   6.18669


              NET ATOMIC CHARGES AND DIPOLE CONTRIBUTIONS

  ATOM NO.   TYPE          CHARGE      No. of ELECS.   s-Pop       p-Pop       
    1          C           0.034811        3.9652     1.14250     2.82269
    2          C          -0.009667        4.0097     1.13631     2.87336
    3          C          -0.018245        4.0182     1.13297     2.88527
    4          C          -0.051548        4.0515     1.11731     2.93424
    5          C          -0.129858        4.1299     1.20712     2.92274
    6          C          -0.123020        4.1230     1.20373     2.91929
    7          C          -0.160494        4.1605     1.20262     2.95787
    8          C          -0.145583        4.1456     1.18852     2.95706
    9          C          -0.136597        4.1366     1.19315     2.94345
   10          C          -0.149690        4.1497     1.19576     2.95393
   11          H           0.082644        0.9174     0.91736
   12          H           0.063386        0.9366     0.93661
   13          H           0.062028        0.9380     0.93797
   14          H           0.055620        0.9444     0.94438
   15          H           0.063123        0.9369     0.93688
   16          H           0.047823        0.9522     0.95218
   17          H           0.044818        0.9552     0.95518
   18          H           0.042979        0.9570     0.95702
   19          H           0.114400        0.8856     0.88560
   20          H           0.107070        0.8929     0.89293
   21          H           0.100066        0.8999     0.89993
   22          H           0.105933        0.8941     0.89407
 DIPOLE           X         Y         Z       TOTAL
 POINT-CHG.     0.053     0.111    -0.180     0.218
 HYBRID        -0.014     0.001     0.022     0.026
 SUM            0.039     0.113    -0.159     0.198


          ATOMIC ORBITAL ELECTRON POPULATIONS

     Atom    s        px        py        pz   
    1  C   1.14250   0.91332   0.92106   0.98831
    2  C   1.13631   0.91930   0.95527   0.99878
    3  C   1.13297   0.96059   0.92208   1.00260
    4  C   1.11731   0.98721   0.94146   1.00557
    5  C   1.20712   0.95450   0.96266   1.00558
    6  C   1.20373   0.96152   0.95853   0.99924
    7  C   1.20262   0.98900   0.94837   1.02050
    8  C   1.18852   0.94162   0.98694   1.02850
    9  C   1.19315   0.94806   0.98542   1.00997
   10  C   1.19576   0.96813   0.97029   1.01551
   11  H   0.91736
   12  H   0.93661
   13  H   0.93797
   14  H   0.94438
   15  H   0.93688
   16  H   0.95218
   17  H   0.95518
   18  H   0.95702
   19  H   0.88560
   20  H   0.89293
   21  H   0.89993
   22  H   0.89407
 *******************************************************************************
 **                                                                           **
 **                              MOPAC v23.1.2                                **
 **                                                                           **
 *******************************************************************************
 **          Digital Object Identifier (DOI): 10.5281/zenodo.6511958          **
 **    Visit the DOI location for information on how to cite this program.    **
 *******************************************************************************

                              PM3 CALCULATION RESULTS

 *******************************************************************************
 *  CALCULATION DONE: (MAX THREADS = 1)              Tue Jun  3 16:27:28 2025  *
 *  PM3        - The PM3 Hamiltonian to be used
 *  OLDGEO     - PREVIOUS GEOMETRY TO BE USED
 *  PRECISE    - TIGHTER CRITERIA TO BE USED
 *  NOSYM      - POINT-GROUP SYMMETRY SET TO C1
 *  THREADS=1  - MULTI-THREADING NOT USED
 *  T=         - A TIME OF 172800.0 SECONDS REQUESTED
 *  DUMP=N     - RESTART FILE WRITTEN EVERY 7200.0 SECONDS REQUESTED
 *  THERMO     - THERMODYNAMIC QUANTITIES TO BE CALCULATED
 *******************************************************************************
oldgeo thermo nosym precise THREADS=1  pm3
 InChI=1S/C10H12/c1-8-6-7-9-4-2-3-5-10(8)9/h3-6,10H,2,7H2,1H3

   ATOM   CHEMICAL          X               Y               Z
  NUMBER   SYMBOL      (ANGSTROMS)     (ANGSTROMS)     (ANGSTROMS)

     1       C          0.11483918  *   0.31940366  *  -0.51406924  *
     2       C          1.01051646  *  -1.81236780  *   0.28566795  *
     3       C         -2.61531963  *  -0.55213366  *  -0.29990916  *
     4       C          2.17826752  *   1.79510454  *   0.11465390  *
     5       C         -0.23872748  *  -1.09931125  *  -0.13300614  *
     6       C          1.49739939  *   0.48966348  *   0.07097164  *
     7       C          1.99320367  *  -0.69268028  *   0.47715823  *
     8       C         -1.50333235  *  -1.51427082  *  -0.05134701  *
     9       C         -0.94778939  *   1.26538992  *  -0.07311546  *
    10       C         -2.21780657  *   0.85609212  *  -0.00261162  *
    11       H          0.19322040  *   0.40304583  *  -1.62795673  *
    12       H          1.35792779  *  -2.52346196  *  -0.48747964  *
    13       H          0.86658320  *  -2.39610724  *   1.21322314  *
    14       H         -3.49365639  *  -0.83178261  *   0.31371904  *
    15       H         -2.94374734  *  -0.62338771  *  -1.35739315  *
    16       H          1.64419337  *   2.49037212  *   0.77750829  *
    17       H          2.21378584  *   2.25013747  *  -0.88427734  *
    18       H          3.20851240  *   1.70600672  *   0.48239105  *
    19       H          2.98146615  *  -0.86928263  *   0.90067083  *
    20       H         -0.64623214  *   2.29063429  *   0.16404385  *
    21       H         -3.02100696  *   1.54339279  *   0.28171417  *
    22       H         -1.76287241  *  -2.53695316  *   0.23715510  *



          CARTESIAN COORDINATES 

    NO.       ATOM           X           Y           Z

     1         C          0.1148      0.3194     -0.5141
     2         C          1.0105     -1.8124      0.2857
     3         C         -2.6153     -0.5521     -0.2999
     4         C          2.1783      1.7951      0.1147
     5         C         -0.2387     -1.0993     -0.1330
     6         C          1.4974      0.4897      0.0710
     7         C          1.9932     -0.6927      0.4772
     8         C         -1.5033     -1.5143     -0.0513
     9         C         -0.9478      1.2654     -0.0731
    10         C         -2.2178      0.8561     -0.0026
    11         H          0.1932      0.4030     -1.6280
    12         H          1.3579     -2.5235     -0.4875
    13         H          0.8666     -2.3961      1.2132
    14         H         -3.4937     -0.8318      0.3137
    15         H         -2.9437     -0.6234     -1.3574
    16         H          1.6442      2.4904      0.7775
    17         H          2.2138      2.2501     -0.8843
    18         H          3.2085      1.7060      0.4824
    19         H          2.9815     -0.8693      0.9007
    20         H         -0.6462      2.2906      0.1640
    21         H         -3.0210      1.5434      0.2817
    22         H         -1.7629     -2.5370      0.2372

  H: (PM3): J. J. P. STEWART, J. COMP. CHEM. 10, 209 (1989).
  C: (PM3): J. J. P. STEWART, J. COMP. CHEM. 10, 209 (1989).

           Empirical Formula: C10 H12  =    22 atoms



      MOLECULAR POINT GROUP   :   C1  


      RHF CALCULATION, NO. OF DOUBLY OCCUPIED LEVELS = 26



          HEAT OF FORMATION =      30.513363 KCALS/MOLE


          CARTESIAN COORDINATE DERIVATIVES

   NUMBER  ATOM         X            Y            Z

     1       C      0.000908     0.000994     0.001735
     2       C      0.001213     0.000538     0.000730
     3       C      0.000503     0.002245     0.000872
     4       C     -0.011111     0.011946    -0.011029
     5       C      0.000277     0.002270     0.005363
     6       C     -0.000754    -0.000276     0.004383
     7       C     -0.000990     0.000986    -0.003446
     8       C      0.000996     0.003136    -0.003271
     9       C      0.002083    -0.000095     0.000772
    10       C      0.000787     0.001306    -0.000755
    11       H     -0.003129    -0.005023    -0.001526
    12       H      0.000069    -0.001592     0.001552
    13       H      0.001254     0.003755     0.003207
    14       H     -0.003486     0.005705    -0.000579
    15       H      0.000419     0.000448     0.000446
    16       H      0.000036     0.001091     0.007019
    17       H      0.010987    -0.001468    -0.002928
    18       H      0.001730    -0.016417     0.005631
    19       H     -0.005717    -0.006142    -0.004334
    20       H      0.003651    -0.003774    -0.003123
    21       H     -0.002249    -0.000613     0.000775
    22       H      0.002524     0.000979    -0.001493



          GRADIENT NORM =   0.03522

          MOLECULAR WEIGHT =  132.20



          ROTATIONAL CONSTANTS IN CM(-1)

          A =    0.07993867   B =    0.04106261   C =    0.02835857



           PRINCIPAL MOMENTS OF INERTIA IN UNITS OF 10**(-40)*GRAM-CM**2

          A =      350.1779   B =      681.7091   C =      987.1001


          ORIENTATION OF MOLECULE IN FORCE CALCULATION

    NO.       ATOM         X         Y         Z

     1          C      -0.4468   -0.3530    0.3440
     2          C       1.9998   -0.3530    0.3440
     3          C      -0.6169    2.5158    0.3440
     4          C      -0.7717   -2.7373   -0.6759
     5          C       0.7844    0.5159    0.4536
     6          C       0.1022   -1.6442   -0.2164
     7          C       1.4466   -1.6468   -0.1813
     8          C       0.7097    1.8471    0.4740
     9          C      -1.5159    0.3404   -0.4272
    10          C      -1.6012    1.6736   -0.3985
    11          H      -0.8551   -0.5604    1.3659
    12          H       2.4939   -0.4960    1.3236
    13          H       2.7589    0.0756   -0.3356
    14          H      -0.4942    3.4898   -0.1685
    15          H      -1.0207    2.7472    1.3513
    16          H      -1.3563   -2.4255   -1.5528
    17          H      -1.4817   -3.0260    0.1107
    18          H      -0.1967   -3.6291   -0.9563
    19          H       2.1007   -2.4633   -0.4859
    20          H      -2.2213   -0.2822   -0.9868
    21          H      -2.4011    2.2029   -0.9259
    22          H       1.6000    2.4791    0.5398


    FIRST DERIVATIVES WILL BE USED IN THE CALCULATION OF SECOND DERIVATIVES

          ESTIMATED TIME TO COMPLETE CALCULATION =        2.06 SECONDS

    FOR POINT-GROUP C1   THERE ARE   1 UNIQUE SYMMETRY FUNCTIONS.

 STEP:   1 TIME =     0.02 SECS, INTEGRAL =      0.02 TIME LEFT: 172799.97
 STEP:   2 TIME =     0.02 SECS, INTEGRAL =      0.04 TIME LEFT: 172799.95
 STEP:   3 TIME =     0.02 SECS, INTEGRAL =      0.06 TIME LEFT: 172799.93
 STEP:   4 TIME =     0.02 SECS, INTEGRAL =      0.08 TIME LEFT: 172799.91
 STEP:   5 TIME =     0.02 SECS, INTEGRAL =      0.10 TIME LEFT: 172799.89
 STEP:   6 TIME =     0.02 SECS, INTEGRAL =      0.12 TIME LEFT: 172799.88
 STEP:   7 TIME =     0.02 SECS, INTEGRAL =      0.14 TIME LEFT: 172799.86
 STEP:   8 TIME =     0.02 SECS, INTEGRAL =      0.16 TIME LEFT: 172799.84
 STEP:   9 TIME =     0.02 SECS, INTEGRAL =      0.18 TIME LEFT: 172799.82
 STEP:  10 TIME =     0.02 SECS, INTEGRAL =      0.20 TIME LEFT: 172799.80
 STEP:  11 TIME =     0.02 SECS, INTEGRAL =      0.21 TIME LEFT: 172799.78
 STEP:  12 TIME =     0.02 SECS, INTEGRAL =      0.23 TIME LEFT: 172799.76
 STEP:  13 TIME =     0.02 SECS, INTEGRAL =      0.25 TIME LEFT: 172799.74
 STEP:  14 TIME =     0.02 SECS, INTEGRAL =      0.27 TIME LEFT: 172799.72
 STEP:  15 TIME =     0.02 SECS, INTEGRAL =      0.30 TIME LEFT: 172799.70
 STEP:  16 TIME =     0.02 SECS, INTEGRAL =      0.32 TIME LEFT: 172799.68
 STEP:  17 TIME =     0.02 SECS, INTEGRAL =      0.34 TIME LEFT: 172799.66
 STEP:  18 TIME =     0.02 SECS, INTEGRAL =      0.36 TIME LEFT: 172799.63
 STEP:  19 TIME =     0.02 SECS, INTEGRAL =      0.38 TIME LEFT: 172799.61
 STEP:  20 TIME =     0.02 SECS, INTEGRAL =      0.40 TIME LEFT: 172799.59
 STEP:  21 TIME =     0.02 SECS, INTEGRAL =      0.42 TIME LEFT: 172799.57
 STEP:  22 TIME =     0.02 SECS, INTEGRAL =      0.45 TIME LEFT: 172799.55
 STEP:  23 TIME =     0.02 SECS, INTEGRAL =      0.46 TIME LEFT: 172799.53
 STEP:  24 TIME =     0.02 SECS, INTEGRAL =      0.49 TIME LEFT: 172799.50
 STEP:  25 TIME =     0.02 SECS, INTEGRAL =      0.51 TIME LEFT: 172799.48
 STEP:  26 TIME =     0.02 SECS, INTEGRAL =      0.53 TIME LEFT: 172799.46
 STEP:  27 TIME =     0.02 SECS, INTEGRAL =      0.55 TIME LEFT: 172799.44
 STEP:  28 TIME =     0.02 SECS, INTEGRAL =      0.57 TIME LEFT: 172799.42
 STEP:  29 TIME =     0.02 SECS, INTEGRAL =      0.60 TIME LEFT: 172799.39
 STEP:  30 TIME =     0.02 SECS, INTEGRAL =      0.62 TIME LEFT: 172799.37
 STEP:  31 TIME =     0.02 SECS, INTEGRAL =      0.64 TIME LEFT: 172799.35
 STEP:  32 TIME =     0.02 SECS, INTEGRAL =      0.67 TIME LEFT: 172799.32
 STEP:  33 TIME =     0.02 SECS, INTEGRAL =      0.69 TIME LEFT: 172799.30
 STEP:  34 TIME =     0.02 SECS, INTEGRAL =      0.71 TIME LEFT: 172799.29
 STEP:  35 TIME =     0.02 SECS, INTEGRAL =      0.73 TIME LEFT: 172799.27
 STEP:  36 TIME =     0.02 SECS, INTEGRAL =      0.75 TIME LEFT: 172799.25
 STEP:  37 TIME =     0.02 SECS, INTEGRAL =      0.77 TIME LEFT: 172799.23
 STEP:  38 TIME =     0.02 SECS, INTEGRAL =      0.79 TIME LEFT: 172799.20
 STEP:  39 TIME =     0.02 SECS, INTEGRAL =      0.81 TIME LEFT: 172799.18
 STEP:  40 TIME =     0.02 SECS, INTEGRAL =      0.83 TIME LEFT: 172799.16
 STEP:  41 TIME =     0.02 SECS, INTEGRAL =      0.85 TIME LEFT: 172799.14
 STEP:  42 TIME =     0.02 SECS, INTEGRAL =      0.87 TIME LEFT: 172799.12
 STEP:  43 TIME =     0.02 SECS, INTEGRAL =      0.89 TIME LEFT: 172799.10
 STEP:  44 TIME =     0.02 SECS, INTEGRAL =      0.91 TIME LEFT: 172799.08
 STEP:  45 TIME =     0.02 SECS, INTEGRAL =      0.94 TIME LEFT: 172799.05
 STEP:  46 TIME =     0.02 SECS, INTEGRAL =      0.96 TIME LEFT: 172799.03
 STEP:  47 TIME =     0.02 SECS, INTEGRAL =      0.98 TIME LEFT: 172799.01
 STEP:  48 TIME =     0.02 SECS, INTEGRAL =      1.01 TIME LEFT: 172798.98
 STEP:  49 TIME =     0.02 SECS, INTEGRAL =      1.03 TIME LEFT: 172798.96
 STEP:  50 TIME =     0.02 SECS, INTEGRAL =      1.05 TIME LEFT: 172798.94
 STEP:  51 TIME =     0.02 SECS, INTEGRAL =      1.07 TIME LEFT: 172798.92
 STEP:  52 TIME =     0.02 SECS, INTEGRAL =      1.10 TIME LEFT: 172798.89
 STEP:  53 TIME =     0.02 SECS, INTEGRAL =      1.12 TIME LEFT: 172798.88
 STEP:  54 TIME =     0.02 SECS, INTEGRAL =      1.14 TIME LEFT: 172798.85
 STEP:  55 TIME =     0.02 SECS, INTEGRAL =      1.16 TIME LEFT: 172798.83
 STEP:  56 TIME =     0.02 SECS, INTEGRAL =      1.18 TIME LEFT: 172798.81
 STEP:  57 TIME =     0.02 SECS, INTEGRAL =      1.21 TIME LEFT: 172798.79
 STEP:  58 TIME =     0.02 SECS, INTEGRAL =      1.23 TIME LEFT: 172798.76
 STEP:  59 TIME =     0.02 SECS, INTEGRAL =      1.25 TIME LEFT: 172798.74
 STEP:  60 TIME =     0.02 SECS, INTEGRAL =      1.28 TIME LEFT: 172798.71
 STEP:  61 TIME =     0.02 SECS, INTEGRAL =      1.30 TIME LEFT: 172798.69
 STEP:  62 TIME =     0.02 SECS, INTEGRAL =      1.32 TIME LEFT: 172798.67
 STEP:  63 TIME =     0.02 SECS, INTEGRAL =      1.34 TIME LEFT: 172798.65
 STEP:  64 TIME =     0.02 SECS, INTEGRAL =      1.36 TIME LEFT: 172798.63
 STEP:  65 TIME =     0.02 SECS, INTEGRAL =      1.38 TIME LEFT: 172798.61
 STEP:  66 TIME =     0.02 SECS, INTEGRAL =      1.41 TIME LEFT: 172798.59

(To convert to Hartree/Bohr^2, multiply by (10^(-21) x N x a0^2)/(4.184 x 627.51) =  0.0642)


           FORCE MATRIX IN MILLIDYNES/ANGSTROM


                  C  1       C  2       C  3       C  4       C  5       C  6
 ------------------------------------------------------------------------------
     C    1  15.391010
     C    2   0.750484  14.940231
     C    3   0.200688   0.127528  14.911868
     C    4   0.484925   0.131467   0.001043  14.841514
     C    5   4.135202   4.577033   0.930922   0.047817  19.197346
     C    6   4.152127   1.143893   0.009895   5.442878   1.001997  18.678223
     C    7   1.146969   4.510437   0.010588   0.725599   1.066718  10.108640
     C    8   0.785411   0.653731   4.807062   0.009240  10.562699   0.051433
     C    9   4.826533   0.047755   0.858404   0.038686   0.744460   0.571147
     C   10   0.918538   0.006120   4.748340   0.002756   0.103870   0.051121
     H   11   4.103547   0.020128   0.019436   0.010122   0.414919   0.410073
     H   12   0.022521   4.470590   0.016133   0.019422   0.428313   0.032749
     H   13   0.039016   4.515316   0.009663   0.017979   0.441359   0.037666
     H   14   0.012951   0.013036   4.473122   0.000389   0.047800   0.001590
     H   15   0.021146   0.017918   4.365715   0.000366   0.026874   0.002566
     H   16   0.010365   0.018435   0.000426   4.676270   0.002394   0.448780
     H   17   0.013526   0.017958   0.000341   4.707135   0.002300   0.452190
     H   18   0.042016   0.003106   0.000325   4.746350   0.007773   0.473100
     H   19   0.106913   0.407618   0.001947   0.056700   0.043898   0.458437
     H   20   0.437978   0.005719   0.120963   0.012667   0.039542   0.015426
     H   21   0.118189   0.002177   0.429081   0.000710   0.006096   0.012443
     H   22   0.113437   0.069292   0.429968   0.001966   0.462552   0.010568


                  C  7       C  8       C  9       C 10       H 11       H 12
 ------------------------------------------------------------------------------
     C    7  18.177450
     C    8   0.050065  18.197835
     C    9   0.043530   0.085603  18.131329
     C   10   0.010758   0.753457  10.545798  18.032505
     H   11   0.033202   0.024592   0.398893   0.031135   4.556689
     H   12   0.428774   0.022608   0.003449   0.001189   0.001714   5.073364
     H   13   0.431337   0.016968   0.004330   0.001293   0.001561   0.555165
     H   14   0.001720   0.426566   0.047180   0.429033   0.002248   0.001548
     H   15   0.001777   0.420380   0.028055   0.420386   0.008031   0.002586
     H   16   0.031063   0.000693   0.014524   0.000743   0.001194   0.002431
     H   17   0.033493   0.000850   0.002381   0.000372   0.004291   0.003212
     H   18   0.028675   0.002082   0.003117   0.000517   0.001231   0.000429
     H   19   5.018707   0.006437   0.014960   0.002649   0.014307   0.010055
     H   20   0.002837   0.006254   4.850689   0.446804   0.012836   0.000556
     H   21   0.002159   0.040795   0.445661   4.857075   0.015794   0.000184
     H   22   0.003736   4.882586   0.009091   0.040638   0.014648   0.009725


                  H 13       H 14       H 15       H 16       H 17       H 18
 ------------------------------------------------------------------------------
     H   13   5.113975
     H   14   0.000977   5.047643
     H   15   0.001564   0.564683   4.960348
     H   16   0.003218   0.000202   0.000261   5.389194
     H   17   0.001974   0.000127   0.000159   0.571846   5.414940
     H   18   0.000629   0.000061   0.000103   0.560510   0.557069   5.450428
     H   19   0.014771   0.000434   0.000266   0.007344   0.006719   0.013841
     H   20   0.000837   0.012049   0.017158   0.022101   0.001585   0.001549
     H   21   0.000254   0.036671   0.013291   0.000379   0.000230   0.000138
     H   22   0.008674   0.035683   0.012624   0.000180   0.000146   0.000411


                  H 19       H 20       H 21       H 22
 ------------------------------------------------------
     H   19   5.418461
     H   20   0.000920   5.232054
     H   21   0.000798   0.067569   5.230940
     H   22   0.000849   0.002151   0.005386   5.260142


          HEAT OF FORMATION =      30.513363 KCALS/MOLE

          ZERO POINT ENERGY     118.724 KCAL/MOL


           NORMAL COORDINATE ANALYSIS (Total motion = 1 Angstrom)


   Root No.       1         2         3         4         5         6         7         8

                 1 A       2 A       3 A       4 A       5 A       6 A       7 A       8 A   

                  84.0     100.4     192.0     223.3     257.6     286.9     407.7     429.5
  
           1    0.0023    0.0035    0.0064    0.0103    0.0058   -0.0209    0.0088    0.0162
           2   -0.0054    0.0020    0.0096    0.0011    0.0037   -0.0018    0.0124    0.0217
           3    0.0194   -0.0026   -0.0205    0.0364   -0.0068    0.0321   -0.0122    0.0113
           4   -0.0001    0.0036    0.0051    0.0097   -0.0002   -0.0135    0.0046    0.0028
           5   -0.0056    0.0032   -0.0052    0.0034   -0.0142    0.0036   -0.0091   -0.0223
           6    0.0267   -0.0159    0.0028   -0.0097    0.0458   -0.0042    0.0015   -0.0011
           7    0.0125   -0.0081   -0.0099   -0.0179   -0.0072    0.0080   -0.0054   -0.0133
           8    0.0080   -0.0067   -0.0076   -0.0217   -0.0117    0.0025   -0.0094    0.0035
           9   -0.0400    0.0175    0.0278    0.0046    0.0136    0.0159    0.0028   -0.0051
          10    0.0044   -0.0071    0.0028   -0.0319   -0.0107    0.0343    0.0058    0.0091
          11    0.0199    0.0037    0.0086    0.0463    0.0054   -0.0293   -0.0059   -0.0152
          12   -0.0437    0.0080   -0.0225   -0.0140    0.0223   -0.0151    0.0011   -0.0090
          13    0.0003    0.0036    0.0100    0.0111    0.0070   -0.0139    0.0144    0.0263
          14   -0.0015    0.0019    0.0069    0.0036    0.0022   -0.0025    0.0108    0.0182
          15    0.0070   -0.0058   -0.0381    0.0133   -0.0056    0.0104   -0.0333   -0.0189
          16    0.0030    0.0007    0.0021   -0.0003    0.0055   -0.0184   -0.0032   -0.0249
          17    0.0038   -0.0014   -0.0056    0.0047    0.0100    0.0001    0.0104   -0.0010
          18   -0.0030    0.0048    0.0118    0.0233   -0.0204    0.0184   -0.0202    0.0299
          19    0.0029    0.0007    0.0011   -0.0002    0.0058   -0.0175   -0.0037   -0.0250
          20    0.0013   -0.0023   -0.0261    0.0028    0.0135    0.0117   -0.0077   -0.0056
          21    0.0059   -0.0001    0.0586   -0.0024   -0.0329   -0.0088    0.0063   -0.0153
          22    0.0058   -0.0021    0.0053   -0.0025    0.0058    0.0091    0.0031   -0.0011
          23   -0.0010    0.0015    0.0067    0.0036    0.0024   -0.0005    0.0092    0.0183
          24   -0.0251    0.0043   -0.0413   -0.0068   -0.0360   -0.0332    0.0248    0.0160
          25   -0.0192    0.0065   -0.0034    0.0168    0.0023   -0.0032   -0.0369    0.0207
          26   -0.0117   -0.0012    0.0067   -0.0248   -0.0016    0.0105   -0.0022   -0.0037
          27    0.0451   -0.0098   -0.0090    0.0038   -0.0071    0.0136    0.0416   -0.0106
          28   -0.0137    0.0008   -0.0180    0.0140   -0.0075    0.0222    0.0141   -0.0141
          29   -0.0112   -0.0017    0.0055   -0.0254   -0.0027    0.0137    0.0024   -0.0075
          30    0.0179   -0.0008    0.0234   -0.0338    0.0040   -0.0169   -0.0377    0.0088
          31    0.0226    0.0011    0.0142    0.0127    0.0064   -0.0229    0.0633    0.0282
          32   -0.0188    0.0081    0.0272    0.0143   -0.0009    0.0038    0.0082    0.0715
          33    0.0248   -0.0023   -0.0130    0.0389   -0.0075    0.0310    0.0100    0.0260
          34   -0.0227    0.0177    0.0017    0.0314   -0.0921   -0.0066   -0.0297   -0.0393
          35   -0.0148    0.0118    0.0431    0.0044   -0.0696   -0.0033   -0.0068   -0.0546
          36    0.0368   -0.0218    0.0115   -0.0207    0.0853   -0.0086    0.0196    0.0163
          37    0.0171   -0.0070    0.0089   -0.0056    0.0712   -0.0188    0.0345    0.0452
          38   -0.0051    0.0001   -0.0442    0.0035   -0.0044    0.0107   -0.0337   -0.0491
          39    0.0465   -0.0298   -0.0176   -0.0269    0.1337   -0.0057    0.0203    0.0312
          40    0.0194   -0.0172   -0.0479   -0.0407   -0.0403   -0.0142   -0.0057   -0.0118
          41   -0.0202    0.0055    0.0200    0.0030    0.0139    0.0359    0.0171   -0.0144
          42   -0.0926    0.0389    0.0721    0.0475    0.0557    0.0761    0.0550   -0.0400
          43    0.0318   -0.0111    0.0219   -0.0366    0.0132    0.0136   -0.0463   -0.0161
          44    0.0668   -0.0326   -0.0657   -0.0765   -0.0664   -0.0671   -0.0657    0.0393
          45   -0.0458    0.0223    0.0543    0.0099    0.0348    0.0346    0.0004   -0.0150
          46    0.0669    0.1677    0.0014   -0.0370   -0.0269    0.0555   -0.0051    0.0288
          47    0.0272   -0.0640    0.0406    0.1051   -0.0188   -0.0474   -0.0332   -0.0168
          48   -0.0829   -0.1327   -0.0104    0.0095    0.0248   -0.0354   -0.0008   -0.0227
          49   -0.0519   -0.1650    0.0043   -0.0282    0.0033    0.0175    0.0162   -0.0061
          50    0.0445    0.1648   -0.0221    0.0252    0.0387   -0.0685   -0.0000   -0.0629
          51   -0.0857   -0.0757   -0.0327   -0.0186    0.0477   -0.0456    0.0129   -0.0414
          52   -0.0001   -0.0300    0.0038   -0.0592   -0.0248    0.0839    0.0169    0.0511
          53    0.0035   -0.0784    0.0200    0.0465   -0.0092   -0.0027   -0.0040    0.0119
          54   -0.0007    0.2230   -0.0569   -0.0691    0.0408   -0.0015    0.0168   -0.0133
          55    0.0041   -0.0010   -0.0017   -0.0060    0.0077   -0.0197   -0.0104   -0.0430
          56    0.0061   -0.0059   -0.0483    0.0081    0.0278    0.0207   -0.0244   -0.0026
          57   -0.0040    0.0061    0.1120   -0.0285   -0.0664   -0.0389    0.0363   -0.0626
          58   -0.0434    0.0182    0.0008    0.0351    0.0101   -0.0008   -0.0870    0.0518
          59   -0.0206   -0.0040    0.0099   -0.0409   -0.0039    0.0141   -0.0157   -0.0184
          60    0.0850   -0.0211   -0.0174   -0.0017   -0.0142    0.0067    0.1198   -0.0333
          61   -0.0326    0.0051   -0.0292    0.0385   -0.0093    0.0546    0.0477   -0.0309
          62   -0.0225    0.0002    0.0116   -0.0353   -0.0007    0.0203    0.0079   -0.0202
          63    0.0348   -0.0052    0.0469   -0.0803    0.0092   -0.0590   -0.0827    0.0217
          64    0.0102   -0.0056    0.0014   -0.0110    0.0034    0.0220   -0.0114   -0.0203
          65   -0.0054    0.0063    0.0144    0.0179    0.0088   -0.0122    0.0219    0.0409
          66   -0.0392    0.0036   -0.0673   -0.0347   -0.0696   -0.0985    0.0942    0.0601


   Root No.       9        10        11        12        13        14        15        16

                 9 A      10 A      11 A      12 A      13 A      14 A      15 A      16 A   

                 490.4     511.7     536.3     642.1     694.6     762.5     778.8     803.1
  
           1   -0.0126   -0.0250   -0.0021   -0.0171   -0.0012    0.0026    0.0008    0.0026
           2    0.0328    0.0004   -0.0038   -0.0035   -0.0068   -0.0075   -0.0048    0.0029
           3   -0.0027   -0.0126    0.0045    0.0256    0.0146    0.0288   -0.0099    0.0061
           4    0.0257   -0.0045    0.0251   -0.0103    0.0486   -0.0260    0.0212   -0.0032
           5   -0.0176    0.0191   -0.0315   -0.0126    0.0321    0.0062    0.0028    0.0150
           6   -0.0021   -0.0009   -0.0059   -0.0119    0.0129   -0.0052   -0.0017   -0.0317
           7    0.0056    0.0274   -0.0272   -0.0020   -0.0009    0.0107   -0.0058    0.0011
           8   -0.0438   -0.0245    0.0205    0.0061   -0.0168   -0.0120    0.0234   -0.0182
           9   -0.0126    0.0027   -0.0032    0.0139    0.0012   -0.0277    0.0105    0.0031
          10    0.0252    0.0064    0.0173    0.0245   -0.0260    0.0061    0.0011   -0.0035
          11    0.0202    0.0171    0.0176    0.0322   -0.0230    0.0084    0.0100   -0.0071
          12    0.0090    0.0069    0.0101    0.0093   -0.0120   -0.0001    0.0037    0.0035
          13    0.0223   -0.0159    0.0056   -0.0146    0.0182   -0.0175    0.0017    0.0017
          14   -0.0175   -0.0071   -0.0321   -0.0104   -0.0242   -0.0065   -0.0149    0.0019
          15    0.0401   -0.0403   -0.0068   -0.0354   -0.0284   -0.0174   -0.0091    0.0112
          16   -0.0120    0.0060    0.0292    0.0018   -0.0208    0.0009   -0.0158    0.0013
          17    0.0475   -0.0089   -0.0161    0.0371   -0.0018    0.0071    0.0156   -0.0052
          18   -0.0071    0.0516    0.0411   -0.0168   -0.0119   -0.0096    0.0032    0.0041
          19   -0.0133    0.0091    0.0322   -0.0016   -0.0133   -0.0006   -0.0163    0.0032
          20    0.0052    0.0219   -0.0269   -0.0118    0.0479   -0.0035    0.0165    0.0068
          21    0.0033   -0.0082   -0.0192    0.0025    0.0189    0.0004    0.0049   -0.0164
          22    0.0179    0.0230   -0.0463   -0.0127   -0.0144    0.0042   -0.0329    0.0077
          23   -0.0211   -0.0118   -0.0342   -0.0143   -0.0354   -0.0096   -0.0191   -0.0006
          24    0.0013    0.0122   -0.0050   -0.0007   -0.0056   -0.0015   -0.0001    0.0168
          25   -0.0271   -0.0340   -0.0040    0.0020    0.0102    0.0414    0.0215    0.0039
          26    0.0036   -0.0130    0.0462   -0.0111    0.0142    0.0148   -0.0130    0.0079
          27   -0.0190   -0.0207    0.0146    0.0024    0.0133    0.0067   -0.0190    0.0016
          28   -0.0366    0.0060   -0.0280    0.0120   -0.0156   -0.0133    0.0440   -0.0113
          29   -0.0001   -0.0098    0.0492   -0.0115    0.0123    0.0114   -0.0134    0.0063
          30   -0.0081    0.0050   -0.0228    0.0140   -0.0007   -0.0128   -0.0039   -0.0096
          31   -0.0423   -0.0275   -0.0149    0.0083    0.0331    0.0118   -0.0366   -0.0083
          32    0.0337    0.0533    0.0100   -0.0150    0.0088   -0.0120    0.0123   -0.0137
          33   -0.0140   -0.0025    0.0021    0.0325    0.0308    0.0317   -0.0204   -0.0018
          34    0.0907   -0.0543    0.0071   -0.0561    0.0402   -0.0482    0.0017   -0.1188
          35   -0.0282    0.0236   -0.0499    0.0028    0.0577    0.0308   -0.0050   -0.0655
          36   -0.0377    0.0261    0.0009    0.0140    0.0219    0.0093    0.0079    0.0190
          37   -0.0166    0.0259    0.0376    0.0193    0.0639   -0.0244    0.0433    0.0821
          38   -0.0130    0.0306   -0.0190   -0.0305    0.0211    0.0128   -0.0092    0.0439
          39   -0.0485    0.0414    0.0173    0.0118    0.0210    0.0017    0.0160    0.0870
          40    0.0093    0.0342    0.0195    0.0234    0.0433   -0.0071    0.0118    0.0317
          41   -0.0391   -0.0275    0.0263   -0.0284   -0.0343    0.0371    0.0251   -0.0353
          42   -0.0015   -0.0010    0.0184   -0.0488   -0.0225    0.0679    0.0167   -0.0225
          43    0.0141    0.0306   -0.0380    0.0095    0.0176    0.0065   -0.0541   -0.0225
          44   -0.0568   -0.0215    0.0192    0.0819    0.0217   -0.1266    0.0277    0.0129
          45   -0.0057    0.0034   -0.0072   -0.0009   -0.0013   -0.0007   -0.0091   -0.0147
          46    0.0141    0.0386    0.0455    0.0054   -0.0392   -0.0064    0.0036    0.0230
          47   -0.0268    0.0760    0.0798   -0.0099   -0.0507   -0.0134   -0.0104    0.0367
          48    0.0006    0.0052    0.0127    0.0082   -0.0134    0.0011   -0.0047    0.0000
          49    0.0396   -0.0224   -0.0071    0.0483   -0.0209    0.0200    0.0026   -0.0292
          50    0.0067   -0.0060    0.0127    0.0433   -0.0247    0.0197   -0.0123   -0.0314
          51    0.0167   -0.0284   -0.0145    0.0348   -0.0070    0.0168   -0.0035   -0.0296
          52    0.0673   -0.0029   -0.0089    0.0477   -0.0200    0.0125    0.0382   -0.0093
          53    0.0393    0.0212    0.0102    0.0397   -0.0226    0.0086    0.0302   -0.0027
          54    0.0317   -0.0230   -0.0181    0.0325   -0.0020    0.0124    0.0142   -0.0224
          55   -0.0489    0.0159    0.0202   -0.0258   -0.0102    0.0085   -0.0449    0.0075
          56   -0.0269    0.0509   -0.0149   -0.0468    0.0505   -0.0054   -0.0091   -0.0732
          57    0.0121   -0.0704   -0.0786    0.0454    0.0196    0.0268    0.0137    0.2075
          58   -0.0250   -0.0579   -0.0163    0.0691    0.0674    0.0390   -0.1159    0.0055
          59   -0.0165    0.0030    0.0484   -0.0001    0.0122   -0.0094   -0.0137   -0.0043
          60    0.0010   -0.0072    0.0273   -0.0943   -0.0563    0.0369    0.1548    0.0133
          61   -0.0516    0.0076   -0.0186    0.0669    0.0241   -0.1170   -0.0649   -0.0169
          62    0.0224    0.0225    0.0432   -0.0116    0.0142   -0.0165   -0.0357    0.0148
          63    0.0380    0.0346   -0.0436   -0.0694   -0.0584    0.1178    0.1400    0.0073
          64    0.0084    0.0306   -0.0470   -0.0026   -0.0178    0.0065   -0.0162    0.0151
          65   -0.0062   -0.0297   -0.0326   -0.0289   -0.0354   -0.0286   -0.0357    0.0024
          66   -0.0162    0.0736   -0.0047   -0.0006    0.0399    0.1364   -0.0714   -0.1079


   Root No.      17        18        19        20        21        22        23        24

                17 A      18 A      19 A      20 A      21 A      22 A      23 A      24 A   

                 846.1     895.3     935.3     948.7     959.5     981.5     995.1    1017.7
  
           1   -0.0080   -0.0309   -0.0133    0.0049   -0.0072   -0.0021    0.0108    0.0032
           2   -0.0083   -0.0131    0.0055    0.0222   -0.0124   -0.0026    0.0037    0.0118
           3   -0.0079    0.0338    0.0290    0.0085    0.0051    0.0106   -0.0169    0.0121
           4    0.0196    0.0313   -0.0003   -0.0055   -0.0008    0.0061   -0.0087    0.0022
           5   -0.0031   -0.0046   -0.0043   -0.0054   -0.0107    0.0030    0.0084    0.0060
           6   -0.0023   -0.0138    0.0037    0.0196    0.0237    0.0011   -0.0193   -0.0154
           7    0.0020    0.0014   -0.0086    0.0055   -0.0062   -0.0032   -0.0013    0.0035
           8    0.0260    0.0180   -0.0132    0.0178   -0.0146   -0.0064   -0.0201    0.0104
           9   -0.0158   -0.0109    0.0234   -0.0018    0.0080    0.0101   -0.0001    0.0094
          10   -0.0002   -0.0003    0.0044   -0.0027    0.0078   -0.0357    0.0119   -0.0003
          11    0.0008   -0.0095   -0.0111   -0.0087   -0.0057    0.0129    0.0031   -0.0154
          12    0.0080   -0.0150   -0.0134   -0.0083    0.0187    0.0019   -0.0100    0.0177
          13    0.0023    0.0062    0.0026   -0.0038    0.0024   -0.0003    0.0043    0.0000
          14   -0.0030    0.0081    0.0046   -0.0067    0.0063    0.0033    0.0001   -0.0015
          15    0.0122   -0.0045    0.0002   -0.0067   -0.0159    0.0028    0.0195    0.0191
          16   -0.0040    0.0072    0.0069    0.0053   -0.0019    0.0088   -0.0050    0.0022
          17    0.0019   -0.0030   -0.0046   -0.0029    0.0027    0.0020   -0.0046    0.0121
          18    0.0064   -0.0058   -0.0025   -0.0005   -0.0093    0.0025    0.0091   -0.0260
          19   -0.0038    0.0091    0.0081    0.0108   -0.0063    0.0230   -0.0107    0.0025
          20    0.0114   -0.0050   -0.0009   -0.0005    0.0123   -0.0206   -0.0009   -0.0125
          21   -0.0146    0.0119   -0.0093   -0.0204   -0.0132   -0.0055    0.0191    0.0149
          22   -0.0072    0.0120    0.0024   -0.0106    0.0059    0.0004   -0.0189   -0.0096
          23    0.0022    0.0183    0.0070   -0.0109    0.0087    0.0063   -0.0051   -0.0048
          24   -0.0211    0.0178   -0.0265    0.0088   -0.0032   -0.0127   -0.0195   -0.0065
          25   -0.0112   -0.0249    0.0063   -0.0214   -0.0031   -0.0145   -0.0116   -0.0129
          26   -0.0106   -0.0052    0.0042   -0.0108    0.0057    0.0007    0.0031   -0.0083
          27    0.0012   -0.0094   -0.0215   -0.0039    0.0076   -0.0020    0.0173   -0.0147
          28    0.0088    0.0033    0.0035    0.0075    0.0134    0.0111    0.0302   -0.0016
          29   -0.0084    0.0001    0.0034   -0.0041    0.0049    0.0040    0.0021   -0.0017
          30    0.0162   -0.0064   -0.0054   -0.0046   -0.0127   -0.0115   -0.0034   -0.0152
          31   -0.0196   -0.0666   -0.0507    0.1052    0.0308    0.0057    0.0742    0.0826
          32   -0.0274   -0.0290    0.0645    0.1700   -0.0859   -0.0340    0.0048    0.0014
          33   -0.0160    0.0145    0.0249    0.0789    0.0048    0.0069    0.0095    0.0415
          34    0.0323   -0.0131    0.0226    0.0582    0.0714    0.0050   -0.0448   -0.0610
          35   -0.0794   -0.0040   -0.0239   -0.0039    0.0128    0.0156   -0.0803    0.0530
          36   -0.0191    0.0108   -0.0110   -0.0139   -0.0113    0.0038   -0.0128    0.0244
          37    0.0235    0.0903   -0.0150   -0.0670   -0.0456   -0.0023    0.0146    0.0446
          38    0.0258   -0.0614    0.0097    0.0530   -0.0389    0.0444    0.0485   -0.0260
          39    0.0204    0.0167   -0.0046   -0.0144   -0.0470    0.0176    0.0350    0.0135
          40   -0.0609   -0.0270   -0.0007    0.0256    0.0131    0.0093    0.0194    0.0085
          41    0.0660    0.0440   -0.0555    0.0364   -0.0365   -0.0235   -0.0350    0.0100
          42    0.0469    0.0320   -0.0590    0.0384   -0.0305   -0.0217   -0.0246    0.0083
          43    0.0459   -0.0484    0.0402   -0.0236   -0.0638   -0.0145   -0.0275    0.1032
          44   -0.0515   -0.0325    0.0770   -0.0096    0.0227    0.0305   -0.0031    0.0322
          45    0.0221   -0.0180    0.0206   -0.0061   -0.0246   -0.0034   -0.0147    0.0446
          46    0.0273   -0.0405   -0.0271   -0.0189    0.0652   -0.0371   -0.0186    0.0582
          47    0.0376   -0.0346   -0.0126   -0.0199    0.1041   -0.1243   -0.0071    0.0860
          48    0.0017    0.0032    0.0071   -0.0020    0.0176   -0.0450    0.0080    0.0120
          49   -0.0241    0.0278    0.0253    0.0054   -0.0412   -0.0360    0.0423   -0.0575
          50   -0.0282    0.0530    0.0541    0.0117   -0.0285   -0.1224    0.0678   -0.0554
          51   -0.0253    0.0357    0.0312    0.0073   -0.0360   -0.0485    0.0423   -0.0503
          52    0.0074   -0.0522   -0.0606   -0.0275   -0.0209    0.1333   -0.0272   -0.0294
          53    0.0122   -0.0470   -0.0535   -0.0254   -0.0066    0.1021   -0.0257   -0.0159
          54   -0.0125    0.0002   -0.0089   -0.0065   -0.0331    0.0490    0.0059   -0.0399
          55   -0.0263   -0.0044    0.0201    0.0317   -0.0157    0.0526   -0.0128   -0.0034
          56   -0.0544    0.0003   -0.0171   -0.0227   -0.0132   -0.0013    0.0220    0.0137
          57    0.1131   -0.0348    0.0580    0.0827    0.0358    0.0010   -0.0442   -0.0684
          58    0.0075    0.0028   -0.0773    0.0349    0.0122   -0.0003    0.0279    0.0024
          59    0.0148    0.0237   -0.0033   -0.0244    0.0422    0.0149    0.0521   -0.0440
          60   -0.0514   -0.0773    0.0928   -0.0598   -0.0514   -0.0352   -0.0847    0.0041
          61    0.0261   -0.0503    0.0156   -0.0264   -0.0388   -0.0180   -0.0060   -0.0202
          62   -0.0218    0.0096    0.0297    0.0066    0.0196    0.0380    0.0397    0.0162
          63   -0.0235    0.0826    0.0019    0.0581    0.0802    0.0655    0.0894    0.0307
          64   -0.0189    0.0102   -0.0336    0.0214   -0.0164   -0.0210   -0.0554    0.0008
          65   -0.0001    0.0283    0.0437   -0.0503    0.0416    0.0312    0.0394   -0.0244
          66    0.1557   -0.0395    0.1123   -0.0539   -0.0095    0.0425    0.0396    0.0361


   Root No.      25        26        27        28        29        30        31        32

                25 A      26 A      27 A      28 A      29 A      30 A      31 A      32 A   

                1027.7    1041.0    1049.2    1056.4    1058.4    1090.5    1139.9    1165.7
  
           1   -0.0017    0.0002    0.0080   -0.0031   -0.0074    0.0042    0.0104    0.0000
           2    0.0111   -0.0174    0.0031    0.0015    0.0048    0.0047    0.0241   -0.0282
           3    0.0040    0.0067   -0.0159   -0.0031   -0.0009    0.0089    0.0052   -0.0099
           4   -0.0028   -0.0004   -0.0032    0.0172   -0.0066   -0.0034   -0.0004    0.0071
           5    0.0018   -0.0020   -0.0009    0.0127   -0.0088    0.0008   -0.0035    0.0098
           6   -0.0005    0.0051    0.0049    0.0112   -0.0035    0.0070    0.0013    0.0028
           7    0.0028    0.0044    0.0006   -0.0027   -0.0014    0.0214   -0.0030    0.0006
           8   -0.0185   -0.0077    0.0032   -0.0062   -0.0051   -0.0016   -0.0018   -0.0101
           9   -0.0249   -0.0171    0.0118   -0.0016   -0.0041   -0.0078   -0.0074    0.0002
          10   -0.0036    0.0011    0.0029    0.0026   -0.0038    0.0002   -0.0005   -0.0047
          11   -0.0082    0.0093    0.0058   -0.0065   -0.0013   -0.0029   -0.0061    0.0062
          12    0.0061   -0.0049   -0.0098   -0.0019    0.0065   -0.0004   -0.0037    0.0045
          13    0.0059    0.0010    0.0040   -0.0066    0.0005    0.0069   -0.0041   -0.0312
          14   -0.0021    0.0033    0.0001   -0.0003   -0.0013    0.0113   -0.0023    0.0124
          15    0.0090   -0.0019    0.0118   -0.0122   -0.0159   -0.0147   -0.0075    0.0054
          16    0.0036   -0.0021   -0.0015   -0.0019    0.0030    0.0011    0.0006    0.0124
          17    0.0060   -0.0072   -0.0090    0.0072    0.0025    0.0022    0.0048   -0.0086
          18   -0.0123    0.0107    0.0203    0.0012   -0.0131    0.0008    0.0086   -0.0104
          19    0.0079   -0.0040   -0.0032    0.0014    0.0041   -0.0003    0.0017    0.0074
          20   -0.0091    0.0072    0.0097   -0.0279    0.0081   -0.0046    0.0018    0.0111
          21   -0.0114   -0.0081   -0.0242   -0.0060    0.0157   -0.0001   -0.0016    0.0063
          22   -0.0197   -0.0152   -0.0061    0.0022   -0.0074   -0.0301   -0.0080   -0.0046
          23   -0.0052    0.0022   -0.0026    0.0044   -0.0026    0.0048   -0.0048    0.0169
          24    0.0008    0.0207   -0.0025    0.0135    0.0176    0.0034    0.0026   -0.0017
          25    0.0047    0.0012   -0.0102    0.0041    0.0036   -0.0041   -0.0049    0.0090
          26    0.0063    0.0039   -0.0039    0.0050    0.0038   -0.0116    0.0018   -0.0009
          27    0.0062   -0.0234    0.0209    0.0117    0.0188   -0.0046   -0.0038    0.0099
          28    0.0212   -0.0008    0.0058    0.0080    0.0126   -0.0075    0.0098   -0.0063
          29   -0.0022    0.0051    0.0001    0.0012   -0.0001   -0.0028    0.0030    0.0026
          30    0.0305    0.0051   -0.0255   -0.0085   -0.0110    0.0044    0.0073   -0.0049
          31   -0.0829    0.1539   -0.0631   -0.0401   -0.0954   -0.0783   -0.0234   -0.0025
          32    0.1139   -0.0629   -0.0111    0.0045    0.0683   -0.0656   -0.1022    0.1386
          33   -0.0079    0.0594   -0.0472   -0.0169   -0.0236   -0.0391   -0.0341    0.0234
          34   -0.0467    0.0100   -0.0336    0.0279    0.0280    0.0257    0.0049    0.0346
          35    0.1330    0.0080    0.1323    0.0595   -0.1277   -0.0392   -0.0069   -0.0826
          36    0.0405    0.0010    0.0391    0.0125   -0.0383   -0.0141   -0.0022   -0.0245
          37    0.0166    0.0024    0.0217   -0.0360   -0.0131   -0.0291   -0.0053    0.0501
          38   -0.0607   -0.0443   -0.1199    0.1911   -0.0027    0.0396   -0.0050   -0.1079
          39   -0.0180   -0.0187   -0.0423    0.0638   -0.0073    0.0029   -0.0052   -0.0232
          40   -0.0295   -0.0700    0.0023   -0.0880   -0.0891    0.1971   -0.1568    0.0273
          41   -0.0084    0.0010   -0.0063   -0.0170   -0.0126    0.0255   -0.0083   -0.0192
          42   -0.0117   -0.0183   -0.0068   -0.0418   -0.0384    0.0841   -0.0577   -0.0092
          43   -0.0428    0.1394    0.1088    0.0834    0.1304    0.0573   -0.0380    0.0111
          44   -0.0727   -0.0350    0.0376    0.0011   -0.0026   -0.0273   -0.0171   -0.0086
          45   -0.0300    0.0437    0.0470    0.0309    0.0481    0.0132   -0.0176    0.0033
          46    0.0185   -0.0176   -0.0265    0.0009    0.0140    0.0002   -0.0094    0.0042
          47    0.0230   -0.0281   -0.0343    0.0064    0.0154    0.0010   -0.0116   -0.0054
          48    0.0014   -0.0041   -0.0035    0.0033   -0.0002    0.0003   -0.0009   -0.0054
          49   -0.0285    0.0237    0.0319   -0.0004   -0.0211   -0.0023   -0.0022   -0.0078
          50   -0.0336    0.0211    0.0368    0.0055   -0.0268   -0.0010    0.0003   -0.0198
          51   -0.0262    0.0201    0.0286    0.0002   -0.0191   -0.0017   -0.0018   -0.0087
          52   -0.0075    0.0242    0.0003   -0.0266    0.0088   -0.0134   -0.0287    0.0286
          53   -0.0051    0.0161   -0.0027   -0.0230    0.0105   -0.0095   -0.0221    0.0259
          54   -0.0133    0.0212    0.0122   -0.0107   -0.0050   -0.0081   -0.0126    0.0075
          55    0.0147   -0.0038   -0.0123   -0.1571    0.0981   -0.0115    0.0194   -0.1250
          56   -0.0112   -0.0070   -0.0263   -0.1333    0.0866   -0.0113    0.0128   -0.0795
          57    0.0070    0.0308    0.0533   -0.0624    0.0054   -0.0061    0.0072   -0.0356
          58   -0.0306   -0.0789    0.0683    0.0142    0.0297    0.0484    0.0761    0.0332
          59    0.0702    0.0610   -0.0446    0.0119    0.0044   -0.0986   -0.1329   -0.0333
          60   -0.0167    0.0152   -0.0344   -0.0079   -0.0142    0.0238    0.0446    0.0161
          61    0.0672    0.0367   -0.0548   -0.0233   -0.0337    0.0409    0.0919    0.0346
          62    0.0312    0.0554   -0.0267   -0.0255   -0.0411    0.0775    0.1842    0.0967
          63   -0.0047   -0.0038    0.0404    0.0121    0.0190    0.0140    0.0623    0.0264
          64   -0.0652   -0.0458   -0.0077   -0.0077   -0.0235   -0.0965    0.0528    0.0330
          65    0.0589    0.0539   -0.0021    0.0236    0.0261    0.1048   -0.0944   -0.0365
          66   -0.0107   -0.0622    0.0126   -0.0350   -0.0472   -0.0338    0.0058    0.0020


   Root No.      33        34        35        36        37        38        39        40

                33 A      34 A      35 A      36 A      37 A      38 A      39 A      40 A   

                1186.1    1201.3    1259.5    1309.9    1333.3    1361.6    1375.1    1388.2
  
           1   -0.0125    0.0227    0.0173    0.0132    0.0212    0.0062   -0.0351    0.0014
           2   -0.0268   -0.0236   -0.0005    0.0016    0.0223    0.0406   -0.0001   -0.0030
           3   -0.0100    0.0106    0.0089    0.0208    0.0046    0.0073   -0.0087    0.0048
           4    0.0029   -0.0026   -0.0256   -0.0118   -0.0105    0.0088    0.0097   -0.0237
           5   -0.0033    0.0034   -0.0033    0.0337    0.0442   -0.0381    0.0234   -0.0155
           6   -0.0043    0.0017   -0.0030    0.0111    0.0120   -0.0122    0.0093   -0.0080
           7    0.0045   -0.0109   -0.0004    0.0186    0.0158   -0.0068   -0.0274   -0.0003
           8    0.0138    0.0068    0.0127    0.0006   -0.0017   -0.0065   -0.0316   -0.0166
           9    0.0042   -0.0012    0.0015    0.0064    0.0028   -0.0054   -0.0241   -0.0077
          10    0.0047    0.0060   -0.0046   -0.0083    0.0020   -0.0315   -0.0070    0.0111
          11    0.0104    0.0073   -0.0010   -0.0010   -0.0027   -0.0212   -0.0027   -0.0054
          12    0.0057    0.0040   -0.0004    0.0001   -0.0018   -0.0110   -0.0011    0.0125
          13    0.0054    0.0258    0.0232    0.0254   -0.0251   -0.0336    0.0223    0.0123
          14   -0.0184    0.0055   -0.0149    0.0045   -0.0143   -0.0043    0.0048    0.0057
          15    0.0050   -0.0021   -0.0044   -0.0033   -0.0049   -0.0008    0.0012    0.0004
          16   -0.0091   -0.0131    0.0195    0.0031   -0.0065    0.0089   -0.0009    0.0058
          17   -0.0132   -0.0131    0.0051   -0.0289    0.0051   -0.0232    0.0001   -0.0111
          18   -0.0091   -0.0118    0.0009   -0.0141    0.0024   -0.0076    0.0013   -0.0046
          19   -0.0116   -0.0198    0.0163   -0.0045   -0.0058    0.0117    0.0037    0.0017
          20    0.0012   -0.0087    0.0342   -0.0081   -0.0277    0.0297   -0.0151    0.0135
          21    0.0012   -0.0018    0.0144   -0.0021   -0.0107    0.0109   -0.0059    0.0056
          22    0.0233   -0.0008    0.0138   -0.0156    0.0129    0.0059    0.0035   -0.0072
          23   -0.0072    0.0047   -0.0214   -0.0071   -0.0200    0.0019    0.0029    0.0026
          24    0.0003    0.0017    0.0016   -0.0014    0.0006    0.0007    0.0021   -0.0001
          25   -0.0021   -0.0019   -0.0054   -0.0265    0.0062    0.0055    0.0055   -0.0077
          26    0.0008   -0.0140   -0.0080    0.0109   -0.0097   -0.0021    0.0105    0.0067
          27   -0.0012    0.0033   -0.0022   -0.0185    0.0047    0.0032    0.0027   -0.0053
          28   -0.0053   -0.0146   -0.0085    0.0085   -0.0131    0.0022    0.0175    0.0077
          29    0.0080   -0.0072   -0.0030    0.0151   -0.0099   -0.0080    0.0012    0.0063
          30   -0.0025   -0.0133   -0.0069    0.0079   -0.0094    0.0011    0.0122    0.0061
          31    0.0270   -0.0799   -0.0316   -0.0314   -0.0149   -0.0009    0.0271   -0.0056
          32    0.0753    0.0451   -0.0044   -0.0119   -0.0219   -0.0312   -0.0040    0.0014
          33    0.0266   -0.0178   -0.0124   -0.0019   -0.0182   -0.0100    0.0155    0.0019
          34   -0.0153   -0.0078   -0.0929   -0.0069    0.1024    0.0071   -0.0735    0.0823
          35    0.0480    0.0332   -0.0461   -0.0551   -0.0418    0.0407   -0.0519    0.0531
          36    0.0132    0.0087    0.0189   -0.0062   -0.0516    0.0021    0.0328   -0.0423
          37   -0.0020   -0.0221   -0.0884   -0.0103    0.0978    0.0073   -0.0567    0.0573
          38    0.0436    0.0627   -0.0091   -0.0391   -0.0895    0.0289   -0.0139    0.0124
          39    0.0191    0.0169   -0.0677   -0.0307    0.0402    0.0260   -0.0783    0.0872
          40   -0.0729    0.0140   -0.0523   -0.0382   -0.0737    0.0093   -0.0027   -0.0211
          41    0.0254    0.0177    0.0383   -0.0292    0.0582    0.0208    0.0720    0.0279
          42    0.0009    0.0223    0.0294   -0.0564    0.0776    0.0437    0.1529    0.0602
          43   -0.0447    0.0314   -0.0140   -0.0324   -0.0232    0.0142    0.0398    0.0059
          44    0.0326    0.0257    0.0500   -0.0513    0.1083    0.0413    0.1559    0.0668
          45   -0.0181    0.0125   -0.0094   -0.0054   -0.0296   -0.0044   -0.0256   -0.0175
          46    0.0255    0.0296   -0.0279    0.0488    0.0050    0.0931    0.0339   -0.0619
          47    0.0352    0.0470   -0.0443    0.0583    0.0083    0.1068    0.0143   -0.0574
          48    0.0026    0.0059   -0.0034   -0.0099    0.0012   -0.0326   -0.0190    0.0276
          49    0.0176    0.0236   -0.0272    0.0402    0.0080    0.0861    0.0288   -0.1063
          50    0.0238    0.0324   -0.0389    0.0362    0.0040    0.0478    0.0033    0.1137
          51    0.0191    0.0255   -0.0309    0.0490    0.0057    0.1042    0.0290   -0.0522
          52    0.0400    0.0450   -0.0263    0.0785   -0.0064    0.1127    0.0095    0.0511
          53    0.0341    0.0315   -0.0163    0.0524   -0.0093    0.0623    0.0077    0.0650
          54    0.0093    0.0161   -0.0056    0.0200    0.0017    0.0394   -0.0020   -0.1039
          55    0.0248    0.0361   -0.1153   -0.0458    0.0231   -0.0437    0.0114   -0.0303
          56    0.0274    0.0310   -0.0545   -0.0365   -0.0076   -0.0094   -0.0110   -0.0077
          57    0.0106    0.0143   -0.0242   -0.0149   -0.0043   -0.0043   -0.0054   -0.0035
          58    0.0689   -0.0561   -0.0343    0.0107   -0.0350   -0.0135    0.0310    0.0078
          59   -0.1199    0.0886    0.0442   -0.0534    0.0649    0.0323   -0.0366   -0.0202
          60    0.0404   -0.0418   -0.0241    0.0033   -0.0246   -0.0083    0.0242    0.0047
          61    0.0107    0.0380    0.0048   -0.0360    0.0036    0.0094    0.0121   -0.0064
          62    0.0462    0.1252    0.0328   -0.0927    0.0277    0.0079   -0.0114   -0.0287
          63    0.0097    0.0355    0.0061   -0.0324    0.0019    0.0079    0.0118   -0.0064
          64   -0.0816    0.0578   -0.0364   -0.0005   -0.0517   -0.0104    0.0376    0.0132
          65    0.1437   -0.0776    0.0494   -0.0305    0.0701    0.0241   -0.0452   -0.0272
          66   -0.0046    0.0056   -0.0005    0.0023   -0.0028    0.0008   -0.0030    0.0011


   Root No.      41        42        43        44        45        46        47        48

                41 A      42 A      43 A      44 A      45 A      46 A      47 A      48 A   

                1390.9    1394.0    1398.2    1443.9    1488.9    1851.4    1867.7    1931.7
  
           1   -0.0032   -0.0069    0.0205    0.0639    0.0590   -0.0200   -0.0004   -0.0056
           2   -0.0081   -0.0039   -0.0187    0.0009   -0.0741    0.0120   -0.0145   -0.0207
           3    0.0019   -0.0023    0.0039    0.0252   -0.0008   -0.0074    0.0031    0.0006
           4   -0.0290   -0.0241    0.0198    0.0260   -0.0165    0.0099    0.0078    0.0201
           5   -0.0101    0.0045   -0.0241   -0.0028   -0.0042   -0.0025    0.0007   -0.0240
           6   -0.0070   -0.0020   -0.0043    0.0013   -0.0024    0.0000    0.0010   -0.0030
           7   -0.0046   -0.0209    0.0574   -0.0506   -0.0203   -0.0117    0.0043   -0.0113
           8   -0.0097    0.0095   -0.0258   -0.0104   -0.0073   -0.0120    0.0122    0.0173
           9   -0.0064   -0.0037    0.0100   -0.0210   -0.0092   -0.0070    0.0045   -0.0001
          10    0.0012   -0.0168   -0.0017    0.0223   -0.0372   -0.0146   -0.0234    0.0079
          11    0.0177    0.0115    0.0121    0.0297   -0.0623   -0.0131   -0.0220    0.0078
          12   -0.0147    0.0183    0.0076    0.0122   -0.0256   -0.0056   -0.0093    0.0033
          13    0.0197    0.0169   -0.0156   -0.0490   -0.0097   -0.0049   -0.0024   -0.0244
          14    0.0042   -0.0046    0.0169   -0.0132   -0.0015    0.0435    0.0146    0.2341
          15    0.0005   -0.0002    0.0014   -0.0043   -0.0020    0.0017   -0.0016    0.0108
          16    0.0063    0.0042   -0.0031   -0.0055   -0.0120    0.0992    0.1594   -0.0506
          17   -0.0047    0.0038    0.0051   -0.0275    0.1070    0.0138    0.0266   -0.0158
          18   -0.0028    0.0020    0.0009   -0.0135    0.0405    0.0068    0.0157   -0.0067
          19    0.0015    0.0025   -0.0075   -0.0251    0.0261   -0.0841   -0.1333    0.0402
          20    0.0107    0.0022    0.0056    0.0022   -0.0046   -0.0105   -0.0140   -0.0023
          21    0.0044    0.0012    0.0021    0.0007   -0.0002   -0.0062   -0.0089    0.0007
          22   -0.0043    0.0104   -0.0337    0.0297    0.0118    0.0086    0.0037    0.0383
          23    0.0002   -0.0071    0.0175   -0.0017   -0.0013   -0.0390   -0.0177   -0.1947
          24    0.0001    0.0013   -0.0040    0.0042    0.0016    0.0004   -0.0003   -0.0015
          25   -0.0064    0.0003   -0.0071   -0.0341   -0.0287    0.0265   -0.0182   -0.0046
          26    0.0056    0.0001    0.0021    0.0151    0.0096   -0.1384    0.1014    0.0318
          27   -0.0042    0.0003   -0.0046   -0.0216   -0.0173    0.0103   -0.0054   -0.0023
          28    0.0071    0.0046   -0.0116    0.0280    0.0132    0.0078   -0.0054   -0.0004
          29    0.0058    0.0000    0.0071    0.0204    0.0265    0.1420   -0.1013   -0.0321
          30    0.0054    0.0024   -0.0054    0.0192    0.0097    0.0143   -0.0104   -0.0031
          31   -0.0024    0.0041   -0.0153   -0.0430   -0.0266   -0.0027    0.0098   -0.0112
          32    0.0056    0.0001    0.0203    0.0050    0.0427    0.0033    0.0206    0.0048
          33    0.0039    0.0027   -0.0027   -0.0180   -0.0097   -0.0007    0.0070   -0.0021
          34    0.0896    0.0637   -0.0365   -0.0290    0.0204    0.0014    0.0013    0.0070
          35    0.0507    0.0217    0.0145   -0.0105   -0.0026    0.0121    0.0167    0.0044
          36   -0.0481   -0.0370    0.0262    0.0236   -0.0189    0.0032    0.0025    0.0039
          37    0.0628    0.0474   -0.0330   -0.0127    0.0103    0.0020    0.0013   -0.0039
          38    0.0065   -0.0121    0.0377    0.0074   -0.0171    0.0177    0.0215    0.0213
          39    0.0920    0.0580   -0.0192   -0.0292    0.0178    0.0065    0.0120   -0.0025
          40   -0.0083    0.0349   -0.1021    0.0593    0.0124   -0.0262    0.0104   -0.0278
          41    0.0161   -0.0121    0.0298    0.0048   -0.0005   -0.0125    0.0121    0.0163
          42    0.0352   -0.0248    0.0605    0.0326    0.0099   -0.0137    0.0089    0.0011
          43    0.0071    0.0154   -0.0440    0.0439    0.0136   -0.0096    0.0041   -0.0095
          44    0.0371   -0.0374    0.0962    0.0140    0.0081    0.0004   -0.0008   -0.0019
          45   -0.0085    0.0177   -0.0484    0.0127    0.0019   -0.0060    0.0037   -0.0022
          46   -0.0178    0.1773    0.0667   -0.0136    0.0225   -0.0065   -0.0103    0.0033
          47    0.0641   -0.1166   -0.0545   -0.0605    0.1045   -0.0035   -0.0068    0.0016
          48    0.0280   -0.1590   -0.0625   -0.0024    0.0050   -0.0041   -0.0068    0.0023
          49    0.0634    0.1012    0.0478   -0.0101    0.0198   -0.0084   -0.0129    0.0042
          50   -0.1558   -0.0377   -0.0520   -0.0552    0.0810   -0.0067   -0.0102    0.0033
          51   -0.0067    0.0874    0.0250   -0.0404    0.0668   -0.0013   -0.0015    0.0003
          52   -0.0526   -0.0904   -0.0698   -0.0628    0.0551    0.0208    0.0322   -0.0086
          53   -0.0832   -0.0001   -0.0262   -0.0270    0.0006    0.0072    0.0098   -0.0017
          54    0.1755   -0.1573   -0.0452   -0.0091    0.0058    0.0034    0.0047   -0.0010
          55   -0.0257   -0.0123    0.0174    0.0020    0.0431   -0.0153   -0.0281    0.0184
          56   -0.0071   -0.0068    0.0230    0.0226    0.0066    0.0549    0.0899   -0.0335
          57   -0.0029   -0.0038    0.0115    0.0117    0.0053    0.0219    0.0353   -0.0125
          58    0.0129   -0.0003   -0.0074    0.0013    0.0116   -0.0663    0.0510    0.0192
          59   -0.0271   -0.0016    0.0053   -0.0398   -0.0544   -0.0220    0.0160   -0.0017
          60    0.0071    0.0030   -0.0087   -0.0052   -0.0013   -0.0464    0.0368    0.0162
          61   -0.0036    0.0078   -0.0280   -0.0036   -0.0138   -0.0687    0.0503    0.0183
          62   -0.0196    0.0113   -0.0412   -0.0520   -0.0349    0.0124   -0.0065    0.0037
          63   -0.0031    0.0085   -0.0294   -0.0052   -0.0148   -0.0475    0.0349    0.0160
          64    0.0135    0.0052   -0.0039    0.0023    0.0043   -0.0196   -0.0141   -0.1240
          65   -0.0256    0.0009   -0.0267    0.0380    0.0102   -0.0116    0.0029   -0.0328
          66    0.0007   -0.0008    0.0030   -0.0005   -0.0003   -0.0030    0.0010   -0.0049


   Root No.      49        50        51        52        53        54        55        56

                49 A      50 A      51 A      52 A      53 A      54 A      55 A      56 A   

                2843.9    2939.6    2971.2    3020.2    3044.5    3056.5    3063.6    3075.2
  
           1    0.0272   -0.0002   -0.0001   -0.0001    0.0005    0.0002   -0.0000    0.0001
           2    0.0134   -0.0002    0.0000   -0.0001   -0.0001   -0.0001   -0.0001   -0.0001
           3   -0.0662    0.0005   -0.0002    0.0002   -0.0000    0.0002   -0.0000    0.0000
           4   -0.0002   -0.0000    0.0060   -0.0000   -0.0412   -0.0001   -0.0000    0.0001
           5   -0.0001   -0.0001    0.0189   -0.0000   -0.0108   -0.0000    0.0000   -0.0001
           6    0.0000    0.0001   -0.0574   -0.0000   -0.0050    0.0000   -0.0001   -0.0001
           7    0.0002    0.0188    0.0000    0.0057   -0.0000   -0.0002   -0.0000   -0.0001
           8    0.0001    0.0196    0.0001   -0.0392    0.0001    0.0017    0.0005   -0.0003
           9   -0.0004   -0.0528   -0.0002   -0.0069    0.0000   -0.0004   -0.0001    0.0002
          10    0.0000   -0.0000    0.0000   -0.0000   -0.0001    0.0019   -0.0061   -0.0054
          11    0.0001    0.0000    0.0000    0.0000   -0.0001   -0.0039    0.0211    0.0019
          12   -0.0001    0.0000   -0.0000   -0.0000   -0.0000    0.0066   -0.0407    0.0052
          13    0.0009    0.0002   -0.0001   -0.0003   -0.0005   -0.0002   -0.0000   -0.0002
          14    0.0011    0.0003    0.0004    0.0004    0.0003    0.0001    0.0000    0.0026
          15   -0.0001   -0.0002   -0.0001   -0.0000    0.0000   -0.0001   -0.0000    0.0001
          16    0.0010   -0.0000    0.0001   -0.0000    0.0008    0.0002   -0.0001   -0.0001
          17   -0.0008    0.0000    0.0000    0.0000    0.0004   -0.0000   -0.0000    0.0000
          18   -0.0006   -0.0000   -0.0003   -0.0000    0.0002    0.0001   -0.0001   -0.0000
          19   -0.0006    0.0000   -0.0003   -0.0000    0.0002   -0.0000    0.0000   -0.0000
          20    0.0002   -0.0000    0.0001   -0.0000   -0.0015   -0.0000    0.0002    0.0001
          21   -0.0003    0.0000   -0.0001   -0.0000   -0.0006   -0.0000   -0.0001    0.0001
          22    0.0002   -0.0006    0.0003    0.0029    0.0001   -0.0008   -0.0005   -0.0236
          23   -0.0006   -0.0012   -0.0002    0.0016   -0.0001   -0.0008   -0.0005   -0.0193
[...]
 EFFECTIVE MASS      2.8063
 FORCE CONSTANT      0.3557

 VIBRATION         43   43A           ATOM PAIR      ENERGY CONTRIBUTION    RADIAL
 FREQUENCY          1398.22         C  3 -- C  8         +19.1% ( 62.2%)     99.7%
 TRANSITION DIPOLE   0.0711         C  3 -- H 14         +13.5% ( 52.3%)      3.3%
 TRAVEL (Ang.)       0.1912         C  3 -- H 15         +13.1% ( 51.4%)      2.7%
 REDUCED MASS        1.3194         C  3 -- C 10         +10.9% ( 47.0%)     19.7%
 EFFECTIVE MASS      7.5553
 FORCE CONSTANT      1.5198

 VIBRATION         44   44A           ATOM PAIR      ENERGY CONTRIBUTION    RADIAL
 FREQUENCY          1443.85         C  1 -- C  5         +11.8% ( 53.5%)     75.7%
 TRANSITION DIPOLE   0.0361         C  1 -- C  9         +11.5% ( 52.9%)     85.3%
 TRAVEL (Ang.)       0.1879         C  3 -- C 10          +8.1% ( 44.4%)     91.0%
 REDUCED MASS        1.3234         C  1 -- C  6          +7.3% ( 42.1%)      2.5%
 EFFECTIVE MASS     10.6338
 FORCE CONSTANT      1.6255

 VIBRATION         45   45A           ATOM PAIR      ENERGY CONTRIBUTION    RADIAL
 FREQUENCY          1488.88         C  1 -- C  6         +22.0% ( 73.1%)     97.0%
 TRANSITION DIPOLE   0.1169         C  4 -- C  6         +19.1% ( 68.2%)     77.2%
 TRAVEL (Ang.)       0.1261         C  6 -- C  7         +11.2% ( 52.1%)      8.9%
 REDUCED MASS        2.8461         C  1 -- C  9          +9.4% ( 47.9%)     81.5%
 EFFECTIVE MASS     10.9936
 FORCE CONSTANT      3.7172

 VIBRATION         46   46A           ATOM PAIR      ENERGY CONTRIBUTION    RADIAL
 FREQUENCY          1851.36         C  9 -- C 10         +29.1% ( 80.4%)    100.0%
 TRANSITION DIPOLE   0.1507         C  6 -- C  7         +12.3% ( 52.3%)     98.0%
 TRAVEL (Ang.)       0.1135         C  1 -- C  9          +9.3% ( 45.4%)     50.5%
 REDUCED MASS        2.8284         C  3 -- C 10          +9.3% ( 45.4%)     49.6%
 EFFECTIVE MASS     11.8923
 FORCE CONSTANT      5.7119

 VIBRATION         47   47A           ATOM PAIR      ENERGY CONTRIBUTION    RADIAL
 FREQUENCY          1867.72         C  6 -- C  7         +29.4% ( 80.0%)     97.7%
 TRANSITION DIPOLE   0.0780         C  9 -- C 10         +14.1% ( 55.4%)    100.0%
 TRAVEL (Ang.)       0.1079         C  4 -- C  6         +12.4% ( 52.0%)     63.7%
 REDUCED MASS        3.1002         C  1 -- C  6         +11.1% ( 49.1%)      1.2%
 EFFECTIVE MASS     11.8780
 FORCE CONSTANT      6.3719

 VIBRATION         48   48A           ATOM PAIR      ENERGY CONTRIBUTION    RADIAL
 FREQUENCY          1931.66         C  5 -- C  8         +41.1% ( 94.7%)     99.2%
 TRANSITION DIPOLE   0.1209         C  2 -- C  5         +16.3% ( 59.7%)     50.8%
 TRAVEL (Ang.)       0.0832         C  1 -- C  5         +15.9% ( 58.9%)     26.6%
 REDUCED MASS        5.0379         C  3 -- C  8         +10.2% ( 47.2%)     40.8%
 EFFECTIVE MASS     11.9211
 FORCE CONSTANT     11.0755

 VIBRATION         49   49A           ATOM PAIR      ENERGY CONTRIBUTION    RADIAL
 FREQUENCY          2843.88         C  1 -- H 11         +97.1% (100.0%)    100.0%
 TRANSITION DIPOLE   0.1003         C  1 -- C  9          +1.0% (  9.9%)      7.4%
 TRAVEL (Ang.)       0.1597         C  1 -- C  5          +1.0% (  9.9%)     10.8%
 REDUCED MASS        0.9297         C  1 -- C  6          +1.0% (  9.9%)      9.0%
 EFFECTIVE MASS      1.4276
 FORCE CONSTANT      4.4302

 VIBRATION         50   50A           ATOM PAIR      ENERGY CONTRIBUTION    RADIAL
 FREQUENCY          2939.57         C  3 -- H 15         +63.0% ( 82.2%)     97.8%
 TRANSITION DIPOLE   0.0380         C  3 -- H 14         +34.8% ( 61.1%)     94.6%
 TRAVEL (Ang.)       0.2030         C  3 -- C  8          +1.1% ( 10.8%)      0.3%
 REDUCED MASS        0.5566         C  3 -- C 10          +1.1% ( 10.8%)      0.2%
 EFFECTIVE MASS      1.5322
 FORCE CONSTANT      2.8336

 VIBRATION         51   51A           ATOM PAIR      ENERGY CONTRIBUTION    RADIAL
 FREQUENCY          2971.16         C  2 -- H 12         +56.4% ( 77.8%)     97.4%
 TRANSITION DIPOLE   0.0458         C  2 -- H 13         +41.4% ( 66.7%)     95.8%
 TRAVEL (Ang.)       0.2072         C  2 -- C  7          +1.1% ( 10.8%)      0.1%
 REDUCED MASS        0.5288         C  2 -- C  5          +1.1% ( 10.8%)      0.1%
 EFFECTIVE MASS      1.5339
 FORCE CONSTANT      2.7503

 VIBRATION         52   52A           ATOM PAIR      ENERGY CONTRIBUTION    RADIAL
 FREQUENCY          3020.23         C  3 -- H 14         +63.9% ( 79.0%)     99.0%
 TRANSITION DIPOLE   0.0882         C  3 -- H 15         +33.7% ( 57.4%)     95.0%
 TRAVEL (Ang.)       0.2085         C  3 -- C 10          +0.7% (  8.3%)     21.7%
 REDUCED MASS        0.5137         C  3 -- C  8          +0.7% (  8.2%)     23.5%
 EFFECTIVE MASS      1.2905
 FORCE CONSTANT      2.7609

 VIBRATION         53   53A           ATOM PAIR      ENERGY CONTRIBUTION    RADIAL
 FREQUENCY          3044.45         C  2 -- H 13         +57.4% ( 74.9%)     98.3%
 TRANSITION DIPOLE   0.1091         C  2 -- H 12         +41.1% ( 63.3%)     96.2%
 TRAVEL (Ang.)       0.2115         C  2 -- C  5          +0.7% (  8.4%)     38.1%
 REDUCED MASS        0.4950         C  2 -- C  7          +0.7% (  8.4%)     33.6%
 EFFECTIVE MASS      1.2879
 FORCE CONSTANT      2.7029

 VIBRATION         54   54A           ATOM PAIR      ENERGY CONTRIBUTION    RADIAL
 FREQUENCY          3056.50         C 10 -- H 21         +47.8% ( 70.2%)    100.0%
 TRANSITION DIPOLE   0.3067         C  9 -- H 20         +46.7% ( 69.4%)    100.0%
 TRAVEL (Ang.)       0.2247         C  4 -- H 16          +2.0% ( 14.5%)     99.0%
 REDUCED MASS        0.4369         C  9 -- C 10          +1.1% ( 10.4%)      0.0%
 EFFECTIVE MASS      1.4587
 FORCE CONSTANT      2.4050

 VIBRATION         55   55A           ATOM PAIR      ENERGY CONTRIBUTION    RADIAL
 FREQUENCY          3063.61         C  4 -- H 16         +61.0% ( 80.5%)     98.5%
 TRANSITION DIPOLE   0.0874         C  4 -- H 17         +30.9% ( 57.3%)     93.5%
 TRAVEL (Ang.)       0.2109         C  4 -- H 18          +3.7% ( 19.7%)     45.6%
 REDUCED MASS        0.4950         C 10 -- H 21          +3.2% ( 18.4%)    100.0%
 EFFECTIVE MASS      1.5023
 FORCE CONSTANT      2.7371

 VIBRATION         56   56A           ATOM PAIR      ENERGY CONTRIBUTION    RADIAL
 FREQUENCY          3075.24         C  8 -- H 22         +52.6% ( 73.7%)    100.0%
 TRANSITION DIPOLE   0.3954         C  9 -- H 20         +22.5% ( 48.2%)     99.9%
 TRAVEL (Ang.)       0.2471         C 10 -- H 21         +18.3% ( 43.4%)     99.9%
 REDUCED MASS        0.3592         C  4 -- H 17          +2.0% ( 14.5%)     98.1%
 EFFECTIVE MASS      1.5476
 FORCE CONSTANT      2.0016

 VIBRATION         57   57A           ATOM PAIR      ENERGY CONTRIBUTION    RADIAL
 FREQUENCY          3076.70         C  4 -- H 18         +47.0% ( 70.5%)     98.3%
 TRANSITION DIPOLE   0.1099         C  4 -- H 17         +29.6% ( 55.9%)     94.0%
 TRAVEL (Ang.)       0.2512         C  8 -- H 22         +13.2% ( 37.3%)    100.0%
 REDUCED MASS        0.3473         C  4 -- H 16          +5.3% ( 23.7%)     60.5%
 EFFECTIVE MASS      1.5202
 FORCE CONSTANT      1.9370

 VIBRATION         58   58A           ATOM PAIR      ENERGY CONTRIBUTION    RADIAL
 FREQUENCY          3077.42         C  8 -- H 22         +30.1% ( 55.8%)    100.0%
 TRANSITION DIPOLE   0.1852         C  9 -- H 20         +26.0% ( 51.9%)     99.9%
 TRAVEL (Ang.)       0.3070         C 10 -- H 21         +24.6% ( 50.5%)     99.9%
 REDUCED MASS        0.2324         C  4 -- H 18          +9.7% ( 31.7%)     98.7%
 EFFECTIVE MASS      1.5702
 FORCE CONSTANT      1.2969

 VIBRATION         59   59A           ATOM PAIR      ENERGY CONTRIBUTION    RADIAL
 FREQUENCY          3125.38         C  7 -- H 19         +96.5% ( 99.9%)    100.0%
 TRANSITION DIPOLE   0.3911         C  6 -- C  7          +1.8% ( 13.6%)     48.5%
 TRAVEL (Ang.)       0.1525         C  2 -- C  7          +1.6% ( 13.0%)     23.9%
 REDUCED MASS        0.9279
 EFFECTIVE MASS      1.5538
 FORCE CONSTANT      5.3401

 VIBRATION         60   60A           ATOM PAIR      ENERGY CONTRIBUTION    RADIAL
 FREQUENCY          3163.96         C  4 -- H 18         +38.7% ( 59.9%)     97.8%
 TRANSITION DIPOLE   0.0574         C  4 -- H 17         +32.7% ( 55.1%)     97.0%
 TRAVEL (Ang.)       0.2536         C  4 -- H 16         +28.2% ( 51.2%)     96.2%
 REDUCED MASS        0.3313         C  4 -- C  6          +0.3% (  5.5%)     98.8%
 EFFECTIVE MASS      1.1404
 FORCE CONSTANT      1.9542

      SYMMETRY NUMBER FOR POINT-GROUP C1  =  1


          SYSTEM IS A GROUND STATE



 InChI=1S/C10H12/c1-8-6-7-9-4-2-3-5-10(8)9/h3-6,10H,2,7H2,1H3


          MOLECULE IS NOT LINEAR

          THERE ARE 60 GENUINE VIBRATIONS IN THIS SYSTEM
          THIS THERMODYNAMICS CALCULATION IS LIMITED TO
          MOLECULES WHICH HAVE NO INTERNAL ROTATIONS




                    CALCULATED THERMODYNAMIC PROPERTIES
                                          *
   TEMP. (K)   PARTITION FUNCTION   H.O.F.    ENTHALPY  HEAT CAPACITY ENTROPY
                                   KCAL/MOL   CAL/MOLE    CAL/K/MOL  CAL/K/MOL


 298.00  VIB.     0.8619D+02                  3737.6374    29.0552    21.3986
         ROT.     0.5476D+06                   888.2803     2.9808    29.2383
         INT.     0.4720D+08                  4625.9177    32.0360    50.6369
         TRA.     0.1470D+28                  1480.4672     4.9680    40.5480
         TOT.                       30.513    6106.3849    37.0040    91.1849

 200.00  VIB.     0.1212D+02                  1494.3650    17.0373    12.4296
         ROT.     0.3011D+06                   596.1613     2.9808    28.0497
         INT.     0.3649D+07                  2090.5263    20.0181    40.4792
         TRA.     0.8080D+27                   993.6021     4.9680    38.5668
         TOT.                       27.491    3084.1284    24.9861    79.0461

 210.00  VIB.     0.1465D+02                  1670.3265    18.1602    13.2879
         ROT.     0.3239D+06                   625.9693     2.9808    28.1951
         INT.     0.4744D+07                  2296.2958    21.1410    41.4830
         TRA.     0.8694D+27                  1043.2822     4.9680    38.8092
         TOT.                       27.747    3339.5780    26.1090    80.2922

 220.00  VIB.     0.1774D+02                  1857.6720    19.3138    14.1592
         ROT.     0.3474D+06                   655.7774     2.9808    28.3338
         INT.     0.6163D+07                  2513.4494    22.2946    42.4930
         TRA.     0.9322D+27                  1092.9623     4.9680    39.0403
         TOT.                       28.013    3606.4117    27.2627    81.5333

 230.00  VIB.     0.2155D+02                  2056.6990    20.4961    15.0437
         ROT.     0.3713D+06                   685.5855     2.9808    28.4663
         INT.     0.8002D+07                  2742.2845    23.4769    43.5100
         TRA.     0.9965D+27                  1142.6424     4.9680    39.2612
         TOT.                       28.292    3884.9269    28.4450    82.7711

 240.00  VIB.     0.2624D+02                  2267.6817    21.7045    15.9415
         ROT.     0.3958D+06                   715.3935     2.9808    28.5931
         INT.     0.1039D+08                  2983.0752    24.6853    44.5346
         TRA.     0.1062D+28                  1192.3226     4.9680    39.4726
         TOT.                       28.582    4175.3977    29.6533    84.0072

 250.00  VIB.     0.3203D+02                  2490.8652    22.9358    16.8524
         ROT.     0.4208D+06                   745.2016     2.9808    28.7148
         INT.     0.1348D+08                  3236.0668    25.9166    45.5672
         TRA.     0.1129D+28                  1242.0027     4.9680    39.6754
         TOT.                       28.885    4478.0694    30.8846    85.2426

 260.00  VIB.     0.3919D+02                  2726.4624    24.1866    17.7762
         ROT.     0.4463D+06                   775.0097     2.9808    28.8317
         INT.     0.1749D+08                  3501.4720    27.1674    46.6080
         TRA.     0.1198D+28                  1291.6828     4.9680    39.8703
         TOT.                       29.200    4793.1548    32.1354    86.4782

 270.00  VIB.     0.4806D+02                  2974.6511    25.4535    18.7127
         ROT.     0.4723D+06                   804.8177     2.9808    28.9442
         INT.     0.2270D+08                  3779.4689    28.4343    47.6570
         TRA.     0.1267D+28                  1341.3629     4.9680    40.0578
         TOT.                       29.528    5120.8317    33.4023    87.7147

 280.00  VIB.     0.5909D+02                  3235.5734    26.7327    19.6615
         ROT.     0.4987D+06                   834.6258     2.9808    29.0526
         INT.     0.2947D+08                  4070.1992    29.7135    48.7141
         TRA.     0.1338D+28                  1391.0430     4.9680    40.2384
         TOT.                       29.868    5461.2422    34.6815    88.9526

 290.00  VIB.     0.7281D+02                  3509.3351    28.0208    20.6221
         ROT.     0.5257D+06                   864.4339     2.9808    29.1572
         INT.     0.3828D+08                  4373.7690    31.0016    49.7793
         TRA.     0.1411D+28                  1440.7231     4.9680    40.4128
         TOT.                       30.221    5814.4921    35.9696    90.1921

 300.00  VIB.     0.8993D+02                  3796.0068    29.3142    21.5938
         ROT.     0.5531D+06                   894.2419     2.9808    29.2583
         INT.     0.4974D+08                  4690.2487    32.2950    50.8521
         TRA.     0.1484D+28                  1490.4032     4.9680    40.5812
         TOT.                       30.588    6180.6519    37.2630    91.4333

 310.00  VIB.     0.1113D+03                  4095.6250    30.6096    22.5761
         ROT.     0.5810D+06                   924.0500     2.9808    29.3560
         INT.     0.6467D+08                  5019.6750    33.5904    51.9321
         TRA.     0.1559D+28                  1540.0833     4.9680    40.7441
         TOT.                       30.967    6559.7583    38.5584    92.6762

 320.00  VIB.     0.1381D+03                  4408.1945    31.9039    23.5684
         ROT.     0.6093D+06                   953.8580     2.9808    29.4507
         INT.     0.8415D+08                  5362.0525    34.8847    53.0190
         TRA.     0.1635D+28                  1589.7634     4.9680    40.9018
         TOT.                       31.359    6951.8159    39.8527    93.9209

 330.00  VIB.     0.1717D+03                  4733.6900    33.1943    24.5699
         ROT.     0.6381D+06                   983.6661     2.9808    29.5424
         INT.     0.1096D+09                  5717.3561    36.1751    54.1123
         TRA.     0.1713D+28                  1639.4435     4.9680    41.0547
         TOT.                       31.764    7356.7997    41.1431    95.1670

 340.00  VIB.     0.2139D+03                  5072.0592    34.4782    25.5799
         ROT.     0.6674D+06                  1013.4742     2.9808    29.6314
         INT.     0.1427D+09                  6085.5333    37.4590    55.2113
         TRA.     0.1791D+28                  1689.1236     4.9680    41.2030
         TOT.                       32.182    7774.6570    42.4270    96.4143

 350.00  VIB.     0.2670D+03                  5423.2246    35.7532    26.5978
         ROT.     0.6970D+06                  1043.2822     2.9808    29.7178
         INT.     0.1861D+09                  6466.5069    38.7340    56.3155
         TRA.     0.1871D+28                  1738.8037     4.9680    41.3470
         TOT.                       32.612    8205.3106    43.7020    97.6626

 360.00  VIB.     0.3339D+03                  5787.0871    37.0173    27.6227
         ROT.     0.7271D+06                  1073.0903     2.9808    29.8017
         INT.     0.2428D+09                  6860.1773    39.9981    57.4245
         TRA.     0.1951D+28                  1788.4838     4.9680    41.4870
         TOT.                       33.056    8648.6612    44.9661    98.9114

 370.00  VIB.     0.4184D+03                  6163.5275    38.2686    28.6540
         ROT.     0.7576D+06                  1102.8984     2.9808    29.8834
         INT.     0.3170D+09                  7266.4259    41.2494    58.5375
         TRA.     0.2033D+28                  1838.1639     4.9680    41.6231
         TOT.                       33.512    9104.5898    46.2174   100.1606

 380.00  VIB.     0.5253D+03                  6552.4102    39.5055    29.6911
         ROT.     0.7885D+06                  1132.7064     2.9808    29.9629
         INT.     0.4142D+09                  7685.1166    42.4863    59.6540
         TRA.     0.2116D+28                  1887.8440     4.9680    41.7556
         TOT.                       33.980    9572.9606    47.4543   101.4095

 390.00  VIB.     0.6606D+03                  6953.5843    40.7267    30.7331
         ROT.     0.8199D+06                  1162.5145     2.9808    30.0403
         INT.     0.5416D+09                  8116.0988    43.7075    60.7734
         TRA.     0.2200D+28                  1937.5242     4.9680    41.8846
         TOT.                       34.461   10053.6230    48.6755   102.6580

 400.00  VIB.     0.8322D+03                  7366.8872    41.9310    31.7794
         ROT.     0.8516D+06                  1192.3226     2.9808    30.1158
         INT.     0.7087D+09                  8559.2097    44.9118    61.8952
         TRA.     0.2285D+28                  1987.2043     4.9680    42.0104
         TOT.                       34.953   10546.4140    49.8798   103.9056

   *: NOTE: HEATS OF FORMATION ARE RELATIVE TO THE
            ELEMENTS IN THEIR STANDARD STATE AT 298K
              (=  Standard Enthalpy of Formation).

            Hvib:  Zero-point energy is not included.
                   frequencies of less than zero cm-1 are not included.
            Hrot = (3/2)RT
            Htra = (3/2)RT + pV = (5/2)RT

            Heat capacity is Cp, not Cv

          For more information, see: HTTP://OpenMOPAC.net/Manual/thermochemistry.html


           FORCE CONSTANT IN CARTESIAN COORDINATES (Millidynes/A)

    ATOM   CHEMICAL       X               Y               Z
   NUMBER   SYMBOL  FORCE CONSTANT  FORCE CONSTANT  FORCE CONSTANT

      1       C        9.791090        9.032558        7.584029
      2       C        9.708575        8.169973        7.853444
      3       C        8.760983        9.171311        7.826362
      4       C        8.662506        8.894293        8.096807
      5       C        8.742350       16.736645        2.892918
      6       C       15.114503        9.220723        3.872806
      7       C       14.842491        9.054244        3.332407
      8       C        9.569856       15.251473        2.444561
      9       C        7.180063       15.132346        4.905379
     10       C        7.335938       15.035089        4.671499
     11       H        1.132007        0.747084        3.811506
     12       H        1.446588        0.707633        4.109632
     13       H        2.637978        1.319747        2.382369
     14       H        0.772178        3.887578        1.652854
     15       H        1.178351        0.778035        4.172360
     16       H        1.904389        1.097186        3.618742
     17       H        2.540631        0.945269        3.151915
     18       H        2.079763        3.702008        0.948793
     19       H        2.380631        3.279381        0.755261
     20       H        2.459402        2.152468        1.645726
     21       H        2.991493        1.773918        1.504359
     22       H        3.706562        2.207920        0.359424

 **********************
 *                    *
 * JOB ENDED NORMALLY *
 *                    *
 **********************



 TOTAL JOB TIME:             3.44 SECONDS

 == MOPAC DONE ==
