 *******************************************************************************
 **                                                                           **
 **                              MOPAC v23.1.2                                **
 **                                                                           **
 *******************************************************************************
 **          Digital Object Identifier (DOI): 10.5281/zenodo.6511958          **
 **    Visit the DOI location for information on how to cite this program.    **
 *******************************************************************************

                              PM3 CALCULATION RESULTS

 *******************************************************************************
 *  CALCULATION DONE: (MAX THREADS = 1)              Tue Jun  3 16:35:11 2025  *
 *  PM3        - The PM3 Hamiltonian to be used
 *  PRECISE    - TIGHTER CRITERIA TO BE USED
 *  NOSYM      - POINT-GROUP SYMMETRY SET TO C1
 *  THREADS=1  - MULTI-THREADING NOT USED
 *  T=         - A TIME OF 172800.0 SECONDS REQUESTED
 *  DUMP=N     - RESTART FILE WRITTEN EVERY 7200.0 SECONDS REQUESTED
 *******************************************************************************
pm3  precise nosym THREADS=1
 InChI=1S/C12H20/c1-3-5-7-12-9-6-8-11(4-2)10-12/h5-8,11-12H,3-4,9-10H2,1-2H3

   ATOM   CHEMICAL          X               Y               Z
  NUMBER   SYMBOL      (ANGSTROMS)     (ANGSTROMS)     (ANGSTROMS)

     1       C         -2.29190000  *  -0.27970000  *   0.48360000  *
     2       C          0.22740000  *  -0.57400000  *   0.44430000  *
     3       C         -0.92510000  *   0.44200000  *   0.48320000  *
     4       C         -3.45660000  *   0.70400000  *   0.24050000  *
     5       C          0.13910000  *  -1.40000000  *  -0.85070000  *
     6       C          4.02460000  *   0.14380000  *   0.86630000  *
     7       C         -3.60690000  *   1.73560000  *   1.35930000  *
     8       C          4.48510000  *   0.67630000  *  -0.48780000  *
     9       C         -2.34450000  *  -1.39250000  *  -0.54650000  *
    10       C          1.56170000  *   0.12960000  *   0.53470000  *
    11       C         -1.24450000  *  -1.94970000  *  -1.07990000  *
    12       C          2.69630000  *  -0.55200000  *   0.75650000  *
    13       H         -2.43480000  *  -0.75570000  *   1.47920000  *
    14       H          0.12610000  *  -1.25380000  *   1.32100000  *
    15       H         -3.31590000  *   1.23150000  *  -0.72850000  *
    16       H         -4.41020000  *   0.13440000  *   0.17860000  *
    17       H         -0.85320000  *   1.12200000  *  -0.39570000  *
    18       H         -0.83290000  *   1.05500000  *   1.40630000  *
    19       H          0.85500000  *  -2.24840000  *  -0.80330000  *
    20       H          0.41050000  *  -0.76790000  *  -1.72450000  *
    21       H          4.78040000  *  -0.57950000  *   1.24080000  *
    22       H          3.95560000  *   0.97850000  *   1.59720000  *
    23       H         -4.53380000  *   2.32470000  *   1.19600000  *
    24       H         -2.74900000  *   2.43950000  *   1.36280000  *
    25       H         -3.67810000  *   1.23140000  *   2.34640000  *
    26       H          3.77600000  *   1.44220000  *  -0.86750000  *
    27       H          4.55700000  *  -0.15340000  *  -1.22330000  *
    28       H          5.48610000  *   1.14480000  *  -0.38110000  *
    29       H         -1.36130000  *  -2.77040000  *  -1.78130000  *
    30       H         -3.30690000  *  -1.84070000  *  -0.77770000  *
    31       H          2.66290000  *  -1.63000000  *   0.88970000  *
    32       H          1.60160000  *   1.21240000  *   0.44010000  *



          CARTESIAN COORDINATES 

    NO.       ATOM           X           Y           Z

     1         C         -2.2919     -0.2797      0.4836
     2         C          0.2274     -0.5740      0.4443
     3         C         -0.9251      0.4420      0.4832
     4         C         -3.4566      0.7040      0.2405
     5         C          0.1391     -1.4000     -0.8507
     6         C          4.0246      0.1438      0.8663
     7         C         -3.6069      1.7356      1.3593
     8         C          4.4851      0.6763     -0.4878
     9         C         -2.3445     -1.3925     -0.5465
    10         C          1.5617      0.1296      0.5347
    11         C         -1.2445     -1.9497     -1.0799
    12         C          2.6963     -0.5520      0.7565
    13         H         -2.4348     -0.7557      1.4792
    14         H          0.1261     -1.2538      1.3210
    15         H         -3.3159      1.2315     -0.7285
    16         H         -4.4102      0.1344      0.1786
    17         H         -0.8532      1.1220     -0.3957
    18         H         -0.8329      1.0550      1.4063
    19         H          0.8550     -2.2484     -0.8033
    20         H          0.4105     -0.7679     -1.7245
    21         H          4.7804     -0.5795      1.2408
    22         H          3.9556      0.9785      1.5972
    23         H         -4.5338      2.3247      1.1960
    24         H         -2.7490      2.4395      1.3628
    25         H         -3.6781      1.2314      2.3464
    26         H          3.7760      1.4422     -0.8675
    27         H          4.5570     -0.1534     -1.2233
    28         H          5.4861      1.1448     -0.3811
    29         H         -1.3613     -2.7704     -1.7813
    30         H         -3.3069     -1.8407     -0.7777
    31         H          2.6629     -1.6300      0.8897
    32         H          1.6016      1.2124      0.4401

  H: (PM3): J. J. P. STEWART, J. COMP. CHEM. 10, 209 (1989).
  C: (PM3): J. J. P. STEWART, J. COMP. CHEM. 10, 209 (1989).

           Empirical Formula: C12 H20  =    32 atoms



      MOLECULAR POINT GROUP   :   C1  


      RHF CALCULATION, NO. OF DOUBLY OCCUPIED LEVELS = 34


          Geometry optimization using EF

          DIAGONAL MATRIX USED AS START HESSIAN

 CYCLE:     1 TIME:   0.012 TIME LEFT:  2.00D  GRAD.:    73.536 HEAT: -5.666811
 CYCLE:     2 TIME:   0.027 TIME LEFT:  2.00D  GRAD.:    49.086 HEAT: -7.249119
 CYCLE:     3 TIME:   0.012 TIME LEFT:  2.00D  GRAD.:    63.149 HEAT: -7.583894
 CYCLE:     4 TIME:   0.016 TIME LEFT:  2.00D  GRAD.:    38.127 HEAT: -8.119658
 CYCLE:     5 TIME:   0.012 TIME LEFT:  2.00D  GRAD.:    46.184 HEAT: -8.232791
 CYCLE:     6 TIME:   0.012 TIME LEFT:  2.00D  GRAD.:    33.063 HEAT: -8.400566
 CYCLE:     7 TIME:   0.008 TIME LEFT:  2.00D  GRAD.:    32.055 HEAT: -8.509916
 CYCLE:     8 TIME:   0.020 TIME LEFT:  2.00D  GRAD.:    13.564 HEAT: -8.741634
 CYCLE:     9 TIME:   0.020 TIME LEFT:  2.00D  GRAD.:     9.934 HEAT: -8.793957
 CYCLE:    10 TIME:   0.008 TIME LEFT:  2.00D  GRAD.:    16.822 HEAT: -8.796534
 CYCLE:    11 TIME:   0.012 TIME LEFT:  2.00D  GRAD.:    11.853 HEAT: -8.873651
 CYCLE:    12 TIME:   0.020 TIME LEFT:  2.00D  GRAD.:    11.785 HEAT: -8.887151
 CYCLE:    13 TIME:   0.008 TIME LEFT:  2.00D  GRAD.:    11.169 HEAT: -8.907172
 CYCLE:    14 TIME:   0.012 TIME LEFT:  2.00D  GRAD.:    10.009 HEAT: -8.926246
 CYCLE:    15 TIME:   0.012 TIME LEFT:  2.00D  GRAD.:     9.444 HEAT: -8.940441
 CYCLE:    16 TIME:   0.016 TIME LEFT:  2.00D  GRAD.:     4.307 HEAT: -8.963836
 CYCLE:    17 TIME:   0.020 TIME LEFT:  2.00D  GRAD.:     3.447 HEAT: -8.970089
 CYCLE:    18 TIME:   0.008 TIME LEFT:  2.00D  GRAD.:     3.942 HEAT: -8.976279
 CYCLE:    19 TIME:   0.012 TIME LEFT:  2.00D  GRAD.:     5.959 HEAT: -8.985087
 CYCLE:    20 TIME:   0.023 TIME LEFT:  2.00D  GRAD.:     5.748 HEAT: -8.989232
 CYCLE:    21 TIME:   0.012 TIME LEFT:  2.00D  GRAD.:     4.919 HEAT: -8.995706
 CYCLE:    22 TIME:   0.012 TIME LEFT:  2.00D  GRAD.:     3.493 HEAT: -9.003872
 CYCLE:    23 TIME:   0.012 TIME LEFT:  2.00D  GRAD.:     4.149 HEAT: -9.008828
 CYCLE:    24 TIME:   0.008 TIME LEFT:  2.00D  GRAD.:     4.594 HEAT: -9.012873
 CYCLE:    25 TIME:   0.012 TIME LEFT:  2.00D  GRAD.:     4.218 HEAT: -9.020167
 CYCLE:    26 TIME:   0.012 TIME LEFT:  2.00D  GRAD.:     3.090 HEAT: -9.024569
 CYCLE:    27 TIME:   0.008 TIME LEFT:  2.00D  GRAD.:     3.232 HEAT: -9.026744
 CYCLE:    28 TIME:   0.012 TIME LEFT:  2.00D  GRAD.:     2.552 HEAT: -9.029224
 CYCLE:    29 TIME:   0.016 TIME LEFT:  2.00D  GRAD.:     2.528 HEAT: -9.030631
 CYCLE:    30 TIME:   0.012 TIME LEFT:  2.00D  GRAD.:     1.813 HEAT: -9.032965
 CYCLE:    31 TIME:   0.012 TIME LEFT:  2.00D  GRAD.:     1.622 HEAT: -9.034589
 CYCLE:    32 TIME:   0.012 TIME LEFT:  2.00D  GRAD.:     1.654 HEAT: -9.036366
 CYCLE:    33 TIME:   0.012 TIME LEFT:  2.00D  GRAD.:     1.627 HEAT: -9.038859
 CYCLE:    34 TIME:   0.012 TIME LEFT:  2.00D  GRAD.:     2.507 HEAT: -9.040302
 CYCLE:    35 TIME:   0.012 TIME LEFT:  2.00D  GRAD.:     2.093 HEAT: -9.043616
 CYCLE:    36 TIME:   0.008 TIME LEFT:  2.00D  GRAD.:     2.096 HEAT: -9.048012
 CYCLE:    37 TIME:   0.012 TIME LEFT:  2.00D  GRAD.:     2.554 HEAT: -9.052853
 CYCLE:    38 TIME:   0.012 TIME LEFT:  2.00D  GRAD.:     2.313 HEAT: -9.058799
 CYCLE:    39 TIME:   0.012 TIME LEFT:  2.00D  GRAD.:     2.243 HEAT: -9.064000
 CYCLE:    40 TIME:   0.012 TIME LEFT:  2.00D  GRAD.:     3.635 HEAT: -9.073514
 CYCLE:    41 TIME:   0.008 TIME LEFT:  2.00D  GRAD.:     4.332 HEAT: -9.084487
 CYCLE:    42 TIME:   0.012 TIME LEFT:  2.00D  GRAD.:     2.543 HEAT: -9.094447
 CYCLE:    43 TIME:   0.012 TIME LEFT:  2.00D  GRAD.:     3.292 HEAT: -9.104659
 CYCLE:    44 TIME:   0.012 TIME LEFT:  2.00D  GRAD.:     3.287 HEAT: -9.117474
 CYCLE:    45 TIME:   0.012 TIME LEFT:  2.00D  GRAD.:     2.645 HEAT: -9.133610
 CYCLE:    46 TIME:   0.012 TIME LEFT:  2.00D  GRAD.:     1.899 HEAT: -9.141279
 CYCLE:    47 TIME:   0.008 TIME LEFT:  2.00D  GRAD.:     2.625 HEAT: -9.146694
 CYCLE:    48 TIME:   0.012 TIME LEFT:  2.00D  GRAD.:     3.747 HEAT: -9.146945
 CYCLE:    49 TIME:   0.012 TIME LEFT:  2.00D  GRAD.:     1.909 HEAT: -9.155056
 CYCLE:    50 TIME:   0.012 TIME LEFT:  2.00D  GRAD.:     1.290 HEAT: -9.157970
 CYCLE:    51 TIME:   0.012 TIME LEFT:  2.00D  GRAD.:     1.381 HEAT: -9.161871
 CYCLE:    52 TIME:   0.012 TIME LEFT:  2.00D  GRAD.:     1.635 HEAT: -9.167738
 CYCLE:    53 TIME:   0.016 TIME LEFT:  2.00D  GRAD.:     1.754 HEAT: -9.172475
 CYCLE:    54 TIME:   0.012 TIME LEFT:  2.00D  GRAD.:     1.789 HEAT: -9.180383
 CYCLE:    55 TIME:   0.012 TIME LEFT:  2.00D  GRAD.:     2.153 HEAT: -9.188882
 CYCLE:    56 TIME:   0.012 TIME LEFT:  2.00D  GRAD.:     1.876 HEAT: -9.197278
 CYCLE:    57 TIME:   0.012 TIME LEFT:  2.00D  GRAD.:     1.687 HEAT: -9.203913
 CYCLE:    58 TIME:   0.012 TIME LEFT:  2.00D  GRAD.:     2.301 HEAT: -9.207284
 CYCLE:    59 TIME:   0.012 TIME LEFT:  2.00D  GRAD.:     3.440 HEAT: -9.204765
 CYCLE:    60 TIME:   0.012 TIME LEFT:  2.00D  GRAD.:     1.469 HEAT: -9.214330
 CYCLE:    61 TIME:   0.008 TIME LEFT:  2.00D  GRAD.:     1.006 HEAT: -9.217014
 CYCLE:    62 TIME:   0.012 TIME LEFT:  2.00D  GRAD.:     1.053 HEAT: -9.220568
 CYCLE:    63 TIME:   0.016 TIME LEFT:  2.00D  GRAD.:     1.122 HEAT: -9.223425
 CYCLE:    64 TIME:   0.008 TIME LEFT:  2.00D  GRAD.:     1.100 HEAT: -9.225109
 CYCLE:    65 TIME:   0.012 TIME LEFT:  2.00D  GRAD.:     1.107 HEAT: -9.228171
 CYCLE:    66 TIME:   0.012 TIME LEFT:  2.00D  GRAD.:     1.364 HEAT: -9.233386
 CYCLE:    67 TIME:   0.012 TIME LEFT:  2.00D  GRAD.:     1.512 HEAT: -9.238079
 CYCLE:    68 TIME:   0.012 TIME LEFT:  2.00D  GRAD.:     1.948 HEAT: -9.244369
 CYCLE:    69 TIME:   0.008 TIME LEFT:  2.00D  GRAD.:     2.125 HEAT: -9.252236
 CYCLE:    70 TIME:   0.012 TIME LEFT:  2.00D  GRAD.:     2.529 HEAT: -9.261635
 CYCLE:    71 TIME:   0.012 TIME LEFT:  2.00D  GRAD.:     2.337 HEAT: -9.276896
 CYCLE:    72 TIME:   0.012 TIME LEFT:  2.00D  GRAD.:     2.563 HEAT: -9.290840
 CYCLE:    73 TIME:   0.012 TIME LEFT:  2.00D  GRAD.:     3.014 HEAT: -9.305897
 CYCLE:    74 TIME:   0.012 TIME LEFT:  2.00D  GRAD.:     2.949 HEAT: -9.320370
 CYCLE:    75 TIME:   0.012 TIME LEFT:  2.00D  GRAD.:     4.658 HEAT: -9.339702
 CYCLE:    76 TIME:   0.012 TIME LEFT:  2.00D  GRAD.:     3.458 HEAT: -9.353403
 CYCLE:    77 TIME:   0.008 TIME LEFT:  2.00D  GRAD.:     2.941 HEAT: -9.366514
 CYCLE:    78 TIME:   0.012 TIME LEFT:  2.00D  GRAD.:     2.659 HEAT: -9.380407
 CYCLE:    79 TIME:   0.012 TIME LEFT:  2.00D  GRAD.:     2.674 HEAT: -9.390871
 CYCLE:    80 TIME:   0.012 TIME LEFT:  2.00D  GRAD.:     2.380 HEAT: -9.404954
 CYCLE:    81 TIME:   0.012 TIME LEFT:  2.00D  GRAD.:     2.308 HEAT: -9.418971
 CYCLE:    82 TIME:   0.012 TIME LEFT:  2.00D  GRAD.:     2.374 HEAT: -9.429745
 CYCLE:    83 TIME:   0.008 TIME LEFT:  2.00D  GRAD.:     2.359 HEAT: -9.438456
 CYCLE:    84 TIME:   0.012 TIME LEFT:  2.00D  GRAD.:     3.193 HEAT: -9.444641
 CYCLE:    85 TIME:   0.012 TIME LEFT:  2.00D  GRAD.:     2.021 HEAT: -9.451429
 CYCLE:    86 TIME:   0.012 TIME LEFT:  2.00D  GRAD.:     1.610 HEAT: -9.458784
 CYCLE:    87 TIME:   0.012 TIME LEFT:  2.00D  GRAD.:     2.048 HEAT: -9.469101
 CYCLE:    88 TIME:   0.012 TIME LEFT:  2.00D  GRAD.:     2.734 HEAT: -9.482765
 CYCLE:    89 TIME:   0.008 TIME LEFT:  2.00D  GRAD.:     2.540 HEAT: -9.492744
 CYCLE:    90 TIME:   0.012 TIME LEFT:  2.00D  GRAD.:     2.017 HEAT: -9.503374
 CYCLE:    91 TIME:   0.012 TIME LEFT:  2.00D  GRAD.:     2.568 HEAT: -9.512976
 CYCLE:    92 TIME:   0.012 TIME LEFT:  2.00D  GRAD.:     2.476 HEAT: -9.521867
 CYCLE:    93 TIME:   0.012 TIME LEFT:  2.00D  GRAD.:     3.505 HEAT: -9.529574
 CYCLE:    94 TIME:   0.012 TIME LEFT:  2.00D  GRAD.:     2.191 HEAT: -9.538843
 CYCLE:    95 TIME:   0.012 TIME LEFT:  2.00D  GRAD.:     1.720 HEAT: -9.547229
 CYCLE:    96 TIME:   0.012 TIME LEFT:  2.00D  GRAD.:     2.108 HEAT: -9.553263
 CYCLE:    97 TIME:   0.012 TIME LEFT:  2.00D  GRAD.:     2.430 HEAT: -9.560790
 CYCLE:    98 TIME:   0.012 TIME LEFT:  2.00D  GRAD.:     2.092 HEAT: -9.569394
 CYCLE:    99 TIME:   0.008 TIME LEFT:  2.00D  GRAD.:     2.796 HEAT: -9.581463
 CYCLE:   100 TIME:   0.016 TIME LEFT:  2.00D  GRAD.:     3.763 HEAT: -9.593254
 CYCLE:   101 TIME:   0.008 TIME LEFT:  2.00D  GRAD.:     5.321 HEAT: -9.606912
 CYCLE:   102 TIME:   0.012 TIME LEFT:  2.00D  GRAD.:     3.646 HEAT: -9.632933
 CYCLE:   103 TIME:   0.012 TIME LEFT:  2.00D  GRAD.:     5.842 HEAT: -9.685728
 CYCLE:   104 TIME:   0.012 TIME LEFT:  2.00D  GRAD.:     3.705 HEAT: -9.714081
 CYCLE:   105 TIME:   0.012 TIME LEFT:  2.00D  GRAD.:     5.910 HEAT: -9.763890
 CYCLE:   106 TIME:   0.012 TIME LEFT:  2.00D  GRAD.:     5.619 HEAT: -9.806624
 CYCLE:   107 TIME:   0.012 TIME LEFT:  2.00D  GRAD.:     5.872 HEAT: -9.847829
 CYCLE:   108 TIME:   0.008 TIME LEFT:  2.00D  GRAD.:     5.939 HEAT: -9.878788
 CYCLE:   109 TIME:   0.020 TIME LEFT:  2.00D  GRAD.:     6.649 HEAT: -9.907456
 CYCLE:   110 TIME:   0.012 TIME LEFT:  2.00D  GRAD.:     4.024 HEAT: -9.940260
 CYCLE:   111 TIME:   0.012 TIME LEFT:  2.00D  GRAD.:     3.229 HEAT: -9.963293
 CYCLE:   112 TIME:   0.012 TIME LEFT:  2.00D  GRAD.:     3.826 HEAT: -9.991044
 CYCLE:   113 TIME:   0.012 TIME LEFT:  2.00D  GRAD.:     3.048 HEAT: -10.00590
 CYCLE:   114 TIME:   0.012 TIME LEFT:  2.00D  GRAD.:     2.590 HEAT: -10.02228
 CYCLE:   115 TIME:   0.012 TIME LEFT:  2.00D  GRAD.:     3.944 HEAT: -10.03462
 CYCLE:   116 TIME:   0.008 TIME LEFT:  2.00D  GRAD.:     3.269 HEAT: -10.04174
 CYCLE:   117 TIME:   0.012 TIME LEFT:  2.00D  GRAD.:     2.528 HEAT: -10.05543
 CYCLE:   118 TIME:   0.012 TIME LEFT:  2.00D  GRAD.:     2.792 HEAT: -10.06873
 CYCLE:   119 TIME:   0.012 TIME LEFT:  2.00D  GRAD.:     2.342 HEAT: -10.07955
 CYCLE:   120 TIME:   0.012 TIME LEFT:  2.00D  GRAD.:     2.355 HEAT: -10.09425
 CYCLE:   121 TIME:   0.012 TIME LEFT:  2.00D  GRAD.:     2.201 HEAT: -10.10590
 CYCLE:   122 TIME:   0.012 TIME LEFT:  2.00D  GRAD.:     2.971 HEAT: -10.11185
 CYCLE:   123 TIME:   0.012 TIME LEFT:  2.00D  GRAD.:     2.053 HEAT: -10.12071
 CYCLE:   124 TIME:   0.012 TIME LEFT:  2.00D  GRAD.:     1.557 HEAT: -10.12617
 CYCLE:   125 TIME:   0.008 TIME LEFT:  2.00D  GRAD.:     1.220 HEAT: -10.13041
 CYCLE:   126 TIME:   0.012 TIME LEFT:  2.00D  GRAD.:     1.518 HEAT: -10.13261
 CYCLE:   127 TIME:   0.012 TIME LEFT:  2.00D  GRAD.:     1.523 HEAT: -10.13559
 CYCLE:   128 TIME:   0.012 TIME LEFT:  2.00D  GRAD.:     1.695 HEAT: -10.14027
 CYCLE:   129 TIME:   0.012 TIME LEFT:  2.00D  GRAD.:     1.749 HEAT: -10.14556
 CYCLE:   130 TIME:   0.012 TIME LEFT:  2.00D  GRAD.:     1.994 HEAT: -10.15275
 CYCLE:   131 TIME:   0.012 TIME LEFT:  2.00D  GRAD.:     2.249 HEAT: -10.16042
 CYCLE:   132 TIME:   0.012 TIME LEFT:  2.00D  GRAD.:     2.294 HEAT: -10.17108
 CYCLE:   133 TIME:   0.012 TIME LEFT:  2.00D  GRAD.:     2.371 HEAT: -10.18063
 CYCLE:   134 TIME:   0.008 TIME LEFT:  2.00D  GRAD.:     2.136 HEAT: -10.19219
 CYCLE:   135 TIME:   0.012 TIME LEFT:  2.00D  GRAD.:     2.135 HEAT: -10.20474
 CYCLE:   136 TIME:   0.012 TIME LEFT:  2.00D  GRAD.:     2.013 HEAT: -10.21341
 CYCLE:   137 TIME:   0.012 TIME LEFT:  2.00D  GRAD.:     1.403 HEAT: -10.21993
 CYCLE:   138 TIME:   0.012 TIME LEFT:  2.00D  GRAD.:     1.275 HEAT: -10.22325
 CYCLE:   139 TIME:   0.012 TIME LEFT:  2.00D  GRAD.:     0.972 HEAT: -10.22583
 CYCLE:   140 TIME:   0.012 TIME LEFT:  2.00D  GRAD.:     0.850 HEAT: -10.22800
 CYCLE:   141 TIME:   0.012 TIME LEFT:  2.00D  GRAD.:     0.838 HEAT: -10.22971
 CYCLE:   142 TIME:   0.012 TIME LEFT:  2.00D  GRAD.:     0.826 HEAT: -10.23109
 CYCLE:   143 TIME:   0.008 TIME LEFT:  2.00D  GRAD.:     0.904 HEAT: -10.23237
 CYCLE:   144 TIME:   0.012 TIME LEFT:  2.00D  GRAD.:     1.061 HEAT: -10.23417
 CYCLE:   145 TIME:   0.012 TIME LEFT:  2.00D  GRAD.:     1.331 HEAT: -10.23622
 CYCLE:   146 TIME:   0.012 TIME LEFT:  2.00D  GRAD.:     1.750 HEAT: -10.23982
 CYCLE:   147 TIME:   0.012 TIME LEFT:  2.00D  GRAD.:     1.704 HEAT: -10.24257
 CYCLE:   148 TIME:   0.012 TIME LEFT:  2.00D  GRAD.:     1.826 HEAT: -10.24918
 CYCLE:   149 TIME:   0.012 TIME LEFT:  2.00D  GRAD.:     1.703 HEAT: -10.25290
 CYCLE:   150 TIME:   0.012 TIME LEFT:  2.00D  GRAD.:     3.137 HEAT: -10.26921
 CYCLE:   151 TIME:   0.008 TIME LEFT:  2.00D  GRAD.:     3.016 HEAT: -10.27329
 CYCLE:   152 TIME:   0.012 TIME LEFT:  2.00D  GRAD.:     1.677 HEAT: -10.28218
 CYCLE:   153 TIME:   0.012 TIME LEFT:  2.00D  GRAD.:     2.095 HEAT: -10.28968
 CYCLE:   154 TIME:   0.012 TIME LEFT:  2.00D  GRAD.:     2.087 HEAT: -10.29482
 CYCLE:   155 TIME:   0.012 TIME LEFT:  2.00D  GRAD.:     1.339 HEAT: -10.30055
 CYCLE:   156 TIME:   0.012 TIME LEFT:  2.00D  GRAD.:     1.450 HEAT: -10.30325
 CYCLE:   157 TIME:   0.012 TIME LEFT:  2.00D  GRAD.:     1.497 HEAT: -10.30834
 CYCLE:   158 TIME:   0.012 TIME LEFT:  2.00D  GRAD.:     1.237 HEAT: -10.31067
 CYCLE:   159 TIME:   0.012 TIME LEFT:  2.00D  GRAD.:     1.385 HEAT: -10.31336
 CYCLE:   160 TIME:   0.008 TIME LEFT:  2.00D  GRAD.:     1.105 HEAT: -10.31705
 CYCLE:   161 TIME:   0.012 TIME LEFT:  2.00D  GRAD.:     1.879 HEAT: -10.31983
 CYCLE:   162 TIME:   0.012 TIME LEFT:  2.00D  GRAD.:     1.390 HEAT: -10.32343
 CYCLE:   163 TIME:   0.012 TIME LEFT:  2.00D  GRAD.:     1.506 HEAT: -10.32880
 CYCLE:   164 TIME:   0.012 TIME LEFT:  2.00D  GRAD.:     1.369 HEAT: -10.33336
 CYCLE:   165 TIME:   0.012 TIME LEFT:  2.00D  GRAD.:     1.806 HEAT: -10.33882
 CYCLE:   166 TIME:   0.016 TIME LEFT:  2.00D  GRAD.:     2.235 HEAT: -10.34477
 CYCLE:   167 TIME:   0.012 TIME LEFT:  2.00D  GRAD.:     3.162 HEAT: -10.34798
 CYCLE:   168 TIME:   0.008 TIME LEFT:  2.00D  GRAD.:     1.842 HEAT: -10.35720
 CYCLE:   169 TIME:   0.012 TIME LEFT:  2.00D  GRAD.:     1.690 HEAT: -10.36796
 CYCLE:   170 TIME:   0.016 TIME LEFT:  2.00D  GRAD.:     3.456 HEAT: -10.38016
 CYCLE:   171 TIME:   0.008 TIME LEFT:  2.00D  GRAD.:     2.202 HEAT: -10.39126
 CYCLE:   172 TIME:   0.012 TIME LEFT:  2.00D  GRAD.:     2.606 HEAT: -10.40100
 CYCLE:   173 TIME:   0.016 TIME LEFT:  2.00D  GRAD.:     3.081 HEAT: -10.40792
 CYCLE:   174 TIME:   0.008 TIME LEFT:  2.00D  GRAD.:     1.930 HEAT: -10.41309
 CYCLE:   175 TIME:   0.012 TIME LEFT:  2.00D  GRAD.:     1.992 HEAT: -10.41969
 CYCLE:   176 TIME:   0.012 TIME LEFT:  2.00D  GRAD.:     2.499 HEAT: -10.43130
 CYCLE:   177 TIME:   0.016 TIME LEFT:  2.00D  GRAD.:     3.751 HEAT: -10.42913
 CYCLE:   178 TIME:   0.012 TIME LEFT:  2.00D  GRAD.:     2.011 HEAT: -10.44559
 CYCLE:   179 TIME:   0.008 TIME LEFT:  2.00D  GRAD.:     1.964 HEAT: -10.45007
 CYCLE:   180 TIME:   0.012 TIME LEFT:  2.00D  GRAD.:     1.821 HEAT: -10.45380
 CYCLE:   181 TIME:   0.012 TIME LEFT:  2.00D  GRAD.:     1.078 HEAT: -10.45560
 CYCLE:   182 TIME:   0.012 TIME LEFT:  2.00D  GRAD.:     0.794 HEAT: -10.45733
 CYCLE:   183 TIME:   0.012 TIME LEFT:  2.00D  GRAD.:     0.629 HEAT: -10.45805
 CYCLE:   184 TIME:   0.012 TIME LEFT:  2.00D  GRAD.:     0.661 HEAT: -10.45885
 CYCLE:   185 TIME:   0.012 TIME LEFT:  2.00D  GRAD.:     0.739 HEAT: -10.45959
 CYCLE:   186 TIME:   0.012 TIME LEFT:  2.00D  GRAD.:     0.920 HEAT: -10.46023
 CYCLE:   187 TIME:   0.012 TIME LEFT:  2.00D  GRAD.:     0.667 HEAT: -10.46119
 CYCLE:   188 TIME:   0.012 TIME LEFT:  2.00D  GRAD.:     0.997 HEAT: -10.46340
 CYCLE:   189 TIME:   0.012 TIME LEFT:  2.00D  GRAD.:     1.045 HEAT: -10.46521
 CYCLE:   190 TIME:   0.012 TIME LEFT:  2.00D  GRAD.:     1.291 HEAT: -10.46840
 CYCLE:   191 TIME:   0.008 TIME LEFT:  2.00D  GRAD.:     1.186 HEAT: -10.47085
 CYCLE:   192 TIME:   0.012 TIME LEFT:  2.00D  GRAD.:     1.463 HEAT: -10.47346
 CYCLE:   193 TIME:   0.012 TIME LEFT:  2.00D  GRAD.:     1.392 HEAT: -10.47545
 CYCLE:   194 TIME:   0.012 TIME LEFT:  2.00D  GRAD.:     1.168 HEAT: -10.47779
 CYCLE:   195 TIME:   0.012 TIME LEFT:  2.00D  GRAD.:     1.248 HEAT: -10.48036
 CYCLE:   196 TIME:   0.012 TIME LEFT:  2.00D  GRAD.:     1.046 HEAT: -10.48217
 CYCLE:   197 TIME:   0.012 TIME LEFT:  2.00D  GRAD.:     0.941 HEAT: -10.48380
 CYCLE:   198 TIME:   0.012 TIME LEFT:  2.00D  GRAD.:     0.834 HEAT: -10.48540
 CYCLE:   199 TIME:   0.012 TIME LEFT:  2.00D  GRAD.:     0.902 HEAT: -10.48678
 CYCLE:   200 TIME:   0.008 TIME LEFT:  2.00D  GRAD.:     1.003 HEAT: -10.48870
 CYCLE:   201 TIME:   0.012 TIME LEFT:  2.00D  GRAD.:     1.043 HEAT: -10.49065
 CYCLE:   202 TIME:   0.012 TIME LEFT:  2.00D  GRAD.:     0.861 HEAT: -10.49286
 CYCLE:   203 TIME:   0.012 TIME LEFT:  2.00D  GRAD.:     0.544 HEAT: -10.49404
 CYCLE:   204 TIME:   0.012 TIME LEFT:  2.00D  GRAD.:     0.455 HEAT: -10.49452
 CYCLE:   205 TIME:   0.008 TIME LEFT:  2.00D  GRAD.:     0.303 HEAT: -10.49465
 CYCLE:   206 TIME:   0.012 TIME LEFT:  2.00D  GRAD.:     0.232 HEAT: -10.49476
 CYCLE:   207 TIME:   0.012 TIME LEFT:  2.00D  GRAD.:     0.289 HEAT: -10.49495
 CYCLE:   208 TIME:   0.012 TIME LEFT:  2.00D  GRAD.:     0.344 HEAT: -10.49517
 CYCLE:   209 TIME:   0.012 TIME LEFT:  2.00D  GRAD.:     0.307 HEAT: -10.49533
 CYCLE:   210 TIME:   0.012 TIME LEFT:  2.00D  GRAD.:     0.286 HEAT: -10.49551
 CYCLE:   211 TIME:   0.012 TIME LEFT:  2.00D  GRAD.:     0.313 HEAT: -10.49564
 CYCLE:   212 TIME:   0.008 TIME LEFT:  2.00D  GRAD.:     0.299 HEAT: -10.49582
 CYCLE:   213 TIME:   0.012 TIME LEFT:  2.00D  GRAD.:     0.296 HEAT: -10.49596
 CYCLE:   214 TIME:   0.012 TIME LEFT:  2.00D  GRAD.:     0.297 HEAT: -10.49613
 CYCLE:   215 TIME:   0.012 TIME LEFT:  2.00D  GRAD.:     0.362 HEAT: -10.49632
 CYCLE:   216 TIME:   0.008 TIME LEFT:  2.00D  GRAD.:     0.469 HEAT: -10.49662
 CYCLE:   217 TIME:   0.012 TIME LEFT:  2.00D  GRAD.:     0.626 HEAT: -10.49714
 CYCLE:   218 TIME:   0.012 TIME LEFT:  2.00D  GRAD.:     0.497 HEAT: -10.49749
 CYCLE:   219 TIME:   0.012 TIME LEFT:  2.00D  GRAD.:     0.553 HEAT: -10.49779
 CYCLE:   220 TIME:   0.012 TIME LEFT:  2.00D  GRAD.:     0.300 HEAT: -10.49813
 CYCLE:   221 TIME:   0.012 TIME LEFT:  2.00D  GRAD.:     0.184 HEAT: -10.49820
 CYCLE:   222 TIME:   0.012 TIME LEFT:  2.00D  GRAD.:     0.170 HEAT: -10.49832
 CYCLE:   223 TIME:   0.012 TIME LEFT:  2.00D  GRAD.:     1.782 HEAT: -10.49527
 CYCLE:   224 TIME:   0.012 TIME LEFT:  2.00D  GRAD.:     0.226 HEAT: -10.49869
 CYCLE:   225 TIME:   0.012 TIME LEFT:  2.00D  GRAD.:     0.240 HEAT: -10.49878
 CYCLE:   226 TIME:   0.012 TIME LEFT:  2.00D  GRAD.:     0.431 HEAT: -10.49886
 CYCLE:   227 TIME:   0.012 TIME LEFT:  2.00D  GRAD.:     0.219 HEAT: -10.49898
 CYCLE:   228 TIME:   0.008 TIME LEFT:  2.00D  GRAD.:     0.150 HEAT: -10.49895
 CYCLE:   229 TIME:   0.012 TIME LEFT:  2.00D  GRAD.:     0.116 HEAT: -10.49902
 CYCLE:   230 TIME:   0.016 TIME LEFT:  2.00D  GRAD.:     0.801 HEAT: -10.49886
 CYCLE:   231 TIME:   0.012 TIME LEFT:  2.00D  GRAD.:     0.116 HEAT: -10.49908
 CYCLE:   232 TIME:   0.012 TIME LEFT:  2.00D  GRAD.:     0.099 HEAT: -10.49910
 CYCLE:   233 TIME:   0.012 TIME LEFT:  2.00D  GRAD.:     0.138 HEAT: -10.49912
 CYCLE:   234 TIME:   0.008 TIME LEFT:  2.00D  GRAD.:     0.147 HEAT: -10.49915
 CYCLE:   235 TIME:   0.012 TIME LEFT:  2.00D  GRAD.:     0.068 HEAT: -10.49916
 CYCLE:   236 TIME:   0.012 TIME LEFT:  2.00D  GRAD.:     0.185 HEAT: -10.49916
 CYCLE:   237 TIME:   0.008 TIME LEFT:  2.00D  GRAD.:     0.059 HEAT: -10.49917
 CYCLE:   238 TIME:   0.012 TIME LEFT:  2.00D  GRAD.:     0.063 HEAT: -10.49917
 CYCLE:   239 TIME:   0.012 TIME LEFT:  2.00D  GRAD.:     0.035 HEAT: -10.49918

     GRADIENT =  0.03486 IS LESS THAN CUTOFF =  0.05000



 -------------------------------------------------------------------------------
 pm3  precise nosym THREADS=1
 InChI=1S/C12H20/c1-3-5-7-12-9-6-8-11(4-2)10-12/h5-8,11-12H,3-4,9-10H2,1-2H3



     GEOMETRY OPTIMISED USING EIGENVECTOR FOLLOWING (EF).     
     SCF FIELD WAS ACHIEVED                                   


                              PM3 CALCULATION
                                                       MOPAC v23.1.2 MacOS
                                                       Tue Jun  3 16:35:14 2025




          FINAL HEAT OF FORMATION =        -10.49918 KCAL/MOL =     -43.92856 KJ/MOL


          COSMO AREA              =        234.23 SQUARE ANGSTROMS
          COSMO VOLUME            =        242.69 CUBIC ANGSTROMS

          GRADIENT NORM           =          0.03486          =       0.00616 PER ATOM
          IONIZATION POTENTIAL    =          9.632507 EV
          HOMO LUMO ENERGIES (EV) =         -9.633  1.055
          NO. OF FILLED LEVELS    =         34
          MOLECULAR WEIGHT        =        164.2900         POINT GROUP:  C1  

          MOLECULAR DIMENSIONS (Angstroms)

            Atom       Atom       Distance
            H    28    H    23    10.56408
            H    29    H    21     6.37860
            H    13    H    32     3.03063


          SCF CALCULATIONS        =        251

          WALL-CLOCK TIME         =      2.789 SECONDS
          COMPUTATION TIME        =      2.105 SECONDS




   ATOM   CHEMICAL          X               Y               Z
  NUMBER   SYMBOL      (ANGSTROMS)     (ANGSTROMS)     (ANGSTROMS)

     1       C         -2.24366457  *  -0.33421647  *   0.50835313  *
     2       C          0.21179380  *  -0.51328297  *   0.00519589  *
     3       C         -0.93720817  *   0.44021692  *   0.33065641  *
     4       C         -3.44120083  *   0.61408811  *   0.61337727  *
     5       C         -0.06657750  *  -1.24138882  *  -1.31158005  *
     6       C          3.83062029  *   0.74413848  *   0.56474279  *
     7       C         -3.47721514  *   1.35441164  *   1.93198506  *
     8       C          5.02484424  *  -0.18040923  *   0.46397103  *
     9       C         -2.44894572  *  -1.31259926  *  -0.60375300  *
    10       C          1.49358803  *   0.25028337  *  -0.09915563  *
    11       C         -1.46750608  *  -1.72771671  *  -1.40552129  *
    12       C          2.55871585  *  -0.02315246  *   0.65469232  *
    13       H         -2.18044547  *  -0.93534767  *   1.45108005  *
    14       H          0.28385636  *  -1.27170413  *   0.82433154  *
    15       H         -3.42632333  *   1.33539924  *  -0.22778086  *
    16       H         -4.38104916  *   0.03783645  *   0.49303244  *
    17       H         -1.04219924  *   1.19426681  *  -0.47545084  *
    18       H         -0.70638205  *   1.01189761  *   1.25108702  *
    19       H          0.63316760  *  -2.09248277  *  -1.42483939  *
    20       H          0.12777506  *  -0.57202765  *  -2.17502315  *
    21       H          3.91629581  *   1.38284527  *   1.46697955  *
    22       H          3.81767177  *   1.44220589  *  -0.29624818  *
    23       H         -4.35700000  *   2.00769554  *   1.99465903  *
    24       H         -2.59007206  *   1.98750008  *   2.07064502  *
    25       H         -3.52008064  *   0.66355419  *   2.78473379  *
    26       H          4.97914970  *  -0.80157777  *  -0.43983624  *
    27       H          5.08621585  *  -0.86054291  *   1.32395361  *
    28       H          5.96346713  *   0.38695589  *   0.42594130  *
    29       H         -1.66804983  *  -2.45718479  *  -2.19858772  *
    30       H         -3.46723157  *  -1.70173046  *  -0.72395599  *
    31       H          2.54130126  *  -0.83739605  *   1.39091036  *
    32       H          1.51022842  *   1.06057691  *  -0.83993673  *

                             CARTESIAN COORDINATES

   1    C       -2.243664570    -0.334216471     0.508353135
   2    C        0.211793803    -0.513282972     0.005195890
   3    C       -0.937208167     0.440216915     0.330656411
   4    C       -3.441200833     0.614088107     0.613377269
   5    C       -0.066577499    -1.241388817    -1.311580047
   6    C        3.830620286     0.744138483     0.564742789
   7    C       -3.477215136     1.354411638     1.931985056
   8    C        5.024844243    -0.180409232     0.463971033
   9    C       -2.448945715    -1.312599260    -0.603753000
  10    C        1.493588030     0.250283366    -0.099155629
  11    C       -1.467506078    -1.727716714    -1.405521293
  12    C        2.558715850    -0.023152463     0.654692319
  13    H       -2.180445475    -0.935347675     1.451080048
  14    H        0.283856356    -1.271704125     0.824331537
  15    H       -3.426323327     1.335399237    -0.227780856
  16    H       -4.381049159     0.037836450     0.493032440
  17    H       -1.042199243     1.194266807    -0.475450839
  18    H       -0.706382054     1.011897610     1.251087024
  19    H        0.633167596    -2.092482766    -1.424839394
  20    H        0.127775059    -0.572027652    -2.175023150
  21    H        3.916295810     1.382845270     1.466979555
  22    H        3.817671770     1.442205889    -0.296248177
  23    H       -4.357000003     2.007695539     1.994659033
  24    H       -2.590072064     1.987500077     2.070645022
  25    H       -3.520080640     0.663554188     2.784733785
  26    H        4.979149697    -0.801577771    -0.439836240
  27    H        5.086215849    -0.860542914     1.323953613
  28    H        5.963467134     0.386955888     0.425941296
  29    H       -1.668049835    -2.457184795    -2.198587720
  30    H       -3.467231567    -1.701730464    -0.723955989
  31    H        2.541301264    -0.837396045     1.390910359
  32    H        1.510228425     1.060576911    -0.839936731


           Empirical Formula: C12 H20  =    32 atoms



      MOLECULAR POINT GROUP   :   C1  


                  EIGENVALUES  
 -41.73705 -37.22836 -34.76259 -31.60062 -28.64061 -27.57682 -23.37473 -23.03267
 -20.84390 -20.50294 -19.63154 -17.87465 -17.13086 -16.09112 -15.87113 -15.64948
 -14.93591 -14.87627 -14.46229 -14.14020 -14.07100 -13.57091 -13.44242 -13.11633
 -12.94157 -12.53935 -12.33199 -12.01471 -11.89941 -11.76928 -11.62581 -11.26069
  -9.84516  -9.63251   1.05489   1.16919   3.17505   3.39965   3.57042   3.61580
   3.71077   3.74068   3.78561   3.87062   3.91450   3.93439   3.99165   4.06222
   4.08564   4.14134   4.21510   4.33592   4.37226   4.48371   4.57191   4.62556
   4.69048   4.75777   4.84781   4.89113   4.92955   5.01000   5.08853   5.20214
   5.64953   5.83782   5.97524   6.00737


              NET ATOMIC CHARGES AND DIPOLE CONTRIBUTIONS

  ATOM NO.   TYPE          CHARGE      No. of ELECS.   s-Pop       p-Pop       
    1          C          -0.040454        4.0405     1.16556     2.87489
    2          C          -0.043214        4.0432     1.16595     2.87726
    3          C          -0.097418        4.0974     1.16524     2.93218
    4          C          -0.093902        4.0939     1.16126     2.93264
    5          C          -0.057002        4.0570     1.14882     2.90818
    6          C          -0.062495        4.0625     1.14590     2.91659
    7          C          -0.113159        4.1132     1.13914     2.97402
    8          C          -0.105899        4.1059     1.13765     2.96825
    9          C          -0.150116        4.1501     1.19786     2.95226
   10          C          -0.151898        4.1519     1.19916     2.95274
   11          C          -0.146229        4.1462     1.19393     2.95230
   12          C          -0.145155        4.1452     1.19777     2.94738
   13          H           0.069493        0.9305     0.93051
   14          H           0.068491        0.9315     0.93151
   15          H           0.052837        0.9472     0.94716
   16          H           0.049506        0.9505     0.95049
   17          H           0.057133        0.9429     0.94287
   18          H           0.056504        0.9435     0.94350
   19          H           0.056019        0.9440     0.94398
   20          H           0.058996        0.9410     0.94100
   21          H           0.053287        0.9467     0.94671
   22          H           0.051451        0.9485     0.94855
   23          H           0.037546        0.9625     0.96245
   24          H           0.040407        0.9596     0.95959
   25          H           0.038277        0.9617     0.96172
   26          H           0.039967        0.9600     0.96003
   27          H           0.037966        0.9620     0.96203
   28          H           0.036921        0.9631     0.96308
   29          H           0.096369        0.9036     0.90363
   30          H           0.099801        0.9002     0.90020
   31          H           0.102242        0.8978     0.89776
   32          H           0.103727        0.8963     0.89627
 DIPOLE           X         Y         Z       TOTAL
 POINT-CHG.     0.208     0.151     0.143     0.294
 HYBRID        -0.018    -0.022    -0.038     0.048
 SUM            0.190     0.129     0.105     0.252


          ATOMIC ORBITAL ELECTRON POPULATIONS

     Atom    s        px        py        pz   
    1  C   1.16556   0.94756   0.95143   0.97591
    2  C   1.16595   0.93181   0.96722   0.97823
    3  C   1.16524   0.94089   0.97224   1.01905
    4  C   1.16126   0.97267   0.98477   0.97520
    5  C   1.14882   0.94578   0.99407   0.96833
    6  C   1.14590   0.93465   0.96808   1.01387
    7  C   1.13914   1.00981   0.99653   0.96769
    8  C   1.13765   0.96800   0.98915   1.01110
    9  C   1.19786   0.98191   0.99142   0.97892
   10  C   1.19916   0.95447   0.99980   0.99847
   11  C   1.19393   0.95747   1.00088   0.99395
   12  C   1.19777   0.95518   0.99815   0.99405
   13  H   0.93051
   14  H   0.93151
   15  H   0.94716
   16  H   0.95049
   17  H   0.94287
   18  H   0.94350
   19  H   0.94398
   20  H   0.94100
   21  H   0.94671
   22  H   0.94855
   23  H   0.96245
   24  H   0.95959
   25  H   0.96172
   26  H   0.96003
   27  H   0.96203
   28  H   0.96308
   29  H   0.90363
   30  H   0.90020
   31  H   0.89776
   32  H   0.89627
 *******************************************************************************
 **                                                                           **
 **                              MOPAC v23.1.2                                **
 **                                                                           **
 *******************************************************************************
 **          Digital Object Identifier (DOI): 10.5281/zenodo.6511958          **
 **    Visit the DOI location for information on how to cite this program.    **
 *******************************************************************************

                              PM3 CALCULATION RESULTS

 *******************************************************************************
 *  CALCULATION DONE: (MAX THREADS = 1)              Tue Jun  3 16:35:14 2025  *
 *  PM3        - The PM3 Hamiltonian to be used
 *  OLDGEO     - PREVIOUS GEOMETRY TO BE USED
 *  PRECISE    - TIGHTER CRITERIA TO BE USED
 *  NOSYM      - POINT-GROUP SYMMETRY SET TO C1
 *  THREADS=1  - MULTI-THREADING NOT USED
 *  T=         - A TIME OF 172800.0 SECONDS REQUESTED
 *  DUMP=N     - RESTART FILE WRITTEN EVERY 7200.0 SECONDS REQUESTED
 *  THERMO     - THERMODYNAMIC QUANTITIES TO BE CALCULATED
 *******************************************************************************
oldgeo thermo nosym precise THREADS=1  pm3
 InChI=1S/C12H20/c1-3-5-7-12-9-6-8-11(4-2)10-12/h5-8,11-12H,3-4,9-10H2,1-2H3

   ATOM   CHEMICAL          X               Y               Z
  NUMBER   SYMBOL      (ANGSTROMS)     (ANGSTROMS)     (ANGSTROMS)

     1       C         -2.24366457  *  -0.33421647  *   0.50835313  *
     2       C          0.21179380  *  -0.51328297  *   0.00519589  *
     3       C         -0.93720817  *   0.44021692  *   0.33065641  *
     4       C         -3.44120083  *   0.61408811  *   0.61337727  *
     5       C         -0.06657750  *  -1.24138882  *  -1.31158005  *
     6       C          3.83062029  *   0.74413848  *   0.56474279  *
     7       C         -3.47721514  *   1.35441164  *   1.93198506  *
     8       C          5.02484424  *  -0.18040923  *   0.46397103  *
     9       C         -2.44894572  *  -1.31259926  *  -0.60375300  *
    10       C          1.49358803  *   0.25028337  *  -0.09915563  *
    11       C         -1.46750608  *  -1.72771671  *  -1.40552129  *
    12       C          2.55871585  *  -0.02315246  *   0.65469232  *
    13       H         -2.18044547  *  -0.93534767  *   1.45108005  *
    14       H          0.28385636  *  -1.27170413  *   0.82433154  *
    15       H         -3.42632333  *   1.33539924  *  -0.22778086  *
    16       H         -4.38104916  *   0.03783645  *   0.49303244  *
    17       H         -1.04219924  *   1.19426681  *  -0.47545084  *
    18       H         -0.70638205  *   1.01189761  *   1.25108702  *
    19       H          0.63316760  *  -2.09248277  *  -1.42483939  *
    20       H          0.12777506  *  -0.57202765  *  -2.17502315  *
    21       H          3.91629581  *   1.38284527  *   1.46697955  *
    22       H          3.81767177  *   1.44220589  *  -0.29624818  *
    23       H         -4.35700000  *   2.00769554  *   1.99465903  *
    24       H         -2.59007206  *   1.98750008  *   2.07064502  *
    25       H         -3.52008064  *   0.66355419  *   2.78473379  *
    26       H          4.97914970  *  -0.80157777  *  -0.43983624  *
    27       H          5.08621585  *  -0.86054291  *   1.32395361  *
    28       H          5.96346713  *   0.38695589  *   0.42594130  *
    29       H         -1.66804983  *  -2.45718479  *  -2.19858772  *
    30       H         -3.46723157  *  -1.70173046  *  -0.72395599  *
    31       H          2.54130126  *  -0.83739605  *   1.39091036  *
    32       H          1.51022842  *   1.06057691  *  -0.83993673  *



          CARTESIAN COORDINATES 

    NO.       ATOM           X           Y           Z

     1         C         -2.2437     -0.3342      0.5084
     2         C          0.2118     -0.5133      0.0052
     3         C         -0.9372      0.4402      0.3307
     4         C         -3.4412      0.6141      0.6134
     5         C         -0.0666     -1.2414     -1.3116
     6         C          3.8306      0.7441      0.5647
     7         C         -3.4772      1.3544      1.9320
     8         C          5.0248     -0.1804      0.4640
     9         C         -2.4489     -1.3126     -0.6038
    10         C          1.4936      0.2503     -0.0992
    11         C         -1.4675     -1.7277     -1.4055
    12         C          2.5587     -0.0232      0.6547
    13         H         -2.1804     -0.9353      1.4511
    14         H          0.2839     -1.2717      0.8243
    15         H         -3.4263      1.3354     -0.2278
    16         H         -4.3810      0.0378      0.4930
    17         H         -1.0422      1.1943     -0.4755
    18         H         -0.7064      1.0119      1.2511
    19         H          0.6332     -2.0925     -1.4248
    20         H          0.1278     -0.5720     -2.1750
    21         H          3.9163      1.3828      1.4670
    22         H          3.8177      1.4422     -0.2962
    23         H         -4.3570      2.0077      1.9947
    24         H         -2.5901      1.9875      2.0706
    25         H         -3.5201      0.6636      2.7847
    26         H          4.9791     -0.8016     -0.4398
    27         H          5.0862     -0.8605      1.3240
    28         H          5.9635      0.3870      0.4259
    29         H         -1.6680     -2.4572     -2.1986
    30         H         -3.4672     -1.7017     -0.7240
    31         H          2.5413     -0.8374      1.3909
    32         H          1.5102      1.0606     -0.8399

  H: (PM3): J. J. P. STEWART, J. COMP. CHEM. 10, 209 (1989).
  C: (PM3): J. J. P. STEWART, J. COMP. CHEM. 10, 209 (1989).

           Empirical Formula: C12 H20  =    32 atoms



      MOLECULAR POINT GROUP   :   C1  


      RHF CALCULATION, NO. OF DOUBLY OCCUPIED LEVELS = 34



          HEAT OF FORMATION =     -10.499178 KCALS/MOLE


          CARTESIAN COORDINATE DERIVATIVES

   NUMBER  ATOM         X            Y            Z

     1       C     -0.000201     0.001971     0.001258
     2       C      0.000986     0.003036    -0.000250
     3       C     -0.001693     0.002178     0.000036
     4       C      0.000503     0.001000     0.002072
     5       C      0.001819     0.001326     0.000832
     6       C      0.006395     0.003283     0.000845
     7       C     -0.001026    -0.003741     0.003218
     8       C     -0.004422    -0.000171    -0.006952
     9       C     -0.003694     0.004351     0.002540
    10       C     -0.001301     0.008023     0.009166
    11       C      0.003238    -0.001908    -0.002661
    12       C      0.000869    -0.011816    -0.009376
    13       H     -0.000054     0.001907    -0.001675
    14       H     -0.003267     0.003720    -0.000670
    15       H     -0.001186     0.002554     0.001006
    16       H     -0.001858     0.000024    -0.000088
    17       H      0.001611    -0.000356    -0.000433
    18       H     -0.001074     0.001625    -0.002772
    19       H      0.001636    -0.002781     0.003778
    20       H      0.007971    -0.001512     0.001958
    21       H      0.002589    -0.003786    -0.006806
    22       H      0.005079    -0.009274     0.002320
    23       H     -0.004769    -0.004163     0.000832
    24       H     -0.008428    -0.003058    -0.000051
    25       H      0.001538    -0.000720    -0.002270
    26       H      0.003130     0.003443     0.010504
    27       H     -0.006093     0.004073    -0.004385
    28       H      0.001330    -0.003544     0.000160
    29       H      0.000609    -0.000476    -0.000113
    30       H      0.000058     0.001288    -0.000527
    31       H      0.001650     0.004900    -0.006154
    32       H     -0.001945    -0.001400     0.004659



          GRADIENT NORM =   0.03740

          MOLECULAR WEIGHT =  164.29



          ROTATIONAL CONSTANTS IN CM(-1)

          A =    0.05625302   B =    0.01307196   C =    0.01103501



           PRINCIPAL MOMENTS OF INERTIA IN UNITS OF 10**(-40)*GRAM-CM**2

          A =      497.6222   B =     2141.4343   C =     2536.7217


          ORIENTATION OF MOLECULE IN FORCE CALCULATION

    NO.       ATOM         X         Y         Z

     1          C      -2.1879   -0.3641   -0.0621
     2          C       0.3249   -0.3641   -0.0621
     3          C      -0.9309    0.5065   -0.0621
     4          C      -3.4467    0.4783   -0.2861
     5          C       0.3685   -1.2236   -1.3274
     6          C       3.6594    1.2561    1.0542
     7          C      -3.7987    1.3218    0.9192
     8          C       4.9124    0.4373    1.2793
     9          C      -2.0961   -1.4480   -1.0883
    10          C       1.5439    0.4998    0.0059
    11          C      -0.9470   -1.8399   -1.6398
    12          C       2.4533    0.3881    0.9745
    13          H      -2.2721   -0.8749    0.9310
    14          H       0.2854   -1.0407    0.8279
    15          H      -3.3152    1.1239   -1.1771
    16          H      -4.2999   -0.1881   -0.5264
    17          H      -0.9259    1.1769   -0.9453
    18          H      -0.9304    1.1728    0.8230
    19          H       1.1355   -2.0149   -1.2172
    20          H       0.6836   -0.6153   -2.2003
    21          H       3.5170    1.9743    1.8868
    22          H       3.7694    1.8745    0.1408
    23          H      -4.7175    1.8964    0.7449
    24          H      -3.0047    2.0414    1.1615
    25          H      -3.9621    0.7048    1.8131
    26          H       5.0930   -0.2600    0.4510
    27          H       4.8487   -0.1590    2.1992
    28          H       5.7968    1.0813    1.3656
    29          H      -0.9322   -2.6492   -2.3789
    30          H      -3.0394   -1.9357   -1.3624
    31          H       2.3468   -0.3589    1.7719
    32          H       1.6508    1.2424   -0.7958


    FIRST DERIVATIVES WILL BE USED IN THE CALCULATION OF SECOND DERIVATIVES

          ESTIMATED TIME TO COMPLETE CALCULATION =        4.50 SECONDS

    FOR POINT-GROUP C1   THERE ARE   1 UNIQUE SYMMETRY FUNCTIONS.

 STEP:   1 TIME =     0.04 SECS, INTEGRAL =      0.04 TIME LEFT: 172799.95
 STEP:   2 TIME =     0.04 SECS, INTEGRAL =      0.07 TIME LEFT: 172799.91
 STEP:   3 TIME =     0.04 SECS, INTEGRAL =      0.11 TIME LEFT: 172799.88
 STEP:   4 TIME =     0.04 SECS, INTEGRAL =      0.15 TIME LEFT: 172799.84
 STEP:   5 TIME =     0.04 SECS, INTEGRAL =      0.19 TIME LEFT: 172799.80
 STEP:   6 TIME =     0.04 SECS, INTEGRAL =      0.23 TIME LEFT: 172799.76
 STEP:   7 TIME =     0.04 SECS, INTEGRAL =      0.26 TIME LEFT: 172799.73
 STEP:   8 TIME =     0.04 SECS, INTEGRAL =      0.30 TIME LEFT: 172799.69
 STEP:   9 TIME =     0.04 SECS, INTEGRAL =      0.34 TIME LEFT: 172799.65
 STEP:  10 TIME =     0.04 SECS, INTEGRAL =      0.37 TIME LEFT: 172799.62
 STEP:  11 TIME =     0.04 SECS, INTEGRAL =      0.41 TIME LEFT: 172799.58
 STEP:  12 TIME =     0.04 SECS, INTEGRAL =      0.44 TIME LEFT: 172799.55
 STEP:  13 TIME =     0.04 SECS, INTEGRAL =      0.48 TIME LEFT: 172799.51
 STEP:  14 TIME =     0.04 SECS, INTEGRAL =      0.52 TIME LEFT: 172799.47
 STEP:  15 TIME =     0.04 SECS, INTEGRAL =      0.55 TIME LEFT: 172799.43
 STEP:  16 TIME =     0.04 SECS, INTEGRAL =      0.59 TIME LEFT: 172799.40
 STEP:  17 TIME =     0.04 SECS, INTEGRAL =      0.62 TIME LEFT: 172799.36
 STEP:  18 TIME =     0.04 SECS, INTEGRAL =      0.66 TIME LEFT: 172799.32
 STEP:  19 TIME =     0.04 SECS, INTEGRAL =      0.71 TIME LEFT: 172799.28
 STEP:  20 TIME =     0.04 SECS, INTEGRAL =      0.75 TIME LEFT: 172799.24
 STEP:  21 TIME =     0.04 SECS, INTEGRAL =      0.78 TIME LEFT: 172799.21
 STEP:  22 TIME =     0.04 SECS, INTEGRAL =      0.82 TIME LEFT: 172799.17
 STEP:  23 TIME =     0.04 SECS, INTEGRAL =      0.86 TIME LEFT: 172799.13
 STEP:  24 TIME =     0.04 SECS, INTEGRAL =      0.90 TIME LEFT: 172799.09
 STEP:  25 TIME =     0.04 SECS, INTEGRAL =      0.94 TIME LEFT: 172799.05
 STEP:  26 TIME =     0.04 SECS, INTEGRAL =      0.98 TIME LEFT: 172799.01
 STEP:  27 TIME =     0.04 SECS, INTEGRAL =      1.02 TIME LEFT: 172798.97
 STEP:  28 TIME =     0.04 SECS, INTEGRAL =      1.05 TIME LEFT: 172798.93
 STEP:  29 TIME =     0.04 SECS, INTEGRAL =      1.09 TIME LEFT: 172798.89
 STEP:  30 TIME =     0.04 SECS, INTEGRAL =      1.13 TIME LEFT: 172798.86
 STEP:  31 TIME =     0.04 SECS, INTEGRAL =      1.17 TIME LEFT: 172798.82
 STEP:  32 TIME =     0.04 SECS, INTEGRAL =      1.21 TIME LEFT: 172798.78
 STEP:  33 TIME =     0.04 SECS, INTEGRAL =      1.25 TIME LEFT: 172798.74
 STEP:  34 TIME =     0.04 SECS, INTEGRAL =      1.29 TIME LEFT: 172798.70
 STEP:  35 TIME =     0.04 SECS, INTEGRAL =      1.32 TIME LEFT: 172798.67
 STEP:  36 TIME =     0.04 SECS, INTEGRAL =      1.36 TIME LEFT: 172798.63
 STEP:  37 TIME =     0.04 SECS, INTEGRAL =      1.39 TIME LEFT: 172798.59
 STEP:  38 TIME =     0.04 SECS, INTEGRAL =      1.43 TIME LEFT: 172798.55
 STEP:  39 TIME =     0.04 SECS, INTEGRAL =      1.47 TIME LEFT: 172798.52
 STEP:  40 TIME =     0.04 SECS, INTEGRAL =      1.52 TIME LEFT: 172798.47
 STEP:  41 TIME =     0.04 SECS, INTEGRAL =      1.55 TIME LEFT: 172798.43
 STEP:  42 TIME =     0.04 SECS, INTEGRAL =      1.59 TIME LEFT: 172798.39
 STEP:  43 TIME =     0.04 SECS, INTEGRAL =      1.63 TIME LEFT: 172798.36
 STEP:  44 TIME =     0.04 SECS, INTEGRAL =      1.67 TIME LEFT: 172798.32
 STEP:  45 TIME =     0.04 SECS, INTEGRAL =      1.71 TIME LEFT: 172798.28
 STEP:  46 TIME =     0.04 SECS, INTEGRAL =      1.75 TIME LEFT: 172798.24
 STEP:  47 TIME =     0.04 SECS, INTEGRAL =      1.79 TIME LEFT: 172798.20
 STEP:  48 TIME =     0.04 SECS, INTEGRAL =      1.83 TIME LEFT: 172798.16
 STEP:  49 TIME =     0.04 SECS, INTEGRAL =      1.87 TIME LEFT: 172798.12
 STEP:  50 TIME =     0.04 SECS, INTEGRAL =      1.91 TIME LEFT: 172798.08
 STEP:  51 TIME =     0.04 SECS, INTEGRAL =      1.95 TIME LEFT: 172798.04
 STEP:  52 TIME =     0.04 SECS, INTEGRAL =      1.99 TIME LEFT: 172798.00
 STEP:  53 TIME =     0.04 SECS, INTEGRAL =      2.03 TIME LEFT: 172797.96
 STEP:  54 TIME =     0.04 SECS, INTEGRAL =      2.07 TIME LEFT: 172797.92
 STEP:  55 TIME =     0.04 SECS, INTEGRAL =      2.11 TIME LEFT: 172797.88
 STEP:  56 TIME =     0.04 SECS, INTEGRAL =      2.14 TIME LEFT: 172797.85
 STEP:  57 TIME =     0.04 SECS, INTEGRAL =      2.18 TIME LEFT: 172797.81
 STEP:  58 TIME =     0.04 SECS, INTEGRAL =      2.22 TIME LEFT: 172797.77
 STEP:  59 TIME =     0.04 SECS, INTEGRAL =      2.25 TIME LEFT: 172797.73
 STEP:  60 TIME =     0.04 SECS, INTEGRAL =      2.29 TIME LEFT: 172797.70
 STEP:  61 TIME =     0.04 SECS, INTEGRAL =      2.33 TIME LEFT: 172797.66
 STEP:  62 TIME =     0.04 SECS, INTEGRAL =      2.36 TIME LEFT: 172797.62
 STEP:  63 TIME =     0.04 SECS, INTEGRAL =      2.40 TIME LEFT: 172797.59
 STEP:  64 TIME =     0.04 SECS, INTEGRAL =      2.44 TIME LEFT: 172797.55
 STEP:  65 TIME =     0.04 SECS, INTEGRAL =      2.47 TIME LEFT: 172797.52
 STEP:  66 TIME =     0.04 SECS, INTEGRAL =      2.51 TIME LEFT: 172797.48
 STEP:  67 TIME =     0.04 SECS, INTEGRAL =      2.54 TIME LEFT: 172797.45
 STEP:  68 TIME =     0.04 SECS, INTEGRAL =      2.58 TIME LEFT: 172797.41
 STEP:  69 TIME =     0.04 SECS, INTEGRAL =      2.62 TIME LEFT: 172797.37
 STEP:  70 TIME =     0.04 SECS, INTEGRAL =      2.66 TIME LEFT: 172797.33
 STEP:  71 TIME =     0.04 SECS, INTEGRAL =      2.70 TIME LEFT: 172797.29
 STEP:  72 TIME =     0.04 SECS, INTEGRAL =      2.74 TIME LEFT: 172797.25
 STEP:  73 TIME =     0.04 SECS, INTEGRAL =      2.78 TIME LEFT: 172797.21
 STEP:  74 TIME =     0.04 SECS, INTEGRAL =      2.82 TIME LEFT: 172797.17
 STEP:  75 TIME =     0.04 SECS, INTEGRAL =      2.86 TIME LEFT: 172797.13
 STEP:  76 TIME =     0.04 SECS, INTEGRAL =      2.90 TIME LEFT: 172797.09
 STEP:  77 TIME =     0.04 SECS, INTEGRAL =      2.93 TIME LEFT: 172797.05
 STEP:  78 TIME =     0.04 SECS, INTEGRAL =      2.97 TIME LEFT: 172797.02
 STEP:  79 TIME =     0.04 SECS, INTEGRAL =      3.01 TIME LEFT: 172796.98
 STEP:  80 TIME =     0.04 SECS, INTEGRAL =      3.04 TIME LEFT: 172796.95
 STEP:  81 TIME =     0.04 SECS, INTEGRAL =      3.08 TIME LEFT: 172796.91
 STEP:  82 TIME =     0.04 SECS, INTEGRAL =      3.12 TIME LEFT: 172796.87
 STEP:  83 TIME =     0.04 SECS, INTEGRAL =      3.16 TIME LEFT: 172796.83
 STEP:  84 TIME =     0.04 SECS, INTEGRAL =      3.20 TIME LEFT: 172796.79
 STEP:  85 TIME =     0.04 SECS, INTEGRAL =      3.24 TIME LEFT: 172796.75
 STEP:  86 TIME =     0.04 SECS, INTEGRAL =      3.28 TIME LEFT: 172796.71
 STEP:  87 TIME =     0.04 SECS, INTEGRAL =      3.32 TIME LEFT: 172796.67
 STEP:  88 TIME =     0.04 SECS, INTEGRAL =      3.36 TIME LEFT: 172796.63
 STEP:  89 TIME =     0.04 SECS, INTEGRAL =      3.39 TIME LEFT: 172796.59
 STEP:  90 TIME =     0.04 SECS, INTEGRAL =      3.43 TIME LEFT: 172796.55
 STEP:  91 TIME =     0.04 SECS, INTEGRAL =      3.47 TIME LEFT: 172796.52
 STEP:  92 TIME =     0.04 SECS, INTEGRAL =      3.51 TIME LEFT: 172796.48
 STEP:  93 TIME =     0.04 SECS, INTEGRAL =      3.55 TIME LEFT: 172796.44
 STEP:  94 TIME =     0.04 SECS, INTEGRAL =      3.59 TIME LEFT: 172796.40
 STEP:  95 TIME =     0.04 SECS, INTEGRAL =      3.63 TIME LEFT: 172796.36
 STEP:  96 TIME =     0.04 SECS, INTEGRAL =      3.67 TIME LEFT: 172796.32

(To convert to Hartree/Bohr^2, multiply by (10^(-21) x N x a0^2)/(4.184 x 627.51) =  0.0642)


           FORCE MATRIX IN MILLIDYNES/ANGSTROM


                  C  1       C  2       C  3       C  4       C  5       C  6
 ------------------------------------------------------------------------------
     C    1  14.593828
     C    2   0.647883  14.709556
     C    3   3.887390   3.897796  14.336233
     C    4   3.816777   0.051431   0.612038  14.289209
     C    5   0.101251   3.846130   0.662810   0.008749  14.679799
     C    6   0.004136   0.142973   0.020569   0.001175   0.020032  14.691324
     C    7   0.621252   0.003050   0.050292   4.450573   0.001660   0.000171
     C    8   0.000266   0.019217   0.002001   0.000275   0.004064   4.413240
     C    9   4.685061   0.065346   0.682360   0.692634   0.831054   0.000390
     C   10   0.053045   4.705319   0.692545   0.011378   0.688937   0.822120
     C   11   0.803591   0.675637   0.069773   0.044549   5.010060   0.003743
     C   12   0.006065   0.803348   0.038199   0.001273   0.036029   4.959219
     H   13   4.129894   0.020247   0.428688   0.433484   0.014024   0.000219
     H   14   0.033223   4.183599   0.424914   0.001418   0.422778   0.001954
     H   15   0.448189   0.002407   0.034929   4.453571   0.000752   0.000143
     H   16   0.441998   0.008529   0.046201   4.427771   0.001014   0.000269
     H   17   0.450087   0.450259   4.434403   0.037177   0.022495   0.000705
     H   18   0.437904   0.442034   4.464166   0.016851   0.050312   0.000810
     H   19   0.009993   0.434570   0.048581   0.000657   4.466307   0.000467
     H   20   0.014797   0.454483   0.011505   0.000933   4.390491   0.000768
     H   21   0.000930   0.019560   0.003722   0.000347   0.002304   4.422055
     H   22   0.000226   0.003221   0.000960   0.000106   0.000413   4.441937
     H   23   0.050860   0.000331   0.002315   0.449579   0.000223   0.000056
     H   24   0.016591   0.000838   0.020003   0.464203   0.000512   0.000131
     H   25   0.024243   0.000284   0.002448   0.464085   0.000122   0.000051
     H   26   0.000100   0.000846   0.000223   0.000080   0.000275   0.461036
     H   27   0.000080   0.000824   0.000159   0.000073   0.000229   0.464505
     H   28   0.000073   0.003228   0.000257   0.000105   0.000876   0.450014
     H   29   0.123826   0.042470   0.005043   0.014590   0.426004   0.000606
     H   30   0.432052   0.003912   0.040855   0.045753   0.124991   0.000123
     H   31   0.002024   0.085131   0.009321   0.000553   0.010022   0.430755
     H   32   0.001688   0.433682   0.021677   0.000850   0.020284   0.084940


                  C  7       C  8       C  9       C 10       C 11       C 12
 ------------------------------------------------------------------------------
     C    7  14.341576
     C    8   0.000180  14.353751
     C    9   0.052986   0.000335  18.211571
     C   10   0.000526   0.041721   0.005048  18.204179
     C   11   0.010017   0.001176  10.695286   0.051408  18.199443
     C   12   0.000212   0.716164   0.001437  10.720403   0.006534  18.199241
     H   13   0.037519   0.000089   0.386114   0.001314   0.029916   0.000560
     H   14   0.000499   0.000747   0.007213   0.442818   0.011744   0.057644
     H   15   0.438477   0.000060   0.010520   0.001061   0.001676   0.000125
     H   16   0.435044   0.000096   0.065590   0.002329   0.002731   0.000297
     H   17   0.003118   0.000162   0.010244   0.028402   0.007243   0.001609
     H   18   0.018131   0.000276   0.049986   0.027560   0.004388   0.002828
     H   19   0.000145   0.000236   0.043394   0.013562   0.432408   0.002331
     H   20   0.000247   0.000257   0.030853   0.048798   0.412498   0.002453
     H   21   0.000124   0.445833   0.000233   0.032311   0.000319   0.408843
     H   22   0.000049   0.434594   0.000148   0.049750   0.000188   0.460473
     H   23   4.746528   0.000050   0.009282   0.000175   0.002070   0.000084
     H   24   4.702904   0.000086   0.000861   0.000662   0.000675   0.000125
     H   25   4.718787   0.000043   0.001956   0.000180   0.000680   0.000089
     H   26   0.000053   4.746175   0.000136   0.002411   0.000183   0.015932
     H   27   0.000047   4.725629   0.000096   0.002014   0.000150   0.027380
     H   28   0.000056   4.750448   0.000101   0.007194   0.000308   0.052746
     H   29   0.002562   0.000343   0.443415   0.008541   4.813181   0.001117
     H   30   0.002430   0.000085   4.787359   0.001694   0.442283   0.000205
     H   31   0.000172   0.026592   0.000573   0.469201   0.002614   4.757458
     H   32   0.000221   0.008643   0.001204   4.751706   0.001780   0.468327


                  H 13       H 14       H 15       H 16       H 17       H 18
 ------------------------------------------------------------------------------
     H   13   4.597578
     H   14   0.018266   4.661311
     H   15   0.042812   0.000531   5.072134
     H   16   0.019821   0.000452   0.573346   5.044783
     H   17   0.042729   0.043031   0.029901   0.002213   5.056213
     H   18   0.033643   0.026549   0.001612   0.001163   0.564333   5.075122
     H   19   0.001147   0.035995   0.000254   0.000304   0.002434   0.008302
     H   20   0.002114   0.041739   0.000298   0.000267   0.007999   0.001389
     H   21   0.000079   0.000405   0.000050   0.000100   0.000200   0.000266
     H   22   0.000062   0.000540   0.000026   0.000030   0.000184   0.000113
     H   23   0.002461   0.000122   0.029779   0.032394   0.000291   0.000654
     H   24   0.002131   0.000193   0.024164   0.048892   0.001276   0.022351
     H   25   0.026118   0.000153   0.048159   0.025125   0.000454   0.000676
     H   26   0.000024   0.000130   0.000017   0.000027   0.000054   0.000072
     H   27   0.000025   0.000205   0.000017   0.000025   0.000060   0.000058
     H   28   0.000032   0.000175   0.000026   0.000030   0.000072   0.000114
     H   29   0.016807   0.001053   0.000343   0.000728   0.000590   0.001054
     H   30   0.016859   0.000523   0.002284   0.025791   0.001482   0.006904
     H   31   0.000273   0.029625   0.000116   0.000146   0.000637   0.000576
     H   32   0.000650   0.036852   0.000319   0.000209   0.016995   0.002694


                  H 19       H 20       H 21       H 22       H 23       H 24
 ------------------------------------------------------------------------------
     H   19   5.061486
     H   20   0.567648   4.997693
     H   21   0.000205   0.000199   5.019600
     H   22   0.000151   0.000202   0.567446   5.053018
     H   23   0.000078   0.000082   0.000039   0.000018   5.485479
     H   24   0.000185   0.000107   0.000052   0.000020   0.576110   5.441975
     H   25   0.000058   0.000065   0.000025   0.000015   0.574370   0.577927
     H   26   0.000078   0.000066   0.049369   0.024489   0.000016   0.000021
     H   27   0.000056   0.000062   0.023757   0.048042   0.000013   0.000019
     H   28   0.000086   0.000083   0.028575   0.030188   0.000012   0.000036
     H   29   0.034877   0.020181   0.000119   0.000077   0.000562   0.000142
     H   30   0.014751   0.017802   0.000055   0.000047   0.000535   0.000702
     H   31   0.000575   0.000784   0.017126   0.039023   0.000064   0.000134
     H   32   0.002052   0.023008   0.010258   0.030088   0.000099   0.000235


                  H 25       H 26       H 27       H 28       H 29       H 30
 ------------------------------------------------------------------------------
     H   25   5.463032
     H   26   0.000011   5.484709
     H   27   0.000012   0.578843   5.470477
     H   28   0.000016   0.574514   0.573736   5.487945
     H   29   0.000118   0.000066   0.000062   0.000099   5.187224
     H   30   0.000657   0.000041   0.000030   0.000027   0.071880   5.166436
     H   31   0.000057   0.002654   0.020462   0.002077   0.000481   0.000193
     H   32   0.000082   0.000495   0.000593   0.001684   0.000592   0.000560


                  H 31       H 32
 ------------------------------
     H   31   5.137287
     H   32   0.107029   5.136353


          HEAT OF FORMATION =     -10.499178 KCALS/MOLE

          ZERO POINT ENERGY     180.332 KCAL/MOL


           NORMAL COORDINATE ANALYSIS (Total motion = 1 Angstrom)


   Root No.       1         2         3         4         5         6         7         8

                 1 A       2 A       3 A       4 A       5 A       6 A       7 A       8 A   

                  22.2      53.2      57.5      79.9      88.8     111.9     164.3     172.9
  
           1    0.0056    0.0033   -0.0025   -0.0099   -0.0013   -0.0029   -0.0041   -0.0024
           2   -0.0005   -0.0073   -0.0124   -0.0057   -0.0051   -0.0100   -0.0107   -0.0057
           3    0.0020    0.0021    0.0132   -0.0060   -0.0095    0.0040   -0.0027    0.0043
           4    0.0054    0.0041   -0.0015   -0.0059   -0.0068    0.0022   -0.0051    0.0022
           5   -0.0117   -0.0164    0.0050   -0.0159    0.0128   -0.0071    0.0067   -0.0000
           6   -0.0176   -0.0041   -0.0058    0.0181    0.0049    0.0134    0.0009    0.0052
           7    0.0093    0.0067   -0.0078   -0.0048   -0.0102   -0.0010   -0.0097   -0.0017
           8   -0.0059   -0.0126   -0.0043   -0.0140    0.0075   -0.0125   -0.0028   -0.0064
           9   -0.0069    0.0059    0.0156    0.0185   -0.0217    0.0333   -0.0044    0.0179
          10    0.0073    0.0073   -0.0072   -0.0018   -0.0148    0.0029    0.0001   -0.0000
          11    0.0057   -0.0005   -0.0216    0.0074   -0.0198   -0.0032   -0.0043   -0.0026
          12    0.0159    0.0054    0.0044   -0.0030    0.0167   -0.0058    0.0015   -0.0002
          13   -0.0080   -0.0021   -0.0051   -0.0006    0.0100    0.0029    0.0024    0.0014
          14   -0.0105   -0.0068    0.0275   -0.0149   -0.0095    0.0068    0.0061   -0.0063
          15   -0.0188   -0.0105   -0.0209    0.0173    0.0203    0.0034    0.0017    0.0095
          16   -0.0071   -0.0217    0.0033   -0.0017    0.0028    0.0092   -0.0032    0.0086
          17    0.0093    0.0135   -0.0081    0.0008   -0.0023    0.0070    0.0006    0.0038
          18   -0.0110    0.0300   -0.0027   -0.0144   -0.0038   -0.0234   -0.0010   -0.0126
          19    0.0214    0.0320    0.0110    0.0093    0.0234   -0.0030    0.0298   -0.0031
          20    0.0028    0.0253    0.0238    0.0117    0.0058    0.0013    0.0052    0.0017
          21    0.0220   -0.0055   -0.0223   -0.0028    0.0101   -0.0110    0.0039   -0.0044
          22   -0.0143   -0.0117    0.0041    0.0176   -0.0065   -0.0099   -0.0074   -0.0040
          23    0.0145    0.0121   -0.0014    0.0359   -0.0155   -0.0191   -0.0056   -0.0110
          24    0.0481   -0.0306    0.0168    0.0032    0.0017   -0.0088    0.0003    0.0070
          25   -0.0077   -0.0020    0.0032   -0.0082    0.0033    0.0030    0.0025   -0.0007
          26    0.0020   -0.0024   -0.0144    0.0124    0.0052    0.0038   -0.0107    0.0031
          27   -0.0018   -0.0035    0.0155   -0.0246   -0.0201   -0.0098   -0.0017   -0.0046
          28    0.0086    0.0034   -0.0058   -0.0095   -0.0080    0.0002   -0.0123    0.0005
          29   -0.0157   -0.0159    0.0103   -0.0101    0.0144   -0.0031    0.0163    0.0057
          30   -0.0243    0.0011    0.0018    0.0157    0.0036    0.0045    0.0040   -0.0122
          31   -0.0136   -0.0047    0.0012   -0.0041    0.0099    0.0048    0.0067    0.0002
          32   -0.0027   -0.0020    0.0043    0.0084    0.0033    0.0117   -0.0043    0.0038
          33   -0.0109   -0.0095   -0.0019   -0.0130   -0.0053   -0.0108    0.0019   -0.0024
          34   -0.0078   -0.0167    0.0069    0.0157   -0.0052   -0.0090   -0.0040   -0.0008
          35    0.0098    0.0072   -0.0121   -0.0244    0.0086    0.0283    0.0028    0.0174
          36   -0.0061    0.0225   -0.0126   -0.0095    0.0003    0.0164   -0.0055   -0.0099
          37    0.0123    0.0010   -0.0028   -0.0220    0.0184   -0.0186   -0.0042   -0.0096
          38   -0.0029   -0.0111   -0.0092   -0.0219   -0.0134   -0.0223   -0.0095   -0.0126
          39    0.0013   -0.0001    0.0147   -0.0155   -0.0120   -0.0038   -0.0023   -0.0000
          40    0.0091    0.0051    0.0080   -0.0046   -0.0144    0.0135   -0.0027    0.0138
          41   -0.0128   -0.0232   -0.0109   -0.0152    0.0279   -0.0156    0.0071    0.0035
          42   -0.0182   -0.0092   -0.0174    0.0183    0.0163    0.0072    0.0013    0.0085
          43    0.0023    0.0001   -0.0227    0.0032   -0.0516    0.0132    0.0010    0.0046
          44    0.0084   -0.0183   -0.0551    0.0058   -0.0396   -0.0058   -0.0094   -0.0053
          45    0.0171   -0.0085   -0.0221   -0.0035   -0.0030   -0.0062   -0.0023   -0.0015
          46    0.0023   -0.0014   -0.0097   -0.0088   -0.0178    0.0014   -0.0107   -0.0009
          47    0.0102    0.0017   -0.0325    0.0157   -0.0328    0.0006    0.0066   -0.0011
          48    0.0208    0.0302    0.0436   -0.0012    0.0634   -0.0112    0.0117   -0.0014
          49    0.0056    0.0068   -0.0191    0.0054   -0.0117    0.0018   -0.0128   -0.0030
          50   -0.0051   -0.0055    0.0082   -0.0013   -0.0121    0.0131   -0.0068    0.0078
          51   -0.0063    0.0113    0.0249    0.0281   -0.0364    0.0528   -0.0077    0.0286
          52    0.0192    0.0114   -0.0056   -0.0100   -0.0195   -0.0045   -0.0158   -0.0028
          53   -0.0069   -0.0196   -0.0165   -0.0264    0.0266   -0.0378    0.0023   -0.0203
          54   -0.0062    0.0113    0.0248    0.0281   -0.0360    0.0525   -0.0075    0.0285
          55   -0.0119   -0.0032    0.0150   -0.0172   -0.0047    0.0016    0.0088   -0.0075
          56   -0.0151   -0.0091    0.0431   -0.0294   -0.0194    0.0046    0.0124   -0.0137
          57   -0.0249   -0.0194   -0.0492    0.0303    0.0525   -0.0031    0.0024    0.0199
          58   -0.0105   -0.0045   -0.0362    0.0275    0.0412    0.0063   -0.0023    0.0154
          59   -0.0116   -0.0012    0.0495   -0.0191   -0.0288    0.0156    0.0083   -0.0142
          60   -0.0205   -0.0075   -0.0168    0.0245    0.0181    0.0106    0.0016    0.0090
          61   -0.0241   -0.0082   -0.0095   -0.0234    0.0103    0.0363   -0.0025    0.0093
          62    0.0407   -0.0206   -0.0045    0.0082    0.0041    0.0400   -0.0004    0.0112
          63   -0.0410    0.0616   -0.0079   -0.0242   -0.0081   -0.0476   -0.0001   -0.0188
          64    0.0153   -0.0457    0.0116   -0.0112    0.0098    0.0152    0.0005    0.0243
          65   -0.0251    0.0506   -0.0122   -0.0079   -0.0091   -0.0283    0.0016   -0.0045
          66   -0.0315    0.0523   -0.0044   -0.0215   -0.0075   -0.0466    0.0001   -0.0160
          67    0.0226    0.0299   -0.0004    0.0122    0.0034   -0.0016    0.1447    0.0030
          68    0.0076    0.0235    0.0049    0.0173   -0.0182    0.0013    0.1701    0.0089
          69    0.0321   -0.0000   -0.0244    0.0005    0.0371   -0.0185   -0.0568   -0.0130
          70    0.0268    0.0380    0.0075    0.0150    0.0197   -0.0040    0.1320    0.0007
          71   -0.0017    0.0290    0.0443    0.0071    0.0293    0.0018   -0.1421   -0.0043
          72    0.0179   -0.0358   -0.0713   -0.0078   -0.0467   -0.0093    0.1095    0.0013
          73    0.0263    0.0481    0.0404    0.0097    0.0783   -0.0085   -0.1583   -0.0156
          74    0.0002    0.0444    0.0589    0.0142    0.0270    0.0047   -0.0064    0.0042
          75    0.0211    0.0106    0.0073   -0.0010    0.0347   -0.0097   -0.0387   -0.0050
          76    0.0031   -0.0235    0.0162    0.0398   -0.0164   -0.0533   -0.0161    0.0937
          77   -0.0164    0.0499   -0.0064    0.0290   -0.0252   -0.0723   -0.0141    0.1069
          78    0.0779   -0.0650    0.0236    0.0139    0.0077    0.0265    0.0055   -0.0709
          79   -0.0370    0.0100   -0.0034    0.0286   -0.0123   -0.0053   -0.0073   -0.0929
          80    0.0484   -0.0289    0.0046    0.0473   -0.0064    0.0355    0.0028   -0.1402
          81    0.0685   -0.0558    0.0202    0.0113    0.0072    0.0269    0.0058   -0.0825
          82   -0.0148   -0.0143    0.0005    0.0006    0.0015    0.0125   -0.0026   -0.0216
          83    0.0155    0.0142    0.0028    0.0600   -0.0255   -0.0420   -0.0109   -0.0114
          84    0.0449   -0.0196    0.0221   -0.0015   -0.0055   -0.0683   -0.0093    0.1907
          85   -0.0232   -0.0091    0.0038   -0.0027    0.0165    0.0078    0.0139    0.0002
          86   -0.0008    0.0020    0.0038    0.0217    0.0105    0.0226   -0.0062    0.0111
          87   -0.0131   -0.0140   -0.0012   -0.0277   -0.0131   -0.0228    0.0041   -0.0106
          88   -0.0123   -0.0040    0.0075   -0.0099    0.0041    0.0043    0.0057   -0.0012
          89    0.0079    0.0012   -0.0316    0.0297    0.0154    0.0073   -0.0161    0.0095
          90    0.0035   -0.0030    0.0311   -0.0492   -0.0403   -0.0207   -0.0024   -0.0147
          91   -0.0233   -0.0292    0.0195    0.0475   -0.0072   -0.0232    0.0039   -0.0118
          92    0.0335    0.0224   -0.0342   -0.0478    0.0082    0.0646   -0.0117    0.0299
          93    0.0141    0.0349   -0.0316   -0.0274   -0.0003    0.0484   -0.0178    0.0010
          94    0.0240    0.0180   -0.0197   -0.0352   -0.0092    0.0130   -0.0241    0.0009
          95   -0.0391   -0.0318    0.0323    0.0134    0.0155   -0.0328    0.0306   -0.0084
          96   -0.0440   -0.0118    0.0204    0.0337    0.0047   -0.0216    0.0159   -0.0249


   Root No.       9        10        11        12        13        14        15        16

                 9 A      10 A      11 A      12 A      13 A      14 A      15 A      16 A   

                 217.9     235.7     298.0     324.2     357.7     406.3     440.3     457.7
  
           1   -0.0061   -0.0037   -0.0159    0.0078    0.0043    0.0168    0.0131    0.0247
           2   -0.0029    0.0044   -0.0014    0.0183    0.0041    0.0193    0.0061   -0.0228
           3   -0.0163   -0.0127   -0.0196   -0.0106    0.0051   -0.0039    0.0002    0.0123
           4   -0.0044   -0.0102    0.0024   -0.0013   -0.0124    0.0051    0.0034   -0.0067
           5    0.0011   -0.0016    0.0095    0.0007    0.0221   -0.0104    0.0082    0.0126
           6    0.0035    0.0077   -0.0018   -0.0036    0.0036    0.0093   -0.0319    0.0160
           7   -0.0060   -0.0050   -0.0098    0.0073   -0.0074    0.0198    0.0074    0.0008
           8   -0.0063    0.0074   -0.0026    0.0161    0.0243    0.0138    0.0091    0.0080
           9    0.0114   -0.0184    0.0105    0.0203    0.0160    0.0039    0.0102   -0.0043
          10    0.0151   -0.0073   -0.0220   -0.0125    0.0037   -0.0019    0.0080    0.0435
          11    0.0268   -0.0000   -0.0051   -0.0057   -0.0103   -0.0196   -0.0060   -0.0096
          12   -0.0183   -0.0040   -0.0043    0.0135   -0.0222   -0.0120    0.0015    0.0167
          13   -0.0006   -0.0059   -0.0171    0.0161   -0.0079   -0.0187   -0.0037   -0.0251
          14    0.0073    0.0214    0.0025    0.0031    0.0060   -0.0022   -0.0239    0.0138
          15    0.0003   -0.0092    0.0013   -0.0009    0.0164    0.0007   -0.0157    0.0147
          16   -0.0068    0.0056    0.0248   -0.0220   -0.0109    0.0017    0.0022   -0.0049
          17    0.0025   -0.0073    0.0030   -0.0097   -0.0172    0.0232   -0.0206   -0.0095
          18   -0.0041   -0.0215    0.0222   -0.0099   -0.0003   -0.0024   -0.0023   -0.0002
          19    0.0304    0.0097    0.0024   -0.0126    0.0261    0.0131    0.0014   -0.0019
          20   -0.0086   -0.0044   -0.0032    0.0078   -0.0236   -0.0215   -0.0041    0.0015
          21    0.0126    0.0047    0.0018    0.0050   -0.0096   -0.0122   -0.0038   -0.0084
          22   -0.0138    0.0133    0.0292   -0.0170    0.0034   -0.0186    0.0199    0.0020
          23   -0.0070    0.0099    0.0016    0.0037    0.0073   -0.0066    0.0040    0.0020
          24   -0.0000   -0.0045    0.0068   -0.0044   -0.0012   -0.0007   -0.0008   -0.0002
          25    0.0016   -0.0009   -0.0191    0.0221    0.0021   -0.0124   -0.0035   -0.0126
          26   -0.0121   -0.0060    0.0012    0.0230   -0.0030    0.0183    0.0072    0.0060
          27   -0.0044   -0.0015   -0.0208   -0.0166    0.0168   -0.0000   -0.0012   -0.0262
          28   -0.0170    0.0008    0.0196    0.0033    0.0085    0.0000   -0.0169   -0.0021
          29    0.0180   -0.0217   -0.0011   -0.0151   -0.0104   -0.0037    0.0332    0.0052
          30    0.0034    0.0286   -0.0151   -0.0148   -0.0212    0.0163    0.0179   -0.0072
          31    0.0088    0.0025   -0.0104    0.0259   -0.0040   -0.0202   -0.0134   -0.0084
          32   -0.0220   -0.0043   -0.0200   -0.0206    0.0166   -0.0028   -0.0171   -0.0163
          33    0.0168    0.0036    0.0136    0.0216   -0.0055    0.0042   -0.0028    0.0025
          34   -0.0052   -0.0033    0.0127   -0.0100   -0.0110    0.0180   -0.0229   -0.0077
          35    0.0025   -0.0037    0.0174   -0.0214   -0.0134   -0.0005    0.0089   -0.0018
          36   -0.0103    0.0351   -0.0033   -0.0053   -0.0034   -0.0020    0.0243   -0.0033
          37   -0.0250    0.0026   -0.0201    0.0100    0.0004    0.0266    0.0181    0.0459
          38   -0.0085    0.0089   -0.0166   -0.0024    0.0137    0.0217    0.0006   -0.0423
          39   -0.0201   -0.0093   -0.0272   -0.0200    0.0102   -0.0010   -0.0017    0.0028
          40    0.0045   -0.0309    0.0126   -0.0034   -0.0157    0.0009    0.0087   -0.0038
          41   -0.0039   -0.0107    0.0123   -0.0036    0.0328   -0.0135   -0.0012    0.0234
          42    0.0001   -0.0009    0.0007   -0.0064    0.0127    0.0061   -0.0371    0.0242
          43    0.0401   -0.0178   -0.0401   -0.0472    0.0056   -0.0339   -0.0008    0.0756
          44    0.0550    0.0019   -0.0087   -0.0174   -0.0103   -0.0350   -0.0114   -0.0091
          45    0.0059   -0.0039   -0.0091    0.0004   -0.0217   -0.0271   -0.0037    0.0201
          46    0.0039   -0.0086   -0.0250   -0.0031    0.0041    0.0093    0.0129    0.0418
          47    0.0543   -0.0011   -0.0084   -0.0297   -0.0097   -0.0462   -0.0158    0.0017
          48   -0.0520    0.0043    0.0153    0.0449   -0.0240    0.0181    0.0090   -0.0100
          49    0.0010    0.0042   -0.0075    0.0119   -0.0125    0.0335   -0.0056   -0.0042
          50    0.0137   -0.0107    0.0232    0.0523    0.0424    0.0172    0.0529   -0.0211
          51    0.0262   -0.0321    0.0308    0.0489    0.0305    0.0069    0.0442   -0.0276
          52   -0.0147   -0.0125   -0.0204    0.0134   -0.0117    0.0231    0.0222   -0.0167
          53   -0.0252    0.0252   -0.0285   -0.0206    0.0067    0.0108   -0.0337    0.0380
          54    0.0261   -0.0321    0.0302    0.0484    0.0299    0.0064    0.0437   -0.0274
          55    0.0233    0.0187   -0.0000    0.0446   -0.0267   -0.0147   -0.0230    0.0061
          56    0.0285    0.0417    0.0174    0.0298   -0.0083   -0.0010   -0.0386    0.0416
          57   -0.0151   -0.0392   -0.0127   -0.0089    0.0503   -0.0226    0.0185   -0.0130
          58   -0.0313   -0.0403   -0.0469   -0.0161    0.0276   -0.0368    0.0191   -0.0700
          59    0.0201    0.0484    0.0062    0.0107   -0.0156    0.0109   -0.0610    0.0382
          60   -0.0020   -0.0031   -0.0073   -0.0078    0.0143    0.0032   -0.0315    0.0141
          61   -0.0077    0.0195    0.0253   -0.0327   -0.0212    0.0026    0.0225   -0.0090
          62    0.0013    0.0332   -0.0203   -0.0054   -0.0207    0.0227    0.0078   -0.0119
          63   -0.0033   -0.0541    0.0428   -0.0155    0.0014   -0.0024   -0.0234    0.0014
          64   -0.0012   -0.0062    0.0297   -0.0275   -0.0161    0.0045   -0.0039   -0.0057
          65    0.0034   -0.0501    0.0285   -0.0145   -0.0128    0.0229   -0.0498   -0.0069
          66   -0.0026   -0.0526    0.0405   -0.0141    0.0016   -0.0018   -0.0239    0.0013
          67   -0.0014    0.0117    0.0095   -0.0029    0.0264    0.0179    0.0021   -0.0080
          68   -0.0441    0.0028    0.0119    0.0192   -0.0158   -0.0110   -0.0055   -0.0221
          69    0.0649    0.0187    0.0149   -0.0102    0.0189   -0.0005   -0.0120   -0.0576
          70    0.0108    0.0175    0.0170   -0.0056    0.0370    0.0248   -0.0008   -0.0282
          71    0.0205   -0.0114   -0.0167   -0.0010   -0.0327   -0.0324   -0.0029    0.0246
          72   -0.0090    0.0004   -0.0053    0.0079   -0.0162   -0.0172   -0.0006    0.0074
          73    0.0962    0.0157    0.0037   -0.0312    0.0423    0.0158   -0.0042   -0.0237
          74   -0.0318   -0.0088   -0.0037    0.0173   -0.0359   -0.0244   -0.0022    0.0156
          75    0.0090    0.0029    0.0017    0.0080   -0.0147   -0.0134   -0.0035   -0.0032
          76   -0.0155    0.0538    0.0156   -0.0081    0.0155   -0.0382    0.0434    0.0097
          77   -0.0063    0.0355   -0.0038    0.0034    0.0063   -0.0073    0.0082    0.0021
          78   -0.0010   -0.0170    0.0085   -0.0023    0.0024   -0.0047    0.0012    0.0016
          79   -0.0232   -0.0029    0.0457   -0.0147    0.0204   -0.0431    0.0391    0.0107
          80   -0.0092   -0.0153    0.0081    0.0055    0.0123   -0.0119    0.0053    0.0044
          81   -0.0020   -0.0220    0.0119   -0.0031    0.0029   -0.0053    0.0009    0.0017
          82   -0.0090   -0.0023    0.0307   -0.0236   -0.0105    0.0016    0.0004   -0.0060
          83   -0.0146    0.0258    0.0027    0.0126    0.0280   -0.0368    0.0324    0.0137
          84    0.0063    0.0398   -0.0131   -0.0033   -0.0095    0.0090   -0.0029   -0.0036
          85    0.0211    0.0116    0.0017    0.0297   -0.0039   -0.0280   -0.0297    0.0094
          86   -0.0450   -0.0172   -0.0429   -0.0557    0.0344   -0.0091   -0.0279   -0.0144
          87    0.0423    0.0182    0.0390    0.0604   -0.0248    0.0114    0.0087    0.0013
          88    0.0046    0.0023   -0.0200    0.0206    0.0028   -0.0237   -0.0137   -0.0271
          89   -0.0192   -0.0175    0.0101    0.0364   -0.0134    0.0369    0.0223    0.0561
          90   -0.0012    0.0086   -0.0335   -0.0358    0.0328    0.0048    0.0051   -0.0643
          91    0.0080   -0.0072   -0.0104   -0.0173   -0.0404    0.0546   -0.0285   -0.0217
          92   -0.0183    0.0302    0.0361   -0.0157    0.0103   -0.0267    0.0017    0.0049
          93   -0.0278    0.0652    0.0117   -0.0014    0.0145   -0.0213    0.0160    0.0011
          94   -0.0374    0.0247    0.0364    0.0170    0.0414   -0.0282   -0.0174    0.0049
          95    0.0381   -0.0413   -0.0271   -0.0243   -0.0416    0.0236    0.0614   -0.0067
          96    0.0196    0.0124   -0.0365   -0.0216   -0.0456    0.0374    0.0441   -0.0169


   Root No.      17        18        19        20        21        22        23        24

                17 A      18 A      19 A      20 A      21 A      22 A      23 A      24 A   

                 513.2     538.7     590.7     713.6     768.5     813.5     822.1     886.1
  
           1    0.0037   -0.0188   -0.0090    0.0035    0.0027   -0.0010   -0.0004   -0.0065
           2   -0.0112   -0.0159   -0.0084   -0.0033   -0.0010   -0.0005    0.0013    0.0010
[...]
 TRANSITION DIPOLE   0.0195         C  6 -- H 22         +45.0% ( 69.7%)     96.1%
 TRAVEL (Ang.)       0.2106         C  6 -- C  8          +1.2% ( 11.2%)      0.0%
 REDUCED MASS        0.5161         C  6 -- C 12          +1.1% ( 11.1%)      0.2%
 EFFECTIVE MASS      1.5436
 FORCE CONSTANT      2.6377

 VIBRATION         75   75A           ATOM PAIR      ENERGY CONTRIBUTION    RADIAL
 FREQUENCY          2949.16         C  4 -- H 16         +53.2% ( 75.8%)     97.0%
 TRANSITION DIPOLE   0.0101         C  4 -- H 15         +43.3% ( 68.4%)     95.9%
 TRAVEL (Ang.)       0.2115         C  4 -- C  7          +1.2% ( 11.2%)      0.0%
 REDUCED MASS        0.5110         C  1 -- C  4          +1.1% ( 11.1%)      0.1%
 EFFECTIVE MASS      1.5435
 FORCE CONSTANT      2.6184

 VIBRATION         76   76A           ATOM PAIR      ENERGY CONTRIBUTION    RADIAL
 FREQUENCY          2955.00         C  3 -- H 17         +53.0% ( 75.5%)     97.0%
 TRANSITION DIPOLE   0.0324         C  3 -- H 18         +43.2% ( 68.2%)     95.9%
 TRAVEL (Ang.)       0.2123         C  1 -- C  3          +1.1% ( 11.1%)      0.0%
 REDUCED MASS        0.5065         C  2 -- C  3          +1.1% ( 11.1%)      0.0%
 EFFECTIVE MASS      1.5420
 FORCE CONSTANT      2.6059

 VIBRATION         77   77A           ATOM PAIR      ENERGY CONTRIBUTION    RADIAL
 FREQUENCY          3024.54         C  5 -- H 19         +59.8% ( 76.3%)     98.8%
 TRANSITION DIPOLE   0.0487         C  5 -- H 20         +35.1% ( 58.5%)     95.6%
 TRAVEL (Ang.)       0.2165         C 11 -- H 29          +2.7% ( 16.1%)    100.0%
 REDUCED MASS        0.4754         C  5 -- C 11          +0.7% (  8.0%)     15.2%
 EFFECTIVE MASS      1.2878
 FORCE CONSTANT      2.5625

 VIBRATION         78   78A           ATOM PAIR      ENERGY CONTRIBUTION    RADIAL
 FREQUENCY          3024.67         C  6 -- H 22         +50.3% ( 70.0%)     98.1%
 TRANSITION DIPOLE   0.0429         C  6 -- H 21         +44.1% ( 65.5%)     97.3%
 TRAVEL (Ang.)       0.2231         C 12 -- H 31          +2.2% ( 14.7%)     99.8%
 REDUCED MASS        0.4479         C  6 -- C 12          +0.7% (  8.1%)     29.1%
 EFFECTIVE MASS      1.2878
 FORCE CONSTANT      2.4144

 VIBRATION         79   79A           ATOM PAIR      ENERGY CONTRIBUTION    RADIAL
 FREQUENCY          3029.50         C  4 -- H 15         +40.6% ( 62.8%)     98.3%
 TRANSITION DIPOLE   0.0612         C  4 -- H 16         +32.1% ( 55.8%)     97.0%
 TRAVEL (Ang.)       0.2737         C  3 -- H 18         +14.2% ( 37.1%)     98.4%
 REDUCED MASS        0.2971         C  3 -- H 17         +10.6% ( 32.1%)     96.6%
 EFFECTIVE MASS      1.2757
 FORCE CONSTANT      1.6067

 VIBRATION         80   80A           ATOM PAIR      ENERGY CONTRIBUTION    RADIAL
 FREQUENCY          3031.92         C  3 -- H 18         +39.4% ( 61.9%)     98.2%
 TRANSITION DIPOLE   0.0592         C  3 -- H 17         +32.4% ( 56.1%)     97.0%
 TRAVEL (Ang.)       0.2781         C  4 -- H 15         +13.3% ( 35.9%)     98.3%
 REDUCED MASS        0.2876         C  4 -- H 16         +10.6% ( 32.1%)     97.1%
 EFFECTIVE MASS      1.2779
 FORCE CONSTANT      1.5575

 VIBRATION         81   81A           ATOM PAIR      ENERGY CONTRIBUTION    RADIAL
 FREQUENCY          3033.75         C 10 -- H 32         +66.6% ( 82.4%)    100.0%
 TRANSITION DIPOLE   0.3343         C 12 -- H 31         +29.5% ( 54.9%)    100.0%
 TRAVEL (Ang.)       0.2082         C  2 -- C 10          +0.9% (  9.4%)     18.0%
 REDUCED MASS        0.5127         C 10 -- C 12          +0.8% (  9.1%)     41.1%
 EFFECTIVE MASS      1.4351
 FORCE CONSTANT      2.7804

 VIBRATION         82   82A           ATOM PAIR      ENERGY CONTRIBUTION    RADIAL
 FREQUENCY          3035.96         C 12 -- H 31         +64.7% ( 81.8%)    100.0%
 TRANSITION DIPOLE   0.0718         C 10 -- H 32         +28.8% ( 54.6%)     99.9%
 TRAVEL (Ang.)       0.2103         C 10 -- C 12          +2.1% ( 14.8%)     40.3%
 REDUCED MASS        0.5021         C  6 -- H 22          +2.1% ( 14.8%)     99.4%
 EFFECTIVE MASS      1.5777
 FORCE CONSTANT      2.7269

 VIBRATION         83   83A           ATOM PAIR      ENERGY CONTRIBUTION    RADIAL
 FREQUENCY          3038.16         C  9 -- H 30         +64.4% ( 81.4%)    100.0%
 TRANSITION DIPOLE   0.2871         C 11 -- H 29         +30.6% ( 56.1%)    100.0%
 TRAVEL (Ang.)       0.2117         C  9 -- C 11          +1.1% ( 10.5%)      2.0%
 REDUCED MASS        0.4951         C  1 -- C  9          +0.9% (  9.4%)     17.7%
 EFFECTIVE MASS      1.4546
 FORCE CONSTANT      2.6925

 VIBRATION         84   84A           ATOM PAIR      ENERGY CONTRIBUTION    RADIAL
 FREQUENCY          3059.55         C 11 -- H 29         +63.7% ( 80.9%)     99.9%
 TRANSITION DIPOLE   0.2735         C  9 -- H 30         +31.5% ( 56.9%)     99.9%
 TRAVEL (Ang.)       0.2091         C  9 -- C 11          +2.0% ( 14.2%)     95.3%
 REDUCED MASS        0.5042         C  5 -- C 11          +1.0% ( 10.2%)     17.8%
 EFFECTIVE MASS      1.5793
 FORCE CONSTANT      2.7807

 VIBRATION         85   85A           ATOM PAIR      ENERGY CONTRIBUTION    RADIAL
 FREQUENCY          3074.15         C  7 -- H 24         +61.6% ( 81.0%)     98.5%
 TRANSITION DIPOLE   0.0104         C  7 -- H 25         +33.1% ( 59.3%)     93.8%
 TRAVEL (Ang.)       0.2059         C  7 -- H 23          +3.8% ( 20.2%)     46.1%
 REDUCED MASS        0.5173         C  4 -- C  7          +1.0% ( 10.2%)      0.0%
 EFFECTIVE MASS      1.5003
 FORCE CONSTANT      2.8806

 VIBRATION         86   86A           ATOM PAIR      ENERGY CONTRIBUTION    RADIAL
 FREQUENCY          3081.33         C  8 -- H 27         +64.1% ( 82.6%)     98.7%
 TRANSITION DIPOLE   0.0085         C  8 -- H 26         +28.2% ( 54.8%)     92.1%
 TRAVEL (Ang.)       0.2047         C  8 -- H 28          +6.4% ( 26.2%)     62.5%
 REDUCED MASS        0.5223         C  6 -- C  8          +1.0% ( 10.2%)      0.0%
 EFFECTIVE MASS      1.5013
 FORCE CONSTANT      2.9218

 VIBRATION         87   87A           ATOM PAIR      ENERGY CONTRIBUTION    RADIAL
 FREQUENCY          3082.34         C  7 -- H 23         +57.8% ( 78.4%)     98.4%
 TRANSITION DIPOLE   0.0022         C  7 -- H 25         +33.5% ( 59.7%)     93.6%
 TRAVEL (Ang.)       0.2137         C  7 -- H 24          +7.1% ( 27.5%)     64.4%
 REDUCED MASS        0.4792         C  4 -- C  7          +1.0% ( 10.3%)      0.0%
 EFFECTIVE MASS      1.5022
 FORCE CONSTANT      2.6827

 VIBRATION         88   88A           ATOM PAIR      ENERGY CONTRIBUTION    RADIAL
 FREQUENCY          3086.03         C  8 -- H 28         +58.2% ( 78.7%)     98.3%
 TRANSITION DIPOLE   0.0107         C  8 -- H 26         +36.6% ( 62.4%)     94.6%
 TRAVEL (Ang.)       0.2085         C  8 -- H 27          +3.8% ( 20.0%)     44.6%
 REDUCED MASS        0.5025         C  6 -- C  8          +1.0% ( 10.3%)      0.1%
 EFFECTIVE MASS      1.5040
 FORCE CONSTANT      2.8195

 VIBRATION         89   89A           ATOM PAIR      ENERGY CONTRIBUTION    RADIAL
 FREQUENCY          3178.89         C  7 -- H 23         +37.8% ( 59.1%)     97.8%
 TRANSITION DIPOLE   0.0176         C  7 -- H 25         +32.3% ( 54.7%)     96.9%
 TRAVEL (Ang.)       0.2536         C  7 -- H 24         +29.6% ( 52.3%)     96.4%
 REDUCED MASS        0.3297         C  4 -- C  7          +0.3% (  5.1%)     99.1%
 EFFECTIVE MASS      1.1376
 FORCE CONSTANT      1.9631

 VIBRATION         90   90A           ATOM PAIR      ENERGY CONTRIBUTION    RADIAL
 FREQUENCY          3183.18         C  8 -- H 28         +34.4% ( 56.5%)     97.3%
 TRANSITION DIPOLE   0.0219         C  8 -- H 26         +34.4% ( 56.4%)     97.3%
 TRAVEL (Ang.)       0.2542         C  8 -- H 27         +30.9% ( 53.4%)     96.7%
 REDUCED MASS        0.3277         C  6 -- C  8          +0.3% (  5.1%)     99.8%
 EFFECTIVE MASS      1.1361
 FORCE CONSTANT      1.9564

      SYMMETRY NUMBER FOR POINT-GROUP C1  =  1


          SYSTEM IS A GROUND STATE



 InChI=1S/C12H20/c1-3-5-7-12-9-6-8-11(4-2)10-12/h5-8,11-12H,3-4,9-10H2,1-2H3


          MOLECULE IS NOT LINEAR

          THERE ARE 90 GENUINE VIBRATIONS IN THIS SYSTEM
          THIS THERMODYNAMICS CALCULATION IS LIMITED TO
          MOLECULES WHICH HAVE NO INTERNAL ROTATIONS




                    CALCULATED THERMODYNAMIC PROPERTIES
                                          *
   TEMP. (K)   PARTITION FUNCTION   H.O.F.    ENTHALPY  HEAT CAPACITY ENTROPY
                                   KCAL/MOL   CAL/MOLE    CAL/K/MOL  CAL/K/MOL


 298.00  VIB.     0.1412D+06                  6854.8244    45.1069    46.5670
         ROT.     0.1855D+07                   888.2803     2.9808    31.6626
         INT.     0.2619D+12                  7743.1047    48.0877    78.2296
         TRA.     0.2036D+28                  1480.4672     4.9680    41.1956
         TOT.                      -10.499    9223.5719    53.0558   119.4253

 200.00  VIB.     0.2954D+04                  3221.0465    29.6572    31.9849
         ROT.     0.1020D+07                   596.1613     2.9808    30.4739
         INT.     0.3013D+10                  3817.2077    32.6380    62.4588
         TRA.     0.1119D+28                   993.6021     4.9680    39.2145
         TOT.                      -14.912    4810.8099    37.6060   101.6733

 210.00  VIB.     0.4423D+04                  3524.5522    31.0515    33.4654
         ROT.     0.1097D+07                   625.9693     2.9808    30.6194
         INT.     0.4853D+10                  4150.5215    34.0323    64.0848
         TRA.     0.1204D+28                  1043.2822     4.9680    39.4569
         TOT.                      -14.529    5193.8037    39.0003   103.5417

 220.00  VIB.     0.6604D+04                  3842.2293    32.4917    34.9430
         ROT.     0.1176D+07                   655.7774     2.9808    30.7580
         INT.     0.7770D+10                  4498.0067    35.4725    65.7011
         TRA.     0.1291D+28                  1092.9623     4.9680    39.6880
         TOT.                      -14.132    5590.9691    40.4405   105.3891

 230.00  VIB.     0.9835D+04                  4174.5400    33.9781    36.4199
         ROT.     0.1258D+07                   685.5855     2.9808    30.8905
         INT.     0.1237D+11                  4860.1255    36.9589    67.3105
         TRA.     0.1380D+28                  1142.6424     4.9680    39.9088
         TOT.                      -13.720    6002.7679    41.9269   107.2193

 240.00  VIB.     0.1461D+05                  4521.9415    35.5095    37.8982
         ROT.     0.1341D+07                   715.3935     2.9808    31.0174
         INT.     0.1959D+11                  5237.3350    38.4903    68.9156
         TRA.     0.1471D+28                  1192.3226     4.9680    40.1203
         TOT.                      -13.293    6429.6576    43.4584   109.0359

 250.00  VIB.     0.2168D+05                  4884.8728    37.0836    39.3796
         ROT.     0.1425D+07                   745.2016     2.9808    31.1391
         INT.     0.3089D+11                  5630.0744    40.0644    70.5187
         TRA.     0.1564D+28                  1242.0027     4.9680    40.3231
         TOT.                      -12.851    6872.0770    45.0324   110.8418

 260.00  VIB.     0.3210D+05                  5263.7437    38.6968    40.8653
         ROT.     0.1512D+07                   775.0097     2.9808    31.2560
         INT.     0.4851D+11                  6038.7533    41.6776    72.1213
         TRA.     0.1659D+28                  1291.6828     4.9680    40.5179
         TOT.                      -12.392    7330.4361    46.6456   112.6393

 270.00  VIB.     0.4746D+05                  5658.9262    40.3452    42.3566
         ROT.     0.1600D+07                   804.8177     2.9808    31.3685
         INT.     0.7592D+11                  6463.7439    43.3260    73.7251
         TRA.     0.1756D+28                  1341.3629     4.9680    40.7054
         TOT.                      -11.918    7805.1068    48.2940   114.4305

 280.00  VIB.     0.7011D+05                  6070.7485    42.0240    43.8541
         ROT.     0.1689D+07                   834.6258     2.9808    31.4769
         INT.     0.1184D+12                  6905.3742    45.0048    75.3310
         TRA.     0.1854D+28                  1391.0430     4.9680    40.8861
         TOT.                      -11.426    8296.4172    49.9728   116.2171

 290.00  VIB.     0.1035D+06                  6499.4910    43.7284    45.3584
         ROT.     0.1781D+07                   864.4339     2.9808    31.5815
         INT.     0.1842D+12                  7363.9249    46.7092    76.9399
         TRA.     0.1954D+28                  1440.7231     4.9680    41.0604
         TOT.                      -10.918    8804.6480    51.6772   118.0004

 300.00  VIB.     0.1526D+06                  6945.3846    45.4533    46.8699
         ROT.     0.1873D+07                   894.2419     2.9808    31.6826
         INT.     0.2859D+12                  7839.6265    48.4341    78.5525
         TRA.     0.2056D+28                  1490.4032     4.9680    41.2289
         TOT.                      -10.393    9330.0297    53.4022   119.7813

 310.00  VIB.     0.2250D+06                  7408.6095    47.1938    48.3887
         ROT.     0.1968D+07                   924.0500     2.9808    31.7803
         INT.     0.4427D+12                  8332.6595    50.1746    80.1690
         TRA.     0.2160D+28                  1540.0833     4.9680    41.3918
         TOT.                       -9.850    9872.7428    55.1426   121.5607

 320.00  VIB.     0.3316D+06                  7889.2967    48.9450    49.9146
         ROT.     0.2064D+07                   953.8580     2.9808    31.8749
         INT.     0.6843D+12                  8843.1548    51.9258    81.7896
         TRA.     0.2265D+28                  1589.7634     4.9680    41.5495
         TOT.                       -9.290   10432.9182    56.8938   123.3391

 330.00  VIB.     0.4886D+06                  8387.5293    50.7021    51.4476
         ROT.     0.2161D+07                   983.6661     2.9808    31.9667
         INT.     0.1056D+13                  9371.1954    53.6830    83.4143
         TRA.     0.2372D+28                  1639.4435     4.9680    41.7024
         TOT.                       -8.712   11010.6389    58.6510   125.1167

 340.00  VIB.     0.7199D+06                  8903.3450    52.4609    52.9874
         ROT.     0.2260D+07                  1013.4742     2.9808    32.0556
         INT.     0.1627D+13                  9916.8192    55.4417    85.0430
         TRA.     0.2481D+28                  1689.1236     4.9680    41.8507
         TOT.                       -8.117   11605.9428    60.4097   126.8937

 350.00  VIB.     0.1061D+07                  9436.7396    54.2173    54.5334
         ROT.     0.2361D+07                  1043.2822     2.9808    32.1420
         INT.     0.2504D+13                 10480.0218    57.1981    86.6755
         TRA.     0.2591D+28                  1738.8037     4.9680    41.9947
         TOT.                       -7.504   12218.8255    62.1661   128.6702

 360.00  VIB.     0.1563D+07                  9987.6697    55.9675    56.0853
         ROT.     0.2463D+07                  1073.0903     2.9808    32.2260
         INT.     0.3849D+13                 11060.7600    58.9483    88.3113
         TRA.     0.2703D+28                  1788.4838     4.9680    42.1347
         TOT.                       -6.874   12849.2439    63.9163   130.4460

 370.00  VIB.     0.2304D+07                 10556.0570    57.7082    57.6425
         ROT.     0.2566D+07                  1102.8984     2.9808    32.3077
         INT.     0.5911D+13                 11658.9553    60.6890    89.9502
         TRA.     0.2817D+28                  1838.1639     4.9680    42.2708
         TOT.                       -6.226   13497.1193    65.6570   132.2210

 380.00  VIB.     0.3396D+07                 11141.7912    59.4364    59.2045
         ROT.     0.2671D+07                  1132.7064     2.9808    32.3872
         INT.     0.9071D+13                 12274.4977    62.4172    91.5917
         TRA.     0.2932D+28                  1887.8440     4.9680    42.4033
         TOT.                       -5.560   14162.3417    67.3852   133.9949

 390.00  VIB.     0.5008D+07                 11744.7344    61.1495    60.7706
         ROT.     0.2777D+07                  1162.5145     2.9808    32.4646
         INT.     0.1391D+14                 12907.2489    64.1303    93.2352
         TRA.     0.3048D+28                  1937.5242     4.9680    42.5323
         TOT.                       -4.878   14844.7731    69.0984   135.7675

 400.00  VIB.     0.7388D+07                 12364.7240    62.8453    62.3402
         ROT.     0.2884D+07                  1192.3226     2.9808    32.5401
         INT.     0.2131D+14                 13557.0466    65.8261    94.8802
         TRA.     0.3166D+28                  1987.2043     4.9680    42.6581
         TOT.                       -4.178   15544.2509    70.7941   137.5383

   *: NOTE: HEATS OF FORMATION ARE RELATIVE TO THE
            ELEMENTS IN THEIR STANDARD STATE AT 298K
              (=  Standard Enthalpy of Formation).

            Hvib:  Zero-point energy is not included.
                   frequencies of less than zero cm-1 are not included.
            Hrot = (3/2)RT
            Htra = (3/2)RT + pV = (5/2)RT

            Heat capacity is Cp, not Cv

          For more information, see: HTTP://OpenMOPAC.net/Manual/thermochemistry.html


           FORCE CONSTANT IN CARTESIAN COORDINATES (Millidynes/A)

    ATOM   CHEMICAL       X               Y               Z
   NUMBER   SYMBOL  FORCE CONSTANT  FORCE CONSTANT  FORCE CONSTANT

      1       C        8.346638        8.534978        8.357551
      2       C        8.874277        8.334898        8.189447
      3       C        8.014182        8.431344        8.372479
      4       C        8.098393        8.244924        8.397013
      5       C        9.161876        8.251167        7.958727
      6       C        8.729755        8.478153        8.210018
      7       C        8.347750        8.273736        8.216722
      8       C        8.409925        8.243252        8.205887
      9       C       13.965584        6.780900        6.451342
     10       C       10.620444        6.259669       10.378655
     11       C       13.586343        6.887885        6.744178
     12       C       10.699152        6.262122       10.215081
     13       H        0.744104        1.485653        3.654234
     14       H        0.768662        2.122151        3.136756
     15       H        0.812588        2.209221        3.388985
     16       H        3.237505        2.303069        0.855699
     17       H        0.762532        2.158277        3.481961
     18       H        0.715980        2.153099        3.521575
     19       H        2.645216        2.927268        0.769164
     20       H        0.934767        2.018724        3.317021
     21       H        0.747667        2.354132        3.174249
     22       H        0.802643        1.921368        3.673175
     23       H        3.993119        1.930960        0.866281
     24       H        3.191530        2.645310        0.894923
     25       H        0.774784        2.285746        3.715876
     26       H        0.800218        2.538492        3.442219
     27       H        0.752150        2.022375        4.008712
     28       H        3.666518        2.429510        0.694776
     29       H        0.765338        2.956673        2.512715
     30       H        3.934752        1.467922        0.817924
     31       H        0.724388        2.579276        2.901127
     32       H        0.723243        2.563324        2.923056

 **********************
 *                    *
 * JOB ENDED NORMALLY *
 *                    *
 **********************



 TOTAL JOB TIME:             9.48 SECONDS

 == MOPAC DONE ==
