 *******************************************************************************
 **                                                                           **
 **                              MOPAC v23.1.2                                **
 **                                                                           **
 *******************************************************************************
 **          Digital Object Identifier (DOI): 10.5281/zenodo.6511958          **
 **    Visit the DOI location for information on how to cite this program.    **
 *******************************************************************************

                              PM3 CALCULATION RESULTS

 *******************************************************************************
 *  CALCULATION DONE: (MAX THREADS = 1)              Tue Jun  3 16:30:56 2025  *
 *  PM3        - The PM3 Hamiltonian to be used
 *  PRECISE    - TIGHTER CRITERIA TO BE USED
 *  NOSYM      - POINT-GROUP SYMMETRY SET TO C1
 *  THREADS=1  - MULTI-THREADING NOT USED
 *  T=         - A TIME OF 172800.0 SECONDS REQUESTED
 *  DUMP=N     - RESTART FILE WRITTEN EVERY 7200.0 SECONDS REQUESTED
 *******************************************************************************
pm3  precise nosym THREADS=1
 InChI=1S/C6H8/c1-2-4-6-5-3-1/h1-4H,5-6H2

   ATOM   CHEMICAL          X               Y               Z
  NUMBER   SYMBOL      (ANGSTROMS)     (ANGSTROMS)     (ANGSTROMS)

     1       C         -0.98120000  *   0.80070000  *   0.35270000  *
     2       C         -1.13650000  *  -0.55290000  *  -0.36170000  *
     3       C          0.39540000  *   1.37610000  *   0.14050000  *
     4       C          0.06810000  *  -1.43040000  *  -0.13850000  *
     5       C          1.45790000  *   0.57180000  *   0.02560000  *
     6       C          1.28670000  *  -0.89300000  *  -0.01390000  *
     7       H         -1.74660000  *   1.51330000  *  -0.02180000  *
     8       H         -1.14070000  *   0.65960000  *   1.44350000  *
     9       H         -2.04890000  *  -1.06910000  *   0.00560000  *
    10       H         -1.25000000  *  -0.37980000  *  -1.45370000  *
    11       H          0.53390000  *   2.44970000  *   0.16250000  *
    12       H         -0.04480000  *  -2.50690000  *  -0.16040000  *
    13       H          2.45160000  *   0.99540000  *  -0.04320000  *
    14       H          2.15500000  *  -1.53460000  *   0.06290000  *



          CARTESIAN COORDINATES 

    NO.       ATOM           X           Y           Z

     1         C         -0.9812      0.8007      0.3527
     2         C         -1.1365     -0.5529     -0.3617
     3         C          0.3954      1.3761      0.1405
     4         C          0.0681     -1.4304     -0.1385
     5         C          1.4579      0.5718      0.0256
     6         C          1.2867     -0.8930     -0.0139
     7         H         -1.7466      1.5133     -0.0218
     8         H         -1.1407      0.6596      1.4435
     9         H         -2.0489     -1.0691      0.0056
    10         H         -1.2500     -0.3798     -1.4537
    11         H          0.5339      2.4497      0.1625
    12         H         -0.0448     -2.5069     -0.1604
    13         H          2.4516      0.9954     -0.0432
    14         H          2.1550     -1.5346      0.0629

  H: (PM3): J. J. P. STEWART, J. COMP. CHEM. 10, 209 (1989).
  C: (PM3): J. J. P. STEWART, J. COMP. CHEM. 10, 209 (1989).

           Empirical Formula: C6 H8  =    14 atoms



      MOLECULAR POINT GROUP   :   C1  


      RHF CALCULATION, NO. OF DOUBLY OCCUPIED LEVELS = 16


          Geometry optimization using EF

          DIAGONAL MATRIX USED AS START HESSIAN

 CYCLE:     1 TIME:   0.004 TIME LEFT:  2.00D  GRAD.:    57.442 HEAT:  22.37061
 CYCLE:     2 TIME:   0.008 TIME LEFT:  2.00D  GRAD.:    25.582 HEAT:  21.45400
 CYCLE:     3 TIME:   0.004 TIME LEFT:  2.00D  GRAD.:    35.783 HEAT:  21.44763
 CYCLE:     4 TIME:   0.004 TIME LEFT:  2.00D  GRAD.:    40.794 HEAT:  21.33777
 CYCLE:     5 TIME:   0.008 TIME LEFT:  2.00D  GRAD.:    42.565 HEAT:  21.29789
 CYCLE:     6 TIME:   0.004 TIME LEFT:  2.00D  GRAD.:    23.776 HEAT:  20.90753
 CYCLE:     7 TIME:   0.004 TIME LEFT:  2.00D  GRAD.:    26.618 HEAT:  20.86483
 CYCLE:     8 TIME:   0.004 TIME LEFT:  2.00D  GRAD.:    12.875 HEAT:  20.70269
 CYCLE:     9 TIME:   0.008 TIME LEFT:  2.00D  GRAD.:    15.493 HEAT:  20.67945
 CYCLE:    10 TIME:   0.004 TIME LEFT:  2.00D  GRAD.:    12.246 HEAT:  20.64589
 CYCLE:    11 TIME:   0.004 TIME LEFT:  2.00D  GRAD.:     5.687 HEAT:  20.60027
 CYCLE:    12 TIME:   0.004 TIME LEFT:  2.00D  GRAD.:     5.146 HEAT:  20.58404
 CYCLE:    13 TIME:   0.004 TIME LEFT:  2.00D  GRAD.:     7.646 HEAT:  20.57535
 CYCLE:    14 TIME:   0.004 TIME LEFT:  2.00D  GRAD.:     6.589 HEAT:  20.56635
 CYCLE:    15 TIME:   0.004 TIME LEFT:  2.00D  GRAD.:     5.266 HEAT:  20.55254
 CYCLE:    16 TIME:   0.004 TIME LEFT:  2.00D  GRAD.:     3.756 HEAT:  20.53985
 CYCLE:    17 TIME:   0.004 TIME LEFT:  2.00D  GRAD.:     4.985 HEAT:  20.52323
 CYCLE:    18 TIME:   0.004 TIME LEFT:  2.00D  GRAD.:     5.248 HEAT:  20.48905
 CYCLE:    19 TIME:   0.004 TIME LEFT:  2.00D  GRAD.:     3.466 HEAT:  20.45023
 CYCLE:    20 TIME:   0.004 TIME LEFT:  2.00D  GRAD.:     4.970 HEAT:  20.41730
 CYCLE:    21 TIME:   0.008 TIME LEFT:  2.00D  GRAD.:     3.996 HEAT:  20.39285
 CYCLE:    22 TIME:   0.004 TIME LEFT:  2.00D  GRAD.:     3.913 HEAT:  20.35384
 CYCLE:    23 TIME:   0.004 TIME LEFT:  2.00D  GRAD.:     4.227 HEAT:  20.31437
 CYCLE:    24 TIME:   0.004 TIME LEFT:  2.00D  GRAD.:     2.822 HEAT:  20.30452
 CYCLE:    25 TIME:   0.004 TIME LEFT:  2.00D  GRAD.:     1.979 HEAT:  20.29719
 CYCLE:    26 TIME:   0.004 TIME LEFT:  2.00D  GRAD.:     1.029 HEAT:  20.29325
 CYCLE:    27 TIME:   0.004 TIME LEFT:  2.00D  GRAD.:     0.810 HEAT:  20.29148
 CYCLE:    28 TIME:   0.004 TIME LEFT:  2.00D  GRAD.:     0.554 HEAT:  20.29026
 CYCLE:    29 TIME:   0.004 TIME LEFT:  2.00D  GRAD.:     0.462 HEAT:  20.28964
 CYCLE:    30 TIME:   0.000 TIME LEFT:  2.00D  GRAD.:     0.281 HEAT:  20.28935
 CYCLE:    31 TIME:   0.008 TIME LEFT:  2.00D  GRAD.:     0.257 HEAT:  20.28923
 CYCLE:    32 TIME:   0.000 TIME LEFT:  2.00D  GRAD.:     0.155 HEAT:  20.28917
 CYCLE:    33 TIME:   0.004 TIME LEFT:  2.00D  GRAD.:     0.073 HEAT:  20.28913
 CYCLE:    34 TIME:   0.008 TIME LEFT:  2.00D  GRAD.:     0.075 HEAT:  20.28913
 CYCLE:    35 TIME:   0.004 TIME LEFT:  2.00D  GRAD.:     0.044 HEAT:  20.28912

     GRADIENT =  0.04374 IS LESS THAN CUTOFF =  0.05000



 -------------------------------------------------------------------------------
 pm3  precise nosym THREADS=1
 InChI=1S/C6H8/c1-2-4-6-5-3-1/h1-4H,5-6H2



     GEOMETRY OPTIMISED USING EIGENVECTOR FOLLOWING (EF).     
     SCF FIELD WAS ACHIEVED                                   


                              PM3 CALCULATION
                                                       MOPAC v23.1.2 MacOS
                                                       Tue Jun  3 16:30:56 2025




          FINAL HEAT OF FORMATION =         20.28912 KCAL/MOL =      84.88967 KJ/MOL


          COSMO AREA              =        124.75 SQUARE ANGSTROMS
          COSMO VOLUME            =        114.17 CUBIC ANGSTROMS

          GRADIENT NORM           =          0.04374          =       0.01169 PER ATOM
          IONIZATION POTENTIAL    =          8.914189 EV
          HOMO LUMO ENERGIES (EV) =         -8.914  0.296
          NO. OF FILLED LEVELS    =         16
          MOLECULAR WEIGHT        =         80.1292         POINT GROUP:  C1  

          MOLECULAR DIMENSIONS (Angstroms)

            Atom       Atom       Distance
            H    12    H    11     5.00760
            H    13    H     9     4.23499
            H    10    H     8     2.53673


          SCF CALCULATIONS        =         41

          WALL-CLOCK TIME         =      0.168 SECONDS
          COMPUTATION TIME        =      0.084 SECONDS




   ATOM   CHEMICAL          X               Y               Z
  NUMBER   SYMBOL      (ANGSTROMS)     (ANGSTROMS)     (ANGSTROMS)

     1       C         -0.98101624  *   0.82426574  *   0.28576434  *
     2       C         -1.14228443  *  -0.57577115  *  -0.29476736  *
     3       C          0.40350899  *   1.35857245  *   0.19596301  *
     4       C          0.08054506  *  -1.41536235  *  -0.19342641  *
     5       C          1.46699673  *   0.55735979  *   0.05430472  *
     6       C          1.29913389  *  -0.88112795  *  -0.04287287  *
     7       H         -1.68202988  *   1.51775716  *  -0.21871173  *
     8       H         -1.27123351  *   0.83435475  *   1.35665821  *
     9       H         -1.98917891  *  -1.08802530  *   0.20241751  *
    10       H         -1.41696903  *  -0.51944797  *  -1.36832280  *
    11       H          0.51771268  *   2.44415464  *   0.28359130  *
    12       H         -0.05836778  *  -2.49813079  *  -0.28034755  *
    13       H          2.48558797  *   0.95544627  *   0.01151632  *
    14       H          2.19803275  *  -1.50344569  *   0.00768248  *

                             CARTESIAN COORDINATES

   1    C       -0.981016239     0.824265745     0.285764337
   2    C       -1.142284434    -0.575771154    -0.294767364
   3    C        0.403508990     1.358572445     0.195963006
   4    C        0.080545065    -1.415362347    -0.193426410
   5    C        1.466996731     0.557359789     0.054304724
   6    C        1.299133891    -0.881127952    -0.042872869
   7    H       -1.682029879     1.517757156    -0.218711732
   8    H       -1.271233513     0.834354745     1.356658207
   9    H       -1.989178914    -1.088025301     0.202417505
  10    H       -1.416969033    -0.519447972    -1.368322799
  11    H        0.517712683     2.444154639     0.283591295
  12    H       -0.058367775    -2.498130793    -0.280347549
  13    H        2.485587975     0.955446273     0.011516322
  14    H        2.198032749    -1.503445688     0.007682483


           Empirical Formula: C6 H8  =    14 atoms



      MOLECULAR POINT GROUP   :   C1  


                  EIGENVALUES  
 -39.56642 -30.19915 -29.94820 -22.34618 -20.98519 -17.92331 -16.34989 -15.70617
 -15.14138 -14.48113 -13.80635 -12.82543 -12.27775 -11.70574 -11.39810  -8.91419
   0.29614   2.09470   3.39729   3.43361   3.55473   3.79213   3.82028   4.07837
   4.08559   4.52348   4.75222   4.79558   5.04174   5.44166   6.00840   6.22088


              NET ATOMIC CHARGES AND DIPOLE CONTRIBUTIONS

  ATOM NO.   TYPE          CHARGE      No. of ELECS.   s-Pop       p-Pop       
    1          C          -0.058210        4.0582     1.14585     2.91236
    2          C          -0.058222        4.0582     1.14585     2.91237
    3          C          -0.135080        4.1351     1.19618     2.93890
    4          C          -0.135071        4.1351     1.19618     2.93889
    5          C          -0.114166        4.1142     1.17869     2.93547
    6          C          -0.114174        4.1142     1.17870     2.93548
    7          H           0.053215        0.9468     0.94679
    8          H           0.054687        0.9453     0.94531
    9          H           0.053227        0.9468     0.94677
   10          H           0.054678        0.9453     0.94532
   11          H           0.098098        0.9019     0.90190
   12          H           0.098110        0.9019     0.90189
   13          H           0.101448        0.8986     0.89855
   14          H           0.101459        0.8985     0.89854
 DIPOLE           X         Y         Z       TOTAL
 POINT-CHG.    -0.383     0.045    -0.002     0.386
 HYBRID        -0.004     0.001    -0.000     0.004
 SUM           -0.387     0.045    -0.002     0.389


          ATOMIC ORBITAL ELECTRON POPULATIONS

     Atom    s        px        py        pz   
    1  C   1.14585   0.95082   0.95780   1.00374
    2  C   1.14585   0.96033   0.94840   1.00364
    3  C   1.19618   0.95424   0.98352   1.00115
    4  C   1.19618   0.95374   0.98404   1.00111
    5  C   1.17869   0.97544   0.94325   1.01678
    6  C   1.17870   0.96786   0.95086   1.01676
    7  H   0.94679
    8  H   0.94531
    9  H   0.94677
   10  H   0.94532
   11  H   0.90190
   12  H   0.90189
   13  H   0.89855
   14  H   0.89854
 *******************************************************************************
 **                                                                           **
 **                              MOPAC v23.1.2                                **
 **                                                                           **
 *******************************************************************************
 **          Digital Object Identifier (DOI): 10.5281/zenodo.6511958          **
 **    Visit the DOI location for information on how to cite this program.    **
 *******************************************************************************

                              PM3 CALCULATION RESULTS

 *******************************************************************************
 *  CALCULATION DONE: (MAX THREADS = 1)              Tue Jun  3 16:30:56 2025  *
 *  PM3        - The PM3 Hamiltonian to be used
 *  OLDGEO     - PREVIOUS GEOMETRY TO BE USED
 *  PRECISE    - TIGHTER CRITERIA TO BE USED
 *  NOSYM      - POINT-GROUP SYMMETRY SET TO C1
 *  THREADS=1  - MULTI-THREADING NOT USED
 *  T=         - A TIME OF 172800.0 SECONDS REQUESTED
 *  DUMP=N     - RESTART FILE WRITTEN EVERY 7200.0 SECONDS REQUESTED
 *  THERMO     - THERMODYNAMIC QUANTITIES TO BE CALCULATED
 *******************************************************************************
oldgeo thermo nosym precise THREADS=1  pm3
 InChI=1S/C6H8/c1-2-4-6-5-3-1/h1-4H,5-6H2

   ATOM   CHEMICAL          X               Y               Z
  NUMBER   SYMBOL      (ANGSTROMS)     (ANGSTROMS)     (ANGSTROMS)

     1       C         -0.98101624  *   0.82426574  *   0.28576434  *
     2       C         -1.14228443  *  -0.57577115  *  -0.29476736  *
     3       C          0.40350899  *   1.35857245  *   0.19596301  *
     4       C          0.08054506  *  -1.41536235  *  -0.19342641  *
     5       C          1.46699673  *   0.55735979  *   0.05430472  *
     6       C          1.29913389  *  -0.88112795  *  -0.04287287  *
     7       H         -1.68202988  *   1.51775716  *  -0.21871173  *
     8       H         -1.27123351  *   0.83435475  *   1.35665821  *
     9       H         -1.98917891  *  -1.08802530  *   0.20241751  *
    10       H         -1.41696903  *  -0.51944797  *  -1.36832280  *
    11       H          0.51771268  *   2.44415464  *   0.28359130  *
    12       H         -0.05836778  *  -2.49813079  *  -0.28034755  *
    13       H          2.48558797  *   0.95544627  *   0.01151632  *
    14       H          2.19803275  *  -1.50344569  *   0.00768248  *



          CARTESIAN COORDINATES 

    NO.       ATOM           X           Y           Z

     1         C         -0.9810      0.8243      0.2858
     2         C         -1.1423     -0.5758     -0.2948
     3         C          0.4035      1.3586      0.1960
     4         C          0.0805     -1.4154     -0.1934
     5         C          1.4670      0.5574      0.0543
     6         C          1.2991     -0.8811     -0.0429
     7         H         -1.6820      1.5178     -0.2187
     8         H         -1.2712      0.8344      1.3567
     9         H         -1.9892     -1.0880      0.2024
    10         H         -1.4170     -0.5194     -1.3683
    11         H          0.5177      2.4442      0.2836
    12         H         -0.0584     -2.4981     -0.2803
    13         H          2.4856      0.9554      0.0115
    14         H          2.1980     -1.5034      0.0077

  H: (PM3): J. J. P. STEWART, J. COMP. CHEM. 10, 209 (1989).
  C: (PM3): J. J. P. STEWART, J. COMP. CHEM. 10, 209 (1989).

           Empirical Formula: C6 H8  =    14 atoms



      MOLECULAR POINT GROUP   :   C1  


      RHF CALCULATION, NO. OF DOUBLY OCCUPIED LEVELS = 16



          HEAT OF FORMATION =      20.289117 KCALS/MOLE


          CARTESIAN COORDINATE DERIVATIVES

   NUMBER  ATOM         X            Y            Z

     1       C     -0.004370    -0.001060    -0.006468
     2       C      0.000761    -0.012826     0.010908
     3       C      0.005493     0.002193     0.003264
     4       C     -0.005909    -0.000576     0.000981
     5       C      0.001975    -0.003348    -0.005695
     6       C      0.004864     0.002799    -0.002605
     7       H     -0.001358     0.004384    -0.008864
     8       H     -0.004791    -0.011491     0.004488
     9       H     -0.000224    -0.011088     0.006905
    10       H     -0.005927     0.022053    -0.009403
    11       H     -0.000775    -0.001736     0.006878
    12       H      0.010895    -0.001708     0.007152
    13       H     -0.003751    -0.000513    -0.005013
    14       H      0.003116     0.012917    -0.002529



          GRADIENT NORM =   0.04489

          MOLECULAR WEIGHT =   80.13



          ROTATIONAL CONSTANTS IN CM(-1)

          A =    0.17146921   B =    0.16888580   C =    0.08902717



           PRINCIPAL MOMENTS OF INERTIA IN UNITS OF 10**(-40)*GRAM-CM**2

          A =      163.2524   B =      165.7496   C =      314.4293


          ORIENTATION OF MOLECULE IN FORCE CALCULATION

    NO.       ATOM         X         Y         Z

     1          C      -0.7622   -1.1819   -0.3166
     2          C       0.7620   -1.1819   -0.3166
     3          C      -1.3653    0.1770   -0.3166
     4          C       1.3652   -0.0052    0.3631
     5          C      -0.6879    1.2555    0.0971
     6          C       0.6882    1.1360    0.5431
     7          H      -1.1329   -1.7546   -1.1892
     8          H      -1.1486   -1.7159    0.5760
     9          H       1.1328   -2.1145    0.1522
    10          H       1.1482   -1.1973   -1.3566
    11          H      -2.4079    0.2517   -0.6430
    12          H       2.4076   -0.1041    0.6838
    13          H      -1.1450    2.2497    0.1159
    14          H       1.1455    2.0067    1.0233


    FIRST DERIVATIVES WILL BE USED IN THE CALCULATION OF SECOND DERIVATIVES

          ESTIMATED TIME TO COMPLETE CALCULATION =        0.66 SECONDS

    FOR POINT-GROUP C1   THERE ARE   1 UNIQUE SYMMETRY FUNCTIONS.

 STEP:   1 TIME =     0.01 SECS, INTEGRAL =      0.01 TIME LEFT: 172799.99
 STEP:   2 TIME =     0.01 SECS, INTEGRAL =      0.02 TIME LEFT: 172799.98
 STEP:   3 TIME =     0.01 SECS, INTEGRAL =      0.02 TIME LEFT: 172799.97
 STEP:   4 TIME =     0.01 SECS, INTEGRAL =      0.03 TIME LEFT: 172799.96
 STEP:   5 TIME =     0.01 SECS, INTEGRAL =      0.04 TIME LEFT: 172799.96
 STEP:   6 TIME =     0.01 SECS, INTEGRAL =      0.05 TIME LEFT: 172799.95
 STEP:   7 TIME =     0.01 SECS, INTEGRAL =      0.05 TIME LEFT: 172799.94
 STEP:   8 TIME =     0.01 SECS, INTEGRAL =      0.06 TIME LEFT: 172799.93
 STEP:   9 TIME =     0.01 SECS, INTEGRAL =      0.07 TIME LEFT: 172799.93
 STEP:  10 TIME =     0.01 SECS, INTEGRAL =      0.08 TIME LEFT: 172799.92
 STEP:  11 TIME =     0.01 SECS, INTEGRAL =      0.09 TIME LEFT: 172799.91
 STEP:  12 TIME =     0.01 SECS, INTEGRAL =      0.10 TIME LEFT: 172799.89
 STEP:  13 TIME =     0.01 SECS, INTEGRAL =      0.11 TIME LEFT: 172799.88
 STEP:  14 TIME =     0.01 SECS, INTEGRAL =      0.12 TIME LEFT: 172799.88
 STEP:  15 TIME =     0.01 SECS, INTEGRAL =      0.13 TIME LEFT: 172799.87
 STEP:  16 TIME =     0.01 SECS, INTEGRAL =      0.14 TIME LEFT: 172799.86
 STEP:  17 TIME =     0.01 SECS, INTEGRAL =      0.14 TIME LEFT: 172799.85
 STEP:  18 TIME =     0.01 SECS, INTEGRAL =      0.15 TIME LEFT: 172799.84
 STEP:  19 TIME =     0.01 SECS, INTEGRAL =      0.16 TIME LEFT: 172799.84
 STEP:  20 TIME =     0.01 SECS, INTEGRAL =      0.17 TIME LEFT: 172799.83
 STEP:  21 TIME =     0.01 SECS, INTEGRAL =      0.18 TIME LEFT: 172799.82
 STEP:  22 TIME =     0.01 SECS, INTEGRAL =      0.19 TIME LEFT: 172799.81
 STEP:  23 TIME =     0.01 SECS, INTEGRAL =      0.20 TIME LEFT: 172799.80
 STEP:  24 TIME =     0.01 SECS, INTEGRAL =      0.21 TIME LEFT: 172799.79
 STEP:  25 TIME =     0.01 SECS, INTEGRAL =      0.21 TIME LEFT: 172799.78
 STEP:  26 TIME =     0.01 SECS, INTEGRAL =      0.23 TIME LEFT: 172799.77
 STEP:  27 TIME =     0.01 SECS, INTEGRAL =      0.23 TIME LEFT: 172799.76
 STEP:  28 TIME =     0.01 SECS, INTEGRAL =      0.24 TIME LEFT: 172799.75
 STEP:  29 TIME =     0.01 SECS, INTEGRAL =      0.25 TIME LEFT: 172799.75
 STEP:  30 TIME =     0.01 SECS, INTEGRAL =      0.26 TIME LEFT: 172799.74
 STEP:  31 TIME =     0.01 SECS, INTEGRAL =      0.27 TIME LEFT: 172799.73
 STEP:  32 TIME =     0.01 SECS, INTEGRAL =      0.28 TIME LEFT: 172799.72
 STEP:  33 TIME =     0.01 SECS, INTEGRAL =      0.29 TIME LEFT: 172799.71
 STEP:  34 TIME =     0.01 SECS, INTEGRAL =      0.30 TIME LEFT: 172799.70
 STEP:  35 TIME =     0.01 SECS, INTEGRAL =      0.31 TIME LEFT: 172799.69
 STEP:  36 TIME =     0.01 SECS, INTEGRAL =      0.32 TIME LEFT: 172799.68
 STEP:  37 TIME =     0.01 SECS, INTEGRAL =      0.33 TIME LEFT: 172799.66
 STEP:  38 TIME =     0.01 SECS, INTEGRAL =      0.34 TIME LEFT: 172799.66
 STEP:  39 TIME =     0.01 SECS, INTEGRAL =      0.35 TIME LEFT: 172799.65
 STEP:  40 TIME =     0.01 SECS, INTEGRAL =      0.36 TIME LEFT: 172799.64
 STEP:  41 TIME =     0.01 SECS, INTEGRAL =      0.37 TIME LEFT: 172799.63
 STEP:  42 TIME =     0.01 SECS, INTEGRAL =      0.38 TIME LEFT: 172799.62

(To convert to Hartree/Bohr^2, multiply by (10^(-21) x N x a0^2)/(4.184 x 627.51) =  0.0642)


           FORCE MATRIX IN MILLIDYNES/ANGSTROM


                  C  1       C  2       C  3       C  4       C  5       C  6
 ------------------------------------------------------------------------------
     C    1  14.648061
     C    2   4.086426  14.644401
     C    3   4.969805   0.650196  18.002889
     C    4   0.650296   4.967372   0.156438  17.999586
     C    5   0.862424   0.118746  10.288822   1.139387  18.386079
     C    6   0.119156   0.863120   1.139453  10.288353   5.629512  18.385814
     H    7   4.466687   0.430641   0.435455   0.046811   0.046996   0.010146
     H    8   4.394711   0.440216   0.405545   0.011344   0.034181   0.018370
     H    9   0.430500   4.466861   0.046882   0.435350   0.010049   0.046771
     H   10   0.439917   4.394688   0.011261   0.405260   0.018200   0.034253
     H   11   0.427472   0.043984   4.846663   0.013681   0.445039   0.127553
     H   12   0.044074   0.427382   0.013799   4.846085   0.127223   0.445036
     H   13   0.123221   0.005458   0.445553   0.047249   4.865787   0.435077
     H   14   0.005457   0.122677   0.047224   0.445973   0.434939   4.865468


                  H  7       H  8       H  9       H 10       H 11       H 12
 ------------------------------------------------------------------------------
     H    7   5.058588
     H    8   0.577238   4.985527
     H    9   0.019636   0.033299   5.058960
     H   10   0.033295   0.043903   0.576447   4.985326
     H   11   0.035627   0.018104   0.007576   0.004488   5.222007
     H   12   0.007581   0.004502   0.035673   0.018127   0.009829   5.221699
     H   13   0.013467   0.017614   0.000834   0.000776   0.066322   0.007790
     H   14   0.000803   0.000774   0.013413   0.017537   0.007773   0.066135


                  H 13       H 14
 ------------------------------
     H   13   5.233540
     H   14   0.030846   5.233265


          HEAT OF FORMATION =      20.289117 KCALS/MOLE

          ZERO POINT ENERGY      75.600 KCAL/MOL


           NORMAL COORDINATE ANALYSIS (Total motion = 1 Angstrom)


   Root No.       1         2         3         4         5         6         7         8

                 1 A       2 A       3 A       4 A       5 A       6 A       7 A       8 A   

                 117.7     280.3     460.5     520.4     576.2     704.3     789.5     801.0
  
           1    0.0005    0.0023    0.0027    0.0497   -0.0102   -0.0071   -0.0046    0.0038
           2   -0.0039   -0.0048    0.0001    0.0481    0.0554   -0.0026   -0.0091   -0.0002
           3    0.0464   -0.0174    0.0001    0.0082    0.0018   -0.0167    0.0231   -0.0169
           4   -0.0005    0.0023   -0.0024    0.0497    0.0103   -0.0070   -0.0046   -0.0038
           5    0.0197    0.0132    0.0001   -0.0459    0.0487    0.0105   -0.0038   -0.0082
           6   -0.0421   -0.0132   -0.0002   -0.0170    0.0261   -0.0130    0.0247    0.0140
           7    0.0051   -0.0129    0.0109   -0.0152   -0.0981   -0.0009    0.0193    0.0127
           8   -0.0004   -0.0115    0.0040    0.0283    0.0072   -0.0071    0.0062    0.0023
           9   -0.0182    0.0511   -0.0361    0.0129   -0.0235   -0.0095   -0.0162   -0.0160
          10   -0.0050   -0.0129   -0.0110   -0.0152    0.0981   -0.0008    0.0190   -0.0130
          11   -0.0092   -0.0156   -0.0148   -0.0309   -0.0056    0.0109    0.0026   -0.0061
          12    0.0150    0.0501    0.0334   -0.0033    0.0239   -0.0046   -0.0168    0.0154
          13    0.0078    0.0118   -0.0168   -0.0367   -0.0072    0.0156   -0.0062    0.0104
          14    0.0015    0.0058   -0.0098    0.0444   -0.0586   -0.0157    0.0203    0.0085
          15   -0.0257   -0.0344    0.0488   -0.0032   -0.0146   -0.0094   -0.0132   -0.0255
          16   -0.0079    0.0116    0.0166   -0.0369    0.0070    0.0156   -0.0064   -0.0103
          17   -0.0117    0.0118    0.0156   -0.0370   -0.0582    0.0183   -0.0111   -0.0053
          18    0.0235   -0.0322   -0.0476   -0.0244   -0.0167   -0.0003   -0.0210    0.0267
          19   -0.0440    0.0156   -0.0067    0.0033    0.0397   -0.0453    0.0581   -0.0090
          20   -0.0740    0.0550   -0.0586    0.0236    0.0148   -0.0787    0.0464   -0.0532
          21    0.1120   -0.0632    0.0439    0.0462    0.0084    0.0520   -0.0432    0.0247
          22    0.0588    0.0019    0.0079    0.0838   -0.0049    0.0311   -0.0924    0.0008
          23    0.0619   -0.0748    0.0645    0.0923    0.0655    0.0752   -0.0581    0.0683
          24    0.1112   -0.0602    0.0423    0.0509    0.0102    0.0497   -0.0466    0.0246
          25    0.0435    0.0162    0.0068    0.0034   -0.0396   -0.0453    0.0584    0.0078
          26   -0.0077   -0.0158   -0.0288   -0.0434    0.0169    0.0419   -0.0193   -0.0327
          27   -0.1327   -0.0837   -0.0673    0.0285    0.0003    0.0843   -0.0618   -0.0462
          28   -0.0586    0.0011   -0.0074    0.0838    0.0051    0.0311   -0.0925    0.0014
          29    0.1078    0.0960    0.0768   -0.1059    0.0615   -0.0900    0.0752    0.0701
          30   -0.0650   -0.0155   -0.0044   -0.0022    0.0240    0.0054   -0.0112    0.0132
          31    0.0167   -0.0430    0.0194   -0.0357   -0.1084   -0.0426   -0.0044   -0.0621
          32    0.0009   -0.0264    0.0069   -0.0330    0.0095   -0.0112   -0.0215   -0.0376
          33   -0.0533    0.1428   -0.0621    0.0655    0.0128    0.1225    0.0526    0.2137
          34   -0.0162   -0.0432   -0.0199   -0.0356    0.1086   -0.0425   -0.0032    0.0625
          35   -0.0254   -0.0488   -0.0254   -0.0039    0.0149   -0.0514   -0.0063    0.0743
          36    0.0449    0.1374    0.0587    0.0725   -0.0069    0.1115    0.0523   -0.2050
          37    0.0243    0.0133   -0.0654   -0.0243    0.0482   -0.0344   -0.0603   -0.0251
          38    0.0096    0.0070   -0.0344    0.0485   -0.0332   -0.0407   -0.0075   -0.0096
          39   -0.0676   -0.0554    0.1746    0.0435    0.0217    0.1027    0.1525    0.0698
          40   -0.0245    0.0126    0.0657   -0.0248   -0.0483   -0.0351   -0.0605    0.0272
          41   -0.0254    0.0211    0.0567   -0.0640   -0.0183   -0.0156   -0.0687    0.0274
          42    0.0639   -0.0500   -0.1686    0.0147   -0.0353    0.1095    0.1348   -0.0687


   Root No.       9        10        11        12        13        14        15        16

                 9 A      10 A      11 A      12 A      13 A      14 A      15 A      16 A   

                 931.5     942.5     964.3     970.2    1008.9    1029.6    1074.3    1079.3
  
           1   -0.0226    0.0113   -0.0002    0.0405    0.0039    0.0084   -0.0059    0.0020
           2   -0.0397    0.0105   -0.0001    0.0330   -0.0263    0.0061   -0.0042    0.0190
           3   -0.0305    0.0362    0.0031    0.0023   -0.0009   -0.0250    0.0139    0.0054
           4   -0.0224   -0.0114   -0.0018   -0.0404    0.0038   -0.0085   -0.0058   -0.0020
           5    0.0495    0.0275   -0.0002    0.0298    0.0230   -0.0078   -0.0033    0.0192
           6   -0.0065   -0.0260    0.0033    0.0143    0.0131    0.0243    0.0144    0.0048
           7    0.0523    0.0073    0.0166    0.0192   -0.0278   -0.0080    0.0060    0.0321
           8   -0.0053   -0.0049    0.0031   -0.0195    0.0171   -0.0092    0.0048   -0.0114
           9    0.0251   -0.0073   -0.0281   -0.0003   -0.0084    0.0383   -0.0251    0.0130
          10    0.0524   -0.0072    0.0159   -0.0199   -0.0276    0.0088    0.0060   -0.0321
          11   -0.0078   -0.0078    0.0106   -0.0176   -0.0102    0.0115    0.0084   -0.0034
          12    0.0242    0.0037   -0.0262   -0.0083   -0.0170   -0.0373   -0.0244   -0.0169
          13   -0.0296    0.0089   -0.0119   -0.0104    0.0037    0.0080   -0.0032    0.0334
          14    0.0558   -0.0009   -0.0004   -0.0082    0.0112    0.0088   -0.0022   -0.0365
          15    0.0037   -0.0293    0.0262    0.0130    0.0027   -0.0307    0.0047    0.0052
          16   -0.0296   -0.0090   -0.0114    0.0110    0.0035   -0.0082   -0.0033   -0.0334
          17   -0.0501   -0.0156   -0.0127   -0.0001   -0.0112   -0.0074   -0.0006   -0.0290
          18   -0.0249    0.0249    0.0221   -0.0165   -0.0026    0.0311    0.0053   -0.0227
          19   -0.0851    0.0328    0.0366    0.1091    0.1074    0.0357   -0.1230   -0.0184
          20   -0.1088    0.1035   -0.0095    0.0061   -0.1105   -0.0757    0.0933    0.0598
          21    0.0409   -0.0360   -0.0076   -0.0094    0.0109    0.0180    0.0009   -0.0087
          22    0.0400    0.0184   -0.0757    0.0153    0.0543   -0.0121    0.1768   -0.0628
          23    0.0019   -0.1014    0.0303    0.0533   -0.0656    0.0912   -0.1407    0.0810
          24    0.0261   -0.0295   -0.0118    0.0047   -0.0025    0.0184    0.0128    0.0128
          25   -0.0849   -0.0328    0.0322   -0.1111    0.1062   -0.0381   -0.1217    0.0184
          26    0.0736    0.0721    0.0121   -0.0002    0.0885   -0.0586   -0.0808    0.0475
          27    0.0898    0.0836   -0.0014    0.0112    0.0631   -0.0550   -0.0458    0.0375
          28    0.0400   -0.0182   -0.0763   -0.0115    0.0548    0.0092    0.1772    0.0622
          29   -0.0150   -0.1026   -0.0183    0.0494    0.0605    0.0859    0.1166    0.0761
          30    0.0216   -0.0250   -0.0244    0.0239    0.0315    0.0283    0.0818    0.0292
          31    0.0636    0.0086   -0.0451    0.0097   -0.0312    0.0393   -0.0191    0.0420
          32   -0.0108   -0.0383   -0.0431   -0.1315    0.0405   -0.0097    0.0158    0.1304
          33   -0.0091   -0.0188    0.1580    0.0055    0.0107   -0.1120    0.0570    0.0247
          34    0.0633   -0.0088   -0.0454   -0.0076   -0.0325   -0.0384   -0.0194   -0.0419
          35    0.0139   -0.0428   -0.0459   -0.1092   -0.0419   -0.0627   -0.0422    0.1254
          36   -0.0014   -0.0021    0.1551   -0.0775   -0.0079    0.0927    0.0422    0.0438
          37   -0.0216   -0.0548    0.0436   -0.0230    0.1116   -0.0509    0.0006    0.0834
          38    0.0611   -0.0341    0.0282   -0.0139    0.0610   -0.0207   -0.0001   -0.0166
          39   -0.0176    0.1386   -0.1409   -0.0949    0.0441    0.0858   -0.0084    0.0246
          40   -0.0222    0.0556    0.0447    0.0204    0.1126    0.0480    0.0019   -0.0835
          41   -0.0448    0.0389    0.0427   -0.0614   -0.0747    0.0269    0.0037   -0.0021
          42   -0.0440   -0.1372   -0.1318    0.0818    0.0065   -0.0852   -0.0078   -0.0296


   Root No.      17        18        19        20        21        22        23        24

                17 A      18 A      19 A      20 A      21 A      22 A      23 A      24 A   

                1109.1    1117.0    1149.9    1163.7    1229.4    1348.3    1359.0    1402.0
  
           1   -0.0197   -0.0199    0.0043    0.0047    0.0158   -0.0396   -0.0332    0.0501
           2   -0.0151    0.0071   -0.0018    0.0050   -0.0098    0.0310    0.0079    0.0115
           3    0.0328    0.0010    0.0024   -0.0015    0.0005   -0.0048    0.0011    0.0019
           4    0.0197    0.0199    0.0045   -0.0046    0.0158    0.0396   -0.0332   -0.0500
           5    0.0033    0.0066    0.0003    0.0036    0.0082    0.0245   -0.0074    0.0112
           6   -0.0360    0.0026    0.0030    0.0038    0.0054    0.0197   -0.0030    0.0042
           7   -0.0031    0.0025    0.0032    0.0002    0.0025    0.0161    0.0153   -0.0066
           8    0.0015   -0.0082    0.0099    0.0003   -0.0217    0.0105   -0.0153   -0.0042
           9   -0.0011    0.0003    0.0030   -0.0010   -0.0016    0.0061    0.0020   -0.0016
          10    0.0031   -0.0025    0.0031   -0.0001    0.0025   -0.0161    0.0153    0.0065
          11    0.0008   -0.0070   -0.0101   -0.0003    0.0196    0.0122    0.0122   -0.0046
          12    0.0017   -0.0042   -0.0024    0.0011    0.0095   -0.0001    0.0094   -0.0008
          13   -0.0038   -0.0099   -0.0029    0.0024   -0.0179    0.0306   -0.0089   -0.0106
          14    0.0078   -0.0009    0.0013   -0.0034   -0.0067   -0.0140   -0.0037    0.0014
          15    0.0010   -0.0049    0.0012   -0.0005   -0.0083    0.0082   -0.0037   -0.0038
          16    0.0038    0.0100   -0.0028   -0.0024   -0.0179   -0.0306   -0.0090    0.0107
          17    0.0072   -0.0032   -0.0017   -0.0031    0.0100   -0.0081    0.0051   -0.0008
          18    0.0031    0.0036    0.0005   -0.0014   -0.0038   -0.0141   -0.0014    0.0040
          19    0.1627   -0.1219    0.0625    0.0726   -0.0697   -0.0126    0.1496   -0.1231
          20   -0.0698    0.0844   -0.0325   -0.0454    0.0593   -0.1110    0.0709   -0.0749
          21   -0.0098   -0.0039    0.0001    0.0026   -0.0072    0.0670   -0.1015    0.1142
          22   -0.2172   -0.0801    0.0165    0.0760   -0.0542    0.0054    0.1166   -0.1227
          23    0.0267    0.0660   -0.0103   -0.0470    0.0490   -0.1049    0.0865   -0.0817
          24   -0.0269    0.0084    0.0013   -0.0013    0.0044   -0.0564    0.0969   -0.1095
          25   -0.1630    0.1224    0.0636   -0.0724   -0.0697    0.0123    0.1497    0.1228
          26   -0.0656    0.0715    0.0287   -0.0380   -0.0478   -0.0626   -0.0106   -0.0080
          27   -0.0266    0.0459    0.0167   -0.0249   -0.0360   -0.1136   -0.1236   -0.1370
          28    0.2176    0.0789    0.0173   -0.0761   -0.0541   -0.0054    0.1167    0.1225
          29    0.0099    0.0604    0.0090   -0.0415   -0.0446   -0.1191   -0.1235   -0.1262
          30    0.0368    0.0252    0.0066   -0.0225   -0.0207   -0.0037    0.0406    0.0539
          31   -0.0091    0.0009    0.0072    0.0021    0.0072    0.0148    0.0160   -0.0045
          32    0.0133   -0.0314    0.2164    0.1519    0.1388   -0.1021    0.0077    0.0530
          33    0.0199   -0.0079    0.0423    0.0307    0.0230   -0.0112    0.0086    0.0055
          34    0.0092   -0.0009    0.0071   -0.0021    0.0071   -0.0149    0.0160    0.0043
          35    0.0213   -0.0302   -0.2098    0.1456   -0.1319   -0.0940   -0.0111    0.0489
          36   -0.0105   -0.0087   -0.0720    0.0490   -0.0493   -0.0413    0.0036    0.0217
          37   -0.0212   -0.1503   -0.1433   -0.1325    0.1121   -0.0133    0.0380    0.0013
          38    0.0007   -0.0660   -0.0607   -0.0651    0.0523   -0.0374    0.0171    0.0076
          39   -0.0086   -0.0605   -0.0629   -0.0583    0.0484   -0.0116    0.0169    0.0007
          40    0.0209    0.1506   -0.1433    0.1315    0.1117    0.0130    0.0380   -0.0017
          41   -0.0035   -0.0881    0.0845   -0.0853   -0.0695   -0.0382   -0.0233    0.0071
          42    0.0078    0.0204   -0.0249    0.0185    0.0161   -0.0085    0.0061    0.0030


   Root No.      25        26        27        28        29        30        31        32

                25 A      26 A      27 A      28 A      29 A      30 A      31 A      32 A   

                1404.4    1453.1    1842.5    1858.6    2934.3    2947.5    3022.8    3028.7
  
           1   -0.0165    0.0454    0.0021   -0.0043   -0.0019    0.0017    0.0117   -0.0108
           2    0.0585   -0.0435   -0.0168    0.0228   -0.0015    0.0012    0.0168   -0.0164
           3    0.0026    0.0030   -0.0013    0.0031    0.0305   -0.0303    0.0031   -0.0036
           4   -0.0169   -0.0453   -0.0022   -0.0044    0.0019    0.0017    0.0119    0.0106
           5   -0.0519   -0.0360   -0.0152   -0.0213    0.0139    0.0142   -0.0163   -0.0159
           6   -0.0270   -0.0242   -0.0072   -0.0087   -0.0271   -0.0269   -0.0058   -0.0050
           7    0.0217   -0.0220    0.0575   -0.0493   -0.0003    0.0004   -0.0024    0.0033
           8   -0.0241    0.0623    0.1231   -0.1222   -0.0003    0.0002    0.0004   -0.0003
           9    0.0037    0.0039    0.0394   -0.0373   -0.0002    0.0001   -0.0007    0.0010
          10    0.0217    0.0219   -0.0574   -0.0491    0.0003    0.0004   -0.0025   -0.0033
          11    0.0191    0.0558    0.1265    0.1244   -0.0004   -0.0002   -0.0000    0.0002
          12    0.0154    0.0276    0.0273    0.0286    0.0000   -0.0000   -0.0008   -0.0011
          13   -0.0154    0.0695   -0.1132    0.0666    0.0001   -0.0001    0.0000   -0.0000
          14   -0.0123   -0.0159   -0.0931    0.1020    0.0000   -0.0000   -0.0000    0.0002
          15   -0.0077    0.0205   -0.0535    0.0410    0.0002   -0.0001    0.0000    0.0000
          16   -0.0156   -0.0694    0.1132    0.0664   -0.0001   -0.0001    0.0000    0.0000
          17    0.0145   -0.0036   -0.1075   -0.1088    0.0001    0.0001    0.0000    0.0002
          18   -0.0006   -0.0257   -0.0000   -0.0153   -0.0002   -0.0001    0.0000    0.0001
          19    0.0350   -0.0095    0.0200   -0.0004   -0.0681    0.0718   -0.0745    0.0771
          20   -0.1113    0.0316   -0.0274    0.0196   -0.1064    0.1089   -0.1178    0.1168
          21    0.0793   -0.0212    0.0003    0.0010   -0.1539    0.1571   -0.2044    0.2038
          22    0.0054   -0.0310    0.0055   -0.0014    0.0907   -0.0929   -0.0615    0.0595
          23   -0.1113    0.0353   -0.0064    0.0010    0.1282   -0.1248   -0.0843    0.0799
          24   -0.0760    0.0135    0.0011   -0.0044   -0.2138    0.2070    0.1683   -0.1610
          25    0.0358    0.0093   -0.0200   -0.0004    0.0677    0.0720   -0.0756   -0.0763
          26    0.0566    0.0166   -0.0236   -0.0174   -0.1682   -0.1733    0.2071    0.2006
          27    0.1235    0.0339   -0.0140   -0.0089    0.0795    0.0816   -0.1196   -0.1165
          28    0.0061    0.0308   -0.0054   -0.0013   -0.0903   -0.0932   -0.0622   -0.0586
          29    0.1337    0.0369   -0.0049    0.0014    0.0039    0.0044   -0.0114   -0.0113
          30   -0.0097    0.0060   -0.0041   -0.0043    0.2485    0.2428    0.1900    0.1767
          31    0.0251   -0.0240    0.0748   -0.0667    0.0044   -0.0038    0.0250   -0.0393
          32    0.0324   -0.0854   -0.0274    0.0462    0.0002   -0.0003   -0.0002    0.0017
          33    0.0140   -0.0225    0.0232   -0.0170    0.0022   -0.0023    0.0078   -0.0122
          34    0.0251    0.0238   -0.0748   -0.0667   -0.0044   -0.0038    0.0256    0.0390
          35   -0.0352   -0.0852   -0.0122   -0.0315    0.0013    0.0015   -0.0038   -0.0047
          36   -0.0040   -0.0230   -0.0337   -0.0376   -0.0018   -0.0019    0.0070    0.0114
          37    0.0586   -0.0707    0.0268   -0.0860   -0.0001    0.0003    0.0005    0.0010
          38    0.0198   -0.0840   -0.0538    0.0552   -0.0002   -0.0002   -0.0017   -0.0014
          39    0.0240   -0.0429    0.0011   -0.0204    0.0003   -0.0004   -0.0002    0.0002
          40    0.0588    0.0703   -0.0268   -0.0859    0.0001    0.0003    0.0005   -0.0010
          41   -0.0294   -0.0941   -0.0460   -0.0375    0.0000    0.0004    0.0016   -0.0012
          42    0.0110   -0.0046   -0.0280   -0.0453   -0.0004   -0.0002    0.0007   -0.0009


   Root No.      33        34        35        36

                33 A      34 A      35 A      36 A   

                3054.0    3056.7    3071.0    3080.4
  
           1   -0.0005   -0.0014   -0.0007    0.0009
           2   -0.0007   -0.0019   -0.0011    0.0015
           3   -0.0004   -0.0008   -0.0004    0.0006
           4   -0.0006    0.0014   -0.0007   -0.0009
           5    0.0009   -0.0020    0.0012    0.0015
           6    0.0000   -0.0003    0.0002    0.0002
           7   -0.0170   -0.0204   -0.0186    0.0153
           8    0.0011    0.0011   -0.0011    0.0014
           9   -0.0053   -0.0065   -0.0063    0.0052
          10   -0.0178    0.0198   -0.0187   -0.0152
          11    0.0018   -0.0022    0.0041    0.0038
          12   -0.0055    0.0060   -0.0049   -0.0038
          13    0.0079    0.0064   -0.0059    0.0085
          14   -0.0167   -0.0125    0.0185   -0.0225
          15   -0.0003   -0.0000    0.0012   -0.0011
          16    0.0081   -0.0061   -0.0060   -0.0084
          17    0.0150   -0.0102   -0.0169   -0.0199
          18    0.0083   -0.0059   -0.0083   -0.0102
          19    0.0038    0.0083    0.0045   -0.0051
          20    0.0083    0.0157    0.0093   -0.0097
          21    0.0121    0.0245    0.0138   -0.0151
          22    0.0019    0.0052    0.0026   -0.0030
          23    0.0037    0.0081    0.0045   -0.0047
          24   -0.0072   -0.0161   -0.0090    0.0096
          25    0.0042   -0.0082    0.0046    0.0051
          26   -0.0144    0.0254   -0.0151   -0.0159
          27    0.0069   -0.0132    0.0073    0.0081
          28    0.0021   -0.0051    0.0027    0.0031
          29    0.0004   -0.0010    0.0006    0.0008
          30   -0.0089    0.0176   -0.0100   -0.0106
          31    0.2007    0.2408    0.2068   -0.1612
          32   -0.0168   -0.0196   -0.0147    0.0112
          33    0.0626    0.0752    0.0649   -0.0508
          34    0.2107   -0.2332    0.2073    0.1595
          35   -0.0177    0.0201   -0.0198   -0.0156
          36    0.0659   -0.0727    0.0638    0.0491
          37   -0.0911   -0.0732    0.0871   -0.1098
          38    0.1977    0.1534   -0.1940    0.2365
          39    0.0036    0.0019   -0.0043    0.0039
          40   -0.0943    0.0693    0.0883    0.1092
          41   -0.1786    0.1263    0.1724    0.2054
          42   -0.0986    0.0707    0.0942    0.1138


           MASS-WEIGHTED COORDINATE ANALYSIS (NORMAL COORDINATES)


   Root No.       1         2         3         4         5         6         7         8

                 1 A       2 A       3 A       4 A       5 A       6 A       7 A       8 A   

                 117.7     280.3     460.5     520.4     576.2     704.3     789.5     801.0
  
           1    0.0038    0.0176    0.0204    0.3196   -0.0524   -0.0687   -0.0410    0.0319
           2   -0.0327   -0.0378    0.0010    0.3093    0.2843   -0.0254   -0.0817   -0.0013
           3    0.3860   -0.1358    0.0008    0.0526    0.0093   -0.1621    0.2068   -0.1418
           4   -0.0042    0.0178   -0.0184    0.3196    0.0530   -0.0683   -0.0416   -0.0319
           5    0.1638    0.1032    0.0006   -0.2948    0.2502    0.1021   -0.0344   -0.0688
           6   -0.3500   -0.1032   -0.0013   -0.1095    0.1340   -0.1267    0.2215    0.1178
           7    0.0426   -0.1009    0.0832   -0.0975   -0.5037   -0.0090    0.1726    0.1066
           8   -0.0032   -0.0900    0.0303    0.1821    0.0372   -0.0694    0.0555    0.0192
           9   -0.1510    0.3991   -0.2755    0.0831   -0.1205   -0.0920   -0.1447   -0.1346
          10   -0.0415   -0.1005   -0.0840   -0.0980    0.5039   -0.0079    0.1705   -0.1094
          11   -0.0766   -0.1216   -0.1129   -0.1984   -0.0285    0.1065    0.0231   -0.0511
          12    0.1244    0.3912    0.2553   -0.0209    0.1227   -0.0452   -0.1500    0.1297
          13    0.0649    0.0921   -0.1282   -0.2358   -0.0369    0.1515   -0.0553    0.0874
          14    0.0122    0.0454   -0.0752    0.2856   -0.3008   -0.1531    0.1817    0.0712
          15   -0.2138   -0.2686    0.3732   -0.0205   -0.0750   -0.0917   -0.1180   -0.2141
          16   -0.0655    0.0907    0.1267   -0.2370    0.0359    0.1517   -0.0573   -0.0870
          17   -0.0969    0.0922    0.1192   -0.2376   -0.2989    0.1784   -0.0993   -0.0447
          18    0.1951   -0.2512   -0.3634   -0.1571   -0.0856   -0.0030   -0.1879    0.2244
          19   -0.1058    0.0354   -0.0149    0.0062    0.0590   -0.1278    0.1507   -0.0220
          20   -0.1781    0.1244   -0.1298    0.0440    0.0219   -0.2218    0.1203   -0.1296
          21    0.2696   -0.1431    0.0972    0.0860    0.0124    0.1466   -0.1120    0.0601
          22    0.1416    0.0043    0.0174    0.1560   -0.0074    0.0876   -0.2396    0.0018
          23    0.1491   -0.1693    0.1428    0.1719    0.0974    0.2121   -0.1508    0.1664
          24    0.2676   -0.1362    0.0937    0.0947    0.0151    0.1400   -0.1210    0.0600
          25    0.1048    0.0367    0.0150    0.0064   -0.0589   -0.1278    0.1514    0.0191
          26   -0.0185   -0.0359   -0.0638   -0.0809    0.0251    0.1181   -0.0500   -0.0797
          27   -0.3195   -0.1895   -0.1490    0.0531    0.0004    0.2378   -0.1604   -0.1126
          28   -0.1411    0.0026   -0.0164    0.1561    0.0076    0.0878   -0.2400    0.0033
          29    0.2596    0.2173    0.1700   -0.1972    0.0914   -0.2538    0.1950    0.1708
          30   -0.1564   -0.0351   -0.0097   -0.0041    0.0356    0.0153   -0.0289    0.0323
          31    0.0402   -0.0974    0.0430   -0.0664   -0.1612   -0.1200   -0.0115   -0.1514
          32    0.0021   -0.0598    0.0152   -0.0615    0.0141   -0.0316   -0.0557   -0.0917
          33   -0.1283    0.3232   -0.1374    0.1219    0.0190    0.3454    0.1365    0.5205
          34   -0.0390   -0.0978   -0.0441   -0.0664    0.1615   -0.1198   -0.0084    0.1523
          35   -0.0611   -0.1103   -0.0563   -0.0072    0.0221   -0.1448   -0.0163    0.1811
          36    0.1080    0.3110    0.1298    0.1350   -0.0102    0.3143    0.1356   -0.4995
          37    0.0585    0.0301   -0.1448   -0.0452    0.0717   -0.0969   -0.1563   -0.0611
          38    0.0232    0.0158   -0.0761    0.0903   -0.0494   -0.1147   -0.0195   -0.0235
          39   -0.1628   -0.1254    0.3865    0.0810    0.0322    0.2897    0.3955    0.1701
          40   -0.0589    0.0284    0.1453   -0.0462   -0.0718   -0.0989   -0.1568    0.0662
          41   -0.0611    0.0478    0.1255   -0.1191   -0.0271   -0.0439   -0.1782    0.0669
          42    0.1538   -0.1132   -0.3732    0.0275   -0.0525    0.3086    0.3496   -0.1673


   Root No.       9        10        11        12        13        14        15        16

                 9 A      10 A      11 A      12 A      13 A      14 A      15 A      16 A   

                 931.5     942.5     964.3     970.2    1008.9    1029.6    1074.3    1079.3
  
           1   -0.1395    0.0967   -0.0014    0.3306    0.0350    0.0719   -0.0477    0.0160
           2   -0.2457    0.0900   -0.0009    0.2695   -0.2330    0.0525   -0.0340    0.1533
           3   -0.1887    0.3098    0.0263    0.0191   -0.0076   -0.2140    0.1125    0.0433
           4   -0.1388   -0.0974   -0.0154   -0.3303    0.0334   -0.0728   -0.0468   -0.0159
           5    0.3062    0.2353   -0.0016    0.2431    0.2040   -0.0668   -0.0270    0.1545
           6   -0.0404   -0.2228    0.0287    0.1170    0.1161    0.2080    0.1168    0.0387
           7    0.3237    0.0626    0.1425    0.1565   -0.2468   -0.0681    0.0486    0.2587
           8   -0.0326   -0.0419    0.0265   -0.1593    0.1512   -0.0785    0.0385   -0.0920
           9    0.1551   -0.0624   -0.2411   -0.0024   -0.0748    0.3282   -0.2031    0.1044
          10    0.3244   -0.0614    0.1361   -0.1623   -0.2446    0.0757    0.0488   -0.2583
          11   -0.0485   -0.0670    0.0908   -0.1433   -0.0905    0.0983    0.0682   -0.0273
          12    0.1497    0.0319   -0.2249   -0.0677   -0.1506   -0.3191   -0.1975   -0.1360
          13   -0.1833    0.0762   -0.1024   -0.0851    0.0326    0.0686   -0.0261    0.2691
          14    0.3453   -0.0076   -0.0034   -0.0673    0.0992    0.0749   -0.0179   -0.2939
          15    0.0230   -0.2510    0.2249    0.1058    0.0238   -0.2624    0.0379    0.0420
          16   -0.1829   -0.0772   -0.0980    0.0897    0.0309   -0.0700   -0.0266   -0.2693
          17   -0.3097   -0.1336   -0.1089   -0.0006   -0.0994   -0.0636   -0.0045   -0.2336
          18   -0.1539    0.2136    0.1896   -0.1344   -0.0233    0.2658    0.0432   -0.1831
          19   -0.1525    0.0813    0.0911    0.2581    0.2759    0.0884   -0.2888   -0.0429
          20   -0.1950    0.2567   -0.0236    0.0144   -0.2839   -0.1878    0.2190    0.1396
          21    0.0732   -0.0893   -0.0189   -0.0222    0.0280    0.0446    0.0020   -0.0203
          22    0.0716    0.0457   -0.1882    0.0363    0.1394   -0.0299    0.4150   -0.1464
          23    0.0034   -0.2514    0.0754    0.1260   -0.1684    0.2262   -0.3301    0.1891
          24    0.0468   -0.0732   -0.0293    0.0110   -0.0065    0.0457    0.0301    0.0298
          25   -0.1521   -0.0814    0.0800   -0.2627    0.2728   -0.0944   -0.2857    0.0430
          26    0.1319    0.1790    0.0300   -0.0004    0.2274   -0.1452   -0.1897    0.1108
          27    0.1609    0.2073   -0.0034    0.0264    0.1621   -0.1364   -0.1076    0.0875
          28    0.0717   -0.0452   -0.1896   -0.0272    0.1407    0.0228    0.4159    0.1451
          29   -0.0269   -0.2545   -0.0454    0.1169    0.1554    0.2129    0.2737    0.1776
          30    0.0387   -0.0621   -0.0606    0.0565    0.0809    0.0702    0.1920    0.0682
          31    0.1139    0.0214   -0.1121    0.0230   -0.0801    0.0975   -0.0448    0.0979
          32   -0.0193   -0.0950   -0.1073   -0.3110    0.1039   -0.0240    0.0371    0.3042
          33   -0.0164   -0.0465    0.3927    0.0131    0.0274   -0.2776    0.1337    0.0576
          34    0.1135   -0.0219   -0.1130   -0.0181   -0.0834   -0.0953   -0.0456   -0.0976
          35    0.0249   -0.1062   -0.1140   -0.2583   -0.1076   -0.1555   -0.0990    0.2927
          36   -0.0025   -0.0053    0.3856   -0.1834   -0.0202    0.2297    0.0990    0.1021
          37   -0.0388   -0.1359    0.1085   -0.0545    0.2865   -0.1262    0.0014    0.1946
          38    0.1095   -0.0847    0.0701   -0.0329    0.1567   -0.0514   -0.0001   -0.0388
          39   -0.0316    0.3437   -0.3503   -0.2244    0.1131    0.2128   -0.0198    0.0573
          40   -0.0398    0.1379    0.1112    0.0484    0.2892    0.1190    0.0045   -0.1949
          41   -0.0802    0.0966    0.1060   -0.1453   -0.1919    0.0667    0.0087   -0.0048
          42   -0.0788   -0.3404   -0.3277    0.1936    0.0168   -0.2111   -0.0182   -0.0691


   Root No.      17        18        19        20        21        22        23        24

                17 A      18 A      19 A      20 A      21 A      22 A      23 A      24 A   

                1109.1    1117.0    1149.9    1163.7    1229.4    1348.3    1359.0    1402.0
  
           1   -0.1503   -0.1810    0.0365    0.0446    0.1501   -0.3164   -0.2679    0.3784
           2   -0.1147    0.0641   -0.0149    0.0482   -0.0931    0.2481    0.0637    0.0870
           3    0.2502    0.0089    0.0203   -0.0145    0.0051   -0.0385    0.0085    0.0147
           4    0.1500    0.1812    0.0374   -0.0442    0.1500    0.3168   -0.2681   -0.3775
           5    0.0254    0.0604    0.0029    0.0342    0.0778    0.1960   -0.0593    0.0848
           6   -0.2739    0.0234    0.0254    0.0366    0.0509    0.1577   -0.0242    0.0320
           7   -0.0234    0.0227    0.0266    0.0017    0.0236    0.1286    0.1235   -0.0502
           8    0.0115   -0.0746    0.0833    0.0030   -0.2058    0.0842   -0.1231   -0.0319
           9   -0.0085    0.0024    0.0252   -0.0099   -0.0147    0.0488    0.0163   -0.0120
          10    0.0238   -0.0232    0.0263   -0.0014    0.0239   -0.1287    0.1234    0.0492
          11    0.0060   -0.0634   -0.0851   -0.0026    0.1859    0.0972    0.0987   -0.0345
          12    0.0129   -0.0377   -0.0201    0.0105    0.0899   -0.0005    0.0757   -0.0062
          13   -0.0290   -0.0902   -0.0240    0.0234   -0.1700    0.2445   -0.0722   -0.0801
          14    0.0593   -0.0084    0.0107   -0.0329   -0.0639   -0.1122   -0.0302    0.0107
          15    0.0074   -0.0442    0.0102   -0.0044   -0.0782    0.0657   -0.0299   -0.0287
          16    0.0289    0.0907   -0.0236   -0.0234   -0.1699   -0.2443   -0.0727    0.0808
          17    0.0552   -0.0288   -0.0147   -0.0301    0.0947   -0.0645    0.0410   -0.0057
          18    0.0233    0.0328    0.0044   -0.0134   -0.0361   -0.1130   -0.0109    0.0303
          19    0.3592   -0.3209    0.1519    0.2014   -0.1913   -0.0291    0.3499   -0.2694
          20   -0.1540    0.2220   -0.0790   -0.1259    0.1630   -0.2569    0.1658   -0.1640
          21   -0.0216   -0.0104    0.0002    0.0071   -0.0197    0.1552   -0.2374    0.2500
          22   -0.4793   -0.2109    0.0401    0.2109   -0.1487    0.0124    0.2726   -0.2685
          23    0.0589    0.1737   -0.0251   -0.1304    0.1345   -0.2429    0.2021   -0.1788
          24   -0.0593    0.0221    0.0031   -0.0035    0.0120   -0.1305    0.2265   -0.2397
          25   -0.3599    0.3220    0.1548   -0.2007   -0.1915    0.0284    0.3501    0.2687
          26   -0.1447    0.1881    0.0699   -0.1053   -0.1314   -0.1450   -0.0248   -0.0175
          27   -0.0587    0.1208    0.0407   -0.0691   -0.0988   -0.2631   -0.2890   -0.2998
          28    0.4804    0.2076    0.0420   -0.2111   -0.1485   -0.0126    0.2728    0.2682
          29    0.0220    0.1589    0.0218   -0.1151   -0.1224   -0.2756   -0.2888   -0.2762
          30    0.0811    0.0663    0.0160   -0.0623   -0.0569   -0.0086    0.0950    0.1180
          31   -0.0202    0.0024    0.0174    0.0059    0.0196    0.0342    0.0375   -0.0098
          32    0.0294   -0.0825    0.5263    0.4213    0.3810   -0.2364    0.0179    0.1161
          33    0.0439   -0.0208    0.1029    0.0852    0.0633   -0.0260    0.0201    0.0121
          34    0.0202   -0.0023    0.0173   -0.0057    0.0195   -0.0344    0.0374    0.0095
          35    0.0470   -0.0795   -0.5102    0.4038   -0.3623   -0.2177   -0.0259    0.1071
          36   -0.0231   -0.0229   -0.1751    0.1358   -0.1354   -0.0955    0.0085    0.0475
          37   -0.0468   -0.3955   -0.3485   -0.3675    0.3078   -0.0307    0.0890    0.0029
          38    0.0016   -0.1737   -0.1476   -0.1807    0.1437   -0.0866    0.0400    0.0165
          39   -0.0191   -0.1592   -0.1530   -0.1616    0.1329   -0.0269    0.0394    0.0016
          40    0.0461    0.3963   -0.3486    0.3646    0.3068    0.0302    0.0889   -0.0036
          41   -0.0077   -0.2319    0.2056   -0.2366   -0.1909   -0.0884   -0.0546    0.0155
          42    0.0173    0.0537   -0.0605    0.0512    0.0443   -0.0197    0.0143    0.0066


   Root No.      25        26        27        28        29        30        31        32

                25 A      26 A      27 A      28 A      29 A      30 A      31 A      32 A   

                1404.4    1453.1    1842.5    1858.6    2934.3    2947.5    3022.8    3028.7
  
           1   -0.1236    0.2537    0.0071   -0.0159   -0.0132    0.0118    0.0871   -0.0822
           2    0.4376   -0.2431   -0.0556    0.0836   -0.0104    0.0082    0.1249   -0.1256
           3    0.0192    0.0166   -0.0044    0.0115    0.2144   -0.2135    0.0230   -0.0278
           4   -0.1262   -0.2532   -0.0072   -0.0159    0.0132    0.0119    0.0882    0.0810
           5   -0.3882   -0.2010   -0.0504   -0.0781    0.0978    0.1000   -0.1213   -0.1211
           6   -0.2023   -0.1352   -0.0239   -0.0318   -0.1901   -0.1897   -0.0430   -0.0380
           7    0.1621   -0.1230    0.1901   -0.1803   -0.0020    0.0030   -0.0181    0.0254
           8   -0.1805    0.3481    0.4074   -0.4473   -0.0024    0.0015    0.0031   -0.0025
           9    0.0279    0.0219    0.1303   -0.1365   -0.0014    0.0007   -0.0051    0.0079
          10    0.1624    0.1225   -0.1901   -0.1799    0.0020    0.0030   -0.0185   -0.0252
          11    0.1432    0.3120    0.4186    0.4554   -0.0028   -0.0016   -0.0001    0.0018
          12    0.1148    0.1544    0.0904    0.1047    0.0000   -0.0001   -0.0061   -0.0080
          13   -0.1152    0.3886   -0.3746    0.2437    0.0008   -0.0004    0.0000   -0.0002
          14   -0.0921   -0.0889   -0.3080    0.3735    0.0002   -0.0000   -0.0003    0.0019
          15   -0.0574    0.1144   -0.1772    0.1502    0.0015   -0.0007    0.0000    0.0002
          16   -0.1163   -0.3880    0.3746    0.2432   -0.0008   -0.0004    0.0000    0.0003
          17    0.1082   -0.0202   -0.3559   -0.3985    0.0008    0.0004    0.0002    0.0018
          18   -0.0041   -0.1435   -0.0002   -0.0560   -0.0012   -0.0006    0.0002    0.0008
          19    0.0758   -0.0154    0.0191   -0.0004   -0.1386    0.1465   -0.1605    0.1706
          20   -0.2411    0.0512   -0.0263    0.0207   -0.2166    0.2221   -0.2538    0.2583
          21    0.1718   -0.0343    0.0003    0.0011   -0.3132    0.3203   -0.4404    0.4507
          22    0.0118   -0.0501    0.0052   -0.0014    0.1845   -0.1894   -0.1326    0.1315
          23   -0.2413    0.0572   -0.0061    0.0011    0.2609   -0.2544   -0.1816    0.1766
          24   -0.1647    0.0219    0.0010   -0.0047   -0.4351    0.4221    0.3626   -0.3561
          25    0.0776    0.0151   -0.0192   -0.0004    0.1378    0.1468   -0.1630   -0.1686
          26    0.1227    0.0269   -0.0226   -0.0185   -0.3424   -0.3535    0.4464    0.4437
          27    0.2677    0.0548   -0.0134   -0.0095    0.1618    0.1665   -0.2578   -0.2576
          28    0.0133    0.0499   -0.0052   -0.0014   -0.1837   -0.1901   -0.1340   -0.1295
          29    0.2896    0.0597   -0.0047    0.0015    0.0080    0.0089   -0.0246   -0.0251
          30   -0.0211    0.0097   -0.0039   -0.0045    0.5058    0.4953    0.4095    0.3908
          31    0.0544   -0.0389    0.0717   -0.0707    0.0089   -0.0077    0.0540   -0.0869
          32    0.0702   -0.1382   -0.0263    0.0490    0.0004   -0.0007   -0.0005    0.0037
          33    0.0304   -0.0364    0.0222   -0.0180    0.0045   -0.0047    0.0168   -0.0270
          34    0.0544    0.0385   -0.0718   -0.0707   -0.0089   -0.0078    0.0551    0.0863
          35   -0.0763   -0.1379   -0.0117   -0.0334    0.0026    0.0030   -0.0081   -0.0103
          36   -0.0086   -0.0372   -0.0323   -0.0399   -0.0037   -0.0038    0.0152    0.0252
          37    0.1270   -0.1145    0.0257   -0.0912   -0.0001    0.0006    0.0011    0.0022
          38    0.0429   -0.1359   -0.0516    0.0585   -0.0005   -0.0003   -0.0036   -0.0031
          39    0.0520   -0.0694    0.0011   -0.0217    0.0007   -0.0007   -0.0004    0.0004
          40    0.1273    0.1138   -0.0257   -0.0911    0.0002    0.0007    0.0011   -0.0023
          41   -0.0637   -0.1523   -0.0441   -0.0398    0.0000    0.0007    0.0034   -0.0026
          42    0.0238   -0.0075   -0.0268   -0.0480   -0.0008   -0.0004    0.0015   -0.0019


   Root No.      33        34        35        36

                33 A      34 A      35 A      36 A   

                3054.0    3056.7    3071.0    3080.4
  
           1   -0.0040   -0.0107   -0.0053    0.0070
           2   -0.0053   -0.0147   -0.0087    0.0109
           3   -0.0028   -0.0059   -0.0031    0.0042
           4   -0.0044    0.0106   -0.0054   -0.0069
           5    0.0067   -0.0155    0.0091    0.0115
           6    0.0003   -0.0022    0.0017    0.0019
           7   -0.1286   -0.1589   -0.1420    0.1146
           8    0.0087    0.0089   -0.0081    0.0106
           9   -0.0403   -0.0503   -0.0480    0.0392
          10   -0.1349    0.1539   -0.1424   -0.1134
          11    0.0134   -0.0171    0.0312    0.0286
          12   -0.0413    0.0465   -0.0377   -0.0285
          13    0.0594    0.0499   -0.0450    0.0634
          14   -0.1259   -0.0971    0.1412   -0.1686
          15   -0.0021   -0.0001    0.0092   -0.0082
          16    0.0615   -0.0474   -0.0458   -0.0632
          17    0.1135   -0.0792   -0.1284   -0.1491
          18    0.0630   -0.0456   -0.0632   -0.0764
          19    0.0083    0.0188    0.0100   -0.0111
          20    0.0182    0.0354    0.0206   -0.0210
          21    0.0264    0.0554    0.0305   -0.0326
          22    0.0042    0.0117    0.0058   -0.0066
          23    0.0082    0.0182    0.0099   -0.0102
          24   -0.0158   -0.0363   -0.0198    0.0207
          25    0.0092   -0.0185    0.0100    0.0110
          26   -0.0315    0.0572   -0.0333   -0.0344
          27    0.0151   -0.0298    0.0162    0.0176
          28    0.0046   -0.0114    0.0059    0.0066
          29    0.0009   -0.0023    0.0014    0.0016
          30   -0.0194    0.0398   -0.0222   -0.0229
          31    0.4397    0.5434    0.4561   -0.3494
          32   -0.0368   -0.0441   -0.0325    0.0242
          33    0.1372    0.1696    0.1432   -0.1100
          34    0.4614   -0.5262    0.4572    0.3457
          35   -0.0388    0.0454   -0.0437   -0.0338
          36    0.1444   -0.1641    0.1408    0.1063
          37   -0.1996   -0.1651    0.1921   -0.2381
          38    0.4330    0.3461   -0.4279    0.5127
          39    0.0080    0.0042   -0.0096    0.0085
          40   -0.2065    0.1563    0.1948    0.2367
          41   -0.3912    0.2850    0.3802    0.4452
          42   -0.2159    0.1596    0.2078    0.2466


          DESCRIPTION OF VIBRATIONS


 VIBRATION          1    1A           ATOM PAIR      ENERGY CONTRIBUTION    RADIAL
 FREQUENCY           117.71         C  1 -- C  2         +23.0% (524.5%)      0.0%
 TRANSITION DIPOLE   0.0325         C  1 -- H  7         +11.9% (377.4%)     88.7%
 TRAVEL (Ang.)       0.9253         C  1 -- C  3         +11.8% (375.5%)      0.0%
 REDUCED MASS        0.6691         C  2 -- H  9         +11.8% (375.1%)     89.4%
 EFFECTIVE MASS    198.5617         C  2 -- C  4         +11.7% (373.5%)      0.0%
 FORCE CONSTANT      0.0055         C  1 -- H  8         +11.6% (371.5%)     80.6%
                            C  2 -- H 10         +11.4% (369.2%)     81.2%

 VIBRATION          2    2A           ATOM PAIR      ENERGY CONTRIBUTION    RADIAL
 FREQUENCY           280.32         C  3 -- C  5         +14.7% (124.8%)      0.0%
 TRANSITION DIPOLE   0.0396         C  4 -- C  6         +14.6% (124.3%)      0.0%
 TRAVEL (Ang.)       0.4995         C  2 -- C  4         +12.1% (113.4%)      0.0%
 REDUCED MASS        0.9641         C  1 -- C  3         +11.8% (111.9%)      0.0%
 EFFECTIVE MASS     25.2717
 FORCE CONSTANT      0.0446

 VIBRATION          3    3A           ATOM PAIR      ENERGY CONTRIBUTION    RADIAL
 FREQUENCY           460.51         C  5 -- C  6         +22.1% ( 84.6%)      0.0%
 TRANSITION DIPOLE   0.0040         C  4 -- C  6         +16.6% ( 73.4%)      0.0%
 TRAVEL (Ang.)       0.4111         C  3 -- C  5         +16.4% ( 73.0%)      0.0%
 REDUCED MASS        0.8666         C  6 -- H 14          +7.1% ( 48.0%)     15.2%
 EFFECTIVE MASS     11.7446
 FORCE CONSTANT      0.1083

 VIBRATION          4    4A           ATOM PAIR      ENERGY CONTRIBUTION    RADIAL
 FREQUENCY           520.40         C  1 -- C  2         +13.6% (123.2%)      0.0%
 TRANSITION DIPOLE   0.2575         C  5 -- C  6         +11.4% (112.6%)      0.0%
 TRAVEL (Ang.)       0.2948         C  2 -- C  4          +9.1% (100.6%)      1.4%
 REDUCED MASS        1.4911         C  1 -- C  3          +9.0% (100.6%)      1.5%
 EFFECTIVE MASS     19.5207
 FORCE CONSTANT      0.2379

 VIBRATION          5    5A           ATOM PAIR      ENERGY CONTRIBUTION    RADIAL
 FREQUENCY           576.19         C  1 -- C  3         +12.7% (117.0%)      0.7%
 TRANSITION DIPOLE   0.0361         C  2 -- C  4         +12.7% (117.0%)      0.7%
 TRAVEL (Ang.)       0.2335         C  4 -- C  6         +12.0% (113.8%)      0.1%
 REDUCED MASS        2.1456         C  3 -- C  5         +12.0% (113.7%)      0.1%
 EFFECTIVE MASS     20.5689         C  5 -- C  6         +10.1% (104.1%)     79.5%
 FORCE CONSTANT      0.4197

 VIBRATION          6    6A           ATOM PAIR      ENERGY CONTRIBUTION    RADIAL
 FREQUENCY           704.31         C  1 -- H  8          +9.2% ( 51.2%)      3.2%
 TRANSITION DIPOLE   0.5840         C  2 -- H 10          +9.2% ( 51.1%)      3.2%
 TRAVEL (Ang.)       0.7187         C  6 -- H 14          +9.1% ( 50.9%)     10.0%
 REDUCED MASS        0.1854         C  5 -- H 13          +9.1% ( 50.9%)     10.1%
 EFFECTIVE MASS      4.0460
 FORCE CONSTANT      0.0542

 VIBRATION          7    7A           ATOM PAIR      ENERGY CONTRIBUTION    RADIAL
 FREQUENCY           789.54         C  5 -- H 13         +11.0% ( 52.9%)      5.5%
 TRANSITION DIPOLE   0.4708         C  6 -- H 14         +10.8% ( 52.4%)      5.7%
 TRAVEL (Ang.)       0.5531         C  2 -- H 10          +9.1% ( 48.1%)     17.1%
 REDUCED MASS        0.2791         C  1 -- H  8          +8.9% ( 47.7%)     17.1%
 EFFECTIVE MASS      5.1563
 FORCE CONSTANT      0.1025

 VIBRATION          8    8A           ATOM PAIR      ENERGY CONTRIBUTION    RADIAL
 FREQUENCY           801.00         C  4 -- H 12         +23.8% ( 61.9%)      0.4%
 TRANSITION DIPOLE   0.0397         C  3 -- H 11         +23.4% ( 61.3%)      0.4%
 TRAVEL (Ang.)       0.5227         C  6 -- H 14          +6.8% ( 33.1%)      0.2%
 REDUCED MASS        0.3081         C  5 -- H 13          +6.4% ( 32.1%)      0.2%
 EFFECTIVE MASS      3.0167
 FORCE CONSTANT      0.1165

 VIBRATION          9    9A           ATOM PAIR      ENERGY CONTRIBUTION    RADIAL
 FREQUENCY           931.48         C  5 -- C  6         +14.1% ( 74.5%)      0.0%
 TRANSITION DIPOLE   0.1080         C  3 -- C  5         +11.5% ( 67.2%)      0.0%
 TRAVEL (Ang.)       0.2362         C  4 -- C  6         +11.5% ( 67.2%)      0.0%
 REDUCED MASS        1.2973         C  1 -- C  3         +10.0% ( 62.9%)      0.0%
 EFFECTIVE MASS     13.2164         C  2 -- C  4         +10.0% ( 62.8%)      0.0%
 FORCE CONSTANT      0.6632

 VIBRATION         10   10A           ATOM PAIR      ENERGY CONTRIBUTION    RADIAL
 FREQUENCY           942.45         C  1 -- C  2         +15.8% ( 57.3%)     11.0%
 TRANSITION DIPOLE   0.0531         C  2 -- H 10         +11.7% ( 49.5%)      5.9%
 TRAVEL (Ang.)       0.3804         C  1 -- H  8         +11.6% ( 49.2%)      6.0%
 REDUCED MASS        0.4943         C  2 -- H  9          +9.2% ( 43.7%)     29.3%
 EFFECTIVE MASS      5.4760
 FORCE CONSTANT      0.2587

 VIBRATION         11   11A           ATOM PAIR      ENERGY CONTRIBUTION    RADIAL
 FREQUENCY           964.34         C  3 -- H 11         +19.1% ( 46.7%)      0.4%
 TRANSITION DIPOLE   0.0518         C  4 -- H 12         +18.7% ( 46.2%)      0.3%
 TRAVEL (Ang.)       0.4571         C  5 -- H 13         +14.8% ( 41.1%)      0.3%
 REDUCED MASS        0.3347         C  6 -- H 14         +13.9% ( 39.9%)      0.3%
 EFFECTIVE MASS      3.1976
 FORCE CONSTANT      0.1834

 VIBRATION         12   12A           ATOM PAIR      ENERGY CONTRIBUTION    RADIAL
 FREQUENCY           970.24         C  1 -- C  2         +20.5% ( 75.1%)     97.7%
 TRANSITION DIPOLE   0.0907         C  2 -- C  4         +11.8% ( 57.0%)     49.0%
 TRAVEL (Ang.)       0.2764         C  1 -- C  3         +11.8% ( 57.0%)     48.1%
 REDUCED MASS        0.9094         C  2 -- H  9          +8.4% ( 48.2%)     49.7%
 EFFECTIVE MASS      8.4808
 FORCE CONSTANT      0.5044

 VIBRATION         13   13A           ATOM PAIR      ENERGY CONTRIBUTION    RADIAL
 FREQUENCY          1008.91         C  2 -- C  4         +12.4% ( 51.0%)     93.1%
 TRANSITION DIPOLE   0.0987         C  1 -- C  3         +12.3% ( 50.7%)     93.6%
 TRAVEL (Ang.)       0.4334         C  1 -- H  7          +9.7% ( 45.1%)     10.9%
 REDUCED MASS        0.3559         C  2 -- H  9          +9.5% ( 44.7%)     10.6%
 EFFECTIVE MASS      6.0876
 FORCE CONSTANT      0.2134

 VIBRATION         14   14A           ATOM PAIR      ENERGY CONTRIBUTION    RADIAL
 FREQUENCY          1029.56         C  3 -- H 11          +9.7% ( 38.1%)      0.2%
 TRANSITION DIPOLE   0.0808         C  4 -- H 12          +9.6% ( 37.9%)      0.1%
 TRAVEL (Ang.)       0.3341         C  1 -- C  2          +8.8% ( 36.3%)      9.8%
 REDUCED MASS        0.5867         C  1 -- C  3          +8.0% ( 34.5%)      1.2%
 EFFECTIVE MASS      5.9513
 FORCE CONSTANT      0.3664

 VIBRATION         15   15A           ATOM PAIR      ENERGY CONTRIBUTION    RADIAL
 FREQUENCY          1074.26         C  2 -- H 10         +26.6% ( 54.0%)      2.4%
 TRANSITION DIPOLE   0.1295         C  1 -- H  8         +26.4% ( 53.8%)      2.3%
 TRAVEL (Ang.)       0.4976         C  1 -- H  7         +13.5% ( 38.4%)      1.0%
 REDUCED MASS        0.2535         C  2 -- H  9         +13.3% ( 38.2%)      1.1%
 EFFECTIVE MASS      2.0764
 FORCE CONSTANT      0.1724

 VIBRATION         16   16A           ATOM PAIR      ENERGY CONTRIBUTION    RADIAL
 FREQUENCY          1079.31         C  5 -- C  6         +21.9% ( 72.0%)     99.3%
 TRANSITION DIPOLE   0.0795         C  3 -- C  5         +12.7% ( 54.9%)     69.7%
 TRAVEL (Ang.)       0.2715         C  4 -- C  6         +12.7% ( 54.8%)     69.4%
 REDUCED MASS        0.8474         C  3 -- H 11          +7.8% ( 43.0%)     20.4%
 EFFECTIVE MASS      8.9920
 FORCE CONSTANT      0.5816

 VIBRATION         17   17A           ATOM PAIR      ENERGY CONTRIBUTION    RADIAL
 FREQUENCY          1109.08         C  2 -- H 10         +17.6% ( 50.9%)     20.2%
 TRANSITION DIPOLE   0.0546         C  2 -- H  9         +17.6% ( 50.9%)      1.2%
 TRAVEL (Ang.)       0.3930         C  1 -- H  7         +17.5% ( 50.9%)      1.2%
 REDUCED MASS        0.3936         C  1 -- H  8         +17.5% ( 50.9%)     20.3%
 EFFECTIVE MASS      3.4589         C  1 -- C  2         +14.7% ( 46.6%)     23.5%
 FORCE CONSTANT      0.2853

 VIBRATION         18   18A           ATOM PAIR      ENERGY CONTRIBUTION    RADIAL
 FREQUENCY          1116.96         C  6 -- H 14         +17.9% ( 45.9%)      0.5%
 TRANSITION DIPOLE   0.0315         C  5 -- H 13         +17.7% ( 45.8%)      0.5%
 TRAVEL (Ang.)       0.5700         C  2 -- H  9         +12.7% ( 38.7%)      0.8%
 REDUCED MASS        0.1858         C  1 -- H  7         +12.6% ( 38.5%)      0.9%
 EFFECTIVE MASS      2.5297
 FORCE CONSTANT      0.1366

 VIBRATION         19   19A           ATOM PAIR      ENERGY CONTRIBUTION    RADIAL
 FREQUENCY          1149.94         C  4 -- H 12         +27.9% ( 52.5%)      0.1%
 TRANSITION DIPOLE   0.0201         C  3 -- H 11         +27.6% ( 52.3%)      0.1%
 TRAVEL (Ang.)       0.5062         C  6 -- H 14         +16.2% ( 40.0%)      0.1%
 REDUCED MASS        0.2289         C  5 -- H 13         +16.1% ( 39.9%)      0.1%
 EFFECTIVE MASS      1.3146
 FORCE CONSTANT      0.1783

 VIBRATION         20   20A           ATOM PAIR      ENERGY CONTRIBUTION    RADIAL
 FREQUENCY          1163.70         C  5 -- H 13         +19.3% ( 43.0%)      0.3%
 TRANSITION DIPOLE   0.0327         C  6 -- H 14         +19.1% ( 42.7%)      0.3%
 TRAVEL (Ang.)       0.6074         C  3 -- H 11         +18.4% ( 42.0%)      0.0%
 REDUCED MASS        0.1571         C  4 -- H 12         +18.1% ( 41.6%)      0.0%
 EFFECTIVE MASS      1.1542
 FORCE CONSTANT      0.1253

 VIBRATION         21   21A           ATOM PAIR      ENERGY CONTRIBUTION    RADIAL
 FREQUENCY          1229.37         C  4 -- H 12         +14.6% ( 45.7%)      0.1%
 TRANSITION DIPOLE   0.0139         C  3 -- H 11         +14.5% ( 45.7%)      0.1%
 TRAVEL (Ang.)       0.5275         C  5 -- H 13         +13.2% ( 43.5%)      0.0%
 REDUCED MASS        0.1971         C  6 -- H 14         +13.1% ( 43.4%)      0.0%
 EFFECTIVE MASS      2.4709
 FORCE CONSTANT      0.1755

 VIBRATION         22   22A           ATOM PAIR      ENERGY CONTRIBUTION    RADIAL
 FREQUENCY          1348.30         C  1 -- C  2         +14.6% ( 52.0%)     90.7%
 TRANSITION DIPOLE   0.1089         C  2 -- H  9          +9.9% ( 43.0%)      0.0%
 TRAVEL (Ang.)       0.2449         C  1 -- H  7          +9.9% ( 42.9%)      0.0%
 REDUCED MASS        0.8337         C  5 -- C  6          +9.9% ( 42.8%)     99.9%
 EFFECTIVE MASS      6.6474
 FORCE CONSTANT      0.8930

 VIBRATION         23   23A           ATOM PAIR      ENERGY CONTRIBUTION    RADIAL
 FREQUENCY          1359.01         C  2 -- H  9         +18.3% ( 45.7%)      1.0%
 TRANSITION DIPOLE   0.0460         C  1 -- H  7         +18.3% ( 45.6%)      1.0%
 TRAVEL (Ang.)       0.4037         C  2 -- H 10         +14.9% ( 41.1%)      1.8%
 REDUCED MASS        0.3045         C  1 -- H  8         +14.8% ( 41.1%)      1.8%
 EFFECTIVE MASS      3.1042
 FORCE CONSTANT      0.3313

 VIBRATION         24   24A           ATOM PAIR      ENERGY CONTRIBUTION    RADIAL
 FREQUENCY          1402.01         C  1 -- C  2         +18.6% ( 50.6%)     99.9%
 TRANSITION DIPOLE   0.0608         C  2 -- H 10         +15.7% ( 46.4%)      4.0%
 TRAVEL (Ang.)       0.2711         C  1 -- H  8         +15.6% ( 46.3%)      4.0%
 REDUCED MASS        0.6543         C  2 -- H  9         +15.5% ( 46.1%)      4.9%
 EFFECTIVE MASS      4.2959         C  1 -- H  7         +15.5% ( 46.1%)      4.8%
 FORCE CONSTANT      0.7578

 VIBRATION         25   25A           ATOM PAIR      ENERGY CONTRIBUTION    RADIAL
 FREQUENCY          1404.39         C  1 -- C  2         +14.9% ( 53.8%)      0.0%
 TRANSITION DIPOLE   0.0618         C  2 -- C  4         +12.6% ( 49.6%)     99.9%
 TRAVEL (Ang.)       0.2028         C  1 -- C  3         +12.6% ( 49.5%)    100.0%
 REDUCED MASS        1.1672         C  2 -- H  9         +10.8% ( 45.9%)      5.1%
 EFFECTIVE MASS      7.1655         C  1 -- H  7         +10.8% ( 45.9%)      5.1%
 FORCE CONSTANT      1.3563         C  1 -- H  8         +10.7% ( 45.7%)      3.4%
                            C  2 -- H 10         +10.7% ( 45.7%)      3.3%

 VIBRATION         26   26A           ATOM PAIR      ENERGY CONTRIBUTION    RADIAL
 FREQUENCY          1453.10         C  5 -- C  6         +16.2% ( 61.2%)    100.0%
 TRANSITION DIPOLE   0.0788         C  1 -- C  3         +10.8% ( 50.1%)     97.8%
 TRAVEL (Ang.)       0.1744         C  2 -- C  4         +10.8% ( 49.9%)     97.8%
 REDUCED MASS        1.5254         C  3 -- C  5          +8.9% ( 45.4%)      0.9%
 EFFECTIVE MASS     10.4980
 FORCE CONSTANT      1.8977

 VIBRATION         27   27A           ATOM PAIR      ENERGY CONTRIBUTION    RADIAL
 FREQUENCY          1842.54         C  4 -- C  6         +22.0% ( 69.8%)     99.0%
 TRANSITION DIPOLE   0.3570         C  3 -- C  5         +21.9% ( 69.7%)     99.0%
 TRAVEL (Ang.)       0.1130         C  5 -- C  6         +16.6% ( 60.6%)     99.3%
 REDUCED MASS        2.8652         C  6 -- H 14          +7.2% ( 39.9%)      1.8%
 EFFECTIVE MASS     11.9375
 FORCE CONSTANT      5.7311

 VIBRATION         28   28A           ATOM PAIR      ENERGY CONTRIBUTION    RADIAL
 FREQUENCY          1858.61         C  3 -- C  5         +22.4% ( 69.2%)     99.3%
 TRANSITION DIPOLE   0.4169         C  4 -- C  6         +22.4% ( 69.1%)     99.3%
 TRAVEL (Ang.)       0.1161         C  5 -- C  6         +12.4% ( 51.5%)      0.0%
 REDUCED MASS        2.6911         C  1 -- C  3          +7.8% ( 40.7%)     53.0%
 EFFECTIVE MASS     11.7754
 FORCE CONSTANT      5.4771

 VIBRATION         29   29A           ATOM PAIR      ENERGY CONTRIBUTION    RADIAL
 FREQUENCY          2934.30         C  1 -- H  8         +30.8% ( 57.7%)     97.5%
 TRANSITION DIPOLE   0.0108         C  2 -- H 10         +30.6% ( 57.6%)     97.5%
 TRAVEL (Ang.)       0.2891         C  1 -- H  7         +18.2% ( 44.4%)     94.6%
 REDUCED MASS        0.2749         C  2 -- H  9         +18.0% ( 44.2%)     94.6%
 EFFECTIVE MASS      1.5462
 FORCE CONSTANT      1.3945

 VIBRATION         30   30A           ATOM PAIR      ENERGY CONTRIBUTION    RADIAL
 FREQUENCY          2947.48         C  2 -- H 10         +29.9% ( 56.5%)     97.6%
 TRANSITION DIPOLE   0.0312         C  1 -- H  8         +29.6% ( 56.3%)     97.6%
 TRAVEL (Ang.)       0.2912         C  2 -- H  9         +19.3% ( 45.4%)     95.2%
 REDUCED MASS        0.2698         C  1 -- H  7         +19.2% ( 45.3%)     95.2%
 EFFECTIVE MASS      1.5249
 FORCE CONSTANT      1.3812

 VIBRATION         31   31A           ATOM PAIR      ENERGY CONTRIBUTION    RADIAL
 FREQUENCY          3022.83         C  2 -- H  9         +30.6% ( 54.6%)     98.8%
 TRANSITION DIPOLE   0.0233         C  1 -- H  7         +29.8% ( 53.9%)     98.8%
 TRAVEL (Ang.)       0.2989         C  2 -- H 10         +19.0% ( 43.0%)     96.0%
 REDUCED MASS        0.2497         C  1 -- H  8         +18.5% ( 42.5%)     96.0%
 EFFECTIVE MASS      1.2875
 FORCE CONSTANT      1.3443

 VIBRATION         32   32A           ATOM PAIR      ENERGY CONTRIBUTION    RADIAL
 FREQUENCY          3028.65         C  1 -- H  7         +31.3% ( 55.1%)     99.0%
 TRANSITION DIPOLE   0.0808         C  2 -- H  9         +30.5% ( 54.5%)     99.0%
 TRAVEL (Ang.)       0.2991         C  1 -- H  8         +17.7% ( 41.5%)     95.7%
 REDUCED MASS        0.2488         C  2 -- H 10         +17.2% ( 40.9%)     95.7%
 EFFECTIVE MASS      1.2813
 FORCE CONSTANT      1.3447

 VIBRATION         33   33A           ATOM PAIR      ENERGY CONTRIBUTION    RADIAL
 FREQUENCY          3054.00         C  6 -- H 14         +25.7% ( 51.5%)    100.0%
 TRANSITION DIPOLE   0.2366         C  4 -- H 12         +24.9% ( 50.7%)    100.0%
 TRAVEL (Ang.)       0.3089         C  5 -- H 13         +24.1% ( 49.9%)    100.0%
 REDUCED MASS        0.2315         C  3 -- H 11         +22.6% ( 48.3%)    100.0%
 EFFECTIVE MASS      1.4698
 FORCE CONSTANT      1.2720

 VIBRATION         34   34A           ATOM PAIR      ENERGY CONTRIBUTION    RADIAL
 FREQUENCY          3056.70         C  3 -- H 11         +34.5% ( 59.6%)    100.0%
 TRANSITION DIPOLE   0.3025         C  4 -- H 12         +32.4% ( 57.7%)    100.0%
 TRAVEL (Ang.)       0.2906         C  5 -- H 13         +15.5% ( 40.0%)     99.9%
 REDUCED MASS        0.2612         C  6 -- H 14         +13.9% ( 37.8%)     99.9%
 EFFECTIVE MASS      1.4565
 FORCE CONSTANT      1.4378

 VIBRATION         35   35A           ATOM PAIR      ENERGY CONTRIBUTION    RADIAL
 FREQUENCY          3070.97         C  4 -- H 12         +24.4% ( 50.2%)     99.9%
 TRANSITION DIPOLE   0.3950         C  3 -- H 11         +24.3% ( 50.1%)     99.9%
 TRAVEL (Ang.)       0.3082         C  6 -- H 14         +24.0% ( 49.7%)     99.9%
 REDUCED MASS        0.2311         C  5 -- H 13         +23.4% ( 49.1%)     99.9%
 EFFECTIVE MASS      1.5746
 FORCE CONSTANT      1.2842

 VIBRATION         36   36A           ATOM PAIR      ENERGY CONTRIBUTION    RADIAL
 FREQUENCY          3080.43         C  5 -- H 13         +34.0% ( 59.1%)    100.0%
 TRANSITION DIPOLE   0.3114         C  6 -- H 14         +33.5% ( 58.7%)    100.0%
 TRAVEL (Ang.)       0.2852         C  3 -- H 11         +14.4% ( 38.4%)     99.8%
 REDUCED MASS        0.2690         C  4 -- H 12         +14.1% ( 38.0%)     99.8%
 EFFECTIVE MASS      1.6096
 FORCE CONSTANT      1.5042

      SYMMETRY NUMBER FOR POINT-GROUP C1  =  1


          SYSTEM IS A GROUND STATE



 InChI=1S/C6H8/c1-2-4-6-5-3-1/h1-4H,5-6H2


          MOLECULE IS NOT LINEAR

          THERE ARE 36 GENUINE VIBRATIONS IN THIS SYSTEM
          THIS THERMODYNAMICS CALCULATION IS LIMITED TO
          MOLECULES WHICH HAVE NO INTERNAL ROTATIONS




                    CALCULATED THERMODYNAMIC PROPERTIES
                                          *
   TEMP. (K)   PARTITION FUNCTION   H.O.F.    ENTHALPY  HEAT CAPACITY ENTROPY
                                   KCAL/MOL   CAL/MOLE    CAL/K/MOL  CAL/K/MOL


 298.00  VIB.     0.4794D+01                  1565.8203    14.2253     8.3690
         ROT.     0.1041D+06                   888.2803     2.9808    25.9383
         INT.     0.4988D+06                  2454.1006    17.2061    34.3073
         TRA.     0.6934D+27                  1480.4672     4.9680    39.0554
         TOT.                       20.289    3934.5678    22.1741    73.3627

 200.00  VIB.     0.2227D+01                   539.0236     7.0254     4.2863
         ROT.     0.5721D+05                   596.1613     2.9808    24.7496
         INT.     0.1274D+06                  1135.1849    10.0062    29.0359
         TRA.     0.3813D+27                   993.6021     4.9680    37.0743
         TOT.                       18.483    2128.7870    14.9742    66.1102

 210.00  VIB.     0.2386D+01                   612.4382     7.6625     4.6443
         ROT.     0.6155D+05                   625.9693     2.9808    24.8951
         INT.     0.1469D+06                  1238.4075    10.6433    29.5394
         TRA.     0.4102D+27                  1043.2822     4.9680    37.3167
         TOT.                       18.636    2281.6898    15.6114    66.8561

 220.00  VIB.     0.2561D+01                   692.3719     8.3289     5.0161
         ROT.     0.6600D+05                   655.7774     2.9808    25.0337
         INT.     0.1690D+06                  1348.1493    11.3097    30.0498
         TRA.     0.4399D+27                  1092.9623     4.9680    37.5478
         TOT.                       18.796    2441.1116    16.2777    67.5976

 230.00  VIB.     0.2755D+01                   779.1053     9.0221     5.4015
         ROT.     0.7055D+05                   685.5855     2.9808    25.1662
         INT.     0.1944D+06                  1464.6908    12.0029    30.5677
         TRA.     0.4702D+27                  1142.6424     4.9680    37.7686
         TOT.                       18.962    2607.3332    16.9709    68.3364

 240.00  VIB.     0.2970D+01                   872.8938     9.7394     5.8005
         ROT.     0.7521D+05                   715.3935     2.9808    25.2931
         INT.     0.2234D+06                  1588.2874    12.7202    31.0936
         TRA.     0.5012D+27                  1192.3226     4.9680    37.9801
         TOT.                       19.135    2780.6099    17.6882    69.0737

 250.00  VIB.     0.3209D+01                   973.9649    10.4781     6.2130
         ROT.     0.7995D+05                   745.2016     2.9808    25.4148
         INT.     0.2566D+06                  1719.1665    13.4589    31.6278
         TRA.     0.5328D+27                  1242.0027     4.9680    38.1829
         TOT.                       19.316    2961.1692    18.4269    69.8107

 260.00  VIB.     0.3475D+01                  1082.5164    11.2350     6.6387
         ROT.     0.8480D+05                   775.0097     2.9808    25.5317
         INT.     0.2947D+06                  1857.5261    14.2158    32.1704
         TRA.     0.5651D+27                  1291.6828     4.9680    38.3777
         TOT.                       19.504    3149.2089    19.1838    70.5481

 270.00  VIB.     0.3771D+01                  1198.7161    12.0072     7.0771
         ROT.     0.8974D+05                   804.8177     2.9808    25.6442
         INT.     0.3384D+06                  2003.5338    14.9880    32.7213
         TRA.     0.5980D+27                  1341.3629     4.9680    38.5652
         TOT.                       19.699    3344.8967    19.9560    71.2865

 280.00  VIB.     0.4100D+01                  1322.7012    12.7916     7.5280
         ROT.     0.9477D+05                   834.6258     2.9808    25.7526
         INT.     0.3886D+06                  2157.3270    15.7724    33.2805
         TRA.     0.6316D+27                  1391.0430     4.9680    38.7459
         TOT.                       19.903    3548.3700    20.7404    72.0264

 290.00  VIB.     0.4468D+01                  1454.5798    13.5854     7.9907
         ROT.     0.9989D+05                   864.4339     2.9808    25.8572
         INT.     0.4463D+06                  2319.0136    16.5662    33.8478
         TRA.     0.6657D+27                  1440.7231     4.9680    38.9202
         TOT.                       20.114    3759.7367    21.5342    72.7681

 300.00  VIB.     0.4880D+01                  1594.4314    14.3858     8.4647
         ROT.     0.1051D+06                   894.2419     2.9808    25.9582
         INT.     0.5129D+06                  2488.6733    17.3666    34.4229
         TRA.     0.7004D+27                  1490.4032     4.9680    39.0887
         TOT.                       20.334    3979.0765    22.3346    73.5116

 310.00  VIB.     0.5340D+01                  1742.3089    15.1902     8.9495
         ROT.     0.1104D+06                   924.0500     2.9808    26.0560
         INT.     0.5896D+06                  2666.3589    18.1710    35.0055
         TRA.     0.7357D+27                  1540.0833     4.9680    39.2516
         TOT.                       20.561    4206.4422    23.1390    74.2571

 320.00  VIB.     0.5857D+01                  1898.2403    15.9962     9.4445
         ROT.     0.1158D+06                   953.8580     2.9808    26.1506
         INT.     0.6781D+06                  2852.0983    18.9770    35.5951
         TRA.     0.7716D+27                  1589.7634     4.9680    39.4093
         TOT.                       20.796    4441.8617    23.9450    75.0044

 330.00  VIB.     0.6436D+01                  2062.2306    16.8016     9.9491
         ROT.     0.1213D+06                   983.6661     2.9808    26.2423
         INT.     0.7804D+06                  3045.8967    19.7824    36.1914
         TRA.     0.8081D+27                  1639.4435     4.9680    39.5622
         TOT.                       21.040    4685.3402    24.7504    75.7536

 340.00  VIB.     0.7086D+01                  2234.2642    17.6045    10.4626
         ROT.     0.1268D+06                  1013.4742     2.9808    26.3313
         INT.     0.8986D+06                  3247.7383    20.5853    36.7939
         TRA.     0.8451D+27                  1689.1236     4.9680    39.7105
         TOT.                       21.291    4936.8619    25.5533    76.5044

 350.00  VIB.     0.7817D+01                  2414.3067    18.4031    10.9844
         ROT.     0.1324D+06                  1043.2822     2.9808    26.4177
         INT.     0.1035D+07                  3457.5889    21.3839    37.4022
         TRA.     0.8827D+27                  1738.8037     4.9680    39.8545
         TOT.                       21.551    5196.3927    26.3520    77.2566

 360.00  VIB.     0.8641D+01                  2602.3073    19.1959    11.5140
         ROT.     0.1382D+06                  1073.0903     2.9808    26.5017
         INT.     0.1194D+07                  3675.3976    22.1767    38.0157
         TRA.     0.9207D+27                  1788.4838     4.9680    39.9944
         TOT.                       21.818    5463.8815    27.1447    78.0101

 370.00  VIB.     0.9568D+01                  2798.2007    19.9815    12.0507
         ROT.     0.1440D+06                  1102.8984     2.9808    26.5834
         INT.     0.1377D+07                  3901.0991    22.9623    38.6340
         TRA.     0.9594D+27                  1838.1639     4.9680    40.1306
         TOT.                       22.094    5739.2630    27.9303    78.7646

 380.00  VIB.     0.1061D+02                  3001.9089    20.7587    12.5939
         ROT.     0.1498D+06                  1132.7064     2.9808    26.6629
         INT.     0.1590D+07                  4134.6154    23.7395    39.2567
         TRA.     0.9985D+27                  1887.8440     4.9680    40.2630
         TOT.                       22.377    6022.4594    28.7075    79.5198

 390.00  VIB.     0.1179D+02                  3213.3433    21.5266    13.1430
         ROT.     0.1558D+06                  1162.5145     2.9808    26.7403
         INT.     0.1837D+07                  4375.8578    24.5074    39.8833
         TRA.     0.1038D+28                  1937.5242     4.9680    40.3921
         TOT.                       22.668    6313.3819    29.4754    80.2754

 400.00  VIB.     0.1313D+02                  3432.4060    22.2842    13.6976
         ROT.     0.1618D+06                  1192.3226     2.9808    26.8158
         INT.     0.2124D+07                  4624.7286    25.2650    40.5134
         TRA.     0.1078D+28                  1987.2043     4.9680    40.5179
         TOT.                       22.966    6611.9329    30.2331    81.0313

   *: NOTE: HEATS OF FORMATION ARE RELATIVE TO THE
            ELEMENTS IN THEIR STANDARD STATE AT 298K
              (=  Standard Enthalpy of Formation).

            Hvib:  Zero-point energy is not included.
                   frequencies of less than zero cm-1 are not included.
            Hrot = (3/2)RT
            Htra = (3/2)RT + pV = (5/2)RT

            Heat capacity is Cp, not Cv

          For more information, see: HTTP://OpenMOPAC.net/Manual/thermochemistry.html


           FORCE CONSTANT IN CARTESIAN COORDINATES (Millidynes/A)

    ATOM   CHEMICAL       X               Y               Z
   NUMBER   SYMBOL  FORCE CONSTANT  FORCE CONSTANT  FORCE CONSTANT

      1       C        8.326901        9.017746        7.976609
      2       C        8.326768        9.045767        7.942436
      3       C       10.601802       12.627547        3.749083
      4       C       10.591766       12.481889        3.905662
      5       C       10.668279       13.317378        3.640852
      6       C       10.667767       13.008288        3.950977
      7       H        1.173482        1.724304        3.444711
      8       H        1.173716        1.544879        3.505412
      9       H        1.173881        3.660904        1.509048
     10       H        1.173032        0.634394        4.416664
     11       H        4.700985        0.779004        0.783110
     12       H        4.698612        0.754865        0.809351
     13       H        1.489686        4.379247        0.400519
     14       H        1.490145        3.498581        1.280100

 **********************
 *                    *
 * JOB ENDED NORMALLY *
 *                    *
 **********************



 TOTAL JOB TIME:             0.82 SECONDS

 == MOPAC DONE ==
