 *******************************************************************************
 **                                                                           **
 **                              MOPAC v23.1.2                                **
 **                                                                           **
 *******************************************************************************
 **          Digital Object Identifier (DOI): 10.5281/zenodo.6511958          **
 **    Visit the DOI location for information on how to cite this program.    **
 *******************************************************************************

                              PM3 CALCULATION RESULTS

 *******************************************************************************
 *  CALCULATION DONE: (MAX THREADS = 1)              Tue Jun  3 16:39:21 2025  *
 *  PM3        - The PM3 Hamiltonian to be used
 *  PRECISE    - TIGHTER CRITERIA TO BE USED
 *  NOSYM      - POINT-GROUP SYMMETRY SET TO C1
 *  THREADS=1  - MULTI-THREADING NOT USED
 *  T=         - A TIME OF 172800.0 SECONDS REQUESTED
 *  DUMP=N     - RESTART FILE WRITTEN EVERY 7200.0 SECONDS REQUESTED
 *******************************************************************************
pm3  precise nosym THREADS=1
 InChI=1S/C12H20/c1-3-5-6-7-8-12-10-9-11(12)4-2/h5,7,11-12H,3-4,8-10H2,1-2H3

   ATOM   CHEMICAL          X               Y               Z
  NUMBER   SYMBOL      (ANGSTROMS)     (ANGSTROMS)     (ANGSTROMS)

     1       C         -1.04940000  *  -0.07290000  *   1.16190000  *
     2       C         -1.57950000  *   1.26990000  *   0.63380000  *
     3       C         -1.32580000  *   0.38850000  *   2.59100000  *
     4       C         -1.83410000  *   1.72590000  *   2.06960000  *
     5       C         -1.89170000  *  -1.29080000  *   0.74540000  *
     6       C         -0.51780000  *   2.11170000  *  -0.09460000  *
     7       C          2.77560000  *  -0.27920000  *  -0.87300000  *
     8       C         -1.63820000  *  -1.67160000  *  -0.71000000  *
     9       C          4.01280000  *  -0.99890000  *  -1.39960000  *
    10       C          1.95150000  *   0.27790000  *  -1.99340000  *
    11       C         -0.26170000  *   1.55380000  *  -1.46310000  *
    12       C          0.84730000  *   0.92120000  *  -1.73380000  *
    13       H          0.04040000  *  -0.23070000  *   0.99240000  *
    14       H         -2.53100000  *   1.18940000  *   0.05870000  *
    15       H         -2.97700000  *  -1.08860000  *   0.88810000  *
    16       H         -1.61470000  *  -2.15530000  *   1.38890000  *
    17       H         -2.11980000  *  -0.18690000  *   3.11070000  *
    18       H         -0.39570000  *   0.49620000  *   3.18570000  *
    19       H         -2.91560000  *   1.87610000  *   2.28090000  *
    20       H         -1.19510000  *   2.57890000  *   2.39660000  *
    21       H          2.16140000  *  -1.00160000  *  -0.28790000  *
    22       H          3.09360000  *   0.54730000  *  -0.19990000  *
    23       H          0.42310000  *   2.15480000  *   0.50160000  *
    24       H         -0.89140000  *   3.15220000  *  -0.20860000  *
    25       H         -2.19900000  *  -2.59750000  *  -0.95470000  *
    26       H         -1.98430000  *  -0.86300000  *  -1.38840000  *
    27       H         -0.55630000  *  -1.85690000  *  -0.87930000  *
    28       H          4.63150000  *  -0.31130000  *  -2.01320000  *
    29       H          4.62210000  *  -1.36370000  *  -0.54960000  *
    30       H          3.71340000  *  -1.86910000  *  -2.02090000  *
    31       H          2.25260000  *   0.14520000  *  -3.02710000  *
    32       H         -1.04720000  *   1.58290000  *  -2.20810000  *



          CARTESIAN COORDINATES 

    NO.       ATOM           X           Y           Z

     1         C         -1.0494     -0.0729      1.1619
     2         C         -1.5795      1.2699      0.6338
     3         C         -1.3258      0.3885      2.5910
     4         C         -1.8341      1.7259      2.0696
     5         C         -1.8917     -1.2908      0.7454
     6         C         -0.5178      2.1117     -0.0946
     7         C          2.7756     -0.2792     -0.8730
     8         C         -1.6382     -1.6716     -0.7100
     9         C          4.0128     -0.9989     -1.3996
    10         C          1.9515      0.2779     -1.9934
    11         C         -0.2617      1.5538     -1.4631
    12         C          0.8473      0.9212     -1.7338
    13         H          0.0404     -0.2307      0.9924
    14         H         -2.5310      1.1894      0.0587
    15         H         -2.9770     -1.0886      0.8881
    16         H         -1.6147     -2.1553      1.3889
    17         H         -2.1198     -0.1869      3.1107
    18         H         -0.3957      0.4962      3.1857
    19         H         -2.9156      1.8761      2.2809
    20         H         -1.1951      2.5789      2.3966
    21         H          2.1614     -1.0016     -0.2879
    22         H          3.0936      0.5473     -0.1999
    23         H          0.4231      2.1548      0.5016
    24         H         -0.8914      3.1522     -0.2086
    25         H         -2.1990     -2.5975     -0.9547
    26         H         -1.9843     -0.8630     -1.3884
    27         H         -0.5563     -1.8569     -0.8793
    28         H          4.6315     -0.3113     -2.0132
    29         H          4.6221     -1.3637     -0.5496
    30         H          3.7134     -1.8691     -2.0209
    31         H          2.2526      0.1452     -3.0271
    32         H         -1.0472      1.5829     -2.2081

  H: (PM3): J. J. P. STEWART, J. COMP. CHEM. 10, 209 (1989).
  C: (PM3): J. J. P. STEWART, J. COMP. CHEM. 10, 209 (1989).

           Empirical Formula: C12 H20  =    32 atoms



      MOLECULAR POINT GROUP   :   C1  


      RHF CALCULATION, NO. OF DOUBLY OCCUPIED LEVELS = 34


          Geometry optimization using EF

          DIAGONAL MATRIX USED AS START HESSIAN

 CYCLE:     1 TIME:   0.016 TIME LEFT:  2.00D  GRAD.:    95.675 HEAT:  49.14479
 CYCLE:     2 TIME:   0.020 TIME LEFT:  2.00D  GRAD.:    97.629 HEAT:  46.86982
 CYCLE:     3 TIME:   0.012 TIME LEFT:  2.00D  GRAD.:    76.466 HEAT:  43.16712
 CYCLE:     4 TIME:   0.012 TIME LEFT:  2.00D  GRAD.:   154.962 HEAT:  42.57933
 CYCLE:     5 TIME:   0.012 TIME LEFT:  2.00D  GRAD.:   153.764 HEAT:  41.72023
 CYCLE:     6 TIME:   0.012 TIME LEFT:  2.00D  GRAD.:   132.954 HEAT:  38.86747
 CYCLE:     7 TIME:   0.020 TIME LEFT:  2.00D  GRAD.:    86.937 HEAT:  35.39722
 CYCLE:     8 TIME:   0.016 TIME LEFT:  2.00D  GRAD.:    50.138 HEAT:  34.15666
 CYCLE:     9 TIME:   0.012 TIME LEFT:  2.00D  GRAD.:    32.111 HEAT:  33.00606
 CYCLE:    10 TIME:   0.012 TIME LEFT:  2.00D  GRAD.:    39.209 HEAT:  31.84373
 CYCLE:    11 TIME:   0.012 TIME LEFT:  2.00D  GRAD.:    49.309 HEAT:  30.43682
 CYCLE:    12 TIME:   0.012 TIME LEFT:  2.00D  GRAD.:    40.076 HEAT:  28.22627
 CYCLE:    13 TIME:   0.012 TIME LEFT:  2.00D  GRAD.:    83.456 HEAT:  27.56245
 CYCLE:    14 TIME:   0.012 TIME LEFT:  2.00D  GRAD.:    90.181 HEAT:  26.42474
 CYCLE:    15 TIME:   0.016 TIME LEFT:  2.00D  GRAD.:    80.890 HEAT:  25.63734
 CYCLE:    16 TIME:   0.012 TIME LEFT:  2.00D  GRAD.:    75.607 HEAT:  24.80203
 CYCLE:    17 TIME:   0.020 TIME LEFT:  2.00D  GRAD.:    36.435 HEAT:  23.37012
 CYCLE:    18 TIME:   0.012 TIME LEFT:  2.00D  GRAD.:    47.605 HEAT:  23.27371
 CYCLE:    19 TIME:   0.008 TIME LEFT:  2.00D  GRAD.:    40.703 HEAT:  22.46331
 CYCLE:    20 TIME:   0.020 TIME LEFT:  2.00D  GRAD.:    45.152 HEAT:  22.34871
 CYCLE:    21 TIME:   0.012 TIME LEFT:  2.00D  GRAD.:    25.985 HEAT:  21.61008
 CYCLE:    22 TIME:   0.012 TIME LEFT:  2.00D  GRAD.:    30.878 HEAT:  21.20070
 CYCLE:    23 TIME:   0.012 TIME LEFT:  2.00D  GRAD.:    24.575 HEAT:  20.49405
 CYCLE:    24 TIME:   0.012 TIME LEFT:  2.00D  GRAD.:    29.971 HEAT:  19.67232
 CYCLE:    25 TIME:   0.012 TIME LEFT:  2.00D  GRAD.:    38.492 HEAT:  19.27814
 CYCLE:    26 TIME:   0.012 TIME LEFT:  2.00D  GRAD.:    34.004 HEAT:  19.03815
 CYCLE:    27 TIME:   0.012 TIME LEFT:  2.00D  GRAD.:    24.588 HEAT:  18.67862
 CYCLE:    28 TIME:   0.008 TIME LEFT:  2.00D  GRAD.:    22.494 HEAT:  18.47027
 CYCLE:    29 TIME:   0.012 TIME LEFT:  2.00D  GRAD.:    15.075 HEAT:  18.21643
 CYCLE:    30 TIME:   0.012 TIME LEFT:  2.00D  GRAD.:    20.652 HEAT:  17.99562
 CYCLE:    31 TIME:   0.012 TIME LEFT:  2.00D  GRAD.:    21.735 HEAT:  17.71480
 CYCLE:    32 TIME:   0.008 TIME LEFT:  2.00D  GRAD.:    25.379 HEAT:  17.58354
 CYCLE:    33 TIME:   0.012 TIME LEFT:  2.00D  GRAD.:    16.486 HEAT:  17.34163
 CYCLE:    34 TIME:   0.012 TIME LEFT:  2.00D  GRAD.:    18.167 HEAT:  17.22027
 CYCLE:    35 TIME:   0.012 TIME LEFT:  2.00D  GRAD.:    11.334 HEAT:  17.04929
 CYCLE:    36 TIME:   0.012 TIME LEFT:  2.00D  GRAD.:    15.457 HEAT:  16.93660
 CYCLE:    37 TIME:   0.008 TIME LEFT:  2.00D  GRAD.:    10.114 HEAT:  16.82393
 CYCLE:    38 TIME:   0.012 TIME LEFT:  2.00D  GRAD.:    10.781 HEAT:  16.75578
 CYCLE:    39 TIME:   0.012 TIME LEFT:  2.00D  GRAD.:    11.353 HEAT:  16.67982
 CYCLE:    40 TIME:   0.008 TIME LEFT:  2.00D  GRAD.:    13.126 HEAT:  16.56612
 CYCLE:    41 TIME:   0.012 TIME LEFT:  2.00D  GRAD.:    10.097 HEAT:  16.47371
 CYCLE:    42 TIME:   0.012 TIME LEFT:  2.00D  GRAD.:     9.047 HEAT:  16.39415
 CYCLE:    43 TIME:   0.012 TIME LEFT:  2.00D  GRAD.:    11.249 HEAT:  16.30202
 CYCLE:    44 TIME:   0.008 TIME LEFT:  2.00D  GRAD.:    10.285 HEAT:  16.18085
 CYCLE:    45 TIME:   0.012 TIME LEFT:  2.00D  GRAD.:     8.947 HEAT:  16.07415
 CYCLE:    46 TIME:   0.012 TIME LEFT:  2.00D  GRAD.:     8.244 HEAT:  15.99445
 CYCLE:    47 TIME:   0.012 TIME LEFT:  2.00D  GRAD.:     9.372 HEAT:  15.91296
 CYCLE:    48 TIME:   0.008 TIME LEFT:  2.00D  GRAD.:     5.217 HEAT:  15.85223
 CYCLE:    49 TIME:   0.016 TIME LEFT:  2.00D  GRAD.:     5.448 HEAT:  15.81964
 CYCLE:    50 TIME:   0.008 TIME LEFT:  2.00D  GRAD.:     4.891 HEAT:  15.78304
 CYCLE:    51 TIME:   0.012 TIME LEFT:  2.00D  GRAD.:     4.323 HEAT:  15.75080
 CYCLE:    52 TIME:   0.012 TIME LEFT:  2.00D  GRAD.:     3.922 HEAT:  15.72687
 CYCLE:    53 TIME:   0.012 TIME LEFT:  2.00D  GRAD.:     3.113 HEAT:  15.70495
 CYCLE:    54 TIME:   0.012 TIME LEFT:  2.00D  GRAD.:     3.320 HEAT:  15.68166
 CYCLE:    55 TIME:   0.008 TIME LEFT:  2.00D  GRAD.:     4.076 HEAT:  15.66122
 CYCLE:    56 TIME:   0.012 TIME LEFT:  2.00D  GRAD.:     4.293 HEAT:  15.62958
 CYCLE:    57 TIME:   0.012 TIME LEFT:  2.00D  GRAD.:     4.251 HEAT:  15.59574
 CYCLE:    58 TIME:   0.012 TIME LEFT:  2.00D  GRAD.:     3.505 HEAT:  15.56764
 CYCLE:    59 TIME:   0.012 TIME LEFT:  2.00D  GRAD.:     5.180 HEAT:  15.54529
 CYCLE:    60 TIME:   0.008 TIME LEFT:  2.00D  GRAD.:     2.763 HEAT:  15.52904
 CYCLE:    61 TIME:   0.012 TIME LEFT:  2.00D  GRAD.:     2.076 HEAT:  15.51781
 CYCLE:    62 TIME:   0.012 TIME LEFT:  2.00D  GRAD.:     2.341 HEAT:  15.50774
 CYCLE:    63 TIME:   0.012 TIME LEFT:  2.00D  GRAD.:     2.222 HEAT:  15.50023
 CYCLE:    64 TIME:   0.012 TIME LEFT:  2.00D  GRAD.:     2.204 HEAT:  15.48808
 CYCLE:    65 TIME:   0.012 TIME LEFT:  2.00D  GRAD.:     2.181 HEAT:  15.47758
 CYCLE:    66 TIME:   0.012 TIME LEFT:  2.00D  GRAD.:     2.405 HEAT:  15.46741
 CYCLE:    67 TIME:   0.008 TIME LEFT:  2.00D  GRAD.:     2.607 HEAT:  15.45563
 CYCLE:    68 TIME:   0.012 TIME LEFT:  2.00D  GRAD.:     3.325 HEAT:  15.44189
 CYCLE:    69 TIME:   0.012 TIME LEFT:  2.00D  GRAD.:     2.708 HEAT:  15.42738
 CYCLE:    70 TIME:   0.012 TIME LEFT:  2.00D  GRAD.:     2.541 HEAT:  15.41196
 CYCLE:    71 TIME:   0.012 TIME LEFT:  2.00D  GRAD.:     2.239 HEAT:  15.39969
 CYCLE:    72 TIME:   0.012 TIME LEFT:  2.00D  GRAD.:     2.324 HEAT:  15.38981
 CYCLE:    73 TIME:   0.012 TIME LEFT:  2.00D  GRAD.:     2.555 HEAT:  15.37957
 CYCLE:    74 TIME:   0.012 TIME LEFT:  2.00D  GRAD.:     2.070 HEAT:  15.37051
 CYCLE:    75 TIME:   0.008 TIME LEFT:  2.00D  GRAD.:     1.912 HEAT:  15.36091
 CYCLE:    76 TIME:   0.012 TIME LEFT:  2.00D  GRAD.:     1.924 HEAT:  15.35091
 CYCLE:    77 TIME:   0.012 TIME LEFT:  2.00D  GRAD.:     2.247 HEAT:  15.33955
 CYCLE:    78 TIME:   0.012 TIME LEFT:  2.00D  GRAD.:     1.940 HEAT:  15.32928
 CYCLE:    79 TIME:   0.012 TIME LEFT:  2.00D  GRAD.:     1.863 HEAT:  15.32072
 CYCLE:    80 TIME:   0.008 TIME LEFT:  2.00D  GRAD.:     1.740 HEAT:  15.31372
 CYCLE:    81 TIME:   0.012 TIME LEFT:  2.00D  GRAD.:     2.005 HEAT:  15.30665
 CYCLE:    82 TIME:   0.012 TIME LEFT:  2.00D  GRAD.:     1.840 HEAT:  15.30001
 CYCLE:    83 TIME:   0.012 TIME LEFT:  2.00D  GRAD.:     1.706 HEAT:  15.29367
 CYCLE:    84 TIME:   0.008 TIME LEFT:  2.00D  GRAD.:     1.870 HEAT:  15.28817
 CYCLE:    85 TIME:   0.012 TIME LEFT:  2.00D  GRAD.:     2.003 HEAT:  15.28188
 CYCLE:    86 TIME:   0.012 TIME LEFT:  2.00D  GRAD.:     2.379 HEAT:  15.27291
 CYCLE:    87 TIME:   0.012 TIME LEFT:  2.00D  GRAD.:     2.620 HEAT:  15.26171
 CYCLE:    88 TIME:   0.012 TIME LEFT:  2.00D  GRAD.:     3.213 HEAT:  15.24270
 CYCLE:    89 TIME:   0.012 TIME LEFT:  2.00D  GRAD.:     4.228 HEAT:  15.21363
 CYCLE:    90 TIME:   0.012 TIME LEFT:  2.00D  GRAD.:     5.177 HEAT:  15.17230
 CYCLE:    91 TIME:   0.012 TIME LEFT:  2.00D  GRAD.:     5.938 HEAT:  15.11070
 CYCLE:    92 TIME:   0.012 TIME LEFT:  2.00D  GRAD.:     6.320 HEAT:  15.07964
 CYCLE:    93 TIME:   0.012 TIME LEFT:  2.00D  GRAD.:     4.569 HEAT:  15.02589
 CYCLE:    94 TIME:   0.012 TIME LEFT:  2.00D  GRAD.:     4.175 HEAT:  14.99365
 CYCLE:    95 TIME:   0.008 TIME LEFT:  2.00D  GRAD.:     3.761 HEAT:  14.95805
 CYCLE:    96 TIME:   0.012 TIME LEFT:  2.00D  GRAD.:     3.667 HEAT:  14.94089
 CYCLE:    97 TIME:   0.012 TIME LEFT:  2.00D  GRAD.:     3.922 HEAT:  14.92516
 CYCLE:    98 TIME:   0.012 TIME LEFT:  2.00D  GRAD.:     3.805 HEAT:  14.91211
 CYCLE:    99 TIME:   0.008 TIME LEFT:  2.00D  GRAD.:     2.963 HEAT:  14.89404
 CYCLE:   100 TIME:   0.012 TIME LEFT:  2.00D  GRAD.:     3.202 HEAT:  14.87294
 CYCLE:   101 TIME:   0.012 TIME LEFT:  2.00D  GRAD.:     3.770 HEAT:  14.84807
 CYCLE:   102 TIME:   0.012 TIME LEFT:  2.00D  GRAD.:     4.115 HEAT:  14.81446
 CYCLE:   103 TIME:   0.012 TIME LEFT:  2.00D  GRAD.:     4.172 HEAT:  14.78296
 CYCLE:   104 TIME:   0.012 TIME LEFT:  2.00D  GRAD.:     5.864 HEAT:  14.77481
 CYCLE:   105 TIME:   0.016 TIME LEFT:  2.00D  GRAD.:     3.905 HEAT:  14.73816
 CYCLE:   106 TIME:   0.012 TIME LEFT:  2.00D  GRAD.:     3.281 HEAT:  14.72045
 CYCLE:   107 TIME:   0.012 TIME LEFT:  2.00D  GRAD.:     2.847 HEAT:  14.69867
 CYCLE:   108 TIME:   0.012 TIME LEFT:  2.00D  GRAD.:     2.705 HEAT:  14.69078
 CYCLE:   109 TIME:   0.012 TIME LEFT:  2.00D  GRAD.:     1.928 HEAT:  14.68203
 CYCLE:   110 TIME:   0.008 TIME LEFT:  2.00D  GRAD.:     1.982 HEAT:  14.67388
 CYCLE:   111 TIME:   0.012 TIME LEFT:  2.00D  GRAD.:     2.614 HEAT:  14.66442
 CYCLE:   112 TIME:   0.012 TIME LEFT:  2.00D  GRAD.:     3.034 HEAT:  14.64729
 CYCLE:   113 TIME:   0.012 TIME LEFT:  2.00D  GRAD.:     3.619 HEAT:  14.61440
 CYCLE:   114 TIME:   0.012 TIME LEFT:  2.00D  GRAD.:     3.239 HEAT:  14.59270
 CYCLE:   115 TIME:   0.012 TIME LEFT:  2.00D  GRAD.:     3.411 HEAT:  14.56032
 CYCLE:   116 TIME:   0.012 TIME LEFT:  2.00D  GRAD.:     3.330 HEAT:  14.54599
 CYCLE:   117 TIME:   0.008 TIME LEFT:  2.00D  GRAD.:     3.442 HEAT:  14.52843
 CYCLE:   118 TIME:   0.012 TIME LEFT:  2.00D  GRAD.:     2.567 HEAT:  14.51277
 CYCLE:   119 TIME:   0.012 TIME LEFT:  2.00D  GRAD.:     2.454 HEAT:  14.50371
 CYCLE:   120 TIME:   0.012 TIME LEFT:  2.00D  GRAD.:     2.232 HEAT:  14.49475
 CYCLE:   121 TIME:   0.008 TIME LEFT:  2.00D  GRAD.:     2.364 HEAT:  14.48409
 CYCLE:   122 TIME:   0.012 TIME LEFT:  2.00D  GRAD.:     2.431 HEAT:  14.47054
 CYCLE:   123 TIME:   0.012 TIME LEFT:  2.00D  GRAD.:     2.674 HEAT:  14.45494
 CYCLE:   124 TIME:   0.012 TIME LEFT:  2.00D  GRAD.:     2.433 HEAT:  14.44001
 CYCLE:   125 TIME:   0.012 TIME LEFT:  2.00D  GRAD.:     2.400 HEAT:  14.42785
 CYCLE:   126 TIME:   0.012 TIME LEFT:  2.00D  GRAD.:     2.418 HEAT:  14.41781
 CYCLE:   127 TIME:   0.008 TIME LEFT:  2.00D  GRAD.:     3.464 HEAT:  14.41061
 CYCLE:   128 TIME:   0.012 TIME LEFT:  2.00D  GRAD.:     2.362 HEAT:  14.40217
 CYCLE:   129 TIME:   0.012 TIME LEFT:  2.00D  GRAD.:     1.794 HEAT:  14.39340
 CYCLE:   130 TIME:   0.012 TIME LEFT:  2.00D  GRAD.:     1.760 HEAT:  14.38552
 CYCLE:   131 TIME:   0.012 TIME LEFT:  2.00D  GRAD.:     2.069 HEAT:  14.37896
 CYCLE:   132 TIME:   0.008 TIME LEFT:  2.00D  GRAD.:     2.264 HEAT:  14.36897
 CYCLE:   133 TIME:   0.012 TIME LEFT:  2.00D  GRAD.:     2.802 HEAT:  14.35246
 CYCLE:   134 TIME:   0.012 TIME LEFT:  2.00D  GRAD.:     3.067 HEAT:  14.32823
 CYCLE:   135 TIME:   0.012 TIME LEFT:  2.00D  GRAD.:     4.342 HEAT:  14.30560
 CYCLE:   136 TIME:   0.012 TIME LEFT:  2.00D  GRAD.:     4.372 HEAT:  14.28159
 CYCLE:   137 TIME:   0.012 TIME LEFT:  2.00D  GRAD.:     4.474 HEAT:  14.26217
 CYCLE:   138 TIME:   0.012 TIME LEFT:  2.00D  GRAD.:     3.210 HEAT:  14.24383
 CYCLE:   139 TIME:   0.012 TIME LEFT:  2.00D  GRAD.:     2.538 HEAT:  14.22846
 CYCLE:   140 TIME:   0.012 TIME LEFT:  2.00D  GRAD.:     2.014 HEAT:  14.21774
 CYCLE:   141 TIME:   0.012 TIME LEFT:  2.00D  GRAD.:     2.809 HEAT:  14.20584
 CYCLE:   142 TIME:   0.008 TIME LEFT:  2.00D  GRAD.:     2.382 HEAT:  14.19534
 CYCLE:   143 TIME:   0.016 TIME LEFT:  2.00D  GRAD.:     3.453 HEAT:  14.18694
 CYCLE:   144 TIME:   0.012 TIME LEFT:  2.00D  GRAD.:     5.176 HEAT:  14.17887
 CYCLE:   145 TIME:   0.008 TIME LEFT:  2.00D  GRAD.:     4.037 HEAT:  14.16596
 CYCLE:   146 TIME:   0.012 TIME LEFT:  2.00D  GRAD.:     3.162 HEAT:  14.15773
 CYCLE:   147 TIME:   0.012 TIME LEFT:  2.00D  GRAD.:     2.763 HEAT:  14.14725
 CYCLE:   148 TIME:   0.012 TIME LEFT:  2.00D  GRAD.:     2.711 HEAT:  14.13622
 CYCLE:   149 TIME:   0.012 TIME LEFT:  2.00D  GRAD.:     2.514 HEAT:  14.12604
 CYCLE:   150 TIME:   0.012 TIME LEFT:  2.00D  GRAD.:     3.099 HEAT:  14.11674
 CYCLE:   151 TIME:   0.027 TIME LEFT:  2.00D  GRAD.:     2.275 HEAT:  14.11050
 CYCLE:   152 TIME:   0.012 TIME LEFT:  2.00D  GRAD.:     2.177 HEAT:  14.10515
 CYCLE:   153 TIME:   0.012 TIME LEFT:  2.00D  GRAD.:     1.710 HEAT:  14.09942
 CYCLE:   154 TIME:   0.012 TIME LEFT:  2.00D  GRAD.:     1.753 HEAT:  14.09301
 CYCLE:   155 TIME:   0.012 TIME LEFT:  2.00D  GRAD.:     3.937 HEAT:  14.09116
 CYCLE:   156 TIME:   0.012 TIME LEFT:  2.00D  GRAD.:     3.170 HEAT:  14.08791
 CYCLE:   157 TIME:   0.012 TIME LEFT:  2.00D  GRAD.:     2.809 HEAT:  14.08203
 CYCLE:   158 TIME:   0.012 TIME LEFT:  2.00D  GRAD.:     2.117 HEAT:  14.07675
 CYCLE:   159 TIME:   0.012 TIME LEFT:  2.00D  GRAD.:     1.579 HEAT:  14.06948
 CYCLE:   160 TIME:   0.012 TIME LEFT:  2.00D  GRAD.:     3.286 HEAT:  14.05251
 CYCLE:   161 TIME:   0.012 TIME LEFT:  2.00D  GRAD.:     3.681 HEAT:  14.03605
 CYCLE:   162 TIME:   0.012 TIME LEFT:  2.00D  GRAD.:     4.549 HEAT:  14.01134
 CYCLE:   163 TIME:   0.008 TIME LEFT:  2.00D  GRAD.:     6.518 HEAT:  13.97611
 CYCLE:   164 TIME:   0.012 TIME LEFT:  2.00D  GRAD.:     5.337 HEAT:  13.94384
 CYCLE:   165 TIME:   0.012 TIME LEFT:  2.00D  GRAD.:     4.874 HEAT:  13.91856
 CYCLE:   166 TIME:   0.012 TIME LEFT:  2.00D  GRAD.:     5.958 HEAT:  13.90086
 CYCLE:   167 TIME:   0.012 TIME LEFT:  2.00D  GRAD.:     4.577 HEAT:  13.87691
 CYCLE:   168 TIME:   0.008 TIME LEFT:  2.00D  GRAD.:     3.768 HEAT:  13.85610
 CYCLE:   169 TIME:   0.012 TIME LEFT:  2.00D  GRAD.:     4.313 HEAT:  13.83904
 CYCLE:   170 TIME:   0.012 TIME LEFT:  2.00D  GRAD.:     2.646 HEAT:  13.82772
 CYCLE:   171 TIME:   0.012 TIME LEFT:  2.00D  GRAD.:     2.569 HEAT:  13.81647
 CYCLE:   172 TIME:   0.012 TIME LEFT:  2.00D  GRAD.:     2.331 HEAT:  13.80774
 CYCLE:   173 TIME:   0.012 TIME LEFT:  2.00D  GRAD.:     1.858 HEAT:  13.80167
 CYCLE:   174 TIME:   0.012 TIME LEFT:  2.00D  GRAD.:     1.648 HEAT:  13.79646
 CYCLE:   175 TIME:   0.012 TIME LEFT:  2.00D  GRAD.:     1.904 HEAT:  13.79182
 CYCLE:   176 TIME:   0.012 TIME LEFT:  2.00D  GRAD.:     2.122 HEAT:  13.78866
 CYCLE:   177 TIME:   0.012 TIME LEFT:  2.00D  GRAD.:     1.976 HEAT:  13.78499
 CYCLE:   178 TIME:   0.012 TIME LEFT:  2.00D  GRAD.:     1.935 HEAT:  13.78161
 CYCLE:   179 TIME:   0.012 TIME LEFT:  2.00D  GRAD.:     1.512 HEAT:  13.77845
 CYCLE:   180 TIME:   0.012 TIME LEFT:  2.00D  GRAD.:     1.303 HEAT:  13.77549
 CYCLE:   181 TIME:   0.012 TIME LEFT:  2.00D  GRAD.:     1.819 HEAT:  13.76993
 CYCLE:   182 TIME:   0.012 TIME LEFT:  2.00D  GRAD.:     2.046 HEAT:  13.76469
 CYCLE:   183 TIME:   0.008 TIME LEFT:  2.00D  GRAD.:     1.845 HEAT:  13.75875
 CYCLE:   184 TIME:   0.012 TIME LEFT:  2.00D  GRAD.:     2.216 HEAT:  13.75130
 CYCLE:   185 TIME:   0.012 TIME LEFT:  2.00D  GRAD.:     2.214 HEAT:  13.74261
 CYCLE:   186 TIME:   0.012 TIME LEFT:  2.00D  GRAD.:     3.278 HEAT:  13.73102
 CYCLE:   187 TIME:   0.016 TIME LEFT:  2.00D  GRAD.:     3.431 HEAT:  13.71786
 CYCLE:   188 TIME:   0.008 TIME LEFT:  2.00D  GRAD.:     5.102 HEAT:  13.70321
 CYCLE:   189 TIME:   0.012 TIME LEFT:  2.00D  GRAD.:     3.453 HEAT:  13.68344
 CYCLE:   190 TIME:   0.012 TIME LEFT:  2.00D  GRAD.:     2.735 HEAT:  13.66634
 CYCLE:   191 TIME:   0.012 TIME LEFT:  2.00D  GRAD.:     2.547 HEAT:  13.65706
 CYCLE:   192 TIME:   0.012 TIME LEFT:  2.00D  GRAD.:     1.903 HEAT:  13.65005
 CYCLE:   193 TIME:   0.012 TIME LEFT:  2.00D  GRAD.:     1.771 HEAT:  13.64535
 CYCLE:   194 TIME:   0.012 TIME LEFT:  2.00D  GRAD.:     1.321 HEAT:  13.64210
 CYCLE:   195 TIME:   0.012 TIME LEFT:  2.00D  GRAD.:     1.036 HEAT:  13.63994
 CYCLE:   196 TIME:   0.012 TIME LEFT:  2.00D  GRAD.:     0.958 HEAT:  13.63847
 CYCLE:   197 TIME:   0.012 TIME LEFT:  2.00D  GRAD.:     0.782 HEAT:  13.63749
 CYCLE:   198 TIME:   0.008 TIME LEFT:  2.00D  GRAD.:     0.804 HEAT:  13.63645
 CYCLE:   199 TIME:   0.012 TIME LEFT:  2.00D  GRAD.:     0.900 HEAT:  13.63532
 CYCLE:   200 TIME:   0.012 TIME LEFT:  2.00D  GRAD.:     1.145 HEAT:  13.63387
 CYCLE:   201 TIME:   0.012 TIME LEFT:  2.00D  GRAD.:     1.614 HEAT:  13.63122
 CYCLE:   202 TIME:   0.012 TIME LEFT:  2.00D  GRAD.:     2.320 HEAT:  13.62563
 CYCLE:   203 TIME:   0.016 TIME LEFT:  2.00D  GRAD.:     2.892 HEAT:  13.61580
 CYCLE:   204 TIME:   0.012 TIME LEFT:  2.00D  GRAD.:     4.118 HEAT:  13.59752
 CYCLE:   205 TIME:   0.008 TIME LEFT:  2.00D  GRAD.:     4.480 HEAT:  13.57985
 CYCLE:   206 TIME:   0.012 TIME LEFT:  2.00D  GRAD.:     4.775 HEAT:  13.56060
 CYCLE:   207 TIME:   0.012 TIME LEFT:  2.00D  GRAD.:     3.689 HEAT:  13.53451
 CYCLE:   208 TIME:   0.012 TIME LEFT:  2.00D  GRAD.:     4.320 HEAT:  13.51119
 CYCLE:   209 TIME:   0.012 TIME LEFT:  2.00D  GRAD.:     6.508 HEAT:  13.50558
 CYCLE:   210 TIME:   0.023 TIME LEFT:  2.00D  GRAD.:     7.536 HEAT:  13.49874
 CYCLE:   211 TIME:   0.012 TIME LEFT:  2.00D  GRAD.:     4.388 HEAT:  13.47017
 CYCLE:   212 TIME:   0.012 TIME LEFT:  2.00D  GRAD.:     3.768 HEAT:  13.45382
 CYCLE:   213 TIME:   0.012 TIME LEFT:  2.00D  GRAD.:     5.138 HEAT:  13.44107
 CYCLE:   214 TIME:   0.008 TIME LEFT:  2.00D  GRAD.:     4.263 HEAT:  13.42363
 CYCLE:   215 TIME:   0.016 TIME LEFT:  2.00D  GRAD.:     4.680 HEAT:  13.41035
 CYCLE:   216 TIME:   0.008 TIME LEFT:  2.00D  GRAD.:     4.982 HEAT:  13.40335
 CYCLE:   217 TIME:   0.012 TIME LEFT:  2.00D  GRAD.:     2.697 HEAT:  13.39299
 CYCLE:   218 TIME:   0.012 TIME LEFT:  2.00D  GRAD.:     2.222 HEAT:  13.38748
 CYCLE:   219 TIME:   0.012 TIME LEFT:  2.00D  GRAD.:     2.370 HEAT:  13.38196
 CYCLE:   220 TIME:   0.012 TIME LEFT:  2.00D  GRAD.:     2.869 HEAT:  13.37921
 CYCLE:   221 TIME:   0.012 TIME LEFT:  2.00D  GRAD.:     2.641 HEAT:  13.37667
 CYCLE:   222 TIME:   0.012 TIME LEFT:  2.00D  GRAD.:     2.946 HEAT:  13.37384
 CYCLE:   223 TIME:   0.008 TIME LEFT:  2.00D  GRAD.:     2.052 HEAT:  13.36894
 CYCLE:   224 TIME:   0.012 TIME LEFT:  2.00D  GRAD.:     1.803 HEAT:  13.36511
 CYCLE:   225 TIME:   0.012 TIME LEFT:  2.00D  GRAD.:     2.148 HEAT:  13.35863
 CYCLE:   226 TIME:   0.012 TIME LEFT:  2.00D  GRAD.:     1.818 HEAT:  13.35271
 CYCLE:   227 TIME:   0.012 TIME LEFT:  2.00D  GRAD.:     1.839 HEAT:  13.35010
 CYCLE:   228 TIME:   0.016 TIME LEFT:  2.00D  GRAD.:     1.144 HEAT:  13.34749
 CYCLE:   229 TIME:   0.012 TIME LEFT:  2.00D  GRAD.:     1.050 HEAT:  13.34608
 CYCLE:   230 TIME:   0.008 TIME LEFT:  2.00D  GRAD.:     1.229 HEAT:  13.34556
 CYCLE:   231 TIME:   0.016 TIME LEFT:  2.00D  GRAD.:     1.300 HEAT:  13.34476
 CYCLE:   232 TIME:   0.012 TIME LEFT:  2.00D  GRAD.:     1.131 HEAT:  13.34392
 CYCLE:   233 TIME:   0.008 TIME LEFT:  2.00D  GRAD.:     0.760 HEAT:  13.34301
 CYCLE:   234 TIME:   0.012 TIME LEFT:  2.00D  GRAD.:     0.729 HEAT:  13.34225
 CYCLE:   235 TIME:   0.012 TIME LEFT:  2.00D  GRAD.:     0.499 HEAT:  13.34183
 CYCLE:   236 TIME:   0.012 TIME LEFT:  2.00D  GRAD.:     0.366 HEAT:  13.34156
 CYCLE:   237 TIME:   0.012 TIME LEFT:  2.00D  GRAD.:     0.292 HEAT:  13.34146
 CYCLE:   238 TIME:   0.012 TIME LEFT:  2.00D  GRAD.:     0.289 HEAT:  13.34138
 CYCLE:   239 TIME:   0.012 TIME LEFT:  2.00D  GRAD.:     0.245 HEAT:  13.34134
 CYCLE:   240 TIME:   0.008 TIME LEFT:  2.00D  GRAD.:     0.255 HEAT:  13.34127
 CYCLE:   241 TIME:   0.012 TIME LEFT:  2.00D  GRAD.:     0.302 HEAT:  13.34125
 CYCLE:   242 TIME:   0.012 TIME LEFT:  2.00D  GRAD.:     0.279 HEAT:  13.34118
 CYCLE:   243 TIME:   0.012 TIME LEFT:  2.00D  GRAD.:     0.428 HEAT:  13.34116
 CYCLE:   244 TIME:   0.012 TIME LEFT:  2.00D  GRAD.:     0.252 HEAT:  13.34108
 CYCLE:   245 TIME:   0.012 TIME LEFT:  2.00D  GRAD.:     0.632 HEAT:  13.34133
 CYCLE:   246 TIME:   0.012 TIME LEFT:  2.00D  GRAD.:     0.203 HEAT:  13.34099
 CYCLE:   247 TIME:   0.012 TIME LEFT:  2.00D  GRAD.:     0.240 HEAT:  13.34095
 CYCLE:   248 TIME:   0.008 TIME LEFT:  2.00D  GRAD.:     0.290 HEAT:  13.34089
 CYCLE:   249 TIME:   0.012 TIME LEFT:  2.00D  GRAD.:     0.420 HEAT:  13.34094
 CYCLE:   250 TIME:   0.012 TIME LEFT:  2.00D  GRAD.:     0.263 HEAT:  13.34078
 CYCLE:   251 TIME:   0.012 TIME LEFT:  2.00D  GRAD.:     0.690 HEAT:  13.34217
 CYCLE:   252 TIME:   0.012 TIME LEFT:  2.00D  GRAD.:     0.156 HEAT:  13.34074
 CYCLE:   253 TIME:   0.012 TIME LEFT:  2.00D  GRAD.:     0.155 HEAT:  13.34070
 CYCLE:   254 TIME:   0.012 TIME LEFT:  2.00D  GRAD.:     0.388 HEAT:  13.34110
 CYCLE:   255 TIME:   0.012 TIME LEFT:  2.00D  GRAD.:     0.175 HEAT:  13.34069
 CYCLE:   256 TIME:   0.012 TIME LEFT:  2.00D  GRAD.:     0.110 HEAT:  13.34065
 CYCLE:   257 TIME:   0.012 TIME LEFT:  2.00D  GRAD.:     0.228 HEAT:  13.34093
 CYCLE:   258 TIME:   0.012 TIME LEFT:  2.00D  GRAD.:     0.095 HEAT:  13.34065
 CYCLE:   259 TIME:   0.008 TIME LEFT:  2.00D  GRAD.:     0.110 HEAT:  13.34062
 CYCLE:   260 TIME:   0.012 TIME LEFT:  2.00D  GRAD.:     1.708 HEAT:  13.34799
 CYCLE:   261 TIME:   0.016 TIME LEFT:  2.00D  GRAD.:     0.147 HEAT:  13.34063
 CYCLE:   262 TIME:   0.008 TIME LEFT:  2.00D  GRAD.:     0.104 HEAT:  13.34060
 CYCLE:   263 TIME:   0.012 TIME LEFT:  2.00D  GRAD.:     0.085 HEAT:  13.34062
 CYCLE:   264 TIME:   0.012 TIME LEFT:  2.00D  GRAD.:     0.095 HEAT:  13.34064
 CYCLE:   265 TIME:   0.012 TIME LEFT:  2.00D  GRAD.:     0.101 HEAT:  13.34061
 CYCLE:   266 TIME:   0.020 TIME LEFT:  2.00D  GRAD.:     2.240 HEAT:  13.34351
 CYCLE:   267 TIME:   0.012 TIME LEFT:  2.00D  GRAD.:     0.689 HEAT:  13.34157
 CYCLE:   268 TIME:   0.012 TIME LEFT:  2.00D  GRAD.:     2.825 HEAT:  13.34703
 CYCLE:   269 TIME:   0.008 TIME LEFT:  2.00D  GRAD.:     0.276 HEAT:  13.34057
 CYCLE:   270 TIME:   0.012 TIME LEFT:  2.00D  GRAD.:     0.153 HEAT:  13.34052
 CYCLE:   271 TIME:   0.012 TIME LEFT:  2.00D  GRAD.:     0.113 HEAT:  13.34051
 CYCLE:   272 TIME:   0.012 TIME LEFT:  2.00D  GRAD.:     0.266 HEAT:  13.34051
 CYCLE:   273 TIME:   0.012 TIME LEFT:  2.00D  GRAD.:     0.141 HEAT:  13.34048
 CYCLE:   274 TIME:   0.008 TIME LEFT:  2.00D  GRAD.:     0.149 HEAT:  13.34044
 CYCLE:   275 TIME:   0.012 TIME LEFT:  2.00D  GRAD.:     0.414 HEAT:  13.34041
 CYCLE:   276 TIME:   0.012 TIME LEFT:  2.00D  GRAD.:     0.460 HEAT:  13.34043
 CYCLE:   277 TIME:   0.012 TIME LEFT:  2.00D  GRAD.:     0.189 HEAT:  13.34034
 CYCLE:   278 TIME:   0.012 TIME LEFT:  2.00D  GRAD.:     0.233 HEAT:  13.34026
 CYCLE:   279 TIME:   0.012 TIME LEFT:  2.00D  GRAD.:     1.260 HEAT:  13.34162
 CYCLE:   280 TIME:   0.012 TIME LEFT:  2.00D  GRAD.:     0.327 HEAT:  13.34021
 CYCLE:   281 TIME:   0.012 TIME LEFT:  2.00D  GRAD.:     0.182 HEAT:  13.34017
 CYCLE:   282 TIME:   0.012 TIME LEFT:  2.00D  GRAD.:     0.204 HEAT:  13.34018
 CYCLE:   283 TIME:   0.008 TIME LEFT:  2.00D  GRAD.:     0.123 HEAT:  13.34009
 CYCLE:   284 TIME:   0.012 TIME LEFT:  2.00D  GRAD.:     0.153 HEAT:  13.33999
 CYCLE:   285 TIME:   0.012 TIME LEFT:  2.00D  GRAD.:     0.291 HEAT:  13.33978
 CYCLE:   286 TIME:   0.012 TIME LEFT:  2.00D  GRAD.:     0.340 HEAT:  13.33970
 CYCLE:   287 TIME:   0.012 TIME LEFT:  2.00D  GRAD.:     0.498 HEAT:  13.33940
 CYCLE:   288 TIME:   0.012 TIME LEFT:  2.00D  GRAD.:     0.419 HEAT:  13.33900
 CYCLE:   289 TIME:   0.008 TIME LEFT:  2.00D  GRAD.:     0.272 HEAT:  13.33878
 CYCLE:   290 TIME:   0.012 TIME LEFT:  2.00D  GRAD.:     0.696 HEAT:  13.33923
 CYCLE:   291 TIME:   0.012 TIME LEFT:  2.00D  GRAD.:     0.360 HEAT:  13.33859
 CYCLE:   292 TIME:   0.012 TIME LEFT:  2.00D  GRAD.:     0.262 HEAT:  13.33846
 CYCLE:   293 TIME:   0.012 TIME LEFT:  2.00D  GRAD.:     0.221 HEAT:  13.33827
 CYCLE:   294 TIME:   0.012 TIME LEFT:  2.00D  GRAD.:     0.245 HEAT:  13.33810
 CYCLE:   295 TIME:   0.012 TIME LEFT:  2.00D  GRAD.:     2.431 HEAT:  13.34422
 CYCLE:   296 TIME:   0.012 TIME LEFT:  2.00D  GRAD.:     0.350 HEAT:  13.33801
 CYCLE:   297 TIME:   0.012 TIME LEFT:  2.00D  GRAD.:     0.300 HEAT:  13.33794
 CYCLE:   298 TIME:   0.016 TIME LEFT:  2.00D  GRAD.:     0.663 HEAT:  13.33817
 CYCLE:   299 TIME:   0.008 TIME LEFT:  2.00D  GRAD.:     0.147 HEAT:  13.33778
 CYCLE:   300 TIME:   0.012 TIME LEFT:  2.00D  GRAD.:     0.122 HEAT:  13.33777
 CYCLE:   301 TIME:   0.012 TIME LEFT:  2.00D  GRAD.:     0.160 HEAT:  13.33777
 CYCLE:   302 TIME:   0.008 TIME LEFT:  2.00D  GRAD.:     0.109 HEAT:  13.33775
 CYCLE:   303 TIME:   0.012 TIME LEFT:  2.00D  GRAD.:     0.112 HEAT:  13.33774
 CYCLE:   304 TIME:   0.012 TIME LEFT:  2.00D  GRAD.:     0.193 HEAT:  13.33772
 CYCLE:   305 TIME:   0.012 TIME LEFT:  2.00D  GRAD.:     0.169 HEAT:  13.33769
 CYCLE:   306 TIME:   0.008 TIME LEFT:  2.00D  GRAD.:     0.153 HEAT:  13.33767
 CYCLE:   307 TIME:   0.012 TIME LEFT:  2.00D  GRAD.:     0.116 HEAT:  13.33766
 CYCLE:   308 TIME:   0.012 TIME LEFT:  2.00D  GRAD.:     0.099 HEAT:  13.33765
 CYCLE:   309 TIME:   0.012 TIME LEFT:  2.00D  GRAD.:     0.101 HEAT:  13.33764
 CYCLE:   310 TIME:   0.008 TIME LEFT:  2.00D  GRAD.:     0.133 HEAT:  13.33762
 CYCLE:   311 TIME:   0.012 TIME LEFT:  2.00D  GRAD.:     0.124 HEAT:  13.33761
 CYCLE:   312 TIME:   0.012 TIME LEFT:  2.00D  GRAD.:     0.234 HEAT:  13.33759
 CYCLE:   313 TIME:   0.008 TIME LEFT:  2.00D  GRAD.:     0.160 HEAT:  13.33756
 CYCLE:   314 TIME:   0.012 TIME LEFT:  2.00D  GRAD.:     0.160 HEAT:  13.33753
 CYCLE:   315 TIME:   0.012 TIME LEFT:  2.00D  GRAD.:     0.105 HEAT:  13.33751
 CYCLE:   316 TIME:   0.012 TIME LEFT:  2.00D  GRAD.:     0.116 HEAT:  13.33747
 CYCLE:   317 TIME:   0.008 TIME LEFT:  2.00D  GRAD.:     0.086 HEAT:  13.33744
 CYCLE:   318 TIME:   0.012 TIME LEFT:  2.00D  GRAD.:     0.057 HEAT:  13.33744
 CYCLE:   319 TIME:   0.008 TIME LEFT:  2.00D  GRAD.:     0.107 HEAT:  13.33742
 CYCLE:   320 TIME:   0.012 TIME LEFT:  2.00D  GRAD.:     0.057 HEAT:  13.33742
 CYCLE:   321 TIME:   0.012 TIME LEFT:  2.00D  GRAD.:     0.058 HEAT:  13.33742
 CYCLE:   322 TIME:   0.008 TIME LEFT:  2.00D  GRAD.:     0.047 HEAT:  13.33742

     GRADIENT =  0.04706 IS LESS THAN CUTOFF =  0.05000



 -------------------------------------------------------------------------------
 pm3  precise nosym THREADS=1
 InChI=1S/C12H20/c1-3-5-6-7-8-12-10-9-11(12)4-2/h5,7,11-12H,3-4,8-10H2,1-2H3



     GEOMETRY OPTIMISED USING EIGENVECTOR FOLLOWING (EF).     
     SCF FIELD WAS ACHIEVED                                   


                              PM3 CALCULATION
                                                       MOPAC v23.1.2 MacOS
                                                       Tue Jun  3 16:39:25 2025




          FINAL HEAT OF FORMATION =         13.33742 KCAL/MOL =      55.80375 KJ/MOL


          COSMO AREA              =        241.63 SQUARE ANGSTROMS
          COSMO VOLUME            =        247.36 CUBIC ANGSTROMS

          GRADIENT NORM           =          0.04706          =       0.00832 PER ATOM
          IONIZATION POTENTIAL    =          9.752508 EV
          HOMO LUMO ENERGIES (EV) =         -9.753  1.110
          NO. OF FILLED LEVELS    =         34
          MOLECULAR WEIGHT        =        164.2900         POINT GROUP:  C1  

          MOLECULAR DIMENSIONS (Angstroms)

            Atom       Atom       Distance
            H    29    H    17    10.82719
            H    25    H    20     6.23180
            H    18    H    31     3.74286


          SCF CALCULATIONS        =        333

          WALL-CLOCK TIME         =      3.715 SECONDS
          COMPUTATION TIME        =      2.812 SECONDS




   ATOM   CHEMICAL          X               Y               Z
  NUMBER   SYMBOL      (ANGSTROMS)     (ANGSTROMS)     (ANGSTROMS)

     1       C         -1.96803695  *  -0.07215083  *   1.58095010  *
     2       C         -1.46846303  *   1.11458712  *   0.70255556  *
     3       C         -2.57464341  *   0.93920397  *   2.58276598  *
     4       C         -2.02413569  *   2.10968168  *   1.74910710  *
     5       C         -2.97059158  *  -0.99810638  *   0.92430002  *
     6       C          0.02954995  *   1.19307140  *   0.48718786  *
     7       C          3.92800613  *   0.26454581  *  -1.72222221  *
     8       C         -2.29043292  *  -2.02729024  *   0.04875210  *
     9       C          4.61437438  *  -0.42457904  *  -2.88175942  *
    10       C          2.54808833  *   0.69133599  *  -2.08924964  *
    11       C          0.47502246  *   0.24918534  *  -0.57697310  *
    12       C          1.51446597  *   0.47167100  *  -1.32853273  *
    13       H         -1.13555937  *  -0.66622427  *   2.01655037  *
    14       H         -1.99244824  *   1.17666460  *  -0.27555520  *
    15       H         -3.69990943  *  -0.41259756  *   0.32914067  *
    16       H         -3.56650630  *  -1.50319519  *   1.71027348  *
    17       H         -3.67254728  *   0.90454829  *   2.65903611  *
    18       H         -2.17551724  *   0.86834713  *   3.60522679  *
    19       H         -2.78475647  *   2.80420251  *   1.36332574  *
    20       H         -1.25741453  *   2.71588858  *   2.25617990  *
    21       H          3.91582901  *  -0.40020049  *  -0.83652357  *
    22       H          4.49983566  *   1.16382623  *  -1.41671581  *
    23       H          0.57241915  *   0.95586155  *   1.42518482  *
    24       H          0.30801733  *   2.23487988  *   0.23245338  *
    25       H         -3.02042181  *  -2.61421909  *  -0.52198010  *
    26       H         -1.60527219  *  -1.55147838  *  -0.67382445  *
    27       H         -1.69173264  *  -2.73188853  *   0.64132899  *
    28       H          4.66835799  *   0.22406866  *  -3.76622363  *
    29       H          5.64115314  *  -0.71070438  *  -2.62054945  *
    30       H          4.08417228  *  -1.33827602  *  -3.17984018  *
    31       H          2.42265384  *   1.21621707  *  -3.04479999  *
    32       H         -0.11852984  *  -0.67245056  *  -0.71016823  *

                             CARTESIAN COORDINATES

   1    C       -1.968036949    -0.072150828     1.580950096
   2    C       -1.468463028     1.114587116     0.702555558
   3    C       -2.574643413     0.939203972     2.582765982
   4    C       -2.024135693     2.109681682     1.749107103
   5    C       -2.970591581    -0.998106381     0.924300017
   6    C        0.029549948     1.193071405     0.487187856
   7    C        3.928006134     0.264545807    -1.722222210
   8    C       -2.290432918    -2.027290236     0.048752097
   9    C        4.614374384    -0.424579041    -2.881759424
  10    C        2.548088334     0.691335990    -2.089249645
  11    C        0.475022458     0.249185337    -0.576973097
  12    C        1.514465975     0.471671004    -1.328532731
  13    H       -1.135559365    -0.666224268     2.016550365
  14    H       -1.992448239     1.176664599    -0.275555200
  15    H       -3.699909428    -0.412597558     0.329140671
  16    H       -3.566506305    -1.503195186     1.710273478
  17    H       -3.672547277     0.904548289     2.659036109
  18    H       -2.175517238     0.868347130     3.605226789
  19    H       -2.784756468     2.804202507     1.363325736
  20    H       -1.257414525     2.715888580     2.256179903
  21    H        3.915829008    -0.400200493    -0.836523569
  22    H        4.499835658     1.163826229    -1.416715806
  23    H        0.572419149     0.955861551     1.425184817
  24    H        0.308017331     2.234879883     0.232453379
  25    H       -3.020421809    -2.614219085    -0.521980099
  26    H       -1.605272191    -1.551478379    -0.673824451
  27    H       -1.691732637    -2.731888527     0.641328986
  28    H        4.668357994     0.224068662    -3.766223630
  29    H        5.641153145    -0.710704377    -2.620549451
  30    H        4.084172283    -1.338276020    -3.179840182
  31    H        2.422653840     1.216217071    -3.044799985
  32    H       -0.118529843    -0.672450556    -0.710168231


           Empirical Formula: C12 H20  =    32 atoms



      MOLECULAR POINT GROUP   :   C1  


                  EIGENVALUES  
 -41.74542 -37.08671 -33.95521 -33.01608 -28.67991 -25.41182 -24.97039 -22.40879
 -21.51072 -21.31341 -18.84844 -17.88842 -16.91247 -16.33268 -16.21789 -15.59191
 -15.20723 -14.87606 -14.64600 -14.34457 -14.02558 -13.65419 -13.45068 -13.12817
 -12.65873 -12.61208 -12.37174 -11.98801 -11.92677 -11.52057 -11.41993 -11.10103
  -9.76676  -9.75251   1.11029   1.12981   2.96363   3.27613   3.31950   3.49197
   3.62080   3.68587   3.83833   3.86202   3.86415   3.90862   3.99558   4.04037
   4.13965   4.16955   4.19882   4.28702   4.33113   4.38706   4.49822   4.53182
   4.70158   4.73946   4.78761   4.84275   4.90662   4.97508   5.09682   5.25124
   5.28581   5.50584   5.63136   6.65543


              NET ATOMIC CHARGES AND DIPOLE CONTRIBUTIONS

  ATOM NO.   TYPE          CHARGE      No. of ELECS.   s-Pop       p-Pop       
    1          C          -0.096923        4.0969     1.19523     2.90169
    2          C          -0.095117        4.0951     1.19505     2.90007
    3          C          -0.109148        4.1091     1.17358     2.93556
    4          C          -0.109075        4.1091     1.17356     2.93551
    5          C          -0.088204        4.0882     1.15707     2.93113
    6          C          -0.045464        4.0455     1.14557     2.89989
    7          C          -0.051999        4.0520     1.14360     2.90840
    8          C          -0.118692        4.1187     1.14144     2.97725
    9          C          -0.107079        4.1071     1.13789     2.96919
   10          C          -0.072753        4.0728     1.16248     2.91027
   11          C          -0.083440        4.0834     1.16695     2.91649
   12          C          -0.205002        4.2050     1.21364     2.99136
   13          H           0.076969        0.9230     0.92303
   14          H           0.078668        0.9213     0.92133
   15          H           0.052007        0.9480     0.94799
   16          H           0.050529        0.9495     0.94947
   17          H           0.058446        0.9416     0.94155
   18          H           0.055171        0.9448     0.94483
   19          H           0.055635        0.9444     0.94436
   20          H           0.058354        0.9416     0.94165
   21          H           0.054764        0.9452     0.94524
   22          H           0.052868        0.9471     0.94713
   23          H           0.059728        0.9403     0.94027
   24          H           0.058920        0.9411     0.94108
   25          H           0.039227        0.9608     0.96077
   26          H           0.045731        0.9543     0.95427
   27          H           0.038604        0.9614     0.96140
   28          H           0.037691        0.9623     0.96231
   29          H           0.037407        0.9626     0.96259
   30          H           0.040545        0.9595     0.95946
   31          H           0.108753        0.8912     0.89125
   32          H           0.122877        0.8771     0.87712
 DIPOLE           X         Y         Z       TOTAL
 POINT-CHG.     0.001    -0.036     0.152     0.156
 HYBRID         0.002     0.006    -0.035     0.036
 SUM            0.002    -0.030     0.116     0.120


          ATOMIC ORBITAL ELECTRON POPULATIONS

     Atom    s        px        py        pz   
    1  C   1.19523   0.98644   0.94842   0.96683
    2  C   1.19505   0.95709   0.96263   0.98035
    3  C   1.17358   1.00173   0.96186   0.97197
    4  C   1.17356   1.00411   0.95606   0.97534
    5  C   1.15707   0.97003   0.97195   0.98916
    6  C   1.14557   0.94543   0.98251   0.97196
    7  C   1.14360   0.93324   0.99744   0.97772
    8  C   1.14144   1.00111   0.98255   0.99359
    9  C   1.13789   0.99391   0.99948   0.97580
   10  C   1.16248   0.92325   1.01019   0.97683
   11  C   1.16695   0.95300   0.99815   0.96535
   12  C   1.21364   0.98227   1.01174   0.99735
   13  H   0.92303
   14  H   0.92133
   15  H   0.94799
   16  H   0.94947
   17  H   0.94155
   18  H   0.94483
   19  H   0.94436
   20  H   0.94165
   21  H   0.94524
   22  H   0.94713
   23  H   0.94027
   24  H   0.94108
   25  H   0.96077
   26  H   0.95427
   27  H   0.96140
   28  H   0.96231
   29  H   0.96259
   30  H   0.95946
   31  H   0.89125
   32  H   0.87712
 *******************************************************************************
 **                                                                           **
 **                              MOPAC v23.1.2                                **
 **                                                                           **
 *******************************************************************************
 **          Digital Object Identifier (DOI): 10.5281/zenodo.6511958          **
 **    Visit the DOI location for information on how to cite this program.    **
 *******************************************************************************

                              PM3 CALCULATION RESULTS

 *******************************************************************************
 *  CALCULATION DONE: (MAX THREADS = 1)              Tue Jun  3 16:39:25 2025  *
 *  PM3        - The PM3 Hamiltonian to be used
 *  OLDGEO     - PREVIOUS GEOMETRY TO BE USED
 *  PRECISE    - TIGHTER CRITERIA TO BE USED
 *  NOSYM      - POINT-GROUP SYMMETRY SET TO C1
 *  THREADS=1  - MULTI-THREADING NOT USED
 *  T=         - A TIME OF 172800.0 SECONDS REQUESTED
 *  DUMP=N     - RESTART FILE WRITTEN EVERY 7200.0 SECONDS REQUESTED
 *  THERMO     - THERMODYNAMIC QUANTITIES TO BE CALCULATED
 *******************************************************************************
oldgeo thermo nosym precise THREADS=1  pm3
 InChI=1S/C12H20/c1-3-5-6-7-8-12-10-9-11(12)4-2/h5,7,11-12H,3-4,8-10H2,1-2H3

   ATOM   CHEMICAL          X               Y               Z
  NUMBER   SYMBOL      (ANGSTROMS)     (ANGSTROMS)     (ANGSTROMS)

     1       C         -1.96803695  *  -0.07215083  *   1.58095010  *
     2       C         -1.46846303  *   1.11458712  *   0.70255556  *
     3       C         -2.57464341  *   0.93920397  *   2.58276598  *
     4       C         -2.02413569  *   2.10968168  *   1.74910710  *
     5       C         -2.97059158  *  -0.99810638  *   0.92430002  *
     6       C          0.02954995  *   1.19307140  *   0.48718786  *
     7       C          3.92800613  *   0.26454581  *  -1.72222221  *
     8       C         -2.29043292  *  -2.02729024  *   0.04875210  *
     9       C          4.61437438  *  -0.42457904  *  -2.88175942  *
    10       C          2.54808833  *   0.69133599  *  -2.08924964  *
    11       C          0.47502246  *   0.24918534  *  -0.57697310  *
    12       C          1.51446597  *   0.47167100  *  -1.32853273  *
    13       H         -1.13555937  *  -0.66622427  *   2.01655037  *
    14       H         -1.99244824  *   1.17666460  *  -0.27555520  *
    15       H         -3.69990943  *  -0.41259756  *   0.32914067  *
    16       H         -3.56650630  *  -1.50319519  *   1.71027348  *
    17       H         -3.67254728  *   0.90454829  *   2.65903611  *
    18       H         -2.17551724  *   0.86834713  *   3.60522679  *
    19       H         -2.78475647  *   2.80420251  *   1.36332574  *
    20       H         -1.25741453  *   2.71588858  *   2.25617990  *
    21       H          3.91582901  *  -0.40020049  *  -0.83652357  *
    22       H          4.49983566  *   1.16382623  *  -1.41671581  *
    23       H          0.57241915  *   0.95586155  *   1.42518482  *
    24       H          0.30801733  *   2.23487988  *   0.23245338  *
    25       H         -3.02042181  *  -2.61421909  *  -0.52198010  *
    26       H         -1.60527219  *  -1.55147838  *  -0.67382445  *
    27       H         -1.69173264  *  -2.73188853  *   0.64132899  *
    28       H          4.66835799  *   0.22406866  *  -3.76622363  *
    29       H          5.64115314  *  -0.71070438  *  -2.62054945  *
    30       H          4.08417228  *  -1.33827602  *  -3.17984018  *
    31       H          2.42265384  *   1.21621707  *  -3.04479999  *
    32       H         -0.11852984  *  -0.67245056  *  -0.71016823  *



          CARTESIAN COORDINATES 

    NO.       ATOM           X           Y           Z

     1         C         -1.9680     -0.0722      1.5810
     2         C         -1.4685      1.1146      0.7026
     3         C         -2.5746      0.9392      2.5828
     4         C         -2.0241      2.1097      1.7491
     5         C         -2.9706     -0.9981      0.9243
     6         C          0.0295      1.1931      0.4872
     7         C          3.9280      0.2645     -1.7222
     8         C         -2.2904     -2.0273      0.0488
     9         C          4.6144     -0.4246     -2.8818
    10         C          2.5481      0.6913     -2.0892
    11         C          0.4750      0.2492     -0.5770
    12         C          1.5145      0.4717     -1.3285
    13         H         -1.1356     -0.6662      2.0166
    14         H         -1.9924      1.1767     -0.2756
    15         H         -3.6999     -0.4126      0.3291
    16         H         -3.5665     -1.5032      1.7103
    17         H         -3.6725      0.9045      2.6590
    18         H         -2.1755      0.8683      3.6052
    19         H         -2.7848      2.8042      1.3633
    20         H         -1.2574      2.7159      2.2562
    21         H          3.9158     -0.4002     -0.8365
    22         H          4.4998      1.1638     -1.4167
    23         H          0.5724      0.9559      1.4252
    24         H          0.3080      2.2349      0.2325
    25         H         -3.0204     -2.6142     -0.5220
    26         H         -1.6053     -1.5515     -0.6738
    27         H         -1.6917     -2.7319      0.6413
    28         H          4.6684      0.2241     -3.7662
    29         H          5.6412     -0.7107     -2.6205
    30         H          4.0842     -1.3383     -3.1798
    31         H          2.4227      1.2162     -3.0448
    32         H         -0.1185     -0.6725     -0.7102

  H: (PM3): J. J. P. STEWART, J. COMP. CHEM. 10, 209 (1989).
  C: (PM3): J. J. P. STEWART, J. COMP. CHEM. 10, 209 (1989).

           Empirical Formula: C12 H20  =    32 atoms



      MOLECULAR POINT GROUP   :   C1  


      RHF CALCULATION, NO. OF DOUBLY OCCUPIED LEVELS = 34



          HEAT OF FORMATION =      13.337417 KCALS/MOLE


          CARTESIAN COORDINATE DERIVATIVES

   NUMBER  ATOM         X            Y            Z

     1       C      0.005106     0.001004     0.003088
     2       C     -0.001258     0.000196     0.002929
     3       C      0.004324    -0.000055     0.000041
     4       C     -0.002286     0.002294    -0.007282
     5       C     -0.004254    -0.001487    -0.003610
     6       C      0.001970     0.006764     0.002561
     7       C      0.006859    -0.008783     0.005521
     8       C     -0.006196     0.008511     0.008095
     9       C      0.004444     0.006342     0.002543
    10       C     -0.011421     0.002017    -0.002091
    11       C      0.007932     0.001730     0.002723
    12       C     -0.001055    -0.003967     0.002152
    13       H     -0.000758     0.003808    -0.008450
    14       H     -0.003857     0.002220     0.000641
    15       H     -0.005095    -0.000752     0.005246
    16       H      0.010821    -0.004042    -0.001475
    17       H      0.005072    -0.006254     0.009700
    18       H      0.001373    -0.000849    -0.008074
    19       H     -0.006350    -0.006976     0.008681
    20       H     -0.000047    -0.001112    -0.001130
    21       H      0.005491     0.001604    -0.004626
    22       H     -0.003428    -0.002617     0.001745
    23       H      0.001668    -0.000107    -0.007989
    24       H     -0.007502    -0.002512     0.002473
    25       H     -0.003540     0.001071    -0.007510
    26       H      0.004895     0.000618    -0.002911
    27       H      0.004157    -0.000713     0.001539
    28       H     -0.013595     0.002576     0.000034
    29       H      0.003980     0.004439    -0.006393
    30       H      0.003819     0.000148    -0.000394
    31       H      0.003496    -0.003067     0.001744
    32       H     -0.004767    -0.002049     0.000477



          GRADIENT NORM =   0.04699

          MOLECULAR WEIGHT =  164.29



          ROTATIONAL CONSTANTS IN CM(-1)

          A =    0.06009765   B =    0.01097945   C =    0.00972006



           PRINCIPAL MOMENTS OF INERTIA IN UNITS OF 10**(-40)*GRAM-CM**2

          A =      465.7878   B =     2549.5589   C =     2879.8936


          ORIENTATION OF MOLECULE IN FORCE CALCULATION

    NO.       ATOM         X         Y         Z

     1          C      -1.7986    1.6074   -0.8596
     2          C      -0.2399    1.6074   -0.8596
     3          C      -1.7876    3.1548   -0.8596
     4          C      -0.2502    3.1533   -0.7932
     5          C      -2.4549    0.9748   -2.0690
     6          C       0.4213    0.9273    0.3223
     7          C       2.2090   -2.6510    2.5452
     8          C      -2.5271   -0.5309   -1.9418
     9          C       2.5577   -4.1237    2.5381
    10          C       2.2985   -2.0694    1.1760
    11          C       0.4451   -0.5534    0.1527
    12          C       1.3712   -1.3086    0.6692
    13          H      -2.2296    1.1779    0.0707
    14          H       0.1906    1.2171   -1.8069
    15          H      -1.9075    1.2542   -2.9916
    16          H      -3.4734    1.3944   -2.1898
    17          H      -2.2089    3.6149   -1.7669
    18          H      -2.2898    3.6176    0.0026
    19          H       0.2522    3.6521   -1.6350
    20          H       0.1713    3.5743    0.1329
    21          H       1.1998   -2.5001    2.9756
    22          H       2.9048   -2.0946    3.2049
    23          H      -0.1139    1.1706    1.2631
    24          H       1.4473    1.3269    0.4467
    25          H      -2.8863   -0.9953   -2.8683
    26          H      -1.5380   -0.9633   -1.7123
    27          H      -3.2056   -0.8376   -1.1346
    28          H       3.5673   -4.3008    2.1440
    29          H       2.5218   -4.5439    3.5512
    30          H       1.8601   -4.7011    1.9177
    31          H       3.1964   -2.3022    0.5896
    32          H      -0.3717   -1.0035   -0.4385


    FIRST DERIVATIVES WILL BE USED IN THE CALCULATION OF SECOND DERIVATIVES

          ESTIMATED TIME TO COMPLETE CALCULATION =        4.50 SECONDS

    FOR POINT-GROUP C1   THERE ARE   1 UNIQUE SYMMETRY FUNCTIONS.

 STEP:   1 TIME =     0.04 SECS, INTEGRAL =      0.04 TIME LEFT: 172799.95
 STEP:   2 TIME =     0.04 SECS, INTEGRAL =      0.07 TIME LEFT: 172799.92
 STEP:   3 TIME =     0.04 SECS, INTEGRAL =      0.11 TIME LEFT: 172799.88
 STEP:   4 TIME =     0.03 SECS, INTEGRAL =      0.14 TIME LEFT: 172799.85
 STEP:   5 TIME =     0.04 SECS, INTEGRAL =      0.17 TIME LEFT: 172799.82
 STEP:   6 TIME =     0.04 SECS, INTEGRAL =      0.21 TIME LEFT: 172799.78
 STEP:   7 TIME =     0.04 SECS, INTEGRAL =      0.24 TIME LEFT: 172799.75
 STEP:   8 TIME =     0.04 SECS, INTEGRAL =      0.28 TIME LEFT: 172799.71
 STEP:   9 TIME =     0.04 SECS, INTEGRAL =      0.32 TIME LEFT: 172799.67
 STEP:  10 TIME =     0.04 SECS, INTEGRAL =      0.35 TIME LEFT: 172799.64
 STEP:  11 TIME =     0.04 SECS, INTEGRAL =      0.39 TIME LEFT: 172799.60
 STEP:  12 TIME =     0.04 SECS, INTEGRAL =      0.43 TIME LEFT: 172799.56
 STEP:  13 TIME =     0.04 SECS, INTEGRAL =      0.46 TIME LEFT: 172799.52
 STEP:  14 TIME =     0.04 SECS, INTEGRAL =      0.50 TIME LEFT: 172799.49
 STEP:  15 TIME =     0.04 SECS, INTEGRAL =      0.54 TIME LEFT: 172799.45
 STEP:  16 TIME =     0.04 SECS, INTEGRAL =      0.57 TIME LEFT: 172799.41
 STEP:  17 TIME =     0.04 SECS, INTEGRAL =      0.61 TIME LEFT: 172799.38
 STEP:  18 TIME =     0.04 SECS, INTEGRAL =      0.65 TIME LEFT: 172799.34
 STEP:  19 TIME =     0.04 SECS, INTEGRAL =      0.69 TIME LEFT: 172799.30
 STEP:  20 TIME =     0.04 SECS, INTEGRAL =      0.73 TIME LEFT: 172799.26
 STEP:  21 TIME =     0.04 SECS, INTEGRAL =      0.77 TIME LEFT: 172799.22
 STEP:  22 TIME =     0.04 SECS, INTEGRAL =      0.80 TIME LEFT: 172799.18
 STEP:  23 TIME =     0.04 SECS, INTEGRAL =      0.84 TIME LEFT: 172799.15
 STEP:  24 TIME =     0.04 SECS, INTEGRAL =      0.88 TIME LEFT: 172799.11
 STEP:  25 TIME =     0.04 SECS, INTEGRAL =      0.92 TIME LEFT: 172799.07
 STEP:  26 TIME =     0.04 SECS, INTEGRAL =      0.95 TIME LEFT: 172799.04
 STEP:  27 TIME =     0.04 SECS, INTEGRAL =      0.99 TIME LEFT: 172799.00
 STEP:  28 TIME =     0.04 SECS, INTEGRAL =      1.03 TIME LEFT: 172798.96
 STEP:  29 TIME =     0.04 SECS, INTEGRAL =      1.06 TIME LEFT: 172798.93
 STEP:  30 TIME =     0.04 SECS, INTEGRAL =      1.10 TIME LEFT: 172798.89
 STEP:  31 TIME =     0.04 SECS, INTEGRAL =      1.13 TIME LEFT: 172798.86
 STEP:  32 TIME =     0.04 SECS, INTEGRAL =      1.17 TIME LEFT: 172798.82
 STEP:  33 TIME =     0.04 SECS, INTEGRAL =      1.21 TIME LEFT: 172798.78
 STEP:  34 TIME =     0.04 SECS, INTEGRAL =      1.25 TIME LEFT: 172798.74
 STEP:  35 TIME =     0.04 SECS, INTEGRAL =      1.29 TIME LEFT: 172798.70
 STEP:  36 TIME =     0.04 SECS, INTEGRAL =      1.32 TIME LEFT: 172798.66
 STEP:  37 TIME =     0.04 SECS, INTEGRAL =      1.36 TIME LEFT: 172798.62
 STEP:  38 TIME =     0.04 SECS, INTEGRAL =      1.40 TIME LEFT: 172798.59
 STEP:  39 TIME =     0.04 SECS, INTEGRAL =      1.44 TIME LEFT: 172798.55
 STEP:  40 TIME =     0.04 SECS, INTEGRAL =      1.47 TIME LEFT: 172798.52
 STEP:  41 TIME =     0.04 SECS, INTEGRAL =      1.51 TIME LEFT: 172798.48
 STEP:  42 TIME =     0.04 SECS, INTEGRAL =      1.54 TIME LEFT: 172798.45
 STEP:  43 TIME =     0.04 SECS, INTEGRAL =      1.58 TIME LEFT: 172798.41
 STEP:  44 TIME =     0.04 SECS, INTEGRAL =      1.61 TIME LEFT: 172798.38
 STEP:  45 TIME =     0.04 SECS, INTEGRAL =      1.65 TIME LEFT: 172798.34
 STEP:  46 TIME =     0.04 SECS, INTEGRAL =      1.68 TIME LEFT: 172798.30
 STEP:  47 TIME =     0.04 SECS, INTEGRAL =      1.72 TIME LEFT: 172798.27
 STEP:  48 TIME =     0.04 SECS, INTEGRAL =      1.76 TIME LEFT: 172798.23
 STEP:  49 TIME =     0.04 SECS, INTEGRAL =      1.79 TIME LEFT: 172798.20
 STEP:  50 TIME =     0.04 SECS, INTEGRAL =      1.83 TIME LEFT: 172798.16
 STEP:  51 TIME =     0.03 SECS, INTEGRAL =      1.86 TIME LEFT: 172798.13
 STEP:  52 TIME =     0.04 SECS, INTEGRAL =      1.89 TIME LEFT: 172798.09
 STEP:  53 TIME =     0.04 SECS, INTEGRAL =      1.93 TIME LEFT: 172798.06
 STEP:  54 TIME =     0.04 SECS, INTEGRAL =      1.97 TIME LEFT: 172798.02
 STEP:  55 TIME =     0.04 SECS, INTEGRAL =      2.00 TIME LEFT: 172797.98
 STEP:  56 TIME =     0.04 SECS, INTEGRAL =      2.04 TIME LEFT: 172797.95
 STEP:  57 TIME =     0.04 SECS, INTEGRAL =      2.08 TIME LEFT: 172797.91
 STEP:  58 TIME =     0.04 SECS, INTEGRAL =      2.12 TIME LEFT: 172797.87
 STEP:  59 TIME =     0.04 SECS, INTEGRAL =      2.15 TIME LEFT: 172797.84
 STEP:  60 TIME =     0.04 SECS, INTEGRAL =      2.19 TIME LEFT: 172797.80
 STEP:  61 TIME =     0.04 SECS, INTEGRAL =      2.22 TIME LEFT: 172797.77
 STEP:  62 TIME =     0.04 SECS, INTEGRAL =      2.27 TIME LEFT: 172797.72
 STEP:  63 TIME =     0.04 SECS, INTEGRAL =      2.30 TIME LEFT: 172797.69
 STEP:  64 TIME =     0.04 SECS, INTEGRAL =      2.34 TIME LEFT: 172797.65
 STEP:  65 TIME =     0.04 SECS, INTEGRAL =      2.38 TIME LEFT: 172797.61
 STEP:  66 TIME =     0.04 SECS, INTEGRAL =      2.41 TIME LEFT: 172797.57
 STEP:  67 TIME =     0.04 SECS, INTEGRAL =      2.45 TIME LEFT: 172797.54
 STEP:  68 TIME =     0.04 SECS, INTEGRAL =      2.49 TIME LEFT: 172797.50
 STEP:  69 TIME =     0.04 SECS, INTEGRAL =      2.53 TIME LEFT: 172797.46
 STEP:  70 TIME =     0.04 SECS, INTEGRAL =      2.56 TIME LEFT: 172797.43
 STEP:  71 TIME =     0.04 SECS, INTEGRAL =      2.60 TIME LEFT: 172797.39
 STEP:  72 TIME =     0.04 SECS, INTEGRAL =      2.64 TIME LEFT: 172797.35
 STEP:  73 TIME =     0.04 SECS, INTEGRAL =      2.67 TIME LEFT: 172797.32
 STEP:  74 TIME =     0.04 SECS, INTEGRAL =      2.71 TIME LEFT: 172797.28
 STEP:  75 TIME =     0.04 SECS, INTEGRAL =      2.74 TIME LEFT: 172797.25
 STEP:  76 TIME =     0.04 SECS, INTEGRAL =      2.78 TIME LEFT: 172797.21
 STEP:  77 TIME =     0.04 SECS, INTEGRAL =      2.82 TIME LEFT: 172797.17
 STEP:  78 TIME =     0.04 SECS, INTEGRAL =      2.86 TIME LEFT: 172797.13
 STEP:  79 TIME =     0.04 SECS, INTEGRAL =      2.89 TIME LEFT: 172797.10
 STEP:  80 TIME =     0.04 SECS, INTEGRAL =      2.93 TIME LEFT: 172797.06
 STEP:  81 TIME =     0.04 SECS, INTEGRAL =      2.96 TIME LEFT: 172797.02
 STEP:  82 TIME =     0.04 SECS, INTEGRAL =      3.00 TIME LEFT: 172796.99
 STEP:  83 TIME =     0.04 SECS, INTEGRAL =      3.04 TIME LEFT: 172796.95
 STEP:  84 TIME =     0.04 SECS, INTEGRAL =      3.08 TIME LEFT: 172796.91
 STEP:  85 TIME =     0.04 SECS, INTEGRAL =      3.12 TIME LEFT: 172796.87
 STEP:  86 TIME =     0.04 SECS, INTEGRAL =      3.15 TIME LEFT: 172796.84
 STEP:  87 TIME =     0.04 SECS, INTEGRAL =      3.19 TIME LEFT: 172796.80
 STEP:  88 TIME =     0.04 SECS, INTEGRAL =      3.23 TIME LEFT: 172796.76
 STEP:  89 TIME =     0.04 SECS, INTEGRAL =      3.26 TIME LEFT: 172796.73
 STEP:  90 TIME =     0.04 SECS, INTEGRAL =      3.30 TIME LEFT: 172796.69
 STEP:  91 TIME =     0.04 SECS, INTEGRAL =      3.34 TIME LEFT: 172796.65
 STEP:  92 TIME =     0.04 SECS, INTEGRAL =      3.38 TIME LEFT: 172796.61
 STEP:  93 TIME =     0.04 SECS, INTEGRAL =      3.42 TIME LEFT: 172796.57
 STEP:  94 TIME =     0.04 SECS, INTEGRAL =      3.46 TIME LEFT: 172796.53
 STEP:  95 TIME =     0.04 SECS, INTEGRAL =      3.50 TIME LEFT: 172796.49
 STEP:  96 TIME =     0.04 SECS, INTEGRAL =      3.54 TIME LEFT: 172796.45

(To convert to Hartree/Bohr^2, multiply by (10^(-21) x N x a0^2)/(4.184 x 627.51) =  0.0642)


           FORCE MATRIX IN MILLIDYNES/ANGSTROM


                  C  1       C  2       C  3       C  4       C  5       C  6
 ------------------------------------------------------------------------------
     C    1  14.419494
     C    2   3.135360  14.424022
     C    3   3.489340   1.816560  14.449243
     C    4   1.814551   3.490644   3.770259  14.448145
     C    5   4.308608   0.525195   0.538634   0.041829  14.478655
     C    6   0.521647   4.279381   0.042238   0.536849   0.034841  14.670239
     C    7   0.000299   0.005070   0.000163   0.000896   0.000384   0.084981
     C    8   0.664830   0.022853   0.049289   0.004952   4.451334   0.002878
     C    9   0.000239   0.000732   0.000139   0.000342   0.000302   0.009041
     C   10   0.000568   0.009887   0.000316   0.001947   0.000431   0.072490
     C   11   0.027023   0.695570   0.005087   0.049177   0.003933   4.779322
     C   12   0.001888   0.050965   0.000606   0.009152   0.002039   0.919661
     H   13   4.389364   0.437760   0.428335   0.026099   0.430505   0.030938
     H   14   0.437639   4.402392   0.026109   0.428202   0.032526   0.429425
     H   15   0.450623   0.030030   0.015328   0.001820   4.439926   0.001477
     H   16   0.434443   0.045011   0.023726   0.003597   4.454209   0.005974
     H   17   0.453933   0.029127   4.669097   0.446127   0.028868   0.001787
     H   18   0.442768   0.031417   4.709439   0.444576   0.032679   0.003874
     H   19   0.031408   0.443143   0.444311   4.710376   0.003891   0.032343
     H   20   0.029114   0.453579   0.445941   4.668157   0.001819   0.029266
     H   21   0.000086   0.000219   0.000046   0.000097   0.000107   0.001952
     H   22   0.000137   0.000579   0.000060   0.000127   0.000182   0.011844
     H   23   0.027577   0.455513   0.001819   0.015087   0.001370   4.397602
     H   24   0.044425   0.431204   0.003626   0.022993   0.005768   4.458605
     H   25   0.051683   0.001727   0.008573   0.000703   0.450235   0.000924
     H   26   0.027406   0.005525   0.002108   0.000591   0.464332   0.002766
     H   27   0.020422   0.001658   0.001389   0.000397   0.462843   0.000468
     H   28   0.000042   0.000128   0.000026   0.000052   0.000063   0.000202
     H   29   0.000078   0.000192   0.000050   0.000119   0.000104   0.001344
     H   30   0.000052   0.000156   0.000030   0.000062   0.000075   0.000356
     H   31   0.000339   0.005632   0.000212   0.001193   0.000306   0.070810
     H   32   0.005989   0.040787   0.001263   0.002750   0.005231   0.446734


                  C  7       C  8       C  9       C 10       C 11       C 12
 ------------------------------------------------------------------------------
     C    7  14.606960
     C    8   0.000316  14.308540
     C    9   4.416597   0.000217  14.355212
     C   10   4.808557   0.000796   0.715392  18.315409
     C   11   0.072414   0.026978   0.013560   0.757954  18.254463
     C   12   0.917679   0.003230   0.042875  11.527155  11.512730  24.939322
     H   13   0.000148   0.041118   0.000120   0.000256   0.004444   0.001108
     H   14   0.000441   0.005252   0.000187   0.000550   0.036391   0.002335
     H   15   0.000096   0.438170   0.000087   0.000107   0.001085   0.000179
     H   16   0.000078   0.439419   0.000066   0.000144   0.000975   0.001025
     H   17   0.000037   0.002787   0.000037   0.000072   0.000695   0.000281
     H   18   0.000045   0.005789   0.000035   0.000063   0.000813   0.000390
     H   19   0.000133   0.000805   0.000120   0.000343   0.005824   0.001388
     H   20   0.000069   0.000525   0.000057   0.000175   0.002863   0.001161
     H   21   4.484084   0.000079   0.434732   0.455123   0.004814   0.040891
     H   22   4.425988   0.000135   0.445628   0.409619   0.008487   0.027835
     H   23   0.011992   0.000414   0.000941   0.007931   0.409289   0.025180
     H   24   0.004481   0.000430   0.000317   0.005266   0.446358   0.035234
     H   25   0.000147   4.768959   0.000104   0.000352   0.004325   0.001443
     H   26   0.000327   4.527694   0.000241   0.001798   0.074283   0.005407
     H   27   0.000094   4.724880   0.000076   0.000159   0.002004   0.000598
     H   28   0.464800   0.000045   4.724656   0.027069   0.000605   0.001662
     H   29   0.448159   0.000089   4.750857   0.052229   0.002435   0.007756
     H   30   0.461635   0.000060   4.746993   0.015368   0.000496   0.002804
     H   31   0.444600   0.000323   0.023305   4.727130   0.046933   0.447703
     H   32   0.071648   0.074748   0.009183   0.046674   4.484963   0.446096


                  H 13       H 14       H 15       H 16       H 17       H 18
 ------------------------------------------------------------------------------
     H   13   4.894641
     H   14   0.030057   4.905356
     H   15   0.042452   0.029948   5.055755
     H   16   0.019928   0.002999   0.573397   5.064585
     H   17   0.032225   0.002567   0.009777   0.016524   5.297813
     H   18   0.027185   0.001216   0.001029   0.002145   0.557027   5.330138
     H   19   0.001214   0.027159   0.000671   0.000709   0.023140   0.032444
     H   20   0.002577   0.032225   0.000537   0.000586   0.033850   0.023106
     H   21   0.000073   0.000104   0.000031   0.000030   0.000018   0.000020
     H   22   0.000074   0.000170   0.000050   0.000038   0.000022   0.000023
     H   23   0.029304   0.042584   0.000590   0.000416   0.000569   0.000634
     H   24   0.003029   0.020987   0.000391   0.001292   0.000585   0.000717
     H   25   0.002248   0.000455   0.033396   0.024091   0.000673   0.001114
     H   26   0.003946   0.004354   0.018763   0.048464   0.000477   0.000453
     H   27   0.020519   0.000550   0.047959   0.028816   0.000430   0.000271
     H   28   0.000029   0.000039   0.000018   0.000013   0.000008   0.000010
     H   29   0.000044   0.000065   0.000031   0.000023   0.000012   0.000013
     H   30   0.000029   0.000041   0.000020   0.000020   0.000010   0.000012
     H   31   0.000179   0.000492   0.000058   0.000088   0.000057   0.000049
     H   32   0.002220   0.012746   0.000957   0.001586   0.000458   0.000552


                  H 19       H 20       H 21       H 22       H 23       H 24
 ------------------------------------------------------------------------------
     H   19   5.330755
     H   20   0.556949   5.296978
     H   21   0.000046   0.000031   5.086179
     H   22   0.000072   0.000054   0.565651   5.021747
     H   23   0.001109   0.010077   0.000387   0.001991   4.995235
     H   24   0.002054   0.015364   0.000159   0.000700   0.564652   5.054867
     H   25   0.000128   0.000092   0.000038   0.000075   0.000145   0.000221
     H   26   0.000243   0.000260   0.000090   0.000168   0.000412   0.000325
     H   27   0.000162   0.000084   0.000030   0.000048   0.000284   0.000147
     H   28   0.000022   0.000016   0.048154   0.023489   0.000116   0.000058
     H   29   0.000039   0.000022   0.029914   0.028574   0.000106   0.000043
     H   30   0.000029   0.000023   0.024549   0.049362   0.000144   0.000095
     H   31   0.000194   0.000123   0.038810   0.013755   0.009465   0.003587
     H   32   0.000559   0.000771   0.001252   0.009149   0.011826   0.034519


                  H 25       H 26       H 27       H 28       H 29       H 30
 ------------------------------------------------------------------------------
     H   25   5.493668
     H   26   0.555480   5.443251
     H   27   0.573086   0.575430   5.464547
     H   28   0.000022   0.000044   0.000021   5.469386
     H   29   0.000032   0.000092   0.000029   0.573260   5.487664
     H   30   0.000028   0.000058   0.000022   0.578652   0.574341   5.485338
     H   31   0.000138   0.000309   0.000101   0.019148   0.002249   0.002706
     H   32   0.004030   0.239709   0.002332   0.000264   0.001552   0.000513


                  H 31       H 32
 ------------------------------
     H   31   5.110516
     H   32   0.060263   5.092969


          HEAT OF FORMATION =      13.337417 KCALS/MOLE

          ZERO POINT ENERGY     180.685 KCAL/MOL


           NORMAL COORDINATE ANALYSIS (Total motion = 1 Angstrom)


   Root No.       1         2         3         4         5         6         7         8

                 1 A       2 A       3 A       4 A       5 A       6 A       7 A       8 A   

                  24.2      35.2      63.3      77.5      84.4     117.9     159.0     172.5
  
           1   -0.0025   -0.0004    0.0014   -0.0131   -0.0093   -0.0022   -0.0006   -0.0126
           2    0.0102    0.0034    0.0036    0.0102    0.0061    0.0094    0.0058    0.0062
           3   -0.0120    0.0033   -0.0035    0.0007    0.0100    0.0017   -0.0070    0.0013
           4   -0.0025   -0.0004    0.0014   -0.0131   -0.0094   -0.0024   -0.0006   -0.0117
           5   -0.0063   -0.0006    0.0090   -0.0156   -0.0075    0.0052    0.0078    0.0010
           6    0.0118   -0.0071   -0.0002    0.0039   -0.0053    0.0121   -0.0066    0.0065
           7    0.0139    0.0034   -0.0036    0.0124    0.0037    0.0027   -0.0031   -0.0086
           8    0.0101    0.0033    0.0037    0.0100    0.0060    0.0096    0.0059    0.0062
           9   -0.0261    0.0140   -0.0242   -0.0081    0.0003   -0.0230   -0.0102   -0.0101
          10    0.0127    0.0039   -0.0041    0.0120    0.0051    0.0010   -0.0045   -0.0089
          11   -0.0058   -0.0009    0.0094   -0.0153   -0.0065    0.0049    0.0075    0.0020
          12    0.0009    0.0014   -0.0129   -0.0001   -0.0299    0.0189    0.0180   -0.0098
          13    0.0090   -0.0095    0.0034   -0.0195   -0.0230   -0.0008   -0.0050   -0.0072
          14    0.0052    0.0137   -0.0151    0.0131    0.0078   -0.0101    0.0007    0.0068
          15   -0.0156    0.0029    0.0053    0.0029    0.0167    0.0116   -0.0017   -0.0024
          16   -0.0273    0.0055    0.0019   -0.0247   -0.0050   -0.0086    0.0066   -0.0051
          17   -0.0063   -0.0078    0.0173   -0.0235    0.0054   -0.0060   -0.0057    0.0096
          18    0.0257   -0.0147    0.0048    0.0056    0.0003    0.0087   -0.0186    0.0096
          19    0.0186   -0.0317   -0.0272   -0.0009    0.0064   -0.0098    0.0084   -0.0036
          20   -0.0035   -0.0088   -0.0276    0.0039   -0.0088    0.0086   -0.0079   -0.0160
          21   -0.0042    0.0033   -0.0008    0.0096    0.0041   -0.0151    0.0153   -0.0083
          22   -0.0123   -0.0062   -0.0018   -0.0095    0.0440    0.0297   -0.0003   -0.0036
          23    0.0075    0.0124   -0.0128    0.0122    0.0018   -0.0110    0.0010    0.0065
          24    0.0006   -0.0103    0.0291   -0.0020   -0.0179    0.0170    0.0035   -0.0065
          25    0.0365    0.0521    0.0095   -0.0091    0.0066   -0.0069    0.0094    0.0016
          26    0.0008    0.0110   -0.0190    0.0020   -0.0089    0.0097   -0.0082   -0.0148
          27   -0.0088    0.0279   -0.0259   -0.0069   -0.0099    0.0145   -0.0044    0.0262
          28   -0.0073   -0.0153   -0.0018    0.0304   -0.0080   -0.0014   -0.0079    0.0100
          29   -0.0023   -0.0123    0.0053    0.0228   -0.0010   -0.0105    0.0045   -0.0242
          30   -0.0053    0.0029    0.0149    0.0195    0.0066   -0.0230    0.0200   -0.0118
          31   -0.0280    0.0008    0.0149    0.0176   -0.0095   -0.0040    0.0042    0.0263
          32   -0.0064   -0.0074    0.0178   -0.0199    0.0036   -0.0040   -0.0061    0.0104
          33    0.0260   -0.0194    0.0037   -0.0213    0.0164   -0.0081   -0.0188    0.0069
          34   -0.0183   -0.0082    0.0086    0.0236   -0.0100    0.0022   -0.0125    0.0314
          35   -0.0048   -0.0114    0.0173   -0.0013    0.0036   -0.0071   -0.0063    0.0085
          36    0.0110   -0.0089    0.0140   -0.0043    0.0172   -0.0245    0.0121   -0.0038
          37   -0.0212    0.0046    0.0017   -0.0229   -0.0054   -0.0074    0.0025   -0.0192
          38    0.0238   -0.0023    0.0157    0.0226    0.0123    0.0276    0.0093    0.0112
          39   -0.0144    0.0030    0.0023    0.0018    0.0145    0.0079   -0.0038    0.0002
          40    0.0076   -0.0076    0.0041   -0.0183   -0.0222    0.0003   -0.0017   -0.0130
          41   -0.0167    0.0032    0.0043   -0.0237   -0.0272    0.0109    0.0243   -0.0077
          42    0.0206   -0.0119    0.0028    0.0047   -0.0031    0.0109   -0.0138    0.0093
          43    0.0277   -0.0175    0.0063   -0.0276   -0.0637   -0.0162   -0.0115   -0.0032
          44   -0.0124    0.0230   -0.0319    0.0198    0.0528   -0.0033   -0.0006    0.0107
          45   -0.0099    0.0010    0.0019    0.0001    0.0061    0.0046   -0.0059    0.0010
          46    0.0164   -0.0111    0.0048   -0.0223   -0.0438   -0.0104   -0.0070   -0.0074
          47    0.0168    0.0134   -0.0144    0.0086   -0.0305   -0.0308   -0.0024    0.0050
          48   -0.0371    0.0152   -0.0040    0.0124    0.0598    0.0215    0.0037   -0.0069
          49    0.0350   -0.0031    0.0021    0.0251   -0.0110    0.0309    0.0147   -0.0073
          50    0.0060    0.0108   -0.0103    0.0114    0.0044   -0.0057    0.0017    0.0007
          51   -0.0379    0.0208   -0.0340   -0.0133    0.0063   -0.0440   -0.0207   -0.0137
          52    0.0035    0.0117   -0.0119    0.0155    0.0254   -0.0209   -0.0213   -0.0075
          53    0.0235   -0.0016    0.0142    0.0236    0.0152    0.0271    0.0086    0.0144
          54   -0.0394    0.0215   -0.0347   -0.0137    0.0080   -0.0464   -0.0224   -0.0139
          55    0.0329   -0.0018    0.0008    0.0250   -0.0079    0.0272    0.0120   -0.0076
          56   -0.0168    0.0024    0.0044   -0.0257   -0.0252    0.0087    0.0239   -0.0087
          57    0.0065   -0.0001   -0.0129    0.0015   -0.0488    0.0369    0.0378   -0.0155
          58    0.0008    0.0126   -0.0126    0.0139    0.0279   -0.0249   -0.0244   -0.0078
          59   -0.0040   -0.0068    0.0179   -0.0199    0.0057   -0.0024   -0.0086    0.0114
          60    0.0056    0.0001   -0.0129    0.0012   -0.0458    0.0340    0.0346   -0.0146
          61    0.0226   -0.0558   -0.0438   -0.0091    0.0110   -0.0134    0.0155   -0.0085
          62   -0.0158   -0.0625   -0.0628    0.0026   -0.0116    0.0137   -0.0115   -0.0131
          63    0.0096   -0.0344   -0.0274   -0.0091    0.0157   -0.0250    0.0327   -0.0204
          64    0.0208   -0.0870   -0.0607   -0.0118    0.0135   -0.0162    0.0196   -0.0123
          65    0.0050    0.0354   -0.0262   -0.0101   -0.0132    0.0217   -0.0143   -0.0032
          66   -0.0137    0.0245    0.0333    0.0326    0.0003   -0.0194    0.0090   -0.0095
          67   -0.0453    0.0128   -0.0044   -0.0519    0.0005   -0.0162    0.0164   -0.0174
          68   -0.0051   -0.0094    0.0141   -0.0551    0.0184   -0.0195   -0.0073   -0.0057
          69    0.0151   -0.0101    0.0019   -0.0017   -0.0000    0.0079   -0.0125    0.0065
          70   -0.0290    0.0076   -0.0020   -0.0371   -0.0032   -0.0109    0.0092   -0.0147
          71   -0.0083   -0.0114    0.0258   -0.0010    0.0040   -0.0041   -0.0095    0.0311
          72    0.0457   -0.0203    0.0089    0.0373   -0.0099    0.0210   -0.0267    0.0181
          73   -0.0009   -0.0123   -0.0180   -0.0101    0.0373   -0.0238   -0.0331    0.0544
          74    0.0011    0.0203   -0.0248    0.0129    0.0092   -0.0159   -0.0006    0.0035
          75   -0.0006   -0.0119    0.0414   -0.0021   -0.0190    0.0401    0.0170   -0.0274
          76   -0.0220   -0.0037   -0.0004   -0.0056    0.0685    0.0503    0.0078   -0.0135
          77   -0.0022    0.0120   -0.0143    0.0179    0.0376    0.0027    0.0018    0.0139
          78    0.0242   -0.0216    0.0199   -0.0070   -0.0558   -0.0481   -0.0306    0.0512
          79   -0.0312    0.0004    0.0089   -0.0043    0.0802    0.0867    0.0283   -0.0487
          80    0.0255    0.0040    0.0023    0.0052   -0.0463   -0.0210    0.0023    0.0018
          81   -0.0084   -0.0080    0.0439   -0.0004   -0.0058    0.0613    0.0282   -0.0464
          82    0.0336    0.0775    0.0279   -0.0008    0.0018   -0.0033   -0.0311   -0.0265
          83    0.0131    0.0651    0.0160    0.0030   -0.0062    0.0045   -0.0122   -0.0285
          84   -0.0220    0.0686    0.0054    0.0140   -0.0233    0.0262   -0.1069   -0.0397
          85    0.0548    0.0366   -0.0159   -0.0355    0.0189   -0.0145    0.1147    0.0772
          86    0.0002    0.0166   -0.0457   -0.0149   -0.0156    0.0285    0.0027    0.0283
          87   -0.0084    0.0297   -0.0378   -0.0148   -0.0123    0.0220    0.0039    0.0469
          88    0.0355    0.1090    0.0459    0.0023   -0.0009   -0.0006   -0.0543   -0.0418
          89   -0.0077   -0.0334   -0.0205    0.0164   -0.0048   -0.0033   -0.0157   -0.0442
          90    0.0002    0.0052   -0.0653   -0.0332   -0.0053    0.0195    0.0743    0.1024
          91   -0.0166   -0.0081    0.0075    0.0576   -0.0151   -0.0021   -0.0028    0.0031
          92    0.0014   -0.0124    0.0161    0.0556   -0.0010   -0.0219    0.0232   -0.0481
          93   -0.0209    0.0141    0.0247    0.0483   -0.0044   -0.0191    0.0194   -0.0127
          94   -0.0361    0.0059    0.0276    0.0460   -0.0117   -0.0082    0.0186    0.0277
          95   -0.0069   -0.0026    0.0138   -0.0306    0.0008   -0.0018   -0.0040    0.0010
          96    0.0377   -0.0301   -0.0108   -0.0523    0.0214   -0.0031   -0.0400    0.0113


   Root No.       9        10        11        12        13        14        15        16

                 9 A      10 A      11 A      12 A      13 A      14 A      15 A      16 A   

                 189.9     241.2     304.7     310.2     339.7     400.8     416.1     468.3
  
           1   -0.0082   -0.0066   -0.0086   -0.0207    0.0051    0.0204   -0.0100    0.0039
           2    0.0079    0.0069    0.0056    0.0113    0.0122   -0.0001    0.0072   -0.0187
           3   -0.0048   -0.0080   -0.0221    0.0229   -0.0022   -0.0043    0.0077    0.0020
           4   -0.0073   -0.0074   -0.0088   -0.0216    0.0036    0.0198   -0.0117    0.0046
           5    0.0057    0.0042   -0.0100   -0.0043    0.0141    0.0190   -0.0013   -0.0175
           6   -0.0032   -0.0044   -0.0229    0.0182   -0.0137   -0.0053   -0.0020   -0.0022
           7   -0.0072   -0.0099    0.0047   -0.0110    0.0047   -0.0171    0.0111   -0.0050
           8    0.0080    0.0057    0.0045    0.0117    0.0140   -0.0035    0.0122   -0.0278
           9   -0.0179    0.0177    0.0164   -0.0068    0.0121   -0.0091    0.0076   -0.0092
          10   -0.0090   -0.0079    0.0045   -0.0104    0.0062   -0.0165    0.0114   -0.0059
          11    0.0062    0.0054   -0.0113   -0.0028    0.0150    0.0273   -0.0045   -0.0222
          12    0.0146   -0.0154    0.0194   -0.0127   -0.0017   -0.0148    0.0061    0.0022
          13   -0.0130    0.0154   -0.0085    0.0289    0.0049   -0.0018    0.0090   -0.0042
          14    0.0056    0.0058    0.0029    0.0036   -0.0150    0.0095   -0.0144    0.0222
          15   -0.0011   -0.0191   -0.0207   -0.0005    0.0131    0.0069    0.0059   -0.0085
          16    0.0109   -0.0168   -0.0036    0.0185   -0.0242   -0.0051   -0.0011    0.0062
          17    0.0005   -0.0015   -0.0036   -0.0115   -0.0073   -0.0162    0.0058    0.0072
          18   -0.0152   -0.0009   -0.0222   -0.0102   -0.0111   -0.0035   -0.0093    0.0078
          19    0.0240    0.0160   -0.0121   -0.0062    0.0029    0.0017    0.0078    0.0027
          20   -0.0069   -0.0081    0.0008    0.0054    0.0017   -0.0107   -0.0165   -0.0036
          21    0.0078    0.0028   -0.0040    0.0052    0.0048   -0.0087   -0.0274   -0.0156
          22   -0.0025    0.0076    0.0142    0.0163    0.0183    0.0017   -0.0043    0.0210
          23    0.0051    0.0088    0.0039    0.0061   -0.0177    0.0112   -0.0178    0.0301
          24   -0.0051    0.0154    0.0209    0.0089    0.0181    0.0047   -0.0098    0.0295
          25    0.0020    0.0025   -0.0024   -0.0007    0.0016   -0.0014   -0.0012   -0.0008
          26   -0.0126   -0.0117    0.0033    0.0068    0.0012   -0.0128   -0.0199   -0.0039
          27    0.0099    0.0129   -0.0045   -0.0094   -0.0025    0.0117    0.0228    0.0069
          28   -0.0003   -0.0027    0.0131    0.0044   -0.0141    0.0293    0.0096   -0.0087
          29   -0.0143   -0.0098    0.0013    0.0020   -0.0035    0.0165    0.0304    0.0158
          30    0.0028    0.0004   -0.0027    0.0046    0.0021    0.0019   -0.0074   -0.0053
[...]
 TRANSITION DIPOLE   0.0107         C  7 -- H 21         +39.0% ( 64.8%)     95.2%
 TRAVEL (Ang.)       0.2073         C  7 -- C  9          +1.1% ( 11.1%)      0.2%
 REDUCED MASS        0.5316         C  7 -- C 10          +1.1% ( 11.1%)      0.0%
 EFFECTIVE MASS      1.5402
 FORCE CONSTANT      2.7277

 VIBRATION         75   75A           ATOM PAIR      ENERGY CONTRIBUTION    RADIAL
 FREQUENCY          2952.23         C  5 -- H 15         +43.5% ( 68.3%)     96.8%
 TRANSITION DIPOLE   0.0505         C  5 -- H 16         +40.3% ( 65.7%)     96.2%
 TRAVEL (Ang.)       0.2409         C  1 -- H 13         +11.9% ( 35.8%)    100.0%
 REDUCED MASS        0.3935         C  2 -- H 14          +1.3% ( 11.6%)     99.9%
 EFFECTIVE MASS      1.5264
 FORCE CONSTANT      2.0209

 VIBRATION         76   76A           ATOM PAIR      ENERGY CONTRIBUTION    RADIAL
 FREQUENCY          3000.71         C 11 -- H 32         +81.2% ( 92.0%)    100.0%
 TRANSITION DIPOLE   0.5233         C  8 -- H 26         +12.9% ( 36.7%)     99.4%
 TRAVEL (Ang.)       0.1826         C 11 -- C 12          +1.2% ( 11.4%)     41.4%
 REDUCED MASS        0.6736         C  8 -- H 27          +1.2% ( 11.1%)     74.3%
 EFFECTIVE MASS      1.4950
 FORCE CONSTANT      3.5738

 VIBRATION         77   77A           ATOM PAIR      ENERGY CONTRIBUTION    RADIAL
 FREQUENCY          3023.72         C  6 -- H 24         +59.8% ( 76.3%)     98.7%
 TRANSITION DIPOLE   0.1075         C  6 -- H 23         +37.3% ( 60.2%)     96.0%
 TRAVEL (Ang.)       0.2133         C 11 -- H 32          +1.1% ( 10.5%)     99.9%
 REDUCED MASS        0.4902         C  2 -- C  6          +0.6% (  7.8%)     29.8%
 EFFECTIVE MASS      1.2789
 FORCE CONSTANT      2.6408

 VIBRATION         78   78A           ATOM PAIR      ENERGY CONTRIBUTION    RADIAL
 FREQUENCY          3028.56         C 10 -- H 31         +57.8% ( 76.3%)    100.0%
 TRANSITION DIPOLE   0.2232         C  7 -- H 21         +21.8% ( 46.9%)     98.3%
 TRAVEL (Ang.)       0.2361         C  7 -- H 22         +17.7% ( 42.2%)     97.0%
 REDUCED MASS        0.3995         C  7 -- C 10          +1.2% ( 11.0%)     22.7%
 EFFECTIVE MASS      1.4266
 FORCE CONSTANT      2.1587

 VIBRATION         79   79A           ATOM PAIR      ENERGY CONTRIBUTION    RADIAL
 FREQUENCY          3029.00         C  4 -- H 20         +27.6% ( 54.9%)     97.4%
 TRANSITION DIPOLE   0.0079         C  3 -- H 17         +27.3% ( 54.6%)     97.4%
 TRAVEL (Ang.)       0.2912         C  3 -- H 18         +20.7% ( 47.6%)     95.8%
 REDUCED MASS        0.2625         C  4 -- H 19         +20.6% ( 47.5%)     95.7%
 EFFECTIVE MASS      1.5533
 FORCE CONSTANT      1.4190

 VIBRATION         80   80A           ATOM PAIR      ENERGY CONTRIBUTION    RADIAL
 FREQUENCY          3031.95         C  5 -- H 16         +51.5% ( 70.7%)     98.0%
 TRANSITION DIPOLE   0.0469         C  5 -- H 15         +46.4% ( 67.1%)     97.4%
 TRAVEL (Ang.)       0.2157         C  5 -- C  8          +0.6% (  7.8%)     26.4%
 REDUCED MASS        0.4779         C  1 -- C  5          +0.6% (  7.7%)     29.6%
 EFFECTIVE MASS      1.2754
 FORCE CONSTANT      2.5886

 VIBRATION         81   81A           ATOM PAIR      ENERGY CONTRIBUTION    RADIAL
 FREQUENCY          3033.24         C 10 -- H 31         +41.6% ( 64.3%)    100.0%
 TRANSITION DIPOLE   0.2035         C  7 -- H 21         +36.3% ( 60.1%)     98.9%
 TRAVEL (Ang.)       0.2575         C  7 -- H 22         +19.8% ( 44.4%)     95.3%
 REDUCED MASS        0.3352         C  7 -- C 10          +0.8% (  8.7%)      3.9%
 EFFECTIVE MASS      1.3706
 FORCE CONSTANT      1.8172

 VIBRATION         82   82A           ATOM PAIR      ENERGY CONTRIBUTION    RADIAL
 FREQUENCY          3043.53         C  4 -- H 20         +28.2% ( 55.1%)     97.8%
 TRANSITION DIPOLE   0.0940         C  3 -- H 17         +28.2% ( 55.1%)     97.8%
 TRAVEL (Ang.)       0.2896         C  3 -- H 18         +20.2% ( 46.6%)     95.9%
 REDUCED MASS        0.2642         C  4 -- H 19         +19.9% ( 46.3%)     95.8%
 EFFECTIVE MASS      1.5302
 FORCE CONSTANT      1.4419

 VIBRATION         83   83A           ATOM PAIR      ENERGY CONTRIBUTION    RADIAL
 FREQUENCY          3076.68         C  8 -- H 26         +48.7% ( 71.4%)     98.0%
 TRANSITION DIPOLE   0.1517         C  8 -- H 27         +37.8% ( 62.8%)     96.3%
 TRAVEL (Ang.)       0.2330         C 11 -- H 32         +10.9% ( 33.8%)     99.7%
 REDUCED MASS        0.4036         C  8 -- H 25          +1.2% ( 11.4%)     13.5%
 EFFECTIVE MASS      1.4634
 FORCE CONSTANT      2.2507

 VIBRATION         84   84A           ATOM PAIR      ENERGY CONTRIBUTION    RADIAL
 FREQUENCY          3081.30         C  9 -- H 28         +64.4% ( 82.8%)     98.7%
 TRANSITION DIPOLE   0.0087         C  9 -- H 30         +27.8% ( 54.4%)     91.9%
 TRAVEL (Ang.)       0.2045         C  9 -- H 29          +6.5% ( 26.4%)     63.0%
 REDUCED MASS        0.5231         C  7 -- C  9          +1.0% ( 10.2%)      0.0%
 EFFECTIVE MASS      1.5010
 FORCE CONSTANT      2.9262

 VIBRATION         85   85A           ATOM PAIR      ENERGY CONTRIBUTION    RADIAL
 FREQUENCY          3085.45         C  8 -- H 25         +58.4% ( 78.7%)     98.6%
 TRANSITION DIPOLE   0.0481         C  8 -- H 27         +27.7% ( 54.3%)     91.7%
 TRAVEL (Ang.)       0.2187         C  8 -- H 26         +11.3% ( 34.6%)     74.6%
 REDUCED MASS        0.4569         C 11 -- H 32          +1.2% ( 11.1%)     99.6%
 EFFECTIVE MASS      1.5020
 FORCE CONSTANT      2.5628

 VIBRATION         86   86A           ATOM PAIR      ENERGY CONTRIBUTION    RADIAL
 FREQUENCY          3086.07         C  9 -- H 29         +58.0% ( 78.6%)     98.2%
 TRANSITION DIPOLE   0.0130         C  9 -- H 30         +36.9% ( 62.7%)     94.7%
 TRAVEL (Ang.)       0.2086         C  9 -- H 28          +3.6% ( 19.6%)     43.1%
 REDUCED MASS        0.5023         C  7 -- C  9          +1.0% ( 10.3%)      0.1%
 EFFECTIVE MASS      1.5039
 FORCE CONSTANT      2.8188

 VIBRATION         87   87A           ATOM PAIR      ENERGY CONTRIBUTION    RADIAL
 FREQUENCY          3103.55         C  4 -- H 19         +29.1% ( 53.5%)     98.2%
 TRANSITION DIPOLE   0.0676         C  3 -- H 18         +28.9% ( 53.3%)     98.1%
 TRAVEL (Ang.)       0.2953         C  3 -- H 17         +20.1% ( 44.4%)     95.8%
 REDUCED MASS        0.2491         C  4 -- H 20         +19.9% ( 44.3%)     95.7%
 EFFECTIVE MASS      1.2816
 FORCE CONSTANT      1.4137

 VIBRATION         88   88A           ATOM PAIR      ENERGY CONTRIBUTION    RADIAL
 FREQUENCY          3105.10         C  4 -- H 19         +28.2% ( 52.7%)     98.1%
 TRANSITION DIPOLE   0.0788         C  3 -- H 18         +28.1% ( 52.6%)     98.0%
 TRAVEL (Ang.)       0.2966         C  3 -- H 17         +20.8% ( 45.3%)     96.1%
 REDUCED MASS        0.2468         C  4 -- H 20         +20.6% ( 45.1%)     96.0%
 EFFECTIVE MASS      1.2895
 FORCE CONSTANT      1.4020

 VIBRATION         89   89A           ATOM PAIR      ENERGY CONTRIBUTION    RADIAL
 FREQUENCY          3177.69         C  8 -- H 25         +39.8% ( 60.7%)     98.1%
 TRANSITION DIPOLE   0.0502         C  8 -- H 27         +33.0% ( 55.3%)     97.1%
 TRAVEL (Ang.)       0.2544         C  8 -- H 26         +25.9% ( 49.0%)     96.0%
 REDUCED MASS        0.3280         C 11 -- H 32          +1.0% (  9.6%)     99.1%
 EFFECTIVE MASS      1.1388
 FORCE CONSTANT      1.9512

 VIBRATION         90   90A           ATOM PAIR      ENERGY CONTRIBUTION    RADIAL
 FREQUENCY          3183.11         C  9 -- H 30         +34.6% ( 56.6%)     97.3%
 TRANSITION DIPOLE   0.0260         C  9 -- H 29         +34.4% ( 56.4%)     97.3%
 TRAVEL (Ang.)       0.2542         C  9 -- H 28         +30.7% ( 53.3%)     96.7%
 REDUCED MASS        0.3278         C  7 -- C  9          +0.3% (  5.1%)     99.7%
 EFFECTIVE MASS      1.1361
 FORCE CONSTANT      1.9570

      SYMMETRY NUMBER FOR POINT-GROUP C1  =  1


          SYSTEM IS A GROUND STATE



 InChI=1S/C12H20/c1-3-5-6-7-8-12-10-9-11(12)4-2/h5,7,11-12H,3-4,8-10H2,1-2H3


          MOLECULE IS NOT LINEAR

          THERE ARE 90 GENUINE VIBRATIONS IN THIS SYSTEM
          THIS THERMODYNAMICS CALCULATION IS LIMITED TO
          MOLECULES WHICH HAVE NO INTERNAL ROTATIONS




                    CALCULATED THERMODYNAMIC PROPERTIES
                                          *
   TEMP. (K)   PARTITION FUNCTION   H.O.F.    ENTHALPY  HEAT CAPACITY ENTROPY
                                   KCAL/MOL   CAL/MOLE    CAL/K/MOL  CAL/K/MOL


 298.00  VIB.     0.2056D+06                  6936.6071    45.3424    47.5880
         ROT.     0.2086D+07                   888.2803     2.9808    31.8963
         INT.     0.4289D+12                  7824.8874    48.3232    79.4843
         TRA.     0.2036D+28                  1480.4672     4.9680    41.1956
         TOT.                       13.337    9305.3545    53.2913   120.6799

 200.00  VIB.     0.4064D+04                  3279.3269    29.9166    32.9099
         ROT.     0.1147D+07                   596.1613     2.9808    30.7077
         INT.     0.4661D+10                  3875.4882    32.8974    63.6176
         TRA.     0.1119D+28                   993.6021     4.9680    39.2145
         TOT.                        8.901    4869.0903    37.8654   102.8321

 210.00  VIB.     0.6128D+04                  3585.3885    31.3035    34.4029
         ROT.     0.1234D+07                   625.9693     2.9808    30.8531
         INT.     0.7563D+10                  4211.3579    34.2843    65.2560
         TRA.     0.1204D+28                  1043.2822     4.9680    39.4569
         TOT.                        9.287    5254.6401    39.2523   104.7129

 220.00  VIB.     0.9211D+04                  3905.5547    32.7377    35.8921
         ROT.     0.1323D+07                   655.7774     2.9808    30.9918
         INT.     0.1219D+11                  4561.3321    35.7185    66.8838
         TRA.     0.1291D+28                  1092.9623     4.9680    39.6880
         TOT.                        9.686    5654.2944    40.6865   106.5718

 230.00  VIB.     0.1381D+05                  4240.3014    34.2195    37.3798
         ROT.     0.1415D+07                   685.5855     2.9808    31.1243
         INT.     0.1953D+11                  4925.8868    37.2003    68.5041
         TRA.     0.1380D+28                  1142.6424     4.9680    39.9088
         TOT.                       10.101    6068.5293    42.1683   108.4129

 240.00  VIB.     0.2064D+05                  4590.0989    35.7475    38.8683
         ROT.     0.1508D+07                   715.3935     2.9808    31.2511
         INT.     0.3112D+11                  5305.4924    38.7284    70.1195
         TRA.     0.1471D+28                  1192.3226     4.9680    40.1203
         TOT.                       10.530    6497.8150    43.6964   110.2397

 250.00  VIB.     0.3079D+05                  4955.3982    37.3193    40.3593
         ROT.     0.1603D+07                   745.2016     2.9808    31.3728
         INT.     0.4936D+11                  5700.5998    40.3001    71.7321
         TRA.     0.1564D+28                  1242.0027     4.9680    40.3231
         TOT.                       10.975    6942.6024    45.2681   112.0552

 260.00  VIB.     0.4585D+05                  5336.6195    38.9313    41.8543
         ROT.     0.1700D+07                   775.0097     2.9808    31.4897
         INT.     0.7795D+11                  6111.6291    41.9121    73.3440
         TRA.     0.1659D+28                  1291.6828     4.9680    40.5179
         TOT.                       11.435    7403.3119    46.8801   113.8620

 270.00  VIB.     0.6816D+05                  5734.1436    40.5791    43.3544
         ROT.     0.1799D+07                   804.8177     2.9808    31.6022
         INT.     0.1226D+12                  6538.9613    43.5599    74.9566
         TRA.     0.1756D+28                  1341.3629     4.9680    40.7054
         TOT.                       11.912    7880.3242    48.5280   115.6620

 280.00  VIB.     0.1012D+06                  6148.3060    42.2581    44.8604
         ROT.     0.1900D+07                   834.6258     2.9808    31.7106
         INT.     0.1923D+12                  6982.9318    45.2389    76.5710
         TRA.     0.1854D+28                  1391.0430     4.9680    40.8861
         TOT.                       12.406    8373.9748    50.2069   117.4571

 290.00  VIB.     0.1501D+06                  6579.3928    43.9631    46.3730
         ROT.     0.2003D+07                   864.4339     2.9808    31.8152
         INT.     0.3006D+12                  7443.8266    46.9439    78.1882
         TRA.     0.1954D+28                  1440.7231     4.9680    41.0604
         TOT.                       12.917    8884.5497    51.9120   119.2486

 300.00  VIB.     0.2224D+06                  7027.6384    45.6890    47.8924
         ROT.     0.2107D+07                   894.2419     2.9808    31.9163
         INT.     0.4687D+12                  7921.8803    48.6698    79.8087
         TRA.     0.2056D+28                  1490.4032     4.9680    41.2289
         TOT.                       13.444    9412.2835    53.6379   121.0376

 310.00  VIB.     0.3294D+06                  7493.2258    47.4306    49.4189
         ROT.     0.2213D+07                   924.0500     2.9808    32.0140
         INT.     0.7290D+12                  8417.2758    50.4114    81.4329
         TRA.     0.2160D+28                  1540.0833     4.9680    41.3918
         TOT.                       13.989    9957.3591    55.3795   122.8247

 320.00  VIB.     0.4875D+06                  7976.2869    49.1830    50.9524
         ROT.     0.2321D+07                   953.8580     2.9808    32.1086
         INT.     0.1132D+13                  8930.1450    52.1638    83.0611
         TRA.     0.2265D+28                  1589.7634     4.9680    41.5495
         TOT.                       14.552   10519.9084    57.1318   124.6106

 330.00  VIB.     0.7214D+06                  8476.9047    50.9412    52.4928
         ROT.     0.2431D+07                   983.6661     2.9808    32.2004
         INT.     0.1754D+13                  9460.5708    53.9220    84.6931
         TRA.     0.2372D+28                  1639.4435     4.9680    41.7024
         TOT.                       15.132   11100.0143    58.8900   126.3955

 340.00  VIB.     0.1067D+07                  8995.1157    52.7009    54.0397
         ROT.     0.2542D+07                  1013.4742     2.9808    32.2894
         INT.     0.2713D+13                 10008.5899    55.6817    86.3290
         TRA.     0.2481D+28                  1689.1236     4.9680    41.8507
         TOT.                       15.730   11697.7135    60.6497   128.1797

 350.00  VIB.     0.1579D+07                  9530.9133    54.4579    55.5927
         ROT.     0.2655D+07                  1043.2822     2.9808    32.3758
         INT.     0.4192D+13                 10574.1956    57.4387    87.9684
         TRA.     0.2591D+28                  1738.8037     4.9680    41.9947
         TOT.                       16.345   12312.9993    62.4067   129.9631

 360.00  VIB.     0.2335D+07                 10084.2515    56.2084    57.1514
         ROT.     0.2770D+07                  1073.0903     2.9808    32.4597
         INT.     0.6469D+13                 11157.3418    59.1892    89.6111
         TRA.     0.2703D+28                  1788.4838     4.9680    42.1347
         TOT.                       16.978   12945.8256    64.1572   131.7458

 370.00  VIB.     0.3455D+07                 10655.0480    57.9490    58.7152
         ROT.     0.2886D+07                  1102.8984     2.9808    32.5414
         INT.     0.9971D+13                 11757.9463    60.9298    91.2566
         TRA.     0.2817D+28                  1838.1639     4.9680    42.2708
         TOT.                       17.628   13596.1103    65.8978   133.5274

 380.00  VIB.     0.5111D+07                 11243.1886    59.6767    60.2836
         ROT.     0.3004D+07                  1132.7064     2.9808    32.6209
         INT.     0.1535D+14                 12375.8950    62.6575    92.9044
         TRA.     0.2932D+28                  1887.8440     4.9680    42.4033
         TOT.                       18.296   14263.7391    67.6256   135.3077

 390.00  VIB.     0.7563D+07                 11848.5308    61.3889    61.8559
         ROT.     0.3123D+07                  1162.5145     2.9808    32.6983
         INT.     0.2362D+14                 13011.0453    64.3697    94.5542
         TRA.     0.3048D+28                  1937.5242     4.9680    42.5323
         TOT.                       18.981   14948.5695    69.3377   137.0865

 400.00  VIB.     0.1119D+08                 12470.9073    63.0832    63.4315
         ROT.     0.3244D+07                  1192.3226     2.9808    32.7738
         INT.     0.3632D+14                 13663.2298    66.0640    96.2053
         TRA.     0.3166D+28                  1987.2043     4.9680    42.6581
         TOT.                       19.682   15650.4341    71.0320   138.8634

   *: NOTE: HEATS OF FORMATION ARE RELATIVE TO THE
            ELEMENTS IN THEIR STANDARD STATE AT 298K
              (=  Standard Enthalpy of Formation).

            Hvib:  Zero-point energy is not included.
                   frequencies of less than zero cm-1 are not included.
            Hrot = (3/2)RT
            Htra = (3/2)RT + pV = (5/2)RT

            Heat capacity is Cp, not Cv

          For more information, see: HTTP://OpenMOPAC.net/Manual/thermochemistry.html


           FORCE CONSTANT IN CARTESIAN COORDINATES (Millidynes/A)

    ATOM   CHEMICAL       X               Y               Z
   NUMBER   SYMBOL  FORCE CONSTANT  FORCE CONSTANT  FORCE CONSTANT

      1       C        7.699170        8.212768        8.664126
      2       C        7.702027        8.224837        8.663641
      3       C        8.114303        7.865173        8.590080
      4       C        8.114278        7.865753        8.587738
      5       C        8.299817        8.467251        8.308971
      6       C        8.289478        8.995005        8.092186
      7       C        8.267035        8.294924        8.714075
      8       C        8.124143        8.280718        8.371431
      9       C        8.201673        8.291824        8.368225
     10       C       10.879755        7.165379        8.883114
     11       C       10.255744       11.122171        5.366676
     12       C       13.136215        9.834966        5.433149
     13       H        1.356194        1.333042        3.557599
     14       H        1.359468        1.226127        3.666577
     15       H        1.830845        0.961348        3.600576
     16       H        4.355203        1.302292        0.719895
     17       H        1.324777        1.476405        3.812992
     18       H        1.607217        1.469039        3.555818
     19       H        1.608095        1.597354        3.427242
     20       H        1.325117        1.349618        3.938197
     21       H        4.328457        0.784683        1.299512
     22       H        2.452316        1.741486        2.083311
     23       H        1.749730        0.827596        3.678595
     24       H        4.400634        1.242892        0.704295
     25       H        1.167329        1.489678        4.131248
     26       H        4.488938        1.353156        1.011179
     27       H        2.498693        1.041215        3.232097
     28       H        4.674356        0.822682        1.283266
     29       H        0.676727        1.339941        4.772918
     30       H        2.657642        1.921509        2.202592
     31       H        3.511094        0.642891        1.921501
     32       H        2.937653        1.448268        1.755426

 **********************
 *                    *
 * JOB ENDED NORMALLY *
 *                    *
 **********************



 TOTAL JOB TIME:            11.22 SECONDS

 == MOPAC DONE ==
