 *******************************************************************************
 **                                                                           **
 **                              MOPAC v23.1.2                                **
 **                                                                           **
 *******************************************************************************
 **          Digital Object Identifier (DOI): 10.5281/zenodo.6511958          **
 **    Visit the DOI location for information on how to cite this program.    **
 *******************************************************************************

                              PM3 CALCULATION RESULTS

 *******************************************************************************
 *  CALCULATION DONE: (MAX THREADS = 1)              Tue Jun  3 16:31:57 2025  *
 *  PM3        - The PM3 Hamiltonian to be used
 *  PRECISE    - TIGHTER CRITERIA TO BE USED
 *  NOSYM      - POINT-GROUP SYMMETRY SET TO C1
 *  THREADS=1  - MULTI-THREADING NOT USED
 *  T=         - A TIME OF 172800.0 SECONDS REQUESTED
 *  DUMP=N     - RESTART FILE WRITTEN EVERY 7200.0 SECONDS REQUESTED
 *******************************************************************************
pm3  precise nosym THREADS=1
 InChI=1S/C10H10/c1-3-9-7-5-6-8-10(9)4-2/h3-8H,1-2H2

   ATOM   CHEMICAL          X               Y               Z
  NUMBER   SYMBOL      (ANGSTROMS)     (ANGSTROMS)     (ANGSTROMS)

     1       C          0.71120000  *  -0.02710000  *   0.01280000  *
     2       C         -0.70850000  *  -0.05980000  *  -0.03470000  *
     3       C          1.35920000  *   1.18620000  *   0.32340000  *
     4       C         -1.43160000  *   1.11500000  *   0.25750000  *
     5       C          1.51490000  *  -1.22890000  *  -0.33360000  *
     6       C         -0.76870000  *   2.30180000  *   0.57020000  *
     7       C          0.62270000  *   2.33780000  *   0.60090000  *
     8       C         -1.43450000  *  -1.32720000  *  -0.31160000  *
     9       C          2.70150000  *  -1.49500000  *   0.21280000  *
    10       C         -2.61130000  *  -1.37210000  *  -0.93650000  *
    11       H         -2.51370000  *   1.11350000  *   0.27260000  *
    12       H          2.43910000  *   1.25600000  *   0.32550000  *
    13       H          1.11500000  *  -1.94310000  *  -1.04230000  *
    14       H         -1.33680000  *   3.19550000  *   0.79430000  *
    15       H          1.13360000  *   3.26270000  *   0.83600000  *
    16       H         -0.98250000  *  -2.26710000  *  -0.02040000  *
    17       H          3.14150000  *  -0.85240000  *   0.96360000  *
    18       H          3.23630000  *  -2.39150000  *  -0.07310000  *
    19       H         -3.09960000  *  -0.47760000  *  -1.29930000  *
    20       H         -3.08780000  *  -2.32680000  *  -1.11790000  *



          CARTESIAN COORDINATES 

    NO.       ATOM           X           Y           Z

     1         C          0.7112     -0.0271      0.0128
     2         C         -0.7085     -0.0598     -0.0347
     3         C          1.3592      1.1862      0.3234
     4         C         -1.4316      1.1150      0.2575
     5         C          1.5149     -1.2289     -0.3336
     6         C         -0.7687      2.3018      0.5702
     7         C          0.6227      2.3378      0.6009
     8         C         -1.4345     -1.3272     -0.3116
     9         C          2.7015     -1.4950      0.2128
    10         C         -2.6113     -1.3721     -0.9365
    11         H         -2.5137      1.1135      0.2726
    12         H          2.4391      1.2560      0.3255
    13         H          1.1150     -1.9431     -1.0423
    14         H         -1.3368      3.1955      0.7943
    15         H          1.1336      3.2627      0.8360
    16         H         -0.9825     -2.2671     -0.0204
    17         H          3.1415     -0.8524      0.9636
    18         H          3.2363     -2.3915     -0.0731
    19         H         -3.0996     -0.4776     -1.2993
    20         H         -3.0878     -2.3268     -1.1179

  H: (PM3): J. J. P. STEWART, J. COMP. CHEM. 10, 209 (1989).
  C: (PM3): J. J. P. STEWART, J. COMP. CHEM. 10, 209 (1989).

           Empirical Formula: C10 H10  =    20 atoms



      MOLECULAR POINT GROUP   :   C1  


      RHF CALCULATION, NO. OF DOUBLY OCCUPIED LEVELS = 25


          Geometry optimization using EF

          DIAGONAL MATRIX USED AS START HESSIAN

 CYCLE:     1 TIME:   0.008 TIME LEFT:  2.00D  GRAD.:    68.564 HEAT:  59.92850
 CYCLE:     2 TIME:   0.016 TIME LEFT:  2.00D  GRAD.:    33.523 HEAT:  58.64925
 CYCLE:     3 TIME:   0.012 TIME LEFT:  2.00D  GRAD.:    34.069 HEAT:  58.31717
 CYCLE:     4 TIME:   0.008 TIME LEFT:  2.00D  GRAD.:    28.596 HEAT:  57.89919
 CYCLE:     5 TIME:   0.008 TIME LEFT:  2.00D  GRAD.:    42.279 HEAT:  57.78039
 CYCLE:     6 TIME:   0.008 TIME LEFT:  2.00D  GRAD.:    36.355 HEAT:  57.67688
 CYCLE:     7 TIME:   0.004 TIME LEFT:  2.00D  GRAD.:    40.954 HEAT:  57.57166
 CYCLE:     8 TIME:   0.012 TIME LEFT:  2.00D  GRAD.:    31.474 HEAT:  57.44872
 CYCLE:     9 TIME:   0.008 TIME LEFT:  2.00D  GRAD.:    25.235 HEAT:  57.37600
 CYCLE:    10 TIME:   0.008 TIME LEFT:  2.00D  GRAD.:    20.067 HEAT:  57.32221
 CYCLE:    11 TIME:   0.008 TIME LEFT:  2.00D  GRAD.:    14.413 HEAT:  57.26172
 CYCLE:    12 TIME:   0.008 TIME LEFT:  2.00D  GRAD.:    14.358 HEAT:  57.26044
 CYCLE:    13 TIME:   0.012 TIME LEFT:  2.00D  GRAD.:     6.010 HEAT:  57.22557
 CYCLE:    14 TIME:   0.012 TIME LEFT:  2.00D  GRAD.:     4.504 HEAT:  57.21996
 CYCLE:    15 TIME:   0.004 TIME LEFT:  2.00D  GRAD.:     2.741 HEAT:  57.21455
 CYCLE:    16 TIME:   0.008 TIME LEFT:  2.00D  GRAD.:     4.220 HEAT:  57.21175
 CYCLE:    17 TIME:   0.008 TIME LEFT:  2.00D  GRAD.:     4.027 HEAT:  57.20786
 CYCLE:    18 TIME:   0.008 TIME LEFT:  2.00D  GRAD.:     4.157 HEAT:  57.20512
 CYCLE:    19 TIME:   0.008 TIME LEFT:  2.00D  GRAD.:     2.465 HEAT:  57.19950
 CYCLE:    20 TIME:   0.004 TIME LEFT:  2.00D  GRAD.:     3.675 HEAT:  57.19739
 CYCLE:    21 TIME:   0.008 TIME LEFT:  2.00D  GRAD.:     3.348 HEAT:  57.19230
 CYCLE:    22 TIME:   0.008 TIME LEFT:  2.00D  GRAD.:     2.416 HEAT:  57.18505
 CYCLE:    23 TIME:   0.008 TIME LEFT:  2.00D  GRAD.:     3.263 HEAT:  57.17857
 CYCLE:    24 TIME:   0.008 TIME LEFT:  2.00D  GRAD.:     2.660 HEAT:  57.17170
 CYCLE:    25 TIME:   0.004 TIME LEFT:  2.00D  GRAD.:     3.217 HEAT:  57.16791
 CYCLE:    26 TIME:   0.008 TIME LEFT:  2.00D  GRAD.:     3.220 HEAT:  57.16179
 CYCLE:    27 TIME:   0.008 TIME LEFT:  2.00D  GRAD.:     3.172 HEAT:  57.14753
 CYCLE:    28 TIME:   0.008 TIME LEFT:  2.00D  GRAD.:     2.884 HEAT:  57.13232
 CYCLE:    29 TIME:   0.008 TIME LEFT:  2.00D  GRAD.:     2.582 HEAT:  57.11575
 CYCLE:    30 TIME:   0.008 TIME LEFT:  2.00D  GRAD.:     2.512 HEAT:  57.10491
 CYCLE:    31 TIME:   0.004 TIME LEFT:  2.00D  GRAD.:     2.723 HEAT:  57.09352
 CYCLE:    32 TIME:   0.008 TIME LEFT:  2.00D  GRAD.:     2.130 HEAT:  57.08663
 CYCLE:    33 TIME:   0.008 TIME LEFT:  2.00D  GRAD.:     1.835 HEAT:  57.08164
 CYCLE:    34 TIME:   0.004 TIME LEFT:  2.00D  GRAD.:     1.388 HEAT:  57.07822
 CYCLE:    35 TIME:   0.008 TIME LEFT:  2.00D  GRAD.:     1.513 HEAT:  57.07511
 CYCLE:    36 TIME:   0.008 TIME LEFT:  2.00D  GRAD.:     0.874 HEAT:  57.07359
 CYCLE:    37 TIME:   0.008 TIME LEFT:  2.00D  GRAD.:     0.447 HEAT:  57.07277
 CYCLE:    38 TIME:   0.008 TIME LEFT:  2.00D  GRAD.:     0.423 HEAT:  57.07245
 CYCLE:    39 TIME:   0.004 TIME LEFT:  2.00D  GRAD.:     0.404 HEAT:  57.07217
 CYCLE:    40 TIME:   0.008 TIME LEFT:  2.00D  GRAD.:     0.715 HEAT:  57.07184
 CYCLE:    41 TIME:   0.008 TIME LEFT:  2.00D  GRAD.:     0.409 HEAT:  57.07140
 CYCLE:    42 TIME:   0.008 TIME LEFT:  2.00D  GRAD.:     0.443 HEAT:  57.07098
 CYCLE:    43 TIME:   0.008 TIME LEFT:  2.00D  GRAD.:     0.459 HEAT:  57.07063
 CYCLE:    44 TIME:   0.008 TIME LEFT:  2.00D  GRAD.:     0.287 HEAT:  57.07018
 CYCLE:    45 TIME:   0.004 TIME LEFT:  2.00D  GRAD.:     0.215 HEAT:  57.07010
 CYCLE:    46 TIME:   0.008 TIME LEFT:  2.00D  GRAD.:     0.246 HEAT:  57.06998
 CYCLE:    47 TIME:   0.008 TIME LEFT:  2.00D  GRAD.:     0.201 HEAT:  57.06990
 CYCLE:    48 TIME:   0.004 TIME LEFT:  2.00D  GRAD.:     0.114 HEAT:  57.06986
 CYCLE:    49 TIME:   0.008 TIME LEFT:  2.00D  GRAD.:     0.071 HEAT:  57.06984
 CYCLE:    50 TIME:   0.008 TIME LEFT:  2.00D  GRAD.:     0.069 HEAT:  57.06982
 CYCLE:    51 TIME:   0.004 TIME LEFT:  2.00D  GRAD.:     0.047 HEAT:  57.06982

     GRADIENT =  0.04708 IS LESS THAN CUTOFF =  0.05000



 -------------------------------------------------------------------------------
 pm3  precise nosym THREADS=1
 InChI=1S/C10H10/c1-3-9-7-5-6-8-10(9)4-2/h3-8H,1-2H2



     GEOMETRY OPTIMISED USING EIGENVECTOR FOLLOWING (EF).     
     SCF FIELD WAS ACHIEVED                                   


                              PM3 CALCULATION
                                                       MOPAC v23.1.2 MacOS
                                                       Tue Jun  3 16:31:57 2025




          FINAL HEAT OF FORMATION =         57.06982 KCAL/MOL =     238.78012 KJ/MOL


          COSMO AREA              =        181.71 SQUARE ANGSTROMS
          COSMO VOLUME            =        181.67 CUBIC ANGSTROMS

          GRADIENT NORM           =          0.04708          =       0.01053 PER ATOM
          IONIZATION POTENTIAL    =          9.091965 EV
          HOMO LUMO ENERGIES (EV) =         -9.092 -0.150
          NO. OF FILLED LEVELS    =         25
          MOLECULAR WEIGHT        =        130.1890         POINT GROUP:  C1  

          MOLECULAR DIMENSIONS (Angstroms)

            Atom       Atom       Distance
            H    18    H    14     7.25728
            H    20    H    15     6.98803
            H    17    H    19     1.75838


          SCF CALCULATIONS        =         59

          WALL-CLOCK TIME         =      0.398 SECONDS
          COMPUTATION TIME        =      0.255 SECONDS




   ATOM   CHEMICAL          X               Y               Z
  NUMBER   SYMBOL      (ANGSTROMS)     (ANGSTROMS)     (ANGSTROMS)

     1       C          0.70272985  *  -0.00638017  *  -0.02058035  *
     2       C         -0.70198931  *  -0.05709129  *   0.00763943  *
     3       C          1.35149335  *   1.19822769  *   0.26139144  *
     4       C         -1.42444669  *   1.09714004  *   0.31933910  *
     5       C          1.48402460  *  -1.19543963  *  -0.36585498  *
     6       C         -0.76729725  *   2.28906613  *   0.59919168  *
     7       C          0.62153277  *   2.33977312  *   0.56948469  *
     8       C         -1.40832971  *  -1.31094921  *  -0.26209314  *
     9       C          2.62063851  *  -1.52855124  *   0.23937164  *
    10       C         -2.52470388  *  -1.38358088  *  -0.98146994  *
    11       H         -2.51983186  *   1.05833662  *   0.34488963  *
    12       H          2.44676528  *   1.24098085  *   0.23609941  *
    13       H          1.06837202  *  -1.81824145  *  -1.16858639  *
    14       H         -1.34445660  *   3.18679824  *   0.84304231  *
    15       H          1.14148376  *   3.27804640  *   0.78818244  *
    16       H         -0.95337208  *  -2.21277050  *   0.16762501  *
    17       H          3.06371554  *  -0.94662123  *   1.04332087  *
    18       H          3.18495390  *  -2.41569556  *  -0.03139419  *
    19       H         -3.00391419  *  -0.51800243  *  -1.43137110  *
    20       H         -3.03430837  *  -2.32338009  *  -1.17082643  *

                             CARTESIAN COORDINATES

   1    C        0.702729853    -0.006380174    -0.020580352
   2    C       -0.701989307    -0.057091291     0.007639429
   3    C        1.351493348     1.198227692     0.261391445
   4    C       -1.424446688     1.097140041     0.319339104
   5    C        1.484024596    -1.195439629    -0.365854981
   6    C       -0.767297254     2.289066125     0.599191684
   7    C        0.621532772     2.339773117     0.569484688
   8    C       -1.408329713    -1.310949210    -0.262093137
   9    C        2.620638510    -1.528551239     0.239371642
  10    C       -2.524703884    -1.383580877    -0.981469937
  11    H       -2.519831864     1.058336625     0.344889632
  12    H        2.446765280     1.240980849     0.236099407
  13    H        1.068372018    -1.818241455    -1.168586388
  14    H       -1.344456595     3.186798240     0.843042310
  15    H        1.141483758     3.278046399     0.788182445
  16    H       -0.953372079    -2.212770501     0.167625009
  17    H        3.063715542    -0.946621229     1.043320869
  18    H        3.184953901    -2.415695564    -0.031394186
  19    H       -3.003914192    -0.518002434    -1.431371099
  20    H       -3.034308373    -2.323380093    -1.170826426


           Empirical Formula: C10 H10  =    20 atoms



      MOLECULAR POINT GROUP   :   C1  


                  EIGENVALUES  
 -40.50496 -33.86555 -33.71222 -28.25252 -27.67826 -22.78417 -22.13374 -19.78972
 -19.19053 -17.91068 -16.93731 -15.98185 -15.45039 -15.35389 -14.89576 -14.77190
 -13.28784 -13.21725 -12.59902 -12.48800 -11.95508 -10.93405 -10.90045  -9.51086
  -9.09197  -0.15014   0.23402   1.32312   1.39559   2.91355   3.02128   3.23355
   3.39338   3.50646   3.65038   3.75452   3.84271   3.98667   4.02475   4.09537
   4.76258   4.93499   4.98425   5.05769   5.49539   5.57821   5.64986   5.77685
   6.26880   6.38502


              NET ATOMIC CHARGES AND DIPOLE CONTRIBUTIONS

  ATOM NO.   TYPE          CHARGE      No. of ELECS.   s-Pop       p-Pop       
    1          C          -0.036373        4.0364     1.16649     2.86988
    2          C          -0.036500        4.0365     1.16658     2.86992
    3          C          -0.095579        4.0956     1.17879     2.91679
    4          C          -0.095658        4.0957     1.17880     2.91686
    5          C          -0.095851        4.0959     1.17803     2.91782
    6          C          -0.101747        4.1017     1.17863     2.92312
    7          C          -0.101848        4.1018     1.17864     2.92321
    8          C          -0.095869        4.0959     1.17802     2.91785
    9          C          -0.150636        4.1506     1.18249     2.96815
   10          C          -0.150607        4.1506     1.18249     2.96811
   11          H           0.107943        0.8921     0.89206
   12          H           0.107941        0.8921     0.89206
   13          H           0.104642        0.8954     0.89536
   14          H           0.103070        0.8969     0.89693
   15          H           0.103060        0.8969     0.89694
   16          H           0.104692        0.8953     0.89531
   17          H           0.084578        0.9154     0.91542
   18          H           0.080064        0.9199     0.91994
   19          H           0.084602        0.9154     0.91540
   20          H           0.080076        0.9199     0.91992
 DIPOLE           X         Y         Z       TOTAL
 POINT-CHG.     0.002    -0.097    -0.024     0.100
 HYBRID         0.000    -0.001    -0.000     0.001
 SUM            0.002    -0.098    -0.025     0.101


          ATOMIC ORBITAL ELECTRON POPULATIONS

     Atom    s        px        py        pz   
    1  C   1.16649   0.93044   0.94413   0.99531
    2  C   1.16658   0.93089   0.93981   0.99922
    3  C   1.17879   0.98484   0.93597   0.99597
    4  C   1.17880   0.98422   0.93470   0.99794
    5  C   1.17803   0.96000   0.96360   0.99422
    6  C   1.17863   0.95212   0.97107   0.99993
    7  C   1.17864   0.94984   0.97395   0.99942
    8  C   1.17802   0.96421   0.96141   0.99224
    9  C   1.18249   0.96515   1.00454   0.99846
   10  C   1.18249   0.96643   1.01221   0.98947
   11  H   0.89206
   12  H   0.89206
   13  H   0.89536
   14  H   0.89693
   15  H   0.89694
   16  H   0.89531
   17  H   0.91542
   18  H   0.91994
   19  H   0.91540
   20  H   0.91992
 *******************************************************************************
 **                                                                           **
 **                              MOPAC v23.1.2                                **
 **                                                                           **
 *******************************************************************************
 **          Digital Object Identifier (DOI): 10.5281/zenodo.6511958          **
 **    Visit the DOI location for information on how to cite this program.    **
 *******************************************************************************

                              PM3 CALCULATION RESULTS

 *******************************************************************************
 *  CALCULATION DONE: (MAX THREADS = 1)              Tue Jun  3 16:31:57 2025  *
 *  PM3        - The PM3 Hamiltonian to be used
 *  OLDGEO     - PREVIOUS GEOMETRY TO BE USED
 *  PRECISE    - TIGHTER CRITERIA TO BE USED
 *  NOSYM      - POINT-GROUP SYMMETRY SET TO C1
 *  THREADS=1  - MULTI-THREADING NOT USED
 *  T=         - A TIME OF 172800.0 SECONDS REQUESTED
 *  DUMP=N     - RESTART FILE WRITTEN EVERY 7200.0 SECONDS REQUESTED
 *  THERMO     - THERMODYNAMIC QUANTITIES TO BE CALCULATED
 *******************************************************************************
oldgeo thermo nosym precise THREADS=1  pm3
 InChI=1S/C10H10/c1-3-9-7-5-6-8-10(9)4-2/h3-8H,1-2H2

   ATOM   CHEMICAL          X               Y               Z
  NUMBER   SYMBOL      (ANGSTROMS)     (ANGSTROMS)     (ANGSTROMS)

     1       C          0.70272985  *  -0.00638017  *  -0.02058035  *
     2       C         -0.70198931  *  -0.05709129  *   0.00763943  *
     3       C          1.35149335  *   1.19822769  *   0.26139144  *
     4       C         -1.42444669  *   1.09714004  *   0.31933910  *
     5       C          1.48402460  *  -1.19543963  *  -0.36585498  *
     6       C         -0.76729725  *   2.28906613  *   0.59919168  *
     7       C          0.62153277  *   2.33977312  *   0.56948469  *
     8       C         -1.40832971  *  -1.31094921  *  -0.26209314  *
     9       C          2.62063851  *  -1.52855124  *   0.23937164  *
    10       C         -2.52470388  *  -1.38358088  *  -0.98146994  *
    11       H         -2.51983186  *   1.05833662  *   0.34488963  *
    12       H          2.44676528  *   1.24098085  *   0.23609941  *
    13       H          1.06837202  *  -1.81824145  *  -1.16858639  *
    14       H         -1.34445660  *   3.18679824  *   0.84304231  *
    15       H          1.14148376  *   3.27804640  *   0.78818244  *
    16       H         -0.95337208  *  -2.21277050  *   0.16762501  *
    17       H          3.06371554  *  -0.94662123  *   1.04332087  *
    18       H          3.18495390  *  -2.41569556  *  -0.03139419  *
    19       H         -3.00391419  *  -0.51800243  *  -1.43137110  *
    20       H         -3.03430837  *  -2.32338009  *  -1.17082643  *



          CARTESIAN COORDINATES 

    NO.       ATOM           X           Y           Z

     1         C          0.7027     -0.0064     -0.0206
     2         C         -0.7020     -0.0571      0.0076
     3         C          1.3515      1.1982      0.2614
     4         C         -1.4244      1.0971      0.3193
     5         C          1.4840     -1.1954     -0.3659
     6         C         -0.7673      2.2891      0.5992
     7         C          0.6215      2.3398      0.5695
     8         C         -1.4083     -1.3109     -0.2621
     9         C          2.6206     -1.5286      0.2394
    10         C         -2.5247     -1.3836     -0.9815
    11         H         -2.5198      1.0583      0.3449
    12         H          2.4468      1.2410      0.2361
    13         H          1.0684     -1.8182     -1.1686
    14         H         -1.3445      3.1868      0.8430
    15         H          1.1415      3.2780      0.7882
    16         H         -0.9534     -2.2128      0.1676
    17         H          3.0637     -0.9466      1.0433
    18         H          3.1850     -2.4157     -0.0314
    19         H         -3.0039     -0.5180     -1.4314
    20         H         -3.0343     -2.3234     -1.1708

  H: (PM3): J. J. P. STEWART, J. COMP. CHEM. 10, 209 (1989).
  C: (PM3): J. J. P. STEWART, J. COMP. CHEM. 10, 209 (1989).

           Empirical Formula: C10 H10  =    20 atoms



      MOLECULAR POINT GROUP   :   C1  


      RHF CALCULATION, NO. OF DOUBLY OCCUPIED LEVELS = 25



          HEAT OF FORMATION =      57.069818 KCALS/MOLE


          CARTESIAN COORDINATE DERIVATIVES

   NUMBER  ATOM         X            Y            Z

     1       C     -0.015742     0.004052     0.002587
     2       C      0.000600    -0.001754     0.004369
     3       C      0.001679    -0.019702    -0.002859
     4       C     -0.000699    -0.017204    -0.003338
     5       C      0.002079     0.003053    -0.000181
     6       C     -0.001702     0.006590    -0.002691
     7       C      0.022432     0.002619     0.006221
     8       C     -0.006522    -0.005696    -0.000915
     9       C     -0.015682     0.003929     0.000440
    10       C      0.007569     0.004983     0.005552
    11       H     -0.011143    -0.002388     0.001638
    12       H     -0.001641     0.004788     0.001342
    13       H      0.011405    -0.000735    -0.004635
    14       H     -0.001337    -0.009803    -0.007520
    15       H     -0.002174    -0.001582     0.000668
    16       H      0.009241     0.001394    -0.006636
    17       H     -0.002992     0.012233     0.003777
    18       H      0.011032    -0.000175    -0.002437
    19       H     -0.008010     0.008801     0.006289
    20       H      0.001609     0.006597    -0.001673



          GRADIENT NORM =   0.05659

          MOLECULAR WEIGHT =  130.19



          ROTATIONAL CONSTANTS IN CM(-1)

          A =    0.05291793   B =    0.04833240   C =    0.02590412



           PRINCIPAL MOMENTS OF INERTIA IN UNITS OF 10**(-40)*GRAM-CM**2

          A =      528.9843   B =      579.1716   C =     1080.6292


          ORIENTATION OF MOLECULE IN FORCE CALCULATION

    NO.       ATOM         X         Y         Z

     1          C      -0.7024   -0.1579   -0.0011
     2          C       0.7035   -0.1579   -0.0011
     3          C      -1.3884    1.0590   -0.0011
     4          C       1.3899    1.0587   -0.0034
     5          C      -1.4471   -1.4182    0.0237
     6          C       0.6960    2.2625   -0.0046
     7          C      -0.6941    2.2626   -0.0028
     8          C       1.4490   -1.4179   -0.0232
     9          C      -2.5586   -1.6284   -0.6760
    10          C       2.5526   -1.6295    0.6883
    11          H       2.4863    1.0602   -0.0066
    12          H      -2.4848    1.0613    0.0029
    13          H      -1.0255   -2.2046    0.6631
    14          H       1.2452    3.2096   -0.0074
    15          H      -1.2430    3.2098   -0.0023
    16          H       1.0356   -2.2015   -0.6713
    17          H      -3.0061   -0.8821   -1.3272
    18          H      -3.0959   -2.5713   -0.6442
    19          H       2.9912   -0.8852    1.3478
    20          H       3.0919   -2.5714    0.6587


    FIRST DERIVATIVES WILL BE USED IN THE CALCULATION OF SECOND DERIVATIVES

          ESTIMATED TIME TO COMPLETE CALCULATION =        1.88 SECONDS

    FOR POINT-GROUP C1   THERE ARE   1 UNIQUE SYMMETRY FUNCTIONS.

 STEP:   1 TIME =     0.02 SECS, INTEGRAL =      0.02 TIME LEFT: 172799.97
 STEP:   2 TIME =     0.02 SECS, INTEGRAL =      0.05 TIME LEFT: 172799.95
 STEP:   3 TIME =     0.02 SECS, INTEGRAL =      0.07 TIME LEFT: 172799.92
 STEP:   4 TIME =     0.02 SECS, INTEGRAL =      0.09 TIME LEFT: 172799.90
 STEP:   5 TIME =     0.02 SECS, INTEGRAL =      0.11 TIME LEFT: 172799.88
 STEP:   6 TIME =     0.02 SECS, INTEGRAL =      0.13 TIME LEFT: 172799.86
 STEP:   7 TIME =     0.02 SECS, INTEGRAL =      0.15 TIME LEFT: 172799.84
 STEP:   8 TIME =     0.03 SECS, INTEGRAL =      0.18 TIME LEFT: 172799.81
 STEP:   9 TIME =     0.02 SECS, INTEGRAL =      0.20 TIME LEFT: 172799.79
 STEP:  10 TIME =     0.02 SECS, INTEGRAL =      0.22 TIME LEFT: 172799.77
 STEP:  11 TIME =     0.02 SECS, INTEGRAL =      0.25 TIME LEFT: 172799.75
 STEP:  12 TIME =     0.02 SECS, INTEGRAL =      0.27 TIME LEFT: 172799.72
 STEP:  13 TIME =     0.02 SECS, INTEGRAL =      0.29 TIME LEFT: 172799.70
 STEP:  14 TIME =     0.02 SECS, INTEGRAL =      0.31 TIME LEFT: 172799.68
 STEP:  15 TIME =     0.02 SECS, INTEGRAL =      0.33 TIME LEFT: 172799.66
 STEP:  16 TIME =     0.02 SECS, INTEGRAL =      0.36 TIME LEFT: 172799.64
 STEP:  17 TIME =     0.02 SECS, INTEGRAL =      0.38 TIME LEFT: 172799.61
 STEP:  18 TIME =     0.02 SECS, INTEGRAL =      0.40 TIME LEFT: 172799.59
 STEP:  19 TIME =     0.03 SECS, INTEGRAL =      0.43 TIME LEFT: 172799.56
 STEP:  20 TIME =     0.02 SECS, INTEGRAL =      0.45 TIME LEFT: 172799.54
 STEP:  21 TIME =     0.02 SECS, INTEGRAL =      0.48 TIME LEFT: 172799.52
 STEP:  22 TIME =     0.02 SECS, INTEGRAL =      0.50 TIME LEFT: 172799.50
 STEP:  23 TIME =     0.02 SECS, INTEGRAL =      0.52 TIME LEFT: 172799.48
 STEP:  24 TIME =     0.02 SECS, INTEGRAL =      0.54 TIME LEFT: 172799.46
 STEP:  25 TIME =     0.02 SECS, INTEGRAL =      0.55 TIME LEFT: 172799.44
 STEP:  26 TIME =     0.02 SECS, INTEGRAL =      0.57 TIME LEFT: 172799.42
 STEP:  27 TIME =     0.02 SECS, INTEGRAL =      0.59 TIME LEFT: 172799.40
 STEP:  28 TIME =     0.02 SECS, INTEGRAL =      0.62 TIME LEFT: 172799.38
 STEP:  29 TIME =     0.02 SECS, INTEGRAL =      0.64 TIME LEFT: 172799.36
 STEP:  30 TIME =     0.02 SECS, INTEGRAL =      0.66 TIME LEFT: 172799.34
 STEP:  31 TIME =     0.02 SECS, INTEGRAL =      0.67 TIME LEFT: 172799.32
 STEP:  32 TIME =     0.02 SECS, INTEGRAL =      0.69 TIME LEFT: 172799.30
 STEP:  33 TIME =     0.02 SECS, INTEGRAL =      0.71 TIME LEFT: 172799.28
 STEP:  34 TIME =     0.02 SECS, INTEGRAL =      0.73 TIME LEFT: 172799.26
 STEP:  35 TIME =     0.02 SECS, INTEGRAL =      0.75 TIME LEFT: 172799.24
 STEP:  36 TIME =     0.02 SECS, INTEGRAL =      0.78 TIME LEFT: 172799.21
 STEP:  37 TIME =     0.02 SECS, INTEGRAL =      0.80 TIME LEFT: 172799.19
 STEP:  38 TIME =     0.02 SECS, INTEGRAL =      0.82 TIME LEFT: 172799.17
 STEP:  39 TIME =     0.02 SECS, INTEGRAL =      0.84 TIME LEFT: 172799.15
 STEP:  40 TIME =     0.02 SECS, INTEGRAL =      0.86 TIME LEFT: 172799.13
 STEP:  41 TIME =     0.02 SECS, INTEGRAL =      0.88 TIME LEFT: 172799.11
 STEP:  42 TIME =     0.02 SECS, INTEGRAL =      0.91 TIME LEFT: 172799.09
 STEP:  43 TIME =     0.02 SECS, INTEGRAL =      0.93 TIME LEFT: 172799.07
 STEP:  44 TIME =     0.02 SECS, INTEGRAL =      0.94 TIME LEFT: 172799.05
 STEP:  45 TIME =     0.02 SECS, INTEGRAL =      0.96 TIME LEFT: 172799.03
 STEP:  46 TIME =     0.02 SECS, INTEGRAL =      0.98 TIME LEFT: 172799.01
 STEP:  47 TIME =     0.02 SECS, INTEGRAL =      1.00 TIME LEFT: 172798.99
 STEP:  48 TIME =     0.02 SECS, INTEGRAL =      1.02 TIME LEFT: 172798.97
 STEP:  49 TIME =     0.02 SECS, INTEGRAL =      1.04 TIME LEFT: 172798.95
 STEP:  50 TIME =     0.02 SECS, INTEGRAL =      1.06 TIME LEFT: 172798.93
 STEP:  51 TIME =     0.02 SECS, INTEGRAL =      1.08 TIME LEFT: 172798.91
 STEP:  52 TIME =     0.02 SECS, INTEGRAL =      1.10 TIME LEFT: 172798.89
 STEP:  53 TIME =     0.02 SECS, INTEGRAL =      1.12 TIME LEFT: 172798.87
 STEP:  54 TIME =     0.02 SECS, INTEGRAL =      1.15 TIME LEFT: 172798.84
 STEP:  55 TIME =     0.02 SECS, INTEGRAL =      1.17 TIME LEFT: 172798.82
 STEP:  56 TIME =     0.02 SECS, INTEGRAL =      1.19 TIME LEFT: 172798.80
 STEP:  57 TIME =     0.02 SECS, INTEGRAL =      1.21 TIME LEFT: 172798.79
 STEP:  58 TIME =     0.02 SECS, INTEGRAL =      1.23 TIME LEFT: 172798.76
 STEP:  59 TIME =     0.02 SECS, INTEGRAL =      1.25 TIME LEFT: 172798.74
 STEP:  60 TIME =     0.02 SECS, INTEGRAL =      1.27 TIME LEFT: 172798.72

(To convert to Hartree/Bohr^2, multiply by (10^(-21) x N x a0^2)/(4.184 x 627.51) =  0.0642)


           FORCE MATRIX IN MILLIDYNES/ANGSTROM


                  C  1       C  2       C  3       C  4       C  5       C  6
 ------------------------------------------------------------------------------
     C    1  17.907607
     C    2   6.301107  17.907275
     C    3   6.669698   2.362287  17.263098
     C    4   2.361746   6.670848   1.854960  17.265485
     C    5   5.360967   0.789343   0.805286   0.101359  18.398236
     C    6   1.798935   2.442346   2.552470   7.018958   0.018546  17.281289
     C    7   2.441100   1.799987   7.017975   2.553030   0.105003   7.011671
     C    8   0.786376   5.362481   0.101124   0.805728   0.082091   0.105107
     C    9   0.939197   0.062241   0.079692   0.019680  10.878955   0.006347
     C   10   0.061555   0.938152   0.019455   0.079168   0.011938   0.014403
     H   11   0.084893   0.448586   0.010989   4.812201   0.008154   0.436430
     H   12   0.448604   0.084983   4.811047   0.011033   0.052072   0.089555
     H   13   0.438701   0.032793   0.033952   0.008447   4.760181   0.003522
     H   14   0.008520   0.090135   0.089189   0.437807   0.009623   4.865026
     H   15   0.090105   0.008538   0.437836   0.089074   0.008772   0.439599
     H   16   0.032184   0.438470   0.008584   0.033669   0.021755   0.010216
     H   17   0.105314   0.012176   0.022613   0.004540   0.491353   0.002022
     H   18   0.142086   0.016672   0.013767   0.006340   0.458056   0.002218
     H   19   0.012268   0.105451   0.004556   0.022243   0.002691   0.005498
     H   20   0.016812   0.142120   0.006342   0.013879   0.002913   0.005004


                  C  7       C  8       C  9       C 10       H 11       H 12
 ------------------------------------------------------------------------------
     C    7  17.280623
     C    8   0.018402  18.396684
     C    9   0.014391   0.011935  17.914547
     C   10   0.006236  10.882713   0.002346  17.917417
     H   11   0.089313   0.052206   0.001626   0.019061   5.184743
     H   12   0.436417   0.008137   0.019557   0.001619   0.007589   5.183583
     H   13   0.010162   0.022560   0.453884   0.003593   0.000745   0.003662
     H   14   0.439579   0.008769   0.001273   0.000913   0.042459   0.007078
     H   15   4.864593   0.009608   0.000913   0.001283   0.007079   0.042511
     H   16   0.003570   4.761518   0.003467   0.454080   0.003702   0.000743
     H   17   0.005484   0.002706   5.069552   0.000569   0.000357   0.027320
     H   18   0.004949   0.002933   5.106540   0.000857   0.000640   0.003106
     H   19   0.002002   0.491360   0.000573   5.070144   0.027144   0.000357
     H   20   0.002216   0.458072   0.000857   5.106789   0.003071   0.000638


                  H 13       H 14       H 15       H 16       H 17       H 18
 ------------------------------------------------------------------------------
     H   13   5.121263
     H   14   0.000807   5.230480
     H   15   0.001150   0.041231   5.230022
     H   16   0.035003   0.001144   0.000816   5.122678
     H   17   0.121248   0.000419   0.000692   0.000939   5.461092
     H   18   0.082181   0.000570   0.000499   0.000978   0.420301   5.490494
     H   19   0.000948   0.000695   0.000418   0.121247   0.000316   0.000334
     H   20   0.000998   0.000498   0.000567   0.082113   0.000336   0.000338


                  H 19       H 20
 ------------------------------
     H   19   5.461396
     H   20   0.420070   5.490634


          HEAT OF FORMATION =      57.069818 KCALS/MOLE

          ZERO POINT ENERGY     103.248 KCAL/MOL


           NORMAL COORDINATE ANALYSIS (Total motion = 1 Angstrom)


   Root No.       1         2         3         4         5         6         7         8

                 1 A       2 A       3 A       4 A       5 A       6 A       7 A       8 A   

                  54.6      85.8     114.2     194.5     258.0     285.5     372.0     390.1
  
           1    0.0099   -0.0007    0.0000    0.0063    0.0013   -0.0240   -0.0032    0.0137
           2   -0.0051   -0.0067   -0.0120   -0.0049   -0.0149    0.0065    0.0019   -0.0045
           3   -0.0215   -0.0171    0.0054    0.0369    0.0078    0.0175   -0.0207   -0.0342
           4    0.0099    0.0004    0.0000    0.0063   -0.0007   -0.0240    0.0023    0.0139
           5    0.0051   -0.0068   -0.0120    0.0050   -0.0147   -0.0067    0.0015    0.0046
           6   -0.0210    0.0173   -0.0059    0.0371   -0.0082    0.0173    0.0219   -0.0329
           7    0.0040    0.0010    0.0012   -0.0048    0.0025    0.0010    0.0044    0.0079
           8   -0.0080   -0.0052   -0.0107   -0.0110   -0.0130    0.0212    0.0074   -0.0093
           9   -0.0066   -0.0412    0.0360    0.0236   -0.0084    0.0224    0.0008    0.0434
          10    0.0040   -0.0012   -0.0011   -0.0048   -0.0026    0.0009   -0.0049    0.0077
          11    0.0081   -0.0054   -0.0107    0.0111   -0.0123   -0.0213    0.0068    0.0097
          12   -0.0053    0.0411   -0.0359    0.0236    0.0080    0.0226   -0.0035    0.0436
          13    0.0219   -0.0068   -0.0100    0.0100   -0.0331   -0.0047   -0.0361   -0.0063
          14   -0.0117   -0.0029   -0.0069   -0.0074    0.0059   -0.0064    0.0178    0.0061
          15   -0.0306   -0.0201   -0.0284   -0.0047    0.0384   -0.0156   -0.0149   -0.0095
          16   -0.0026   -0.0000   -0.0000   -0.0161   -0.0003    0.0262   -0.0004   -0.0010
          17    0.0044   -0.0050   -0.0106    0.0052   -0.0127   -0.0093    0.0101    0.0053
          18    0.0070    0.0232   -0.0248   -0.0358    0.0132   -0.0129   -0.0247   -0.0158
          19   -0.0026    0.0002    0.0001   -0.0161   -0.0004    0.0262    0.0005   -0.0010
          20   -0.0042   -0.0050   -0.0106   -0.0053   -0.0130    0.0091    0.0105   -0.0049
          21    0.0062   -0.0230    0.0251   -0.0357   -0.0129   -0.0133    0.0257   -0.0145
          22    0.0220    0.0062    0.0102    0.0102    0.0335   -0.0037    0.0364   -0.0047
          23    0.0117   -0.0032   -0.0067    0.0075    0.0060    0.0067    0.0181   -0.0054
          24   -0.0302    0.0204    0.0277   -0.0042   -0.0381   -0.0165    0.0157   -0.0088
          25   -0.0302   -0.0418   -0.0235    0.0049   -0.0085   -0.0050   -0.0330   -0.0109
          26    0.0091    0.0182    0.0357    0.0349    0.0284   -0.0357   -0.0317   -0.0079
          27    0.0457    0.0285   -0.0207   -0.0106   -0.0087   -0.0058   -0.0073    0.0017
          28   -0.0305    0.0426    0.0230    0.0054    0.0083   -0.0048    0.0336   -0.0094
          29   -0.0094    0.0184    0.0360   -0.0351    0.0273    0.0360   -0.0321    0.0065
          30    0.0445   -0.0290    0.0214   -0.0106    0.0088   -0.0057    0.0074    0.0018
          31    0.0039   -0.0009   -0.0011   -0.0049   -0.0023    0.0014   -0.0048    0.0080
          32    0.0119   -0.0027   -0.0096    0.0193   -0.0118   -0.0435    0.0051    0.0206
          33   -0.0005    0.0710   -0.0650    0.0416    0.0142    0.0368   -0.0058    0.1338
          34    0.0039    0.0008    0.0012   -0.0048    0.0023    0.0014    0.0043    0.0083
          35   -0.0117   -0.0024   -0.0095   -0.0191   -0.0129    0.0433    0.0063   -0.0201
          36   -0.0029   -0.0715    0.0653    0.0417   -0.0146    0.0363   -0.0015    0.1339
          37    0.0774    0.0137   -0.0095    0.0145   -0.0858    0.0347   -0.0534   -0.0334
          38   -0.0405   -0.0220   -0.0380   -0.0404    0.0242   -0.0186    0.0445    0.0311
          39   -0.1022   -0.0567   -0.0673   -0.0490    0.0938   -0.0553    0.0305    0.0393
          40   -0.0082    0.0005    0.0002   -0.0243    0.0001    0.0433    0.0023   -0.0089
          41    0.0076   -0.0053   -0.0108    0.0099   -0.0130   -0.0194    0.0085    0.0099
          42    0.0185    0.0433   -0.0498   -0.0811    0.0315   -0.0402   -0.0676   -0.0417
          43   -0.0082   -0.0002   -0.0002   -0.0243   -0.0012    0.0433   -0.0017   -0.0090
          44   -0.0074   -0.0052   -0.0108   -0.0100   -0.0136    0.0191    0.0093   -0.0096
          45    0.0170   -0.0430    0.0505   -0.0807   -0.0306   -0.0411    0.0705   -0.0382
          46    0.0778   -0.0157    0.0104    0.0147    0.0864    0.0371    0.0558   -0.0314
          47    0.0410   -0.0229   -0.0376    0.0406    0.0245    0.0199    0.0461   -0.0294
          48   -0.1008    0.0578    0.0653   -0.0479   -0.0924   -0.0572   -0.0318    0.0375
          49   -0.0904   -0.0704   -0.0248    0.0051    0.0687   -0.0578   -0.0379    0.0118
          50    0.0326    0.0320    0.0683    0.0724    0.0211   -0.0337   -0.0869   -0.0404
          51    0.1139    0.0639    0.0174    0.0318   -0.0708    0.0336   -0.0660   -0.0506
          52   -0.0168   -0.0449   -0.0344   -0.0000   -0.0623    0.0475   -0.0259   -0.0384
          53    0.0013    0.0201    0.0409    0.0363    0.0599   -0.0669   -0.0343    0.0097
          54    0.0440    0.0352   -0.0529   -0.0604    0.0074   -0.0329    0.0656    0.0689
          55   -0.0907    0.0726    0.0236    0.0057   -0.0686   -0.0596    0.0369    0.0139
          56   -0.0334    0.0328    0.0684   -0.0728    0.0194    0.0332   -0.0892    0.0366
          57    0.1114   -0.0650   -0.0154    0.0312    0.0694    0.0346    0.0684   -0.0471
          58   -0.0172    0.0456    0.0341    0.0006    0.0612    0.0489    0.0285   -0.0375
          59   -0.0017    0.0203    0.0414   -0.0364    0.0584    0.0679   -0.0337   -0.0113
          60    0.0426   -0.0359    0.0535   -0.0604   -0.0064   -0.0328   -0.0686    0.0648


   Root No.       9        10        11        12        13        14        15        16

                 9 A      10 A      11 A      12 A      13 A      14 A      15 A      16 A   

                 477.4     484.4     575.0     585.3     611.6     661.9     766.6     782.5
  
           1   -0.0054    0.0029   -0.0325    0.0009    0.0048   -0.0144    0.0008    0.0012
           2    0.0399    0.0013   -0.0100    0.0187   -0.0127    0.0045   -0.0041    0.0009
           3   -0.0243   -0.0268   -0.0341   -0.0098   -0.0128    0.0165   -0.0605    0.0211
           4   -0.0055   -0.0033   -0.0326    0.0007   -0.0043   -0.0143   -0.0008    0.0012
           5   -0.0399    0.0017    0.0106    0.0183   -0.0129   -0.0045   -0.0040   -0.0008
           6   -0.0239    0.0272   -0.0334    0.0117    0.0139    0.0164    0.0609    0.0200
           7   -0.0282   -0.0084   -0.0110   -0.0390    0.0314   -0.0116    0.0069    0.0010
           8    0.0332   -0.0067    0.0057   -0.0086    0.0062    0.0137   -0.0035    0.0022
           9    0.0081   -0.0246    0.0016    0.0185    0.0135    0.0038   -0.0038   -0.0143
          10   -0.0280    0.0085   -0.0096    0.0396   -0.0312   -0.0115   -0.0068    0.0011
          11   -0.0333   -0.0065   -0.0060   -0.0082    0.0062   -0.0137   -0.0036   -0.0022
          12    0.0084    0.0245    0.0001   -0.0186   -0.0136    0.0038    0.0034   -0.0142
          13    0.0257    0.0230    0.0080    0.0133    0.0198    0.0222   -0.0056    0.0019
          14    0.0378   -0.0045   -0.0392    0.0213   -0.0256   -0.0177    0.0037   -0.0004
          15    0.0020    0.0017    0.0232   -0.0220   -0.0179   -0.0235    0.0139   -0.0063
          16   -0.0291    0.0008    0.0173    0.0014   -0.0009    0.0017   -0.0008   -0.0018
          17   -0.0312   -0.0127    0.0041   -0.0348    0.0281   -0.0097   -0.0002   -0.0042
          18   -0.0029   -0.0401   -0.0018    0.0187    0.0125    0.0032    0.0123   -0.0256
          19   -0.0291   -0.0004    0.0172   -0.0022    0.0006    0.0017    0.0007   -0.0019
          20    0.0309   -0.0129   -0.0052   -0.0347    0.0282    0.0097   -0.0001    0.0042
          21   -0.0027    0.0402   -0.0035   -0.0185   -0.0124    0.0032   -0.0128   -0.0254
          22    0.0251   -0.0231    0.0066   -0.0138   -0.0199    0.0227    0.0057    0.0019
          23   -0.0380   -0.0038    0.0396    0.0193   -0.0262    0.0178    0.0037    0.0004
          24    0.0021   -0.0018    0.0248    0.0205    0.0170   -0.0236   -0.0139   -0.0061
          25    0.0293    0.0161    0.0123    0.0018    0.0020    0.0028    0.0032   -0.0015
          26    0.0161    0.0168    0.0073    0.0051   -0.0005    0.0006    0.0005   -0.0012
          27    0.0102    0.0098    0.0043    0.0030    0.0043    0.0037    0.0031   -0.0021
          28    0.0288   -0.0161    0.0121   -0.0024   -0.0022    0.0027   -0.0033   -0.0014
          29   -0.0158    0.0169   -0.0071    0.0054   -0.0004   -0.0007    0.0005    0.0012
          30    0.0101   -0.0099    0.0041   -0.0032   -0.0043    0.0037   -0.0032   -0.0021
          31   -0.0279    0.0084   -0.0092    0.0391   -0.0314   -0.0116   -0.0075    0.0016
          32   -0.0176   -0.0080   -0.0413   -0.0125    0.0031   -0.0263   -0.0056    0.0026
          33    0.0520    0.0523    0.0690   -0.0623   -0.0508   -0.0557   -0.1705    0.1131
          34   -0.0280   -0.0084   -0.0105   -0.0385    0.0316   -0.0117    0.0077    0.0016
          35    0.0176   -0.0077    0.0409   -0.0145    0.0025    0.0263   -0.0053   -0.0023
          36    0.0517   -0.0530    0.0740    0.0582    0.0483   -0.0560    0.1730    0.1108
          37    0.0632    0.0128    0.0231    0.0023   -0.0036    0.0077    0.0041   -0.0015
          38    0.0496    0.0133   -0.0335    0.0415   -0.0100   -0.0054    0.0306   -0.0133
          39   -0.0081    0.0295    0.0181    0.0106    0.0167    0.0012    0.0395   -0.0195
          40   -0.0014   -0.0043    0.0262   -0.0227    0.0190    0.0202    0.0047    0.0024
          41   -0.0470   -0.0101   -0.0013   -0.0208    0.0168   -0.0207   -0.0036   -0.0060
          42    0.0029   -0.1305    0.0323    0.0659    0.0450   -0.0403   -0.0004    0.2193
          43   -0.0013    0.0046    0.0270    0.0213   -0.0193    0.0202   -0.0047    0.0025
          44    0.0468   -0.0101    0.0007   -0.0211    0.0167    0.0205   -0.0034    0.0066
          45    0.0039    0.1306    0.0265   -0.0675   -0.0462   -0.0402    0.0046    0.2193
          46    0.0632   -0.0130    0.0229   -0.0035    0.0032    0.0075   -0.0044   -0.0016
          47   -0.0493    0.0144    0.0354    0.0401   -0.0102    0.0054    0.0311    0.0128
          48   -0.0083   -0.0295    0.0174   -0.0114   -0.0170    0.0013   -0.0397   -0.0186
          49   -0.0001    0.0582    0.0718    0.0088    0.0736    0.0746   -0.0082    0.0035
          50    0.0137    0.0186    0.0717   -0.0408   -0.0118   -0.0249    0.0416   -0.0190
          51    0.0281   -0.0179    0.0349   -0.0533   -0.0581   -0.0750    0.0572   -0.0252
          52    0.0646   -0.0334   -0.0393   -0.0209   -0.0960   -0.1022    0.0388   -0.0162
          53   -0.0036    0.0470    0.0363    0.0210    0.0589    0.0649   -0.0218    0.0081
          54    0.0008    0.0429   -0.0636    0.0989    0.0980    0.1267   -0.0866    0.0410
          55   -0.0019   -0.0580    0.0696   -0.0126   -0.0750    0.0760    0.0081    0.0033
          56   -0.0136    0.0179   -0.0740   -0.0371   -0.0106    0.0259    0.0425    0.0185
          57    0.0285    0.0174    0.0390    0.0506    0.0558   -0.0751   -0.0572   -0.0241
          58    0.0654    0.0330   -0.0357    0.0233    0.0969   -0.1044   -0.0393   -0.0158
          59    0.0048    0.0469   -0.0339    0.0228    0.0596   -0.0663   -0.0218   -0.0079
          60    0.0001   -0.0429   -0.0709   -0.0943   -0.0943    0.1270    0.0866    0.0392


   Root No.      17        18        19        20        21        22        23        24

                17 A      18 A      19 A      20 A      21 A      22 A      23 A      24 A   

                 839.5     840.2     894.7     925.2     950.6     960.0     997.4    1005.7
  
           1    0.0150    0.0184   -0.0003   -0.0009    0.0010   -0.0014   -0.0103   -0.0016
           2   -0.0151   -0.0053    0.0002    0.0015    0.0006   -0.0018   -0.0138   -0.0013
           3    0.0009   -0.0018    0.0251    0.0048    0.0172    0.0127   -0.0102    0.0088
           4   -0.0146    0.0189    0.0003   -0.0009   -0.0009   -0.0014   -0.0104    0.0014
           5   -0.0150    0.0058    0.0002   -0.0015    0.0005    0.0018    0.0138   -0.0010
           6   -0.0009   -0.0018   -0.0250    0.0046   -0.0173    0.0123   -0.0104   -0.0091
           7    0.0403    0.0392   -0.0014   -0.0060   -0.0013   -0.0003    0.0065   -0.0045
           8   -0.0208    0.0177    0.0009    0.0013    0.0011    0.0009    0.0017    0.0030
           9    0.0025   -0.0003   -0.0287    0.0064   -0.0042   -0.0385    0.0087   -0.0288
          10   -0.0395    0.0405    0.0014   -0.0060    0.0014   -0.0003    0.0065    0.0047
          11   -0.0212   -0.0171    0.0010   -0.0013    0.0012   -0.0010   -0.0017    0.0031
          12   -0.0024   -0.0002    0.0285    0.0065    0.0048   -0.0384    0.0082    0.0291
          13    0.0089   -0.0086   -0.0016    0.0168    0.0123    0.0035    0.0030   -0.0014
          14    0.0294   -0.0256    0.0014   -0.0103   -0.0098   -0.0043   -0.0195   -0.0055
          15   -0.0054    0.0048    0.0018   -0.0239   -0.0203   -0.0035    0.0109    0.0050
          16   -0.0026   -0.0360    0.0004    0.0017    0.0003   -0.0004   -0.0048    0.0005
          17   -0.0064   -0.0618    0.0007    0.0013    0.0005   -0.0023   -0.0126    0.0014
          18   -0.0011    0.0016    0.0190   -0.0065    0.0091    0.0233   -0.0029   -0.0438
          19    0.0018   -0.0361   -0.0004    0.0017   -0.0003   -0.0004   -0.0048   -0.0006
          20   -0.0051    0.0620    0.0007   -0.0014    0.0004    0.0023    0.0126    0.0018
          21    0.0012    0.0015   -0.0188   -0.0066   -0.0095    0.0234   -0.0038    0.0437
          22   -0.0092   -0.0084    0.0016    0.0172   -0.0125    0.0034    0.0028    0.0015
          23    0.0299    0.0247    0.0014    0.0106   -0.0099    0.0042    0.0195   -0.0050
          24    0.0055    0.0046   -0.0017   -0.0239    0.0200   -0.0031    0.0111   -0.0048
          25    0.0135   -0.0124    0.0004    0.0040    0.0042    0.0039    0.0078    0.0065
          26    0.0234   -0.0182    0.0022   -0.0026   -0.0041    0.0030    0.0274    0.0020
          27    0.0001   -0.0009   -0.0028   -0.0042   -0.0100   -0.0064   -0.0076   -0.0107
          28   -0.0138   -0.0120   -0.0004    0.0041   -0.0044    0.0039    0.0080   -0.0064
          29    0.0237    0.0175    0.0022    0.0026   -0.0040   -0.0031   -0.0275    0.0013
          30   -0.0001   -0.0009    0.0029   -0.0042    0.0100   -0.0063   -0.0077    0.0104
          31   -0.0402    0.0411    0.0007   -0.0062    0.0012    0.0006    0.0066    0.0042
          32   -0.0556    0.0287   -0.0025   -0.0142    0.0078   -0.0018   -0.0085    0.0118
          33    0.0153   -0.0010   -0.1390   -0.0327   -0.0143    0.1753   -0.0340   -0.0986
          34    0.0410    0.0398   -0.0006   -0.0062   -0.0012    0.0008    0.0066   -0.0040
          35   -0.0563   -0.0270   -0.0022    0.0140    0.0077    0.0022    0.0082    0.0123
          36   -0.0153   -0.0007    0.1397   -0.0319    0.0116    0.1748   -0.0356    0.0972
          37   -0.0039   -0.0273    0.0109   -0.1117   -0.0948   -0.0352   -0.0532   -0.0227
          38    0.0271   -0.0304   -0.0379    0.0786    0.0741   -0.0067   -0.0641   -0.0254
          39    0.0012    0.0111   -0.0542    0.1696    0.1530    0.0192   -0.0057   -0.0051
          40    0.0335   -0.0045   -0.0011    0.0082   -0.0025    0.0048    0.0138   -0.0075
          41   -0.0287   -0.0809    0.0013   -0.0023    0.0021   -0.0057   -0.0238    0.0070
          42    0.0074   -0.0101   -0.1251    0.0345   -0.0485   -0.1074    0.0109    0.1570
          43   -0.0336   -0.0034    0.0011    0.0082    0.0023    0.0048    0.0136    0.0079
          44   -0.0270    0.0818    0.0016    0.0024    0.0019    0.0054    0.0237    0.0072
          45   -0.0075   -0.0102    0.1240    0.0354    0.0504   -0.1076    0.0145   -0.1567
          46    0.0032   -0.0276   -0.0105   -0.1145    0.0969   -0.0344   -0.0539    0.0218
          47    0.0280    0.0294   -0.0379   -0.0803    0.0738    0.0081    0.0650   -0.0243
          48   -0.0011    0.0111    0.0530    0.1695   -0.1506    0.0164   -0.0063    0.0053
          49   -0.0755    0.0324    0.0002   -0.0741   -0.0804   -0.0411   -0.0937   -0.0476
          50   -0.0495    0.0346   -0.0288    0.0525    0.0470   -0.0038   -0.0613   -0.0023
          51   -0.0182    0.0262   -0.0368    0.1120    0.1062    0.0181   -0.0346    0.0228
          52    0.1092   -0.0634    0.0006   -0.0038   -0.0204    0.0077    0.1018   -0.0024
          53   -0.0298    0.0087    0.0029    0.0021    0.0109    0.0019   -0.0252    0.0085
          54    0.0689   -0.0666    0.0440   -0.0043    0.0216    0.0434    0.0840    0.0562
          55    0.0760    0.0299    0.0002   -0.0758    0.0819   -0.0403   -0.0940    0.0457
          56   -0.0499   -0.0333   -0.0288   -0.0538    0.0468    0.0046    0.0616   -0.0008
          57    0.0193    0.0261    0.0362    0.1120   -0.1043    0.0159   -0.0356   -0.0230
          58   -0.1097   -0.0593   -0.0005   -0.0037    0.0197    0.0078    0.1013    0.0052
          59   -0.0299   -0.0076    0.0029   -0.0020    0.0107   -0.0017    0.0251    0.0093
          60   -0.0713   -0.0654   -0.0440   -0.0048   -0.0220    0.0432    0.0860   -0.0542


   Root No.      25        26        27        28        29        30        31        32

                25 A      26 A      27 A      28 A      29 A      30 A      31 A      32 A   

                1027.6    1033.0    1036.9    1108.5    1110.9    1155.1    1163.9    1200.9
  
           1   -0.0003    0.0022    0.0048   -0.0039    0.0213   -0.0112   -0.0171   -0.0162
           2    0.0004    0.0016    0.0061   -0.0076    0.0036    0.0031   -0.0104   -0.0047
           3   -0.0052    0.0153    0.0141    0.0036   -0.0025   -0.0004    0.0045    0.0049
           4   -0.0003   -0.0023   -0.0047    0.0041    0.0213    0.0108   -0.0174    0.0150
           5   -0.0004    0.0016    0.0060   -0.0077   -0.0036    0.0032    0.0106   -0.0052
           6   -0.0048   -0.0153   -0.0143   -0.0037   -0.0025    0.0005    0.0047   -0.0050
           7    0.0053    0.0005    0.0164    0.0213   -0.0299   -0.0050    0.0090   -0.0084
           8   -0.0013   -0.0006   -0.0111   -0.0003   -0.0074   -0.0025   -0.0074   -0.0060
           9    0.0048   -0.0115   -0.0077   -0.0011    0.0009    0.0002   -0.0011   -0.0011
          10    0.0053   -0.0003   -0.0164   -0.0216   -0.0297    0.0052    0.0087    0.0088
          11    0.0013   -0.0005   -0.0110   -0.0003    0.0074   -0.0024    0.0074   -0.0065
          12    0.0046    0.0117    0.0078    0.0011    0.0009   -0.0002   -0.0012    0.0011
          13   -0.0142    0.0132   -0.0039    0.0004   -0.0021    0.0001   -0.0034   -0.0062
          14    0.0102   -0.0052    0.0280    0.0078   -0.0002   -0.0037   -0.0078   -0.0260
          15    0.0195   -0.0219   -0.0079   -0.0054    0.0058    0.0000   -0.0000    0.0078
          16   -0.0013    0.0013   -0.0025   -0.0224    0.0048   -0.0001    0.0004   -0.0010
          17    0.0013    0.0013   -0.0071   -0.0230    0.0032   -0.0013   -0.0051    0.0117
          18   -0.0016   -0.0100   -0.0060   -0.0004   -0.0002    0.0001    0.0001   -0.0003
          19   -0.0013   -0.0013    0.0025    0.0225    0.0046    0.0001    0.0005    0.0018
          20   -0.0013    0.0013   -0.0072   -0.0231   -0.0030   -0.0012    0.0049    0.0120
          21   -0.0018    0.0099    0.0060    0.0005   -0.0002   -0.0001    0.0001    0.0003
          22   -0.0142   -0.0136    0.0038   -0.0005   -0.0022   -0.0001   -0.0035    0.0065
          23   -0.0100   -0.0054    0.0279    0.0077    0.0000   -0.0036    0.0083   -0.0259
          24    0.0189    0.0220    0.0080    0.0055    0.0057   -0.0000    0.0001   -0.0080
          25    0.0224   -0.0203    0.0011    0.0000    0.0002   -0.0009   -0.0054   -0.0122
          26   -0.0146    0.0076   -0.0225   -0.0004   -0.0061    0.0028    0.0105    0.0163
          27   -0.0313    0.0268    0.0009    0.0029   -0.0014   -0.0004   -0.0084   -0.0161
          28    0.0224    0.0210   -0.0012    0.0001    0.0003    0.0009   -0.0055    0.0121
          29    0.0145    0.0079   -0.0224   -0.0002    0.0061    0.0026   -0.0108    0.0162
          30   -0.0305   -0.0270   -0.0008   -0.0029   -0.0014    0.0003   -0.0088    0.0163
          31    0.0053   -0.0004   -0.0171   -0.0251   -0.0310    0.0059    0.0087    0.0098
          32   -0.0029   -0.0205   -0.0451    0.2145    0.1000    0.1686    0.1203   -0.0093
          33   -0.0213   -0.0379   -0.0203   -0.0067   -0.0061   -0.0022    0.0035   -0.0032
          34    0.0053    0.0006    0.0171    0.0250   -0.0314   -0.0056    0.0089   -0.0095
          35    0.0028   -0.0204   -0.0451    0.2132   -0.1020    0.1668   -0.1218   -0.0212
          36   -0.0218    0.0373    0.0200    0.0061   -0.0058    0.0019    0.0036    0.0030
          37    0.0425   -0.0313    0.0758    0.0286   -0.0502    0.0018    0.1537    0.2225
          38   -0.0170    0.0392    0.0669    0.0300   -0.0519    0.0007    0.1210    0.1388
          39   -0.0514    0.0618   -0.0137    0.0036   -0.0265    0.0045    0.0567    0.0648
          40   -0.0198    0.0071    0.0363   -0.1247    0.1818    0.2387    0.0489   -0.0055
          41    0.0121   -0.0020   -0.0309    0.0346   -0.0979   -0.1403   -0.0325    0.0156
          42    0.0059    0.0292    0.0155    0.0010    0.0002   -0.0001   -0.0000   -0.0001
          43   -0.0199   -0.0077   -0.0365    0.1265    0.1801   -0.2382    0.0514    0.0020
          44   -0.0121   -0.0024   -0.0311    0.0356    0.0974   -0.1399    0.0337    0.0133
          45    0.0065   -0.0290   -0.0154   -0.0011   -0.0001    0.0005   -0.0001    0.0001
          46    0.0421    0.0325   -0.0763   -0.0295   -0.0499    0.0007    0.1559   -0.2214
          47    0.0166    0.0397    0.0668    0.0309    0.0521   -0.0012   -0.1231    0.1383
          48   -0.0492   -0.0617    0.0130   -0.0043   -0.0272   -0.0036    0.0592   -0.0663
          49   -0.0756    0.0725    0.0621    0.0238   -0.0090   -0.0003   -0.0270   -0.0600
          50    0.0512   -0.0304    0.0568    0.0065    0.0007   -0.0043   -0.0066   -0.0299
          51    0.1108   -0.0809    0.0461   -0.0047    0.0118   -0.0081   -0.0144   -0.0384
          52   -0.0936    0.0594   -0.0905    0.0099   -0.0235    0.0141    0.0144    0.0174
          53    0.0567   -0.0423    0.0307   -0.0051    0.0061   -0.0053    0.0007   -0.0001
          54    0.1206   -0.1120   -0.0324    0.0011   -0.0099    0.0090    0.0135    0.0188
          55   -0.0760   -0.0749   -0.0609   -0.0238   -0.0088   -0.0002   -0.0281    0.0596
          56   -0.0511   -0.0316    0.0568    0.0064   -0.0009   -0.0043    0.0072   -0.0301
          57    0.1083    0.0816   -0.0468    0.0048    0.0118    0.0079   -0.0154    0.0391
          58   -0.0934   -0.0619    0.0899   -0.0102   -0.0233   -0.0136    0.0148   -0.0173
          59   -0.0565   -0.0437    0.0308   -0.0051   -0.0061   -0.0053   -0.0005   -0.0003
          60    0.1175    0.1132    0.0328   -0.0012   -0.0100   -0.0088    0.0141   -0.0190


   Root No.      33        34        35        36        37        38        39        40

                33 A      34 A      35 A      36 A      37 A      38 A      39 A      40 A   

                1208.7    1288.3    1312.4    1348.0    1366.0    1405.7    1570.0    1625.9
  
           1   -0.0144   -0.0235   -0.0051    0.0847    0.0341   -0.0019   -0.0153    0.0604
           2    0.0177   -0.0157   -0.0155   -0.0520    0.0154    0.0440    0.0802    0.0662
           3   -0.0022    0.0003    0.0017    0.0025    0.0003   -0.0018   -0.0014   -0.0012
           4   -0.0150   -0.0236    0.0049   -0.0845    0.0342    0.0018   -0.0153   -0.0605
           5   -0.0176    0.0157   -0.0154   -0.0521   -0.0153    0.0440   -0.0802    0.0662
           6   -0.0021    0.0003   -0.0017   -0.0025    0.0003    0.0018   -0.0012    0.0011
           7    0.0017    0.0143   -0.0121    0.0016   -0.0215    0.0287    0.0517    0.0131
           8    0.0172   -0.0112   -0.0045    0.0982    0.0146    0.0349    0.0136   -0.0588
           9    0.0003    0.0000   -0.0000   -0.0002   -0.0000    0.0000   -0.0000   -0.0000
          10    0.0015    0.0143    0.0122   -0.0016   -0.0215   -0.0286    0.0517   -0.0131
          11   -0.0169    0.0112   -0.0044    0.0982   -0.0148    0.0349   -0.0136   -0.0588
          12    0.0003   -0.0000    0.0000   -0.0001    0.0000   -0.0001    0.0000    0.0001
          13    0.0049   -0.0076   -0.0157   -0.0042   -0.0144   -0.0058    0.0031    0.0069
          14   -0.0012    0.0191    0.0016   -0.0008   -0.0287   -0.0290   -0.0261   -0.0196
          15   -0.0008   -0.0145   -0.0110    0.0010    0.0047    0.0062    0.0068    0.0160
          16    0.0186   -0.0063    0.0089    0.0859    0.0106   -0.0324   -0.0427    0.0481
          17   -0.0045   -0.0005    0.0122   -0.0500   -0.0038   -0.0374    0.0660    0.0076
          18   -0.0000   -0.0001    0.0001    0.0002   -0.0000    0.0001    0.0000   -0.0002
          19    0.0185   -0.0063   -0.0090   -0.0859    0.0107    0.0324   -0.0426   -0.0481
          20    0.0041    0.0005    0.0122   -0.0501    0.0039   -0.0374   -0.0660    0.0076
          21   -0.0001   -0.0001   -0.0001   -0.0000   -0.0001    0.0000    0.0002    0.0001
          22    0.0047   -0.0075    0.0156    0.0041   -0.0144    0.0059    0.0031   -0.0067
          23    0.0020   -0.0190    0.0014   -0.0006    0.0287   -0.0291    0.0260   -0.0196
          24   -0.0005   -0.0147    0.0111   -0.0010    0.0047   -0.0062    0.0069   -0.0162
          25    0.0045    0.0056   -0.0055   -0.0044   -0.0205   -0.0151   -0.0119   -0.0274
          26   -0.0014   -0.0045   -0.0019   -0.0014    0.0005    0.0013    0.0009   -0.0046
          27    0.0045    0.0061   -0.0033   -0.0043   -0.0153   -0.0108   -0.0076   -0.0174
          28    0.0040    0.0054    0.0056    0.0042   -0.0203    0.0151   -0.0119    0.0272
          29    0.0009    0.0044   -0.0019   -0.0014   -0.0004    0.0012   -0.0009   -0.0047
          30    0.0040    0.0062    0.0034    0.0042   -0.0155    0.0110   -0.0078    0.0177
          31    0.0000    0.0151    0.0142   -0.0019   -0.0235   -0.0333    0.0618   -0.0178
          32    0.2114    0.0261   -0.0005    0.0403   -0.0021   -0.0817   -0.0011    0.0891
          33   -0.0039   -0.0026    0.0031   -0.0020   -0.0016    0.0011    0.0000   -0.0002
          34    0.0001    0.0151   -0.0141    0.0019   -0.0235    0.0332    0.0617    0.0179
          35   -0.2111   -0.0263   -0.0008    0.0406    0.0020   -0.0819    0.0010    0.0891
          36   -0.0035   -0.0026   -0.0031    0.0019   -0.0016   -0.0009    0.0000    0.0000
          37   -0.0703   -0.0480    0.0047    0.0871    0.0455    0.0052   -0.0068    0.0098
          38   -0.0519   -0.0083    0.0182    0.0526    0.0121   -0.0188   -0.0296   -0.0269
          39   -0.0148   -0.0252   -0.0055    0.0113    0.0187    0.0140    0.0126    0.0116
          40   -0.0968    0.0380    0.0001    0.0267   -0.0433    0.0072    0.1072   -0.0182
          41    0.0634   -0.0260    0.0198   -0.0159    0.0271   -0.0697   -0.0135    0.0528
          42   -0.0001    0.0003   -0.0004   -0.0000    0.0002    0.0002   -0.0006    0.0001
          43   -0.0971    0.0380    0.0002   -0.0266   -0.0433   -0.0072    0.1072    0.0183
          44   -0.0639    0.0261    0.0200   -0.0159   -0.0271   -0.0697    0.0134    0.0529
          45    0.0000    0.0003    0.0003   -0.0001    0.0002   -0.0001   -0.0006   -0.0002
          46   -0.0623   -0.0471   -0.0051   -0.0856    0.0451   -0.0053   -0.0069   -0.0098
          47    0.0470    0.0079    0.0183    0.0515   -0.0119   -0.0185    0.0293   -0.0269
          48   -0.0131   -0.0256    0.0054   -0.0114    0.0192   -0.0143    0.0128   -0.0119
          49    0.0015    0.1219    0.1397   -0.0097    0.0678    0.0313    0.0033    0.0046
          50   -0.0025    0.0947    0.1224   -0.0025    0.0771    0.0391    0.0089    0.0251
          51    0.0051    0.0477    0.0496   -0.0023    0.0179    0.0037   -0.0091   -0.0076
          52   -0.0097    0.0828    0.1251   -0.0044    0.0906    0.0502    0.0137    0.0126
          53    0.0059   -0.0392   -0.0639   -0.0021   -0.0558   -0.0327   -0.0139   -0.0297
          54   -0.0070    0.0771    0.1178   -0.0070    0.0884    0.0527    0.0215    0.0202
          55   -0.0004    0.1218   -0.1393    0.0101    0.0673   -0.0313    0.0035   -0.0047
          56    0.0034   -0.0950    0.1224   -0.0029   -0.0766    0.0390   -0.0089    0.0250
          57    0.0038    0.0488   -0.0506    0.0024    0.0182   -0.0038   -0.0091    0.0076
          58   -0.0091    0.0821   -0.1237    0.0048    0.0891   -0.0494    0.0134   -0.0123
          59   -0.0058    0.0392   -0.0637   -0.0018    0.0554   -0.0326    0.0139   -0.0296
          60   -0.0064    0.0785   -0.1196    0.0077    0.0892   -0.0534    0.0217   -0.0205


   Root No.      41        42        43        44        45        46        47        48

                41 A      42 A      43 A      44 A      45 A      46 A      47 A      48 A   

                1773.2    1798.2    1854.5    1862.1    3031.3    3032.1    3048.0    3049.2
  
           1   -0.1134   -0.0263   -0.0148    0.0369    0.0004   -0.0000    0.0006   -0.0001
           2    0.0291    0.0887   -0.0261    0.0263   -0.0001   -0.0002   -0.0008    0.0011
           3   -0.0006   -0.0009   -0.0019    0.0021    0.0001   -0.0001   -0.0000    0.0000
           4    0.1134   -0.0263   -0.0144   -0.0369   -0.0003   -0.0003    0.0006    0.0002
           5    0.0291   -0.0887    0.0257    0.0269   -0.0002    0.0000    0.0005    0.0013
           6    0.0006   -0.0007   -0.0020   -0.0022    0.0000   -0.0001   -0.0000   -0.0000
           7    0.0478   -0.0019    0.0016   -0.0032   -0.0012    0.0007   -0.0294    0.0254
           8    0.0007   -0.1315    0.0098   -0.0097    0.0004   -0.0002    0.0004   -0.0004
           9   -0.0000   -0.0000    0.0010   -0.0007    0.0001   -0.0001    0.0001   -0.0001
          10   -0.0478   -0.0019    0.0016    0.0032    0.0004    0.0013   -0.0222   -0.0324
          11    0.0006    0.1315   -0.0097   -0.0100    0.0002    0.0005   -0.0003   -0.0005
          12   -0.0000   -0.0003    0.0010    0.0007   -0.0000   -0.0001    0.0001    0.0001
          13   -0.0132    0.0125    0.1023   -0.0979    0.0213   -0.0091   -0.0004    0.0003
          14   -0.0051   -0.0078    0.0433   -0.0422   -0.0339    0.0147    0.0007   -0.0006
          15   -0.0117    0.0092    0.0527   -0.0487    0.0296   -0.0128   -0.0005    0.0004
          16    0.1120    0.0350   -0.0023   -0.0085   -0.0001   -0.0001    0.0062    0.0068
          17   -0.0349   -0.0671    0.0030    0.0038   -0.0001   -0.0002    0.0097    0.0090
          18   -0.0001    0.0001    0.0001    0.0002   -0.0000   -0.0000   -0.0000   -0.0000
          19   -0.1121    0.0350   -0.0024    0.0084    0.0002   -0.0000    0.0076   -0.0048
          20   -0.0349    0.0671   -0.0030    0.0036   -0.0002    0.0001   -0.0115    0.0059
          21    0.0001   -0.0000    0.0001   -0.0002    0.0000   -0.0000   -0.0000    0.0000
          22    0.0131    0.0126    0.1005    0.0985   -0.0092   -0.0208   -0.0003   -0.0004
          23   -0.0051    0.0077   -0.0428   -0.0428   -0.0147   -0.0337   -0.0006   -0.0008
          24    0.0119    0.0095    0.0530    0.0502   -0.0130   -0.0299   -0.0004   -0.0005
          25    0.0204   -0.0148   -0.0853    0.0784   -0.0011    0.0004   -0.0002    0.0002
          26    0.0060   -0.0014   -0.0185    0.0167    0.0029   -0.0013    0.0002   -0.0002
          27    0.0129   -0.0089   -0.0531    0.0489   -0.0021    0.0009   -0.0002    0.0002
          28   -0.0203   -0.0149   -0.0837   -0.0789    0.0005    0.0010   -0.0001   -0.0002
          29    0.0060    0.0014    0.0184    0.0170    0.0012    0.0029   -0.0002   -0.0003
          30   -0.0132   -0.0092   -0.0534   -0.0504    0.0009    0.0021   -0.0002   -0.0002
          31   -0.0554   -0.0021    0.0016    0.0025   -0.0051   -0.0153    0.2538    0.3710
          32   -0.0026   -0.0540    0.0080    0.0116    0.0001    0.0002    0.0022    0.0028
          33   -0.0007   -0.0002   -0.0024   -0.0020    0.0001    0.0003   -0.0011   -0.0016
          34    0.0554   -0.0020    0.0016   -0.0025    0.0142   -0.0077    0.3356   -0.2909
          35   -0.0026    0.0540   -0.0081    0.0115    0.0002   -0.0001   -0.0030    0.0023
          36    0.0006   -0.0003   -0.0024    0.0019   -0.0003    0.0002   -0.0017    0.0015
          37   -0.0239   -0.0090   -0.0061    0.0077   -0.2159    0.0944    0.0038   -0.0028
          38    0.0014   -0.0243   -0.0592    0.0558    0.4100   -0.1775   -0.0068    0.0049
          39   -0.0052    0.0055    0.0285   -0.0270   -0.3324    0.1439    0.0056   -0.0041
          40   -0.0240   -0.0452    0.0023    0.0010    0.0010    0.0013   -0.0688   -0.0703
          41    0.0497   -0.0293    0.0004   -0.0022    0.0016    0.0021   -0.1176   -0.1158
          42    0.0001   -0.0000   -0.0006   -0.0001   -0.0000    0.0000    0.0004    0.0003
          43    0.0240   -0.0452    0.0023   -0.0010   -0.0016    0.0003   -0.0831    0.0481
          44    0.0497    0.0293   -0.0004   -0.0023    0.0026   -0.0005    0.1412   -0.0779
          45   -0.0002   -0.0001   -0.0006    0.0001   -0.0000    0.0001    0.0001   -0.0000
          46    0.0236   -0.0090   -0.0063   -0.0080    0.0914    0.2118    0.0030    0.0036
          47    0.0017    0.0243    0.0583    0.0563    0.1776    0.4075    0.0054    0.0066
          48    0.0054    0.0056    0.0284    0.0276    0.1465    0.3360    0.0045    0.0056
          49    0.0008    0.0009    0.0003   -0.0000   -0.0026    0.0011    0.0023   -0.0020
          50   -0.0187    0.0110    0.0745   -0.0684    0.0016   -0.0006   -0.0035    0.0030
          51    0.0020   -0.0092   -0.0312    0.0297   -0.0028    0.0012    0.0034   -0.0030
          52    0.0014    0.0011   -0.0167    0.0162   -0.0226    0.0098    0.0006   -0.0005
          53    0.0204   -0.0123   -0.0717    0.0652   -0.0448    0.0196    0.0014   -0.0010
          54   -0.0014    0.0108    0.0200   -0.0185    0.0038   -0.0016   -0.0002    0.0002
          55   -0.0008    0.0011    0.0008    0.0005    0.0012    0.0026    0.0016    0.0024
          56   -0.0187   -0.0111   -0.0734   -0.0691    0.0007    0.0016    0.0026    0.0037
          57   -0.0021   -0.0093   -0.0311   -0.0304    0.0012    0.0028    0.0025    0.0037
          58   -0.0014    0.0009   -0.0169   -0.0168    0.0099    0.0227    0.0005    0.0006
          59    0.0205    0.0125    0.0708    0.0660   -0.0194   -0.0450   -0.0011   -0.0014
          60    0.0015    0.0110    0.0199    0.0188   -0.0017   -0.0037   -0.0002   -0.0003


   Root No.      49        50        51        52        53        54

                49 A      50 A      51 A      52 A      53 A      54 A   

                3062.7    3076.9    3134.3    3134.4    3145.5    3145.6
  
           1   -0.0003    0.0000    0.0004    0.0001    0.0002    0.0003
           2    0.0007    0.0008    0.0001    0.0001    0.0002    0.0001
           3    0.0000   -0.0000    0.0002    0.0000    0.0001    0.0001
           4   -0.0003   -0.0000    0.0001   -0.0004    0.0001   -0.0003
           5   -0.0007    0.0009    0.0000    0.0001   -0.0001    0.0001
           6    0.0000   -0.0000    0.0000   -0.0002    0.0001   -0.0001
           7    0.0137    0.0110   -0.0009   -0.0002    0.0002    0.0001
           8    0.0009    0.0013    0.0001   -0.0000    0.0000    0.0000
           9   -0.0001   -0.0000    0.0000    0.0000    0.0000    0.0000
          10    0.0138   -0.0112   -0.0002    0.0009    0.0001   -0.0002
          11   -0.0009    0.0013   -0.0001    0.0001   -0.0000    0.0000
          12   -0.0001    0.0000   -0.0000   -0.0000    0.0000   -0.0000
          13    0.0001    0.0000   -0.0029   -0.0006    0.0042    0.0029
          14   -0.0003   -0.0002   -0.0015   -0.0003   -0.0015   -0.0010
          15    0.0001    0.0000   -0.0014   -0.0003    0.0036    0.0025
          16    0.0117   -0.0163   -0.0000    0.0000    0.0000    0.0000
          17    0.0232   -0.0266   -0.0000    0.0000    0.0000    0.0000
          18   -0.0001    0.0001    0.0000    0.0000    0.0000    0.0000
          19    0.0119    0.0162   -0.0000    0.0000    0.0000   -0.0000
          20   -0.0236   -0.0263    0.0001   -0.0000   -0.0000    0.0000
          21   -0.0000   -0.0000    0.0000   -0.0000    0.0000   -0.0000
          22    0.0001   -0.0000   -0.0006    0.0029    0.0029   -0.0042
          23    0.0003   -0.0002    0.0003   -0.0015    0.0011   -0.0015
          24    0.0002   -0.0000   -0.0003    0.0015    0.0026   -0.0037
          25    0.0001    0.0000    0.0202    0.0040   -0.0230   -0.0160
          26   -0.0001   -0.0001   -0.0434   -0.0090   -0.0273   -0.0188
          27    0.0001    0.0001    0.0337    0.0069   -0.0044   -0.0032
          28    0.0001   -0.0000    0.0042   -0.0198   -0.0159    0.0229
          29    0.0001   -0.0001    0.0087   -0.0431    0.0191   -0.0272
          30    0.0001   -0.0001    0.0070   -0.0341   -0.0031    0.0046
          31   -0.1525    0.1162    0.0023   -0.0098   -0.0014    0.0016
          32    0.0010   -0.0013   -0.0001    0.0007   -0.0001    0.0001
          33    0.0007   -0.0005    0.0001   -0.0004    0.0000   -0.0000
          34   -0.1513   -0.1138    0.0103    0.0019   -0.0019   -0.0010
          35   -0.0009   -0.0012    0.0007    0.0002    0.0001    0.0001
          36    0.0008    0.0006    0.0004    0.0001    0.0001    0.0000
          37   -0.0012   -0.0003   -0.0062   -0.0014   -0.0146   -0.0099
          38    0.0021    0.0004    0.0051    0.0011    0.0238    0.0164
          39   -0.0017   -0.0004   -0.0068   -0.0014   -0.0205   -0.0141
          40   -0.1472    0.1721    0.0002   -0.0001   -0.0001   -0.0002
          41   -0.2589    0.2941    0.0004   -0.0003   -0.0003   -0.0004
          42    0.0007   -0.0009   -0.0000    0.0000    0.0000   -0.0000
          43   -0.1495   -0.1702    0.0002   -0.0002   -0.0000    0.0003
          44    0.2630    0.2910   -0.0005    0.0003    0.0001   -0.0005
          45    0.0001    0.0001   -0.0000   -0.0000    0.0000    0.0000
          46   -0.0012    0.0003   -0.0011    0.0060   -0.0101    0.0141
          47   -0.0021    0.0004   -0.0009    0.0050   -0.0166    0.0237
          48   -0.0018    0.0004   -0.0013    0.0068   -0.0145    0.0207
          49   -0.0013   -0.0008   -0.2636   -0.0538    0.0249    0.0181
          50    0.0020    0.0011    0.4426    0.0902   -0.0604   -0.0431
          51   -0.0019   -0.0011   -0.3860   -0.0787    0.0446    0.0320
          52   -0.0003    0.0002    0.0594    0.0132    0.2104    0.1455
          53   -0.0006    0.0002    0.0835    0.0189    0.3780    0.2614
          54    0.0001    0.0001    0.0056    0.0011   -0.0161   -0.0112
          55   -0.0012    0.0007   -0.0530    0.2581    0.0161   -0.0243
          56   -0.0019    0.0011   -0.0907    0.4413    0.0405   -0.0601
          57   -0.0018    0.0011   -0.0803    0.3907    0.0301   -0.0450
          58   -0.0003   -0.0001    0.0110   -0.0586    0.1469   -0.2107
          59    0.0007    0.0002   -0.0150    0.0818   -0.2624    0.3764
          60    0.0001   -0.0001    0.0013   -0.0060   -0.0106    0.0152


           MASS-WEIGHTED COORDINATE ANALYSIS (NORMAL COORDINATES)


   Root No.       1         2         3         4         5         6         7         8

                 1 A       2 A       3 A       4 A       5 A       6 A       7 A       8 A   

                  54.6      85.8     114.2     194.5     258.0     285.5     372.0     390.1
  
           1    0.0741   -0.0056    0.0004    0.0522    0.0104   -0.2083   -0.0250    0.1179
           2   -0.0379   -0.0527   -0.0981   -0.0409   -0.1231    0.0561    0.0148   -0.0391
           3   -0.1606   -0.1342    0.0439    0.3049    0.0640    0.1522   -0.1641   -0.2937
           4    0.0742    0.0029    0.0003    0.0523   -0.0054   -0.2085    0.0184    0.1191
           5    0.0384   -0.0536   -0.0979    0.0413   -0.1214   -0.0579    0.0123    0.0392
           6   -0.1572    0.1359   -0.0481    0.3063   -0.0676    0.1501    0.1742   -0.2828
           7    0.0300    0.0082    0.0099   -0.0393    0.0208    0.0087    0.0350    0.0678
           8   -0.0600   -0.0411   -0.0872   -0.0910   -0.1068    0.1839    0.0589   -0.0798
           9   -0.0497   -0.3232    0.2929    0.1954   -0.0690    0.1940    0.0065    0.3732
          10    0.0299   -0.0090   -0.0091   -0.0396   -0.0211    0.0082   -0.0388    0.0659
          11    0.0609   -0.0426   -0.0875    0.0916   -0.1017   -0.1852    0.0538    0.0834
          12   -0.0396    0.3225   -0.2924    0.1950    0.0659    0.1961   -0.0277    0.3745
          13    0.1641   -0.0535   -0.0810    0.0826   -0.2722   -0.0404   -0.2862   -0.0545
          14   -0.0872   -0.0230   -0.0560   -0.0615    0.0489   -0.0559    0.1415    0.0527
          15   -0.2286   -0.1573   -0.2310   -0.0392    0.3166   -0.1355   -0.1184   -0.0818
          16   -0.0198   -0.0003   -0.0003   -0.1327   -0.0028    0.2275   -0.0030   -0.0087
          17    0.0327   -0.0396   -0.0864    0.0431   -0.1048   -0.0810    0.0804    0.0458
          18    0.0523    0.1819   -0.2015   -0.2959    0.1084   -0.1124   -0.1964   -0.1355
          19   -0.0198    0.0015    0.0009   -0.1327   -0.0030    0.2275    0.0037   -0.0085
          20   -0.0315   -0.0388   -0.0862   -0.0435   -0.1073    0.0787    0.0836   -0.0419
          21    0.0464   -0.1806    0.2041   -0.2947   -0.1058   -0.1156    0.2043   -0.1250
          22    0.1646    0.0487    0.0827    0.0845    0.2760   -0.0325    0.2888   -0.0408
          23    0.0878   -0.0250   -0.0547    0.0622    0.0492    0.0584    0.1436   -0.0463
          24   -0.2263    0.1596    0.2255   -0.0350   -0.3136   -0.1435    0.1246   -0.0755
          25   -0.2263   -0.3279   -0.1910    0.0406   -0.0698   -0.0430   -0.2620   -0.0935
          26    0.0677    0.1424    0.2908    0.2886    0.2340   -0.3101   -0.2512   -0.0681
          27    0.3421    0.2236   -0.1683   -0.0876   -0.0720   -0.0500   -0.0576    0.0143
          28   -0.2280    0.3343    0.1876    0.0445    0.0682   -0.0413    0.2665   -0.0804
          29   -0.0707    0.1446    0.2929   -0.2897    0.2251    0.3121   -0.2549    0.0560
          30    0.3326   -0.2276    0.1739   -0.0875    0.0721   -0.0494    0.0589    0.0155
          31    0.0085   -0.0020   -0.0026   -0.0117   -0.0056    0.0034   -0.0110    0.0199
          32    0.0258   -0.0061   -0.0226    0.0462   -0.0281   -0.1095    0.0118    0.0513
          33   -0.0011    0.1612   -0.1533    0.0995    0.0338    0.0925   -0.0134    0.3331
          34    0.0085    0.0017    0.0029   -0.0116    0.0054    0.0036    0.0099    0.0206
          35   -0.0255   -0.0054   -0.0223   -0.0458   -0.0309    0.1090    0.0145   -0.0500
          36   -0.0064   -0.1625    0.1541    0.0999   -0.0349    0.0914   -0.0035    0.3332
          37    0.1677    0.0311   -0.0223    0.0346   -0.2046    0.0874   -0.1227   -0.0832
          38   -0.0878   -0.0500   -0.0896   -0.0968    0.0577   -0.0469    0.1023    0.0774
          39   -0.2215   -0.1289   -0.1588   -0.1173    0.2238   -0.1390    0.0702    0.0979
          40   -0.0178    0.0012    0.0005   -0.0581    0.0002    0.1089    0.0053   -0.0223
          41    0.0165   -0.0121   -0.0256    0.0236   -0.0310   -0.0488    0.0195    0.0246
          42    0.0400    0.0983   -0.1175   -0.1941    0.0752   -0.1012   -0.1553   -0.1038
          43   -0.0178   -0.0004   -0.0004   -0.0582   -0.0030    0.1089   -0.0039   -0.0225
          44   -0.0161   -0.0117   -0.0254   -0.0240   -0.0325    0.0480    0.0214   -0.0238
          45    0.0368   -0.0978    0.1190   -0.1932   -0.0730   -0.1034    0.1620   -0.0950
          46    0.1687   -0.0356    0.0244    0.0353    0.2061    0.0934    0.1282   -0.0781
          47    0.0888   -0.0519   -0.0888    0.0973    0.0584    0.0499    0.1060   -0.0732
          48   -0.2185    0.1313    0.1541   -0.1146   -0.2205   -0.1437   -0.0732    0.0933
          49   -0.1959   -0.1600   -0.0585    0.0122    0.1639   -0.1454   -0.0872    0.0294
          50    0.0706    0.0727    0.1611    0.1734    0.0503   -0.0848   -0.1997   -0.1006
          51    0.2469    0.1451    0.0410    0.0760   -0.1688    0.0844   -0.1517   -0.1260
          52   -0.0364   -0.1019   -0.0811   -0.0001   -0.1487    0.1194   -0.0596   -0.0957
          53    0.0028    0.0456    0.0964    0.0868    0.1429   -0.1681   -0.0788    0.0242
          54    0.0954    0.0800   -0.1247   -0.1446    0.0177   -0.0827    0.1509    0.1716
          55   -0.1965    0.1649    0.0557    0.0137   -0.1637   -0.1500    0.0848    0.0346
          56   -0.0724    0.0744    0.1614   -0.1741    0.0463    0.0835   -0.2050    0.0911
          57    0.2415   -0.1476   -0.0364    0.0748    0.1656    0.0870    0.1573   -0.1173
          58   -0.0372    0.1035    0.0805    0.0014    0.1461    0.1230    0.0656   -0.0935
          59   -0.0038    0.0461    0.0976   -0.0872    0.1393    0.1707   -0.0774   -0.0282
          60    0.0922   -0.0814    0.1263   -0.1445   -0.0153   -0.0825   -0.1577    0.1613


   Root No.       9        10        11        12        13        14        15        16

                 9 A      10 A      11 A      12 A      13 A      14 A      15 A      16 A   

                 477.4     484.4     575.0     585.3     611.6     661.9     766.6     782.5
  
           1   -0.0367    0.0249   -0.2628    0.0074    0.0400   -0.1264    0.0066    0.0106
           2    0.2720    0.0108   -0.0807    0.1543   -0.1073    0.0393   -0.0318    0.0075
           3   -0.1654   -0.2271   -0.2761   -0.0810   -0.1080    0.1447   -0.4747    0.1817
           4   -0.0372   -0.0279   -0.2638    0.0062   -0.0359   -0.1258   -0.0062    0.0106
           5   -0.2719    0.0145    0.0859    0.1508   -0.1084   -0.0392   -0.0312   -0.0068
           6   -0.1629    0.2300   -0.2705    0.0965    0.1174    0.1441    0.4782    0.1727
           7   -0.1920   -0.0710   -0.0889   -0.3214    0.2642   -0.1015    0.0540    0.0084
           8    0.2262   -0.0563    0.0460   -0.0707    0.0519    0.1200   -0.0276    0.0191
           9    0.0555   -0.2082    0.0130    0.1528    0.1140    0.0331   -0.0300   -0.1231
          10   -0.1909    0.0718   -0.0779    0.3264   -0.2626   -0.1010   -0.0536    0.0092
          11   -0.2268   -0.0548   -0.0482   -0.0681    0.0523   -0.1202   -0.0283   -0.0189
          12    0.0576    0.2074    0.0007   -0.1534   -0.1143    0.0334    0.0268   -0.1225
          13    0.1751    0.1944    0.0646    0.1099    0.1665    0.1945   -0.0439    0.0167
          14    0.2579   -0.0378   -0.3168    0.1755   -0.2154   -0.1551    0.0292   -0.0037
          15    0.0137    0.0145    0.1877   -0.1816   -0.1506   -0.2062    0.1091   -0.0545
          16   -0.1986    0.0066    0.1399    0.0113   -0.0074    0.0149   -0.0060   -0.0158
          17   -0.2126   -0.1077    0.0328   -0.2872    0.2366   -0.0855   -0.0019   -0.0363
          18   -0.0200   -0.3397   -0.0148    0.1547    0.1051    0.0280    0.0967   -0.2209
          19   -0.1987   -0.0031    0.1393   -0.0181    0.0054    0.0150    0.0051   -0.0160
          20    0.2110   -0.1089   -0.0424   -0.2862    0.2372    0.0847   -0.0006    0.0358
          21   -0.0184    0.3402   -0.0281   -0.1526   -0.1047    0.0282   -0.1001   -0.2192
          22    0.1708   -0.1954    0.0534   -0.1141   -0.1679    0.1993    0.0448    0.0162
          23   -0.2589   -0.0320    0.3206    0.1596   -0.2203    0.1567    0.0290    0.0032
          24    0.0146   -0.0150    0.2009    0.1695    0.1431   -0.2071   -0.1094   -0.0524
          25    0.1998    0.1359    0.0995    0.0148    0.0172    0.0244    0.0252   -0.0129
[...]
 FORCE CONSTANT      1.9849         C  1 -- C  2         +11.7% ( 61.8%)     99.9%

 VIBRATION         37   37A           ATOM PAIR      ENERGY CONTRIBUTION    RADIAL
 FREQUENCY          1365.96         C  2 -- C  8         +11.5% ( 46.3%)     91.0%
 TRANSITION DIPOLE   0.0487         C  1 -- C  5         +11.5% ( 46.3%)     91.1%
 TRAVEL (Ang.)       0.3026         C  2 -- C  4          +7.9% ( 38.4%)     23.3%
 REDUCED MASS        0.5390         C  1 -- C  3          +7.9% ( 38.3%)     22.9%
 EFFECTIVE MASS      7.2134
 FORCE CONSTANT      0.5925

 VIBRATION         38   38A           ATOM PAIR      ENERGY CONTRIBUTION    RADIAL
 FREQUENCY          1405.74         C  6 -- C  7         +12.1% ( 52.2%)    100.0%
 TRANSITION DIPOLE   0.3647         C  4 -- C  6         +11.2% ( 50.3%)     70.4%
 TRAVEL (Ang.)       0.2207         C  3 -- C  7         +11.2% ( 50.3%)     70.4%
 REDUCED MASS        0.9847         C  2 -- C  8          +7.5% ( 41.2%)     78.2%
 EFFECTIVE MASS     10.5675
 FORCE CONSTANT      1.1464

 VIBRATION         39   39A           ATOM PAIR      ENERGY CONTRIBUTION    RADIAL
 FREQUENCY          1569.98         C  1 -- C  2         +13.7% ( 55.1%)      0.0%
 TRANSITION DIPOLE   0.4720         C  4 -- C  6         +11.0% ( 49.4%)     88.4%
 TRAVEL (Ang.)       0.1602         C  3 -- C  7         +11.0% ( 49.3%)     88.5%
 REDUCED MASS        1.6734         C  6 -- C  7         +10.9% ( 49.3%)      0.0%
 EFFECTIVE MASS     11.4089
 FORCE CONSTANT      2.4302

 VIBRATION         40   40A           ATOM PAIR      ENERGY CONTRIBUTION    RADIAL
 FREQUENCY          1625.89         C  1 -- C  2         +17.7% ( 62.2%)    100.0%
 TRANSITION DIPOLE   0.4056         C  1 -- C  3         +12.8% ( 53.0%)     41.1%
 TRAVEL (Ang.)       0.1534         C  2 -- C  4         +12.8% ( 53.0%)     41.0%
 REDUCED MASS        1.7631         C  2 -- C  8          +8.8% ( 43.8%)     97.6%
 EFFECTIVE MASS     11.2935
 FORCE CONSTANT      2.7461

 VIBRATION         41   41A           ATOM PAIR      ENERGY CONTRIBUTION    RADIAL
 FREQUENCY          1773.17         C  6 -- C  7         +17.7% ( 58.4%)    100.0%
 TRANSITION DIPOLE   0.0651         C  1 -- C  2         +17.4% ( 58.1%)    100.0%
 TRAVEL (Ang.)       0.1274         C  3 -- C  7          +8.8% ( 41.2%)     45.7%
 REDUCED MASS        2.3413         C  4 -- C  6          +8.8% ( 41.2%)     45.6%
 EFFECTIVE MASS     11.9006
 FORCE CONSTANT      4.3372

 VIBRATION         42   42A           ATOM PAIR      ENERGY CONTRIBUTION    RADIAL
 FREQUENCY          1798.18         C  1 -- C  3         +15.2% ( 54.3%)     84.6%
 TRANSITION DIPOLE   0.1753         C  2 -- C  4         +15.2% ( 54.3%)     84.6%
 TRAVEL (Ang.)       0.1286         C  4 -- C  6         +13.3% ( 50.7%)     88.9%
 REDUCED MASS        2.2657         C  3 -- C  7         +13.3% ( 50.7%)     88.9%
 EFFECTIVE MASS     11.8523
 FORCE CONSTANT      4.3164

 VIBRATION         43   43A           ATOM PAIR      ENERGY CONTRIBUTION    RADIAL
 FREQUENCY          1854.48         C  5 -- C  9         +22.2% ( 69.8%)     98.3%
 TRANSITION DIPOLE   0.0474         C  8 -- C 10         +21.7% ( 68.9%)     98.3%
 TRAVEL (Ang.)       0.1183         C  1 -- C  5          +9.2% ( 44.8%)     65.1%
 REDUCED MASS        2.5963         C  2 -- C  8          +8.9% ( 44.2%)     65.0%
 EFFECTIVE MASS     11.8368
 FORCE CONSTANT      5.2609

 VIBRATION         44   44A           ATOM PAIR      ENERGY CONTRIBUTION    RADIAL
 FREQUENCY          1862.10         C  8 -- C 10         +21.0% ( 67.5%)     98.1%
 TRANSITION DIPOLE   0.0603         C  5 -- C  9         +20.4% ( 66.7%)     98.1%
 TRAVEL (Ang.)       0.1228         C  2 -- C  8         +10.0% ( 46.6%)     63.3%
 REDUCED MASS        2.4029         C  1 -- C  5          +9.7% ( 46.0%)     63.1%
 EFFECTIVE MASS     11.8399
 FORCE CONSTANT      4.9090

 VIBRATION         45   45A           ATOM PAIR      ENERGY CONTRIBUTION    RADIAL
 FREQUENCY          3031.34         C  5 -- H 13         +81.1% ( 91.3%)    100.0%
 TRANSITION DIPOLE   0.2375         C  8 -- H 16         +15.3% ( 39.7%)    100.0%
 TRAVEL (Ang.)       0.1821         C  5 -- C  9          +1.2% ( 11.2%)     30.6%
 REDUCED MASS        0.6707         C  1 -- C  5          +1.2% ( 10.9%)     14.6%
 EFFECTIVE MASS      1.5102
 FORCE CONSTANT      3.6312

 VIBRATION         46   46A           ATOM PAIR      ENERGY CONTRIBUTION    RADIAL
 FREQUENCY          3032.08         C  8 -- H 16         +81.1% ( 91.3%)    100.0%
 TRANSITION DIPOLE   0.2962         C  5 -- H 13         +15.3% ( 39.7%)    100.0%
 TRAVEL (Ang.)       0.1821         C  8 -- C 10          +1.2% ( 11.2%)     30.4%
 REDUCED MASS        0.6704         C  2 -- C  8          +1.2% ( 10.9%)     14.8%
 EFFECTIVE MASS      1.5078
 FORCE CONSTANT      3.6314

 VIBRATION         47   47A           ATOM PAIR      ENERGY CONTRIBUTION    RADIAL
 FREQUENCY          3048.02         C  3 -- H 12         +49.1% ( 71.2%)    100.0%
 TRANSITION DIPOLE   0.3199         C  4 -- H 11         +28.1% ( 53.9%)    100.0%
 TRAVEL (Ang.)       0.2564         C  7 -- H 15         +11.7% ( 34.8%)    100.0%
 REDUCED MASS        0.3364         C  6 -- H 14          +8.1% ( 29.0%)    100.0%
 EFFECTIVE MASS      1.5067
 FORCE CONSTANT      1.8414

 VIBRATION         48   48A           ATOM PAIR      ENERGY CONTRIBUTION    RADIAL
 FREQUENCY          3049.24         C  4 -- H 11         +53.6% ( 74.4%)    100.0%
 TRANSITION DIPOLE   0.1115         C  3 -- H 12         +33.0% ( 58.3%)    100.0%
 TRAVEL (Ang.)       0.2358         C  6 -- H 14          +7.2% ( 27.2%)     99.8%
 REDUCED MASS        0.3977         C  7 -- H 15          +3.3% ( 18.3%)     99.7%
 EFFECTIVE MASS      1.5069
 FORCE CONSTANT      2.1788

 VIBRATION         49   49A           ATOM PAIR      ENERGY CONTRIBUTION    RADIAL
 FREQUENCY          3062.67         C  7 -- H 15         +39.2% ( 63.6%)    100.0%
 TRANSITION DIPOLE   0.4501         C  6 -- H 14         +38.0% ( 62.6%)    100.0%
 TRAVEL (Ang.)       0.2650         C  4 -- H 11          +9.9% ( 32.0%)    100.0%
 REDUCED MASS        0.3136         C  3 -- H 12          +9.8% ( 31.7%)    100.0%
 EFFECTIVE MASS      1.5195
 FORCE CONSTANT      1.7329

 VIBRATION         50   50A           ATOM PAIR      ENERGY CONTRIBUTION    RADIAL
 FREQUENCY          3076.90         C  6 -- H 14         +43.7% ( 67.0%)    100.0%
 TRANSITION DIPOLE   0.4527         C  7 -- H 15         +42.8% ( 66.3%)    100.0%
 TRAVEL (Ang.)       0.2405         C  4 -- H 11          +5.1% ( 22.9%)     99.8%
 REDUCED MASS        0.3790         C  3 -- H 12          +4.9% ( 22.4%)     99.8%
 EFFECTIVE MASS      1.5871
 FORCE CONSTANT      2.1139

 VIBRATION         51   51A           ATOM PAIR      ENERGY CONTRIBUTION    RADIAL
 FREQUENCY          3134.29         C  9 -- H 17         +90.5% ( 96.7%)     99.9%
 TRANSITION DIPOLE   0.2542         C  9 -- H 18          +4.1% ( 20.6%)     60.4%
 TRAVEL (Ang.)       0.1619         C 10 -- H 19          +3.8% ( 19.9%)    100.0%
 REDUCED MASS        0.8205         C  5 -- C  9          +1.3% ( 11.5%)     27.5%
 EFFECTIVE MASS      1.5261
 FORCE CONSTANT      4.7492

 VIBRATION         52   52A           ATOM PAIR      ENERGY CONTRIBUTION    RADIAL
 FREQUENCY          3134.41         C 10 -- H 19         +90.6% ( 96.7%)     99.9%
 TRANSITION DIPOLE   0.1856         C 10 -- H 20          +4.0% ( 20.4%)     59.8%
 TRAVEL (Ang.)       0.1618         C  9 -- H 17          +3.8% ( 19.8%)     99.9%
 REDUCED MASS        0.8218         C  8 -- C 10          +1.3% ( 11.5%)     27.7%
 EFFECTIVE MASS      1.5258
 FORCE CONSTANT      4.7569

 VIBRATION         53   53A           ATOM PAIR      ENERGY CONTRIBUTION    RADIAL
 FREQUENCY          3145.49         C  9 -- H 18         +63.6% ( 80.4%)     99.8%
 TRANSITION DIPOLE   0.3047         C 10 -- H 20         +30.7% ( 55.9%)     99.8%
 TRAVEL (Ang.)       0.2104         C  9 -- H 17          +2.3% ( 15.4%)     19.8%
 REDUCED MASS        0.4844         C 10 -- H 19          +1.1% ( 10.4%)     17.7%
 EFFECTIVE MASS      1.4738
 FORCE CONSTANT      2.8241

 VIBRATION         54   54A           ATOM PAIR      ENERGY CONTRIBUTION    RADIAL
 FREQUENCY          3145.60         C 10 -- H 20         +63.6% ( 80.4%)     99.8%
 TRANSITION DIPOLE   0.2830         C  9 -- H 18         +30.6% ( 55.8%)     99.8%
 TRAVEL (Ang.)       0.2105         C 10 -- H 19          +2.3% ( 15.4%)     19.8%
 REDUCED MASS        0.4837         C  9 -- H 17          +1.2% ( 11.0%)     21.9%
 EFFECTIVE MASS      1.4732
 FORCE CONSTANT      2.8198

      SYMMETRY NUMBER FOR POINT-GROUP C1  =  1


          SYSTEM IS A GROUND STATE



 InChI=1S/C10H10/c1-3-9-7-5-6-8-10(9)4-2/h3-8H,1-2H2


          MOLECULE IS NOT LINEAR

          THERE ARE 54 GENUINE VIBRATIONS IN THIS SYSTEM
          THIS THERMODYNAMICS CALCULATION IS LIMITED TO
          MOLECULES WHICH HAVE NO INTERNAL ROTATIONS




                    CALCULATED THERMODYNAMIC PROPERTIES
                                          *
   TEMP. (K)   PARTITION FUNCTION   H.O.F.    ENTHALPY  HEAT CAPACITY ENTROPY
                                   KCAL/MOL   CAL/MOLE    CAL/K/MOL  CAL/K/MOL


 298.00  VIB.     0.2439D+03                  4003.3637    29.2507    24.3573
         ROT.     0.6491D+06                   888.2803     2.9808    29.5762
         INT.     0.1583D+09                  4891.6440    32.2315    53.9335
         TRA.     0.1436D+28                  1480.4672     4.9680    40.5022
         TOT.                       57.070    6372.1112    37.1995    94.4356

 200.00  VIB.     0.2824D+02                  1693.9285    18.0298    15.1086
         ROT.     0.3569D+06                   596.1613     2.9808    28.3875
         INT.     0.1008D+08                  2290.0897    21.0106    43.4961
         TRA.     0.7896D+27                   993.6021     4.9680    38.5210
         TOT.                       53.981    3283.6919    25.9786    82.0171

 210.00  VIB.     0.3497D+02                  1879.6494    19.1179    16.0145
         ROT.     0.3840D+06                   625.9693     2.9808    28.5330
         INT.     0.1343D+08                  2505.6187    22.0987    44.5475
         TRA.     0.8496D+27                  1043.2822     4.9680    38.7634
         TOT.                       54.247    3548.9010    27.0667    83.3109

 220.00  VIB.     0.4337D+02                  2076.3530    20.2259    16.9294
         ROT.     0.4117D+06                   655.7774     2.9808    28.6716
         INT.     0.1786D+08                  2732.1304    23.2067    45.6010
         TRA.     0.9110D+27                  1092.9623     4.9680    38.9945
         TOT.                       54.523    3825.0927    28.1747    84.5955

 230.00  VIB.     0.5386D+02                  2284.2261    21.3514    17.8532
         ROT.     0.4401D+06                   685.5855     2.9808    28.8041
         INT.     0.2371D+08                  2969.8115    24.3322    46.6573
         TRA.     0.9738D+27                  1142.6424     4.9680    39.2154
         TOT.                       54.810    4112.4540    29.3002    85.8727

 240.00  VIB.     0.6698D+02                  2503.4302    22.4917    18.7860
         ROT.     0.4691D+06                   715.3935     2.9808    28.9310
         INT.     0.3142D+08                  3218.8238    25.4725    47.7170
         TRA.     0.1038D+28                  1192.3226     4.9680    39.4268
         TOT.                       55.109    4411.1463    30.4405    87.1438

 250.00  VIB.     0.8341D+02                  2734.0996    23.6439    19.7274
         ROT.     0.4988D+06                   745.2016     2.9808    29.0527
         INT.     0.4160D+08                  3479.3012    26.6248    48.7801
         TRA.     0.1103D+28                  1242.0027     4.9680    39.6296
         TOT.                       55.419    4721.3038    31.5928    88.4097

 260.00  VIB.     0.1040D+03                  2976.3394    24.8053    20.6774
         ROT.     0.5290D+06                   775.0097     2.9808    29.1696
         INT.     0.5503D+08                  3751.3491    27.7861    49.8470
         TRA.     0.1170D+28                  1291.6828     4.9680    39.8245
         TOT.                       55.741    5043.0318    32.7541    89.6714

 270.00  VIB.     0.1299D+03                  3230.2259    25.9728    21.6354
         ROT.     0.5598D+06                   804.8177     2.9808    29.2821
         INT.     0.7273D+08                  4035.0436    28.9536    50.9175
         TRA.     0.1239D+28                  1341.3629     4.9680    40.0120
         TOT.                       56.074    5376.4065    33.9216    90.9294

 280.00  VIB.     0.1625D+03                  3495.8062    27.1436    22.6011
         ROT.     0.5912D+06                   834.6258     2.9808    29.3905
         INT.     0.9606D+08                  4330.4320    30.1244    51.9916
         TRA.     0.1308D+28                  1391.0430     4.9680    40.1926
         TOT.                       56.419    5721.4750    35.0924    92.1843

 290.00  VIB.     0.2035D+03                  3773.0996    28.3150    23.5741
         ROT.     0.6231D+06                   864.4339     2.9808    29.4951
         INT.     0.1268D+09                  4637.5335    31.2958    53.0692
         TRA.     0.1379D+28                  1440.7231     4.9680    40.3670
         TOT.                       56.776    6078.2566    36.2638    93.4361

 300.00  VIB.     0.2552D+03                  4062.0988    29.4843    24.5537
         ROT.     0.6556D+06                   894.2419     2.9808    29.5961
         INT.     0.1673D+09                  4956.3407    32.4651    54.1499
         TRA.     0.1451D+28                  1490.4032     4.9680    40.5354
         TOT.                       57.144    6446.7439    37.4331    94.6852

 310.00  VIB.     0.3205D+03                  4362.7714    30.6493    25.5395
         ROT.     0.6887D+06                   924.0500     2.9808    29.6939
         INT.     0.2207D+09                  5286.8213    33.6301    55.2334
         TRA.     0.1524D+28                  1540.0833     4.9680    40.6983
         TOT.                       57.525    6826.9046    38.5981    95.9317

 320.00  VIB.     0.4030D+03                  4675.0621    31.8076    26.5309
         ROT.     0.7223D+06                   953.8580     2.9808    29.7885
         INT.     0.2911D+09                  5628.9201    34.7884    56.3194
         TRA.     0.1598D+28                  1589.7634     4.9680    40.8560
         TOT.                       57.916    7218.6835    39.7564    97.1754

 330.00  VIB.     0.5075D+03                  4998.8947    32.9573    27.5273
         ROT.     0.7564D+06                   983.6661     2.9808    29.8802
         INT.     0.3838D+09                  5982.5608    35.9381    57.4075
         TRA.     0.1674D+28                  1639.4435     4.9680    41.0089
         TOT.                       58.320    7622.0043    40.9062    98.4164

 340.00  VIB.     0.6397D+03                  5334.1742    34.0967    28.5281
         ROT.     0.7910D+06                  1013.4742     2.9808    29.9692
         INT.     0.5060D+09                  6347.6484    37.0775    58.4973
         TRA.     0.1750D+28                  1689.1236     4.9680    41.1572
         TOT.                       58.734    8036.7720    42.0455    99.6545

 350.00  VIB.     0.8074D+03                  5680.7887    35.2241    29.5328
         ROT.     0.8262D+06                  1043.2822     2.9808    30.0556
         INT.     0.6671D+09                  6724.0710    38.2049    59.5884
         TRA.     0.1828D+28                  1738.8037     4.9680    41.3012
         TOT.                       59.161    8462.8747    43.1729   100.8896

 360.00  VIB.     0.1020D+04                  6038.6119    36.3382    30.5407
         ROT.     0.8619D+06                  1073.0903     2.9808    30.1396
         INT.     0.8792D+09                  7111.7022    39.3190    60.6803
         TRA.     0.1907D+28                  1788.4838     4.9680    41.4412
         TOT.                       59.598    8900.1860    44.2870   102.1215

 370.00  VIB.     0.1290D+04                  6407.5047    37.4378    31.5514
         ROT.     0.8980D+06                  1102.8984     2.9808    30.2213
         INT.     0.1159D+10                  7510.4030    40.4187    61.7727
         TRA.     0.1987D+28                  1838.1639     4.9680    41.5773
         TOT.                       60.046    9348.5670    45.3867   103.3500

 380.00  VIB.     0.1634D+04                  6787.3173    38.5220    32.5642
         ROT.     0.9347D+06                  1132.7064     2.9808    30.3008
         INT.     0.1527D+10                  7920.0237    41.5028    62.8650
         TRA.     0.2068D+28                  1887.8440     4.9680    41.7098
         TOT.                       60.506    9807.8677    46.4708   104.5748

 390.00  VIB.     0.2071D+04                  7177.8909    39.5899    33.5787
         ROT.     0.9718D+06                  1162.5145     2.9808    30.3782
         INT.     0.2013D+10                  8340.4054    42.5707    63.9569
         TRA.     0.2150D+28                  1937.5242     4.9680    41.8388
         TOT.                       60.976   10277.9295    47.5387   105.7957

 400.00  VIB.     0.2627D+04                  7579.0595    40.6409    34.5943
         ROT.     0.1009D+07                  1192.3226     2.9808    30.4537
         INT.     0.2652D+10                  8771.3820    43.6217    65.0480
         TRA.     0.2233D+28                  1987.2043     4.9680    41.9646
         TOT.                       61.456   10758.5863    48.5897   107.0126

   *: NOTE: HEATS OF FORMATION ARE RELATIVE TO THE
            ELEMENTS IN THEIR STANDARD STATE AT 298K
              (=  Standard Enthalpy of Formation).

            Hvib:  Zero-point energy is not included.
                   frequencies of less than zero cm-1 are not included.
            Hrot = (3/2)RT
            Htra = (3/2)RT + pV = (5/2)RT

            Heat capacity is Cp, not Cv

          For more information, see: HTTP://OpenMOPAC.net/Manual/thermochemistry.html


           FORCE CONSTANT IN CARTESIAN COORDINATES (Millidynes/A)

    ATOM   CHEMICAL       X               Y               Z
   NUMBER   SYMBOL  FORCE CONSTANT  FORCE CONSTANT  FORCE CONSTANT

      1       C       12.291525       12.730479        2.714233
      2       C       12.292101       12.728694        2.717892
      3       C       11.946682       12.241302        2.306776
      4       C       11.948034       12.242671        2.309852
      5       C       11.801643        9.125006        6.597616
      6       C       12.111924       12.108618        2.307414
      7       C       12.112249       12.106827        2.310271
      8       C       11.680691        9.110655        6.735379
      9       C       11.303785        8.455167        6.572689
     10       C       11.180458        8.438536        6.717437
     11       H        5.113629        0.777375        0.355090
     12       H        5.112424        0.777648        0.354199
     13       H        1.279859        2.918623        1.972757
     14       H        1.867480        4.054260        0.351313
     15       H        1.866506        4.054873        0.351308
     16       H        1.251224        2.902022        2.017598
     17       H        1.373898        2.892432        2.183663
     18       H        1.726518        4.250329        0.488377
     19       H        1.339202        2.879970        2.231295
     20       H        1.732045        4.241237        0.492111

 **********************
 *                    *
 * JOB ENDED NORMALLY *
 *                    *
 **********************



 TOTAL JOB TIME:             2.21 SECONDS

 == MOPAC DONE ==
