 *******************************************************************************
 **                                                                           **
 **                              MOPAC v23.1.2                                **
 **                                                                           **
 *******************************************************************************
 **          Digital Object Identifier (DOI): 10.5281/zenodo.6511958          **
 **    Visit the DOI location for information on how to cite this program.    **
 *******************************************************************************

                              PM3 CALCULATION RESULTS

 *******************************************************************************
 *  CALCULATION DONE: (MAX THREADS = 1)              Tue Jun  3 16:37:18 2025  *
 *  PM3        - The PM3 Hamiltonian to be used
 *  PRECISE    - TIGHTER CRITERIA TO BE USED
 *  NOSYM      - POINT-GROUP SYMMETRY SET TO C1
 *  THREADS=1  - MULTI-THREADING NOT USED
 *  T=         - A TIME OF 172800.0 SECONDS REQUESTED
 *  DUMP=N     - RESTART FILE WRITTEN EVERY 7200.0 SECONDS REQUESTED
 *******************************************************************************
pm3  precise nosym THREADS=1
 InChI=1S/C12H22/c1-4-7-10(5-2)12-9-8-11(12)6-3/h4,7,10-12H,5-6,8-9H2,1-3H3

   ATOM   CHEMICAL          X               Y               Z
  NUMBER   SYMBOL      (ANGSTROMS)     (ANGSTROMS)     (ANGSTROMS)

     1       C         -0.89400000  *  -0.74710000  *  -0.29520000  *
     2       C         -1.65000000  *   0.17480000  *   0.67860000  *
     3       C          0.61690000  *  -0.88340000  *   0.01210000  *
     4       C         -2.49410000  *  -1.01160000  *   1.14220000  *
     5       C         -1.73830000  *  -1.92950000  *   0.19160000  *
     6       C         -2.48510000  *   1.27210000  *  -0.00560000  *
     7       C          1.25560000  *  -1.96600000  *  -0.88450000  *
     8       C         -1.60500000  *   2.40680000  *  -0.52170000  *
     9       C          2.70570000  *  -2.25770000  *  -0.49600000  *
    10       C          2.44260000  *   2.50310000  *   0.51260000  *
    11       C          1.29580000  *   0.44660000  *  -0.22890000  *
    12       C          1.80320000  *   1.17550000  *   0.77500000  *
    13       H         -1.02370000  *   0.57160000  *   1.50930000  *
    14       H         -1.09220000  *  -0.51700000  *  -1.36720000  *
    15       H          0.74110000  *  -1.19160000  *   1.07620000  *
    16       H         -3.20070000  *   1.69010000  *   0.73500000  *
    17       H         -3.07340000  *   0.85060000  *  -0.85050000  *
    18       H          0.68450000  *  -2.91490000  *  -0.79650000  *
    19       H          1.21860000  *  -1.65170000  *  -1.95110000  *
    20       H         -2.31220000  *  -1.26790000  *   2.20890000  *
    21       H         -3.57370000  *  -0.93470000  *   0.88370000  *
    22       H         -1.16660000  *  -2.71070000  *   0.73920000  *
    23       H         -2.39240000  *  -2.33870000  *  -0.60900000  *
    24       H         -0.99750000  *   2.83230000  *   0.30530000  *
    25       H         -2.24500000  *   3.21070000  *  -0.94190000  *
    26       H         -0.93090000  *   2.04070000  *  -1.32370000  *
    27       H          2.76380000  *  -2.57750000  *   0.56620000  *
    28       H          3.10310000  *  -3.07490000  *  -1.13410000  *
    29       H          3.33990000  *  -1.35840000  *  -0.64390000  *
    30       H          2.79080000  *   2.94680000  *   1.46860000  *
    31       H          3.31420000  *   2.37630000  *  -0.16370000  *
    32       H          1.70780000  *   3.19130000  *   0.04390000  *
    33       H          1.34070000  *   0.83070000  *  -1.24520000  *
    34       H          1.75050000  *   0.81320000  *   1.79780000  *



          CARTESIAN COORDINATES 

    NO.       ATOM           X           Y           Z

     1         C         -0.8940     -0.7471     -0.2952
     2         C         -1.6500      0.1748      0.6786
     3         C          0.6169     -0.8834      0.0121
     4         C         -2.4941     -1.0116      1.1422
     5         C         -1.7383     -1.9295      0.1916
     6         C         -2.4851      1.2721     -0.0056
     7         C          1.2556     -1.9660     -0.8845
     8         C         -1.6050      2.4068     -0.5217
     9         C          2.7057     -2.2577     -0.4960
    10         C          2.4426      2.5031      0.5126
    11         C          1.2958      0.4466     -0.2289
    12         C          1.8032      1.1755      0.7750
    13         H         -1.0237      0.5716      1.5093
    14         H         -1.0922     -0.5170     -1.3672
    15         H          0.7411     -1.1916      1.0762
    16         H         -3.2007      1.6901      0.7350
    17         H         -3.0734      0.8506     -0.8505
    18         H          0.6845     -2.9149     -0.7965
    19         H          1.2186     -1.6517     -1.9511
    20         H         -2.3122     -1.2679      2.2089
    21         H         -3.5737     -0.9347      0.8837
    22         H         -1.1666     -2.7107      0.7392
    23         H         -2.3924     -2.3387     -0.6090
    24         H         -0.9975      2.8323      0.3053
    25         H         -2.2450      3.2107     -0.9419
    26         H         -0.9309      2.0407     -1.3237
    27         H          2.7638     -2.5775      0.5662
    28         H          3.1031     -3.0749     -1.1341
    29         H          3.3399     -1.3584     -0.6439
    30         H          2.7908      2.9468      1.4686
    31         H          3.3142      2.3763     -0.1637
    32         H          1.7078      3.1913      0.0439
    33         H          1.3407      0.8307     -1.2452
    34         H          1.7505      0.8132      1.7978

  H: (PM3): J. J. P. STEWART, J. COMP. CHEM. 10, 209 (1989).
  C: (PM3): J. J. P. STEWART, J. COMP. CHEM. 10, 209 (1989).

           Empirical Formula: C12 H22  =    34 atoms



      MOLECULAR POINT GROUP   :   C1  


      RHF CALCULATION, NO. OF DOUBLY OCCUPIED LEVELS = 35


          Geometry optimization using L-BFGS
 CYCLE:     1 TIME:   0.012 TIME LEFT:  2.00D  GRAD.:    85.521 HEAT: -16.33784
 CYCLE:     2 TIME:   0.012 TIME LEFT:  2.00D  GRAD.:    84.189 HEAT: -16.41041
 CYCLE:     3 TIME:   0.012 TIME LEFT:  2.00D  GRAD.:    34.127 HEAT: -19.51539
 CYCLE:     4 TIME:   0.008 TIME LEFT:  2.00D  GRAD.:    84.192 HEAT: -16.41047
 CYCLE:     5 TIME:   0.012 TIME LEFT:  2.00D  GRAD.:    34.129 HEAT: -19.51539
 CYCLE:     6 TIME:   0.008 TIME LEFT:  2.00D  GRAD.:    34.228 HEAT: -20.07631
 CYCLE:     7 TIME:   0.008 TIME LEFT:  2.00D  GRAD.:    23.827 HEAT: -20.69945
 CYCLE:     8 TIME:   0.012 TIME LEFT:  2.00D  GRAD.:    19.703 HEAT: -21.21780
 CYCLE:     9 TIME:   0.012 TIME LEFT:  2.00D  GRAD.:    23.751 HEAT: -21.40381
 CYCLE:    10 TIME:   0.012 TIME LEFT:  2.00D  GRAD.:     6.924 HEAT: -21.55572
 CYCLE:    11 TIME:   0.008 TIME LEFT:  2.00D  GRAD.:     4.257 HEAT: -21.57768
 CYCLE:    12 TIME:   0.012 TIME LEFT:  2.00D  GRAD.:     3.625 HEAT: -21.59979
 CYCLE:    13 TIME:   0.012 TIME LEFT:  2.00D  GRAD.:     3.621 HEAT: -21.61762
 CYCLE:    14 TIME:   0.008 TIME LEFT:  2.00D  GRAD.:     7.182 HEAT: -21.62068
 CYCLE:    15 TIME:   0.012 TIME LEFT:  2.00D  GRAD.:     2.051 HEAT: -21.63479
 CYCLE:    16 TIME:   0.008 TIME LEFT:  2.00D  GRAD.:     1.803 HEAT: -21.63807
 CYCLE:    17 TIME:   0.012 TIME LEFT:  2.00D  GRAD.:     2.169 HEAT: -21.64524
 CYCLE:    18 TIME:   0.012 TIME LEFT:  2.00D  GRAD.:     2.142 HEAT: -21.65167
 CYCLE:    19 TIME:   0.012 TIME LEFT:  2.00D  GRAD.:     4.777 HEAT: -21.64961
 CYCLE:    20 TIME:   0.008 TIME LEFT:  2.00D  GRAD.:     1.003 HEAT: -21.65621
 CYCLE:    21 TIME:   0.012 TIME LEFT:  2.00D  GRAD.:     0.903 HEAT: -21.65703
 CYCLE:    22 TIME:   0.012 TIME LEFT:  2.00D  GRAD.:     1.470 HEAT: -21.65935
 CYCLE:    23 TIME:   0.012 TIME LEFT:  2.00D  GRAD.:     4.266 HEAT: -21.65994
 CYCLE:    24 TIME:   0.012 TIME LEFT:  2.00D  GRAD.:     1.735 HEAT: -21.66263
 CYCLE:    25 TIME:   0.012 TIME LEFT:  2.00D  GRAD.:     1.324 HEAT: -21.66440
 CYCLE:    26 TIME:   0.012 TIME LEFT:  2.00D  GRAD.:     2.044 HEAT: -21.66649
 CYCLE:    27 TIME:   0.008 TIME LEFT:  2.00D  GRAD.:     2.662 HEAT: -21.67028
 CYCLE:    28 TIME:   0.012 TIME LEFT:  2.00D  GRAD.:     2.951 HEAT: -21.67622
 CYCLE:    29 TIME:   0.012 TIME LEFT:  2.00D  GRAD.:     3.878 HEAT: -21.68098
 CYCLE:    30 TIME:   0.012 TIME LEFT:  2.00D  GRAD.:     3.831 HEAT: -21.68644
 CYCLE:    31 TIME:   0.012 TIME LEFT:  2.00D  GRAD.:     4.704 HEAT: -21.69039
 CYCLE:    32 TIME:   0.012 TIME LEFT:  2.00D  GRAD.:     4.300 HEAT: -21.69591
 CYCLE:    33 TIME:   0.012 TIME LEFT:  2.00D  GRAD.:     4.887 HEAT: -21.69930
 CYCLE:    34 TIME:   0.012 TIME LEFT:  2.00D  GRAD.:    17.998 HEAT: -21.62962
 CYCLE:    35 TIME:   0.008 TIME LEFT:  2.00D  GRAD.:    10.353 HEAT: -21.67958
 CYCLE:    36 TIME:   0.016 TIME LEFT:  2.00D  GRAD.:     8.302 HEAT: -21.69577
 CYCLE:    37 TIME:   0.008 TIME LEFT:  2.00D  GRAD.:     4.796 HEAT: -21.72065
 CYCLE:    38 TIME:   0.012 TIME LEFT:  2.00D  GRAD.:    14.586 HEAT: -21.66687
 CYCLE:    39 TIME:   0.020 TIME LEFT:  2.00D  GRAD.:    11.207 HEAT: -21.69703
 CYCLE:    40 TIME:   0.012 TIME LEFT:  2.00D  GRAD.:    69.929 HEAT: -20.76597
 CYCLE:    41 TIME:   0.008 TIME LEFT:  2.00D  GRAD.:    10.583 HEAT: -21.67375
 CYCLE:    42 TIME:   0.012 TIME LEFT:  2.00D  GRAD.:    32.780 HEAT: -21.22635
 CYCLE:    43 TIME:   0.012 TIME LEFT:  2.00D  GRAD.:    14.934 HEAT: -21.68068
 CYCLE:    44 TIME:   0.012 TIME LEFT:  2.00D  GRAD.:    30.377 HEAT: -21.52364
 CYCLE:    45 TIME:   0.008 TIME LEFT:  2.00D  GRAD.:    21.367 HEAT: -21.62825
 CYCLE:    46 TIME:   0.012 TIME LEFT:  2.00D  GRAD.:    24.737 HEAT: -21.59720
 CYCLE:    47 TIME:   0.012 TIME LEFT:  2.00D  GRAD.:    11.070 HEAT: -21.69810
 CYCLE:    48 TIME:   0.012 TIME LEFT:  2.00D  GRAD.:     2.611 HEAT: -21.73343
 CYCLE:    49 TIME:   0.012 TIME LEFT:  2.00D  GRAD.:     4.305 HEAT: -21.73073
 CYCLE:    50 TIME:   0.008 TIME LEFT:  2.00D  GRAD.:     0.697 HEAT: -21.73523
 CYCLE:    51 TIME:   0.012 TIME LEFT:  2.00D  GRAD.:     0.633 HEAT: -21.73550
 CYCLE:    52 TIME:   0.008 TIME LEFT:  2.00D  GRAD.:     0.798 HEAT: -21.73667
 CYCLE:    53 TIME:   0.012 TIME LEFT:  2.00D  GRAD.:     1.165 HEAT: -21.73864
 CYCLE:    54 TIME:   0.012 TIME LEFT:  2.00D  GRAD.:     3.633 HEAT: -21.73733
 CYCLE:    55 TIME:   0.008 TIME LEFT:  2.00D  GRAD.:     1.026 HEAT: -21.74056
 CYCLE:    56 TIME:   0.012 TIME LEFT:  2.00D  GRAD.:     0.645 HEAT: -21.74130
 CYCLE:    57 TIME:   0.008 TIME LEFT:  2.00D  GRAD.:     1.145 HEAT: -21.74296
 CYCLE:    58 TIME:   0.012 TIME LEFT:  2.00D  GRAD.:     1.583 HEAT: -21.74423
 CYCLE:    59 TIME:   0.012 TIME LEFT:  2.00D  GRAD.:     1.254 HEAT: -21.74581
 CYCLE:    60 TIME:   0.008 TIME LEFT:  2.00D  GRAD.:     1.036 HEAT: -21.74839
 CYCLE:    61 TIME:   0.012 TIME LEFT:  2.00D  GRAD.:     2.790 HEAT: -21.74856
 CYCLE:    62 TIME:   0.012 TIME LEFT:  2.00D  GRAD.:     0.986 HEAT: -21.75064
 CYCLE:    63 TIME:   0.008 TIME LEFT:  2.00D  GRAD.:     0.693 HEAT: -21.75148
 CYCLE:    64 TIME:   0.012 TIME LEFT:  2.00D  GRAD.:     0.828 HEAT: -21.75252
 CYCLE:    65 TIME:   0.012 TIME LEFT:  2.00D  GRAD.:     1.043 HEAT: -21.75368
 CYCLE:    66 TIME:   0.008 TIME LEFT:  2.00D  GRAD.:     1.905 HEAT: -21.75525
 CYCLE:    67 TIME:   0.012 TIME LEFT:  2.00D  GRAD.:     1.396 HEAT: -21.75715
 CYCLE:    68 TIME:   0.012 TIME LEFT:  2.00D  GRAD.:     1.461 HEAT: -21.75898
 CYCLE:    69 TIME:   0.012 TIME LEFT:  2.00D  GRAD.:     1.708 HEAT: -21.76211
 CYCLE:    70 TIME:   0.012 TIME LEFT:  2.00D  GRAD.:     4.539 HEAT: -21.76109
 CYCLE:    71 TIME:   0.008 TIME LEFT:  2.00D  GRAD.:     1.086 HEAT: -21.76565
 CYCLE:    72 TIME:   0.012 TIME LEFT:  2.00D  GRAD.:     0.852 HEAT: -21.76659
 CYCLE:    73 TIME:   0.008 TIME LEFT:  2.00D  GRAD.:     1.159 HEAT: -21.76865
 CYCLE:    74 TIME:   0.012 TIME LEFT:  2.00D  GRAD.:     4.267 HEAT: -21.76854
 CYCLE:    75 TIME:   0.008 TIME LEFT:  2.00D  GRAD.:     1.569 HEAT: -21.77176
 CYCLE:    76 TIME:   0.012 TIME LEFT:  2.00D  GRAD.:     0.948 HEAT: -21.77338
 CYCLE:    77 TIME:   0.012 TIME LEFT:  2.00D  GRAD.:     1.596 HEAT: -21.77590
 CYCLE:    78 TIME:   0.012 TIME LEFT:  2.00D  GRAD.:     1.613 HEAT: -21.77820
 CYCLE:    79 TIME:   0.008 TIME LEFT:  2.00D  GRAD.:     2.434 HEAT: -21.78150
 CYCLE:    80 TIME:   0.012 TIME LEFT:  2.00D  GRAD.:     2.230 HEAT: -21.78496
 CYCLE:    81 TIME:   0.012 TIME LEFT:  2.00D  GRAD.:     3.169 HEAT: -21.78755
 CYCLE:    82 TIME:   0.012 TIME LEFT:  2.00D  GRAD.:     4.627 HEAT: -21.79119
 CYCLE:    83 TIME:   0.008 TIME LEFT:  2.00D  GRAD.:     3.716 HEAT: -21.79742
 CYCLE:    84 TIME:   0.012 TIME LEFT:  2.00D  GRAD.:     2.685 HEAT: -21.80320
 CYCLE:    85 TIME:   0.012 TIME LEFT:  2.00D  GRAD.:     1.694 HEAT: -21.80908
 CYCLE:    86 TIME:   0.012 TIME LEFT:  2.00D  GRAD.:     2.324 HEAT: -21.81396
 CYCLE:    87 TIME:   0.012 TIME LEFT:  2.00D  GRAD.:     4.629 HEAT: -21.82283
 CYCLE:    88 TIME:   0.012 TIME LEFT:  2.00D  GRAD.:     6.658 HEAT: -21.83100
 CYCLE:    89 TIME:   0.012 TIME LEFT:  2.00D  GRAD.:     7.253 HEAT: -21.83330
 CYCLE:    90 TIME:   0.008 TIME LEFT:  2.00D  GRAD.:     6.392 HEAT: -21.85432
 CYCLE:    91 TIME:   0.012 TIME LEFT:  2.00D  GRAD.:     3.259 HEAT: -21.86514
 CYCLE:    92 TIME:   0.016 TIME LEFT:  2.00D  GRAD.:     2.616 HEAT: -21.86962
 CYCLE:    93 TIME:   0.012 TIME LEFT:  2.00D  GRAD.:     2.814 HEAT: -21.88195
 CYCLE:    94 TIME:   0.008 TIME LEFT:  2.00D  GRAD.:     3.304 HEAT: -21.89774
 CYCLE:    95 TIME:   0.012 TIME LEFT:  2.00D  GRAD.:     6.964 HEAT: -21.90080
 CYCLE:    96 TIME:   0.008 TIME LEFT:  2.00D  GRAD.:     2.866 HEAT: -21.91004
 CYCLE:    97 TIME:   0.016 TIME LEFT:  2.00D  GRAD.:     2.796 HEAT: -21.91556
 CYCLE:    98 TIME:   0.008 TIME LEFT:  2.00D  GRAD.:     2.181 HEAT: -21.92229
 CYCLE:    99 TIME:   0.012 TIME LEFT:  2.00D  GRAD.:     3.389 HEAT: -21.93956
 CYCLE:   100 TIME:   0.012 TIME LEFT:  2.00D  GRAD.:     5.520 HEAT: -21.94557
 CYCLE:   101 TIME:   0.012 TIME LEFT:  2.00D  GRAD.:     2.696 HEAT: -21.95509
 CYCLE:   102 TIME:   0.008 TIME LEFT:  2.00D  GRAD.:     2.536 HEAT: -21.96443
 CYCLE:   103 TIME:   0.012 TIME LEFT:  2.00D  GRAD.:     4.040 HEAT: -21.97000
 CYCLE:   104 TIME:   0.012 TIME LEFT:  2.00D  GRAD.:     4.520 HEAT: -21.97950
 CYCLE:   105 TIME:   0.012 TIME LEFT:  2.00D  GRAD.:     2.863 HEAT: -21.98887
 CYCLE:   106 TIME:   0.008 TIME LEFT:  2.00D  GRAD.:     2.876 HEAT: -21.99850
 CYCLE:   107 TIME:   0.012 TIME LEFT:  2.00D  GRAD.:     3.156 HEAT: -22.00951
 CYCLE:   108 TIME:   0.012 TIME LEFT:  2.00D  GRAD.:     5.650 HEAT: -22.01268
 CYCLE:   109 TIME:   0.008 TIME LEFT:  2.00D  GRAD.:     1.855 HEAT: -22.02241
 CYCLE:   110 TIME:   0.012 TIME LEFT:  2.00D  GRAD.:     1.694 HEAT: -22.02546
 CYCLE:   111 TIME:   0.012 TIME LEFT:  2.00D  GRAD.:     2.498 HEAT: -22.03107
 CYCLE:   112 TIME:   0.012 TIME LEFT:  2.00D  GRAD.:     3.413 HEAT: -22.03978
 CYCLE:   113 TIME:   0.012 TIME LEFT:  2.00D  GRAD.:     3.967 HEAT: -22.04988
 CYCLE:   114 TIME:   0.008 TIME LEFT:  2.00D  GRAD.:     2.167 HEAT: -22.05981
 CYCLE:   115 TIME:   0.012 TIME LEFT:  2.00D  GRAD.:     2.432 HEAT: -22.06675
 CYCLE:   116 TIME:   0.012 TIME LEFT:  2.00D  GRAD.:     3.616 HEAT: -22.07169
 CYCLE:   117 TIME:   0.012 TIME LEFT:  2.00D  GRAD.:     2.440 HEAT: -22.07717
 CYCLE:   118 TIME:   0.008 TIME LEFT:  2.00D  GRAD.:     1.614 HEAT: -22.08048
 CYCLE:   119 TIME:   0.012 TIME LEFT:  2.00D  GRAD.:     1.580 HEAT: -22.08334
 CYCLE:   120 TIME:   0.012 TIME LEFT:  2.00D  GRAD.:     3.397 HEAT: -22.08840
 CYCLE:   121 TIME:   0.016 TIME LEFT:  2.00D  GRAD.:     1.918 HEAT: -22.09311
 CYCLE:   122 TIME:   0.020 TIME LEFT:  2.00D  GRAD.:     1.792 HEAT: -22.09655
 CYCLE:   123 TIME:   0.012 TIME LEFT:  2.00D  GRAD.:     2.201 HEAT: -22.10186
 CYCLE:   124 TIME:   0.012 TIME LEFT:  2.00D  GRAD.:     2.779 HEAT: -22.10928
 CYCLE:   125 TIME:   0.008 TIME LEFT:  2.00D  GRAD.:     2.773 HEAT: -22.11799
 CYCLE:   126 TIME:   0.012 TIME LEFT:  2.00D  GRAD.:     2.361 HEAT: -22.12554
 CYCLE:   127 TIME:   0.012 TIME LEFT:  2.00D  GRAD.:     2.507 HEAT: -22.13412
 CYCLE:   128 TIME:   0.012 TIME LEFT:  2.00D  GRAD.:     2.983 HEAT: -22.14220
 CYCLE:   129 TIME:   0.008 TIME LEFT:  2.00D  GRAD.:     2.530 HEAT: -22.14982
 CYCLE:   130 TIME:   0.012 TIME LEFT:  2.00D  GRAD.:     1.608 HEAT: -22.15491
 CYCLE:   131 TIME:   0.012 TIME LEFT:  2.00D  GRAD.:     1.570 HEAT: -22.15898
 CYCLE:   132 TIME:   0.012 TIME LEFT:  2.00D  GRAD.:     2.840 HEAT: -22.16224
 CYCLE:   133 TIME:   0.008 TIME LEFT:  2.00D  GRAD.:     1.595 HEAT: -22.16571
 CYCLE:   134 TIME:   0.008 TIME LEFT:  2.00D  GRAD.:     1.496 HEAT: -22.16816
 CYCLE:   135 TIME:   0.012 TIME LEFT:  2.00D  GRAD.:     2.001 HEAT: -22.16976
 CYCLE:   136 TIME:   0.008 TIME LEFT:  2.00D  GRAD.:     1.516 HEAT: -22.17145
 CYCLE:   137 TIME:   0.012 TIME LEFT:  2.00D  GRAD.:     1.623 HEAT: -22.17515
 CYCLE:   138 TIME:   0.008 TIME LEFT:  2.00D  GRAD.:     2.952 HEAT: -22.17661
 CYCLE:   139 TIME:   0.008 TIME LEFT:  2.00D  GRAD.:     1.535 HEAT: -22.17877
 CYCLE:   140 TIME:   0.012 TIME LEFT:  2.00D  GRAD.:     1.011 HEAT: -22.18095
 CYCLE:   141 TIME:   0.008 TIME LEFT:  2.00D  GRAD.:     1.318 HEAT: -22.18245
 CYCLE:   142 TIME:   0.012 TIME LEFT:  2.00D  GRAD.:     1.838 HEAT: -22.18510
 CYCLE:   143 TIME:   0.008 TIME LEFT:  2.00D  GRAD.:     2.004 HEAT: -22.18712
 CYCLE:   144 TIME:   0.012 TIME LEFT:  2.00D  GRAD.:     0.951 HEAT: -22.18896
 CYCLE:   145 TIME:   0.008 TIME LEFT:  2.00D  GRAD.:     0.968 HEAT: -22.18995
 CYCLE:   146 TIME:   0.008 TIME LEFT:  2.00D  GRAD.:     1.270 HEAT: -22.19148
 CYCLE:   147 TIME:   0.012 TIME LEFT:  2.00D  GRAD.:     3.278 HEAT: -22.19308
 CYCLE:   148 TIME:   0.008 TIME LEFT:  2.00D  GRAD.:     1.532 HEAT: -22.19598
 CYCLE:   149 TIME:   0.008 TIME LEFT:  2.00D  GRAD.:     1.220 HEAT: -22.19846
 CYCLE:   150 TIME:   0.012 TIME LEFT:  2.00D  GRAD.:     1.775 HEAT: -22.20039
 CYCLE:   151 TIME:   0.008 TIME LEFT:  2.00D  GRAD.:     2.617 HEAT: -22.20204
 CYCLE:   152 TIME:   0.008 TIME LEFT:  2.00D  GRAD.:     1.290 HEAT: -22.20451
 CYCLE:   153 TIME:   0.012 TIME LEFT:  2.00D  GRAD.:     1.210 HEAT: -22.20634
 CYCLE:   154 TIME:   0.008 TIME LEFT:  2.00D  GRAD.:     1.272 HEAT: -22.20829
 CYCLE:   155 TIME:   0.008 TIME LEFT:  2.00D  GRAD.:     2.057 HEAT: -22.21036
 CYCLE:   156 TIME:   0.012 TIME LEFT:  2.00D  GRAD.:     1.295 HEAT: -22.21201
 CYCLE:   157 TIME:   0.008 TIME LEFT:  2.00D  GRAD.:     0.837 HEAT: -22.21292
 CYCLE:   158 TIME:   0.012 TIME LEFT:  2.00D  GRAD.:     0.900 HEAT: -22.21404
 CYCLE:   159 TIME:   0.008 TIME LEFT:  2.00D  GRAD.:     1.430 HEAT: -22.21540
 CYCLE:   160 TIME:   0.012 TIME LEFT:  2.00D  GRAD.:     1.260 HEAT: -22.21725
 CYCLE:   161 TIME:   0.008 TIME LEFT:  2.00D  GRAD.:     1.249 HEAT: -22.21889
 CYCLE:   162 TIME:   0.012 TIME LEFT:  2.00D  GRAD.:     1.047 HEAT: -22.21992
 CYCLE:   163 TIME:   0.012 TIME LEFT:  2.00D  GRAD.:     0.799 HEAT: -22.22063
 CYCLE:   164 TIME:   0.008 TIME LEFT:  2.00D  GRAD.:     0.793 HEAT: -22.22146
 CYCLE:   165 TIME:   0.008 TIME LEFT:  2.00D  GRAD.:     1.800 HEAT: -22.22181
 CYCLE:   166 TIME:   0.012 TIME LEFT:  2.00D  GRAD.:     0.769 HEAT: -22.22250
 CYCLE:   167 TIME:   0.008 TIME LEFT:  2.00D  GRAD.:     0.667 HEAT: -22.22294
 CYCLE:   168 TIME:   0.012 TIME LEFT:  2.00D  GRAD.:     0.778 HEAT: -22.22345
 CYCLE:   169 TIME:   0.008 TIME LEFT:  2.00D  GRAD.:     0.764 HEAT: -22.22412
 CYCLE:   170 TIME:   0.012 TIME LEFT:  2.00D  GRAD.:     1.783 HEAT: -22.22402
 CYCLE:   171 TIME:   0.008 TIME LEFT:  2.00D  GRAD.:     0.457 HEAT: -22.22482
 CYCLE:   172 TIME:   0.008 TIME LEFT:  2.00D  GRAD.:     0.359 HEAT: -22.22498
 CYCLE:   173 TIME:   0.008 TIME LEFT:  2.00D  GRAD.:     0.668 HEAT: -22.22531
 CYCLE:   174 TIME:   0.012 TIME LEFT:  2.00D  GRAD.:     0.680 HEAT: -22.22562
 CYCLE:   175 TIME:   0.012 TIME LEFT:  2.00D  GRAD.:     0.446 HEAT: -22.22591
 CYCLE:   176 TIME:   0.008 TIME LEFT:  2.00D  GRAD.:     0.415 HEAT: -22.22615
 CYCLE:   177 TIME:   0.012 TIME LEFT:  2.00D  GRAD.:     0.581 HEAT: -22.22655
 CYCLE:   178 TIME:   0.012 TIME LEFT:  2.00D  GRAD.:     0.865 HEAT: -22.22680
 CYCLE:   179 TIME:   0.008 TIME LEFT:  2.00D  GRAD.:     0.444 HEAT: -22.22707
 CYCLE:   180 TIME:   0.012 TIME LEFT:  2.00D  GRAD.:     0.371 HEAT: -22.22731
 CYCLE:   181 TIME:   0.012 TIME LEFT:  2.00D  GRAD.:     0.448 HEAT: -22.22750
 CYCLE:   182 TIME:   0.012 TIME LEFT:  2.00D  GRAD.:     1.855 HEAT: -22.22726
 CYCLE:   183 TIME:   0.012 TIME LEFT:  2.00D  GRAD.:     0.317 HEAT: -22.22776
 CYCLE:   184 TIME:   0.008 TIME LEFT:  2.00D  GRAD.:     0.237 HEAT: -22.22780
 CYCLE:   185 TIME:   0.012 TIME LEFT:  2.00D  GRAD.:     0.253 HEAT: -22.22788
 CYCLE:   186 TIME:   0.012 TIME LEFT:  2.00D  GRAD.:     0.296 HEAT: -22.22800
 CYCLE:   187 TIME:   0.008 TIME LEFT:  2.00D  GRAD.:     0.753 HEAT: -22.22812
 CYCLE:   188 TIME:   0.012 TIME LEFT:  2.00D  GRAD.:     0.380 HEAT: -22.22835
 CYCLE:   189 TIME:   0.008 TIME LEFT:  2.00D  GRAD.:     0.297 HEAT: -22.22849
 CYCLE:   190 TIME:   0.012 TIME LEFT:  2.00D  GRAD.:     0.396 HEAT: -22.22866
 CYCLE:   191 TIME:   0.012 TIME LEFT:  2.00D  GRAD.:     0.916 HEAT: -22.22885
 CYCLE:   192 TIME:   0.012 TIME LEFT:  2.00D  GRAD.:     0.471 HEAT: -22.22914
 CYCLE:   193 TIME:   0.008 TIME LEFT:  2.00D  GRAD.:     0.363 HEAT: -22.22938
 CYCLE:   194 TIME:   0.012 TIME LEFT:  2.00D  GRAD.:     0.427 HEAT: -22.22959
 CYCLE:   195 TIME:   0.012 TIME LEFT:  2.00D  GRAD.:     0.597 HEAT: -22.22991
 CYCLE:   196 TIME:   0.012 TIME LEFT:  2.00D  GRAD.:     0.503 HEAT: -22.23018
 CYCLE:   197 TIME:   0.008 TIME LEFT:  2.00D  GRAD.:     0.447 HEAT: -22.23038
 CYCLE:   198 TIME:   0.012 TIME LEFT:  2.00D  GRAD.:     1.128 HEAT: -22.23044
 CYCLE:   199 TIME:   0.012 TIME LEFT:  2.00D  GRAD.:     0.689 HEAT: -22.23080
 CYCLE:   200 TIME:   0.012 TIME LEFT:  2.00D  GRAD.:     0.365 HEAT: -22.23095
 CYCLE:   201 TIME:   0.008 TIME LEFT:  2.00D  GRAD.:     0.239 HEAT: -22.23102
 CYCLE:   202 TIME:   0.012 TIME LEFT:  2.00D  GRAD.:     0.283 HEAT: -22.23118
 CYCLE:   203 TIME:   0.012 TIME LEFT:  2.00D  GRAD.:     0.364 HEAT: -22.23140
 CYCLE:   204 TIME:   0.008 TIME LEFT:  2.00D  GRAD.:     0.284 HEAT: -22.23148
 CYCLE:   205 TIME:   0.012 TIME LEFT:  2.00D  GRAD.:     0.317 HEAT: -22.23146
 CYCLE:   206 TIME:   0.012 TIME LEFT:  2.00D  GRAD.:     0.318 HEAT: -22.23162
 CYCLE:   207 TIME:   0.012 TIME LEFT:  2.00D  GRAD.:     0.391 HEAT: -22.23187
 CYCLE:   208 TIME:   0.008 TIME LEFT:  2.00D  GRAD.:     0.430 HEAT: -22.23196
 CYCLE:   209 TIME:   0.012 TIME LEFT:  2.00D  GRAD.:     0.251 HEAT: -22.23204
 CYCLE:   210 TIME:   0.012 TIME LEFT:  2.00D  GRAD.:     0.281 HEAT: -22.23210
 CYCLE:   211 TIME:   0.008 TIME LEFT:  2.00D  GRAD.:     0.269 HEAT: -22.23218
 CYCLE:   212 TIME:   0.012 TIME LEFT:  2.00D  GRAD.:     0.271 HEAT: -22.23229
 CYCLE:   213 TIME:   0.012 TIME LEFT:  2.00D  GRAD.:     0.520 HEAT: -22.23240
 CYCLE:   214 TIME:   0.012 TIME LEFT:  2.00D  GRAD.:     0.260 HEAT: -22.23246
 CYCLE:   215 TIME:   0.008 TIME LEFT:  2.00D  GRAD.:     0.236 HEAT: -22.23249
 CYCLE:   216 TIME:   0.012 TIME LEFT:  2.00D  GRAD.:     0.261 HEAT: -22.23253
 CYCLE:   217 TIME:   0.008 TIME LEFT:  2.00D  GRAD.:     0.194 HEAT: -22.23258

 -------------------------------------------------------------------------------
 pm3  precise nosym THREADS=1
 InChI=1S/C12H22/c1-4-7-10(5-2)12-9-8-11(12)6-3/h4,7,10-12H,5-6,8-9H2,1-3H3



     HERBERTS TEST WAS SATISFIED IN BFGS                      
     SCF FIELD WAS ACHIEVED                                   


                              PM3 CALCULATION
                                                       MOPAC v23.1.2 MacOS
                                                       Tue Jun  3 16:37:21 2025




          FINAL HEAT OF FORMATION =        -22.23258 KCAL/MOL =     -93.02110 KJ/MOL


          COSMO AREA              =        232.12 SQUARE ANGSTROMS
          COSMO VOLUME            =        259.14 CUBIC ANGSTROMS

          GRADIENT NORM           =          0.19409          =       0.03329 PER ATOM
          IONIZATION POTENTIAL    =          9.734519 EV
          HOMO LUMO ENERGIES (EV) =         -9.735  1.112
          NO. OF FILLED LEVELS    =         35
          MOLECULAR WEIGHT        =        166.3058         POINT GROUP:  C1  

          MOLECULAR DIMENSIONS (Angstroms)

            Atom       Atom       Distance
            H    28    H    25     8.14764
            H    30    H    23     7.73732
            H    19    H    20     4.54606


          SCF CALCULATIONS        =        218

          WALL-CLOCK TIME         =      2.313 SECONDS
          COMPUTATION TIME        =      1.632 SECONDS




   ATOM   CHEMICAL          X               Y               Z
  NUMBER   SYMBOL      (ANGSTROMS)     (ANGSTROMS)     (ANGSTROMS)

     1       C         -0.85927433  *  -0.77487434  *  -0.28863075  *
     2       C         -1.64882663  *   0.18403769  *   0.65248757  *
     3       C          0.63450927  *  -0.89527698  *   0.00622182  *
     4       C         -2.51686608  *  -1.00647218  *   1.12457104  *
     5       C         -1.72265175  *  -1.95874838  *   0.21420724  *
     6       C         -2.42678830  *   1.28643673  *  -0.03620241  *
     7       C          1.26226134  *  -1.97519429  *  -0.88043451  *
     8       C         -1.52957557  *   2.41024445  *  -0.50314405  *
     9       C          2.68135200  *  -2.29347470  *  -0.46754992  *
    10       C          2.34138539  *   2.53707287  *   0.51154416  *
    11       C          1.29548471  *   0.42585003  *  -0.23959732  *
    12       C          1.73039256  *   1.21032512  *   0.74809532  *
    13       H         -1.01128859  *   0.61377139  *   1.45624402  *
    14       H         -1.01108149  *  -0.54563341  *  -1.36566716  *
    15       H          0.76733529  *  -1.19333087  *   1.07715328  *
    16       H         -3.19077665  *   1.67675988  *   0.66524577  *
    17       H         -2.99401933  *   0.87393481  *  -0.89490499  *
    18       H          0.64225006  *  -2.89327496  *  -0.83167724  *
    19       H          1.23713998  *  -1.65460351  *  -1.94136011  *
    20       H         -2.44560348  *  -1.22720385  *   2.19981783  *
    21       H         -3.58717162  *  -0.91941188  *   0.88086708  *
    22       H         -1.16531806  *  -2.74604099  *   0.74612961  *
    23       H         -2.31608061  *  -2.45437713  *  -0.56827259  *
    24       H         -0.99248990  *   2.87860132  *   0.33378678  *
    25       H         -2.10363984  *   3.19599562  *  -1.00953204  *
    26       H         -0.76725110  *   2.04635362  *  -1.20767482  *
    27       H          2.72824409  *  -2.68194593  *   0.55858168  *
    28       H          3.12713747  *  -3.04975570  *  -1.12598500  *
    29       H          3.32071562  *  -1.40119886  *  -0.50765945  *
    30       H          3.28637266  *   2.63807463  *   1.06104249  *
    31       H          2.55168916  *   2.72813339  *  -0.54927371  *
    32       H          1.66484530  *   3.32941188  *   0.86218626  *
    33       H          1.38576043  *   0.73101927  *  -1.29075849  *
    34       H          1.63182802  *   0.90469528  *   1.79764262  *

                             CARTESIAN COORDINATES

   1    C       -0.859274332    -0.774874335    -0.288630746
   2    C       -1.648826633     0.184037689     0.652487566
   3    C        0.634509275    -0.895276981     0.006221821
   4    C       -2.516866084    -1.006472184     1.124571042
   5    C       -1.722651750    -1.958748382     0.214207241
   6    C       -2.426788303     1.286436732    -0.036202414
   7    C        1.262261342    -1.975194289    -0.880434508
   8    C       -1.529575573     2.410244446    -0.503144055
   9    C        2.681351995    -2.293474696    -0.467549919
  10    C        2.341385386     2.537072866     0.511544158
  11    C        1.295484712     0.425850028    -0.239597324
  12    C        1.730392556     1.210325123     0.748095316
  13    H       -1.011288591     0.613771389     1.456244015
  14    H       -1.011081487    -0.545633411    -1.365667163
  15    H        0.767335288    -1.193330866     1.077153284
  16    H       -3.190776648     1.676759876     0.665245766
  17    H       -2.994019329     0.873934805    -0.894904993
  18    H        0.642250058    -2.893274963    -0.831677242
  19    H        1.237139982    -1.654603509    -1.941360108
  20    H       -2.445603483    -1.227203850     2.199817834
  21    H       -3.587171619    -0.919411884     0.880867080
  22    H       -1.165318060    -2.746040990     0.746129611
  23    H       -2.316080610    -2.454377131    -0.568272588
  24    H       -0.992489902     2.878601323     0.333786780
  25    H       -2.103639838     3.195995617    -1.009532035
  26    H       -0.767251101     2.046353617    -1.207674823
  27    H        2.728244090    -2.681945932     0.558581677
  28    H        3.127137471    -3.049755701    -1.125984999
  29    H        3.320715624    -1.401198859    -0.507659451
  30    H        3.286372664     2.638074631     1.061042495
  31    H        2.551689160     2.728133386    -0.549273707
  32    H        1.664845296     3.329411876     0.862186263
  33    H        1.385760428     0.731019275    -1.290758495
  34    H        1.631828017     0.904695285     1.797642619


           Empirical Formula: C12 H22  =    34 atoms



      MOLECULAR POINT GROUP   :   C1  


                  EIGENVALUES  
 -42.38248 -36.98866 -34.40149 -32.64178 -28.79237 -25.77644 -24.64674 -22.78600
 -21.58763 -20.11736 -19.95883 -18.36081 -16.73770 -16.65691 -15.85434 -15.51949
 -15.19225 -14.54954 -14.28893 -14.25510 -14.07229 -13.84025 -13.49561 -13.12148
 -12.91620 -12.60094 -12.34985 -12.24738 -12.15361 -11.84323 -11.68417 -11.34622
 -11.25360 -10.97839  -9.73452   1.11180   3.18937   3.28368   3.41684   3.57798
   3.67873   3.79843   3.81987   3.89164   3.96413   4.03918   4.05093   4.07783
   4.09077   4.19357   4.24672   4.28788   4.37298   4.41715   4.45138   4.48659
   4.54737   4.55637   4.57712   4.70732   4.90724   4.95256   4.97755   5.02608
   5.06621   5.10857   5.53573   5.66453   5.75743   6.01937


              NET ATOMIC CHARGES AND DIPOLE CONTRIBUTIONS

  ATOM NO.   TYPE          CHARGE      No. of ELECS.   s-Pop       p-Pop       
    1          C          -0.089924        4.0899     1.19674     2.89318
    2          C          -0.095264        4.0953     1.19454     2.90073
    3          C          -0.037112        4.0371     1.16810     2.86901
    4          C          -0.110170        4.1102     1.17364     2.93653
    5          C          -0.110343        4.1103     1.17387     2.93647
    6          C          -0.085844        4.0858     1.15671     2.92914
    7          C          -0.096912        4.0969     1.16154     2.93537
    8          C          -0.117419        4.1174     1.14005     2.97737
    9          C          -0.112077        4.1121     1.13847     2.97361
   10          C          -0.074872        4.0749     1.12552     2.94935
   11          C          -0.145966        4.1460     1.19898     2.94699
   12          C          -0.150017        4.1500     1.19414     2.95588
   13          H           0.079166        0.9208     0.92083
   14          H           0.077238        0.9228     0.92276
   15          H           0.070481        0.9295     0.92952
   16          H           0.048392        0.9516     0.95161
   17          H           0.049920        0.9501     0.95008
   18          H           0.051645        0.9484     0.94835
   19          H           0.050315        0.9497     0.94969
   20          H           0.054526        0.9455     0.94547
   21          H           0.058094        0.9419     0.94191
   22          H           0.059890        0.9401     0.94011
   23          H           0.054902        0.9451     0.94510
   24          H           0.040402        0.9596     0.95960
   25          H           0.036482        0.9635     0.96352
   26          H           0.043996        0.9560     0.95600
   27          H           0.037486        0.9625     0.96251
   28          H           0.036548        0.9635     0.96345
   29          H           0.043293        0.9567     0.95671
   30          H           0.043122        0.9569     0.95688
   31          H           0.041119        0.9589     0.95888
   32          H           0.044634        0.9554     0.95537
   33          H           0.104466        0.8955     0.89553
   34          H           0.099805        0.9002     0.90019
 DIPOLE           X         Y         Z       TOTAL
 POINT-CHG.     0.030     0.097     0.025     0.104
 HYBRID        -0.000     0.031    -0.008     0.032
 SUM            0.030     0.127     0.017     0.132


          ATOMIC ORBITAL ELECTRON POPULATIONS

     Atom    s        px        py        pz   
    1  C   1.19674   0.93383   0.96378   0.99557
    2  C   1.19454   0.97356   0.94261   0.98456
    3  C   1.16810   0.93664   0.93389   0.99848
    4  C   1.17364   0.98271   0.96433   0.98949
    5  C   1.17387   0.98556   0.95828   0.99264
    6  C   1.15671   0.97215   0.95844   0.99854
    7  C   1.16154   0.96374   0.98327   0.98837
    8  C   1.14005   0.99405   0.97534   1.00798
    9  C   1.13847   0.96143   1.00808   1.00409
   10  C   1.12552   0.99188   0.94976   1.00771
   11  C   1.19898   0.99596   0.96529   0.98575
   12  C   1.19414   1.00303   0.96804   0.98481
   13  H   0.92083
   14  H   0.92276
   15  H   0.92952
   16  H   0.95161
   17  H   0.95008
   18  H   0.94835
   19  H   0.94969
   20  H   0.94547
   21  H   0.94191
   22  H   0.94011
   23  H   0.94510
   24  H   0.95960
   25  H   0.96352
   26  H   0.95600
   27  H   0.96251
   28  H   0.96345
   29  H   0.95671
   30  H   0.95688
   31  H   0.95888
   32  H   0.95537
   33  H   0.89553
   34  H   0.90019
 *******************************************************************************
 **                                                                           **
 **                              MOPAC v23.1.2                                **
 **                                                                           **
 *******************************************************************************
 **          Digital Object Identifier (DOI): 10.5281/zenodo.6511958          **
 **    Visit the DOI location for information on how to cite this program.    **
 *******************************************************************************

                              PM3 CALCULATION RESULTS

 *******************************************************************************
 *  CALCULATION DONE: (MAX THREADS = 1)              Tue Jun  3 16:37:21 2025  *
 *  PM3        - The PM3 Hamiltonian to be used
 *  OLDGEO     - PREVIOUS GEOMETRY TO BE USED
 *  PRECISE    - TIGHTER CRITERIA TO BE USED
 *  NOSYM      - POINT-GROUP SYMMETRY SET TO C1
 *  THREADS=1  - MULTI-THREADING NOT USED
 *  T=         - A TIME OF 172800.0 SECONDS REQUESTED
 *  DUMP=N     - RESTART FILE WRITTEN EVERY 7200.0 SECONDS REQUESTED
 *  THERMO     - THERMODYNAMIC QUANTITIES TO BE CALCULATED
 *******************************************************************************
oldgeo thermo nosym precise THREADS=1  pm3
 InChI=1S/C12H22/c1-4-7-10(5-2)12-9-8-11(12)6-3/h4,7,10-12H,5-6,8-9H2,1-3H3

   ATOM   CHEMICAL          X               Y               Z
  NUMBER   SYMBOL      (ANGSTROMS)     (ANGSTROMS)     (ANGSTROMS)

     1       C         -0.85927433  *  -0.77487434  *  -0.28863075  *
     2       C         -1.64882663  *   0.18403769  *   0.65248757  *
     3       C          0.63450927  *  -0.89527698  *   0.00622182  *
     4       C         -2.51686608  *  -1.00647218  *   1.12457104  *
     5       C         -1.72265175  *  -1.95874838  *   0.21420724  *
     6       C         -2.42678830  *   1.28643673  *  -0.03620241  *
     7       C          1.26226134  *  -1.97519429  *  -0.88043451  *
     8       C         -1.52957557  *   2.41024445  *  -0.50314405  *
     9       C          2.68135200  *  -2.29347470  *  -0.46754992  *
    10       C          2.34138539  *   2.53707287  *   0.51154416  *
    11       C          1.29548471  *   0.42585003  *  -0.23959732  *
    12       C          1.73039256  *   1.21032512  *   0.74809532  *
    13       H         -1.01128859  *   0.61377139  *   1.45624402  *
    14       H         -1.01108149  *  -0.54563341  *  -1.36566716  *
    15       H          0.76733529  *  -1.19333087  *   1.07715328  *
    16       H         -3.19077665  *   1.67675988  *   0.66524577  *
    17       H         -2.99401933  *   0.87393481  *  -0.89490499  *
    18       H          0.64225006  *  -2.89327496  *  -0.83167724  *
    19       H          1.23713998  *  -1.65460351  *  -1.94136011  *
    20       H         -2.44560348  *  -1.22720385  *   2.19981783  *
    21       H         -3.58717162  *  -0.91941188  *   0.88086708  *
    22       H         -1.16531806  *  -2.74604099  *   0.74612961  *
    23       H         -2.31608061  *  -2.45437713  *  -0.56827259  *
    24       H         -0.99248990  *   2.87860132  *   0.33378678  *
    25       H         -2.10363984  *   3.19599562  *  -1.00953204  *
    26       H         -0.76725110  *   2.04635362  *  -1.20767482  *
    27       H          2.72824409  *  -2.68194593  *   0.55858168  *
    28       H          3.12713747  *  -3.04975570  *  -1.12598500  *
    29       H          3.32071562  *  -1.40119886  *  -0.50765945  *
    30       H          3.28637266  *   2.63807463  *   1.06104249  *
    31       H          2.55168916  *   2.72813339  *  -0.54927371  *
    32       H          1.66484530  *   3.32941188  *   0.86218626  *
    33       H          1.38576043  *   0.73101927  *  -1.29075849  *
    34       H          1.63182802  *   0.90469528  *   1.79764262  *



          CARTESIAN COORDINATES 

    NO.       ATOM           X           Y           Z

     1         C         -0.8593     -0.7749     -0.2886
     2         C         -1.6488      0.1840      0.6525
     3         C          0.6345     -0.8953      0.0062
     4         C         -2.5169     -1.0065      1.1246
     5         C         -1.7227     -1.9587      0.2142
     6         C         -2.4268      1.2864     -0.0362
     7         C          1.2623     -1.9752     -0.8804
     8         C         -1.5296      2.4102     -0.5031
     9         C          2.6814     -2.2935     -0.4675
    10         C          2.3414      2.5371      0.5115
    11         C          1.2955      0.4259     -0.2396
    12         C          1.7304      1.2103      0.7481
    13         H         -1.0113      0.6138      1.4562
    14         H         -1.0111     -0.5456     -1.3657
    15         H          0.7673     -1.1933      1.0772
    16         H         -3.1908      1.6768      0.6652
    17         H         -2.9940      0.8739     -0.8949
    18         H          0.6423     -2.8933     -0.8317
    19         H          1.2371     -1.6546     -1.9414
    20         H         -2.4456     -1.2272      2.1998
    21         H         -3.5872     -0.9194      0.8809
    22         H         -1.1653     -2.7460      0.7461
    23         H         -2.3161     -2.4544     -0.5683
    24         H         -0.9925      2.8786      0.3338
    25         H         -2.1036      3.1960     -1.0095
    26         H         -0.7673      2.0464     -1.2077
    27         H          2.7282     -2.6819      0.5586
    28         H          3.1271     -3.0498     -1.1260
    29         H          3.3207     -1.4012     -0.5077
    30         H          3.2864      2.6381      1.0610
    31         H          2.5517      2.7281     -0.5493
    32         H          1.6648      3.3294      0.8622
    33         H          1.3858      0.7310     -1.2908
    34         H          1.6318      0.9047      1.7976

  H: (PM3): J. J. P. STEWART, J. COMP. CHEM. 10, 209 (1989).
  C: (PM3): J. J. P. STEWART, J. COMP. CHEM. 10, 209 (1989).

           Empirical Formula: C12 H22  =    34 atoms



      MOLECULAR POINT GROUP   :   C1  


      RHF CALCULATION, NO. OF DOUBLY OCCUPIED LEVELS = 35



          HEAT OF FORMATION =     -22.232578 KCALS/MOLE


          CARTESIAN COORDINATE DERIVATIVES

   NUMBER  ATOM         X            Y            Z

     1       C      0.004040    -0.007038    -0.009235
     2       C     -0.004237    -0.035440    -0.003698
     3       C      0.009130     0.034242     0.013568
     4       C     -0.010914     0.028325    -0.021305
     5       C      0.018104    -0.019534     0.024181
     6       C     -0.011480     0.071345    -0.026750
     7       C     -0.018053     0.000507    -0.015029
     8       C     -0.011987    -0.046937    -0.000313
     9       C      0.014465    -0.032251     0.010269
    10       C     -0.022562     0.004749     0.045047
    11       C     -0.033661    -0.028568    -0.014637
    12       C      0.051391     0.025191    -0.045346
    13       H      0.023551     0.005413    -0.029384
    14       H     -0.001032    -0.011378    -0.000247
    15       H     -0.006463     0.003781    -0.015724
    16       H     -0.007562    -0.004027     0.021911
    17       H     -0.002009     0.015011     0.013541
    18       H     -0.011958    -0.005117    -0.001158
    19       H     -0.005161    -0.029965     0.006683
    20       H     -0.015437    -0.006366    -0.004171
    21       H      0.002221    -0.037048     0.020933
    22       H      0.012916     0.013264    -0.007966
    23       H      0.011134     0.011691     0.007456
    24       H     -0.016043     0.025578    -0.003185
    25       H     -0.015856     0.019930    -0.005442
    26       H      0.000981     0.000618    -0.001233
    27       H     -0.001600     0.002978    -0.008203
    28       H     -0.007630     0.013526     0.017981
    29       H      0.017564     0.001400     0.003911
    30       H      0.022501     0.009396     0.014070
    31       H     -0.004921    -0.000808    -0.013757
    32       H      0.006923    -0.026308     0.006907
    33       H      0.012424    -0.010600     0.009938
    34       H      0.001219     0.014441     0.010385



          GRADIENT NORM =   0.19408

          MOLECULAR WEIGHT =  166.31



          ROTATIONAL CONSTANTS IN CM(-1)

          A =    0.03119426   B =    0.02513189   C =    0.01571149



           PRINCIPAL MOMENTS OF INERTIA IN UNITS OF 10**(-40)*GRAM-CM**2

          A =      897.3687   B =     1113.8339   C =     1781.6739


          ORIENTATION OF MOLECULE IN FORCE CALCULATION

    NO.       ATOM         X         Y         Z

     1          C      -0.2445   -1.0033   -0.4777
     2          C       1.3139   -1.0033   -0.4777
     3          C      -0.8974    0.3775   -0.4777
     4          C       1.3062   -1.7414   -1.8374
     5          C      -0.2319   -1.7207   -1.8506
     6          C       1.9704   -1.7777    0.6466
     7          C      -2.4154    0.2438   -0.6335
     8          C       1.9254   -1.0261    1.9577
     9          C      -3.0809    1.5802   -0.8713
    10          C       0.6550    2.7666    2.1361
    11          C      -0.5678    1.0807    0.8028
    12          C       0.2910    2.0997    0.8664
    13          H       1.7407    0.0224   -0.5326
    14          H      -0.6770   -1.6220    0.3383
    15          H      -0.5013    0.9631   -1.3458
    16          H       3.0213   -1.9916    0.3673
    17          H       1.4854   -2.7680    0.7618
    18          H      -2.6367   -0.4412   -1.4770
    19          H      -2.8461   -0.2416    0.2654
    20          H       1.7836   -1.1897   -2.6606
    21          H       1.7548   -2.7468   -1.8167
    22          H      -0.6775   -1.1462   -2.6782
    23          H      -0.7088   -2.7121   -1.8510
    24          H       2.4469   -0.0606    1.8931
    25          H       2.3939   -1.6022    2.7651
    26          H       0.8898   -0.8097    2.2588
    27          H      -2.7240    2.0527   -1.7962
    28          H      -4.1697    1.4730   -0.9559
    29          H      -2.8800    2.2805   -0.0492
    30          H       0.5702    3.8574    2.0455
    31          H       0.0254    2.4533    2.9796
    32          H       1.6970    2.5332    2.3971
    33          H      -1.0606    0.6943    1.7051
    34          H       0.7867    2.4782   -0.0368


    FIRST DERIVATIVES WILL BE USED IN THE CALCULATION OF SECOND DERIVATIVES

          ESTIMATED TIME TO COMPLETE CALCULATION =        4.78 SECONDS

    FOR POINT-GROUP C1   THERE ARE   1 UNIQUE SYMMETRY FUNCTIONS.

 STEP:   1 TIME =     0.04 SECS, INTEGRAL =      0.04 TIME LEFT: 172799.95
 STEP:   2 TIME =     0.04 SECS, INTEGRAL =      0.08 TIME LEFT: 172799.91
 STEP:   3 TIME =     0.04 SECS, INTEGRAL =      0.12 TIME LEFT: 172799.87
 STEP:   4 TIME =     0.04 SECS, INTEGRAL =      0.16 TIME LEFT: 172799.83
 STEP:   5 TIME =     0.04 SECS, INTEGRAL =      0.20 TIME LEFT: 172799.79
 STEP:   6 TIME =     0.04 SECS, INTEGRAL =      0.23 TIME LEFT: 172799.75
 STEP:   7 TIME =     0.04 SECS, INTEGRAL =      0.27 TIME LEFT: 172799.71
 STEP:   8 TIME =     0.04 SECS, INTEGRAL =      0.31 TIME LEFT: 172799.68
 STEP:   9 TIME =     0.04 SECS, INTEGRAL =      0.35 TIME LEFT: 172799.64
 STEP:  10 TIME =     0.04 SECS, INTEGRAL =      0.39 TIME LEFT: 172799.60
 STEP:  11 TIME =     0.04 SECS, INTEGRAL =      0.43 TIME LEFT: 172799.55
 STEP:  12 TIME =     0.04 SECS, INTEGRAL =      0.47 TIME LEFT: 172799.52
 STEP:  13 TIME =     0.04 SECS, INTEGRAL =      0.51 TIME LEFT: 172799.48
 STEP:  14 TIME =     0.04 SECS, INTEGRAL =      0.55 TIME LEFT: 172799.44
 STEP:  15 TIME =     0.04 SECS, INTEGRAL =      0.59 TIME LEFT: 172799.40
 STEP:  16 TIME =     0.04 SECS, INTEGRAL =      0.63 TIME LEFT: 172799.36
 STEP:  17 TIME =     0.04 SECS, INTEGRAL =      0.67 TIME LEFT: 172799.32
 STEP:  18 TIME =     0.04 SECS, INTEGRAL =      0.71 TIME LEFT: 172799.28
 STEP:  19 TIME =     0.04 SECS, INTEGRAL =      0.75 TIME LEFT: 172799.24
 STEP:  20 TIME =     0.04 SECS, INTEGRAL =      0.79 TIME LEFT: 172799.20
 STEP:  21 TIME =     0.04 SECS, INTEGRAL =      0.83 TIME LEFT: 172799.16
 STEP:  22 TIME =     0.04 SECS, INTEGRAL =      0.87 TIME LEFT: 172799.12
 STEP:  23 TIME =     0.04 SECS, INTEGRAL =      0.91 TIME LEFT: 172799.07
 STEP:  24 TIME =     0.04 SECS, INTEGRAL =      0.95 TIME LEFT: 172799.04
 STEP:  25 TIME =     0.04 SECS, INTEGRAL =      0.99 TIME LEFT: 172799.00
 STEP:  26 TIME =     0.04 SECS, INTEGRAL =      1.03 TIME LEFT: 172798.96
 STEP:  27 TIME =     0.04 SECS, INTEGRAL =      1.07 TIME LEFT: 172798.91
 STEP:  28 TIME =     0.04 SECS, INTEGRAL =      1.12 TIME LEFT: 172798.87
 STEP:  29 TIME =     0.04 SECS, INTEGRAL =      1.16 TIME LEFT: 172798.83
 STEP:  30 TIME =     0.04 SECS, INTEGRAL =      1.20 TIME LEFT: 172798.79
 STEP:  31 TIME =     0.04 SECS, INTEGRAL =      1.24 TIME LEFT: 172798.75
 STEP:  32 TIME =     0.04 SECS, INTEGRAL =      1.28 TIME LEFT: 172798.71
 STEP:  33 TIME =     0.04 SECS, INTEGRAL =      1.32 TIME LEFT: 172798.67
 STEP:  34 TIME =     0.04 SECS, INTEGRAL =      1.36 TIME LEFT: 172798.63
 STEP:  35 TIME =     0.04 SECS, INTEGRAL =      1.39 TIME LEFT: 172798.59
 STEP:  36 TIME =     0.04 SECS, INTEGRAL =      1.43 TIME LEFT: 172798.55
 STEP:  37 TIME =     0.04 SECS, INTEGRAL =      1.47 TIME LEFT: 172798.52
 STEP:  38 TIME =     0.04 SECS, INTEGRAL =      1.51 TIME LEFT: 172798.48
 STEP:  39 TIME =     0.04 SECS, INTEGRAL =      1.55 TIME LEFT: 172798.43
 STEP:  40 TIME =     0.04 SECS, INTEGRAL =      1.59 TIME LEFT: 172798.39
 STEP:  41 TIME =     0.04 SECS, INTEGRAL =      1.63 TIME LEFT: 172798.36
 STEP:  42 TIME =     0.04 SECS, INTEGRAL =      1.67 TIME LEFT: 172798.32
 STEP:  43 TIME =     0.04 SECS, INTEGRAL =      1.71 TIME LEFT: 172798.28
 STEP:  44 TIME =     0.04 SECS, INTEGRAL =      1.75 TIME LEFT: 172798.24
 STEP:  45 TIME =     0.04 SECS, INTEGRAL =      1.79 TIME LEFT: 172798.20
 STEP:  46 TIME =     0.04 SECS, INTEGRAL =      1.82 TIME LEFT: 172798.16
 STEP:  47 TIME =     0.04 SECS, INTEGRAL =      1.87 TIME LEFT: 172798.12
 STEP:  48 TIME =     0.04 SECS, INTEGRAL =      1.91 TIME LEFT: 172798.08
 STEP:  49 TIME =     0.04 SECS, INTEGRAL =      1.95 TIME LEFT: 172798.04
 STEP:  50 TIME =     0.04 SECS, INTEGRAL =      1.98 TIME LEFT: 172798.00
 STEP:  51 TIME =     0.04 SECS, INTEGRAL =      2.03 TIME LEFT: 172797.96
 STEP:  52 TIME =     0.04 SECS, INTEGRAL =      2.07 TIME LEFT: 172797.92
 STEP:  53 TIME =     0.04 SECS, INTEGRAL =      2.11 TIME LEFT: 172797.88
 STEP:  54 TIME =     0.04 SECS, INTEGRAL =      2.16 TIME LEFT: 172797.83
 STEP:  55 TIME =     0.04 SECS, INTEGRAL =      2.20 TIME LEFT: 172797.79
 STEP:  56 TIME =     0.04 SECS, INTEGRAL =      2.23 TIME LEFT: 172797.75
 STEP:  57 TIME =     0.04 SECS, INTEGRAL =      2.28 TIME LEFT: 172797.71
 STEP:  58 TIME =     0.04 SECS, INTEGRAL =      2.32 TIME LEFT: 172797.67
 STEP:  59 TIME =     0.04 SECS, INTEGRAL =      2.36 TIME LEFT: 172797.63
 STEP:  60 TIME =     0.04 SECS, INTEGRAL =      2.39 TIME LEFT: 172797.59
 STEP:  61 TIME =     0.04 SECS, INTEGRAL =      2.44 TIME LEFT: 172797.55
 STEP:  62 TIME =     0.04 SECS, INTEGRAL =      2.48 TIME LEFT: 172797.51
 STEP:  63 TIME =     0.05 SECS, INTEGRAL =      2.52 TIME LEFT: 172797.46
 STEP:  64 TIME =     0.04 SECS, INTEGRAL =      2.57 TIME LEFT: 172797.42
 STEP:  65 TIME =     0.04 SECS, INTEGRAL =      2.61 TIME LEFT: 172797.38
 STEP:  66 TIME =     0.04 SECS, INTEGRAL =      2.65 TIME LEFT: 172797.34
 STEP:  67 TIME =     0.04 SECS, INTEGRAL =      2.69 TIME LEFT: 172797.30
 STEP:  68 TIME =     0.04 SECS, INTEGRAL =      2.73 TIME LEFT: 172797.26
 STEP:  69 TIME =     0.04 SECS, INTEGRAL =      2.77 TIME LEFT: 172797.21
 STEP:  70 TIME =     0.04 SECS, INTEGRAL =      2.81 TIME LEFT: 172797.18
 STEP:  71 TIME =     0.04 SECS, INTEGRAL =      2.85 TIME LEFT: 172797.14
 STEP:  72 TIME =     0.04 SECS, INTEGRAL =      2.89 TIME LEFT: 172797.09
 STEP:  73 TIME =     0.04 SECS, INTEGRAL =      2.93 TIME LEFT: 172797.05
 STEP:  74 TIME =     0.04 SECS, INTEGRAL =      2.98 TIME LEFT: 172797.01
 STEP:  75 TIME =     0.04 SECS, INTEGRAL =      3.02 TIME LEFT: 172796.97
 STEP:  76 TIME =     0.04 SECS, INTEGRAL =      3.06 TIME LEFT: 172796.93
 STEP:  77 TIME =     0.04 SECS, INTEGRAL =      3.10 TIME LEFT: 172796.89
 STEP:  78 TIME =     0.04 SECS, INTEGRAL =      3.14 TIME LEFT: 172796.84
 STEP:  79 TIME =     0.04 SECS, INTEGRAL =      3.18 TIME LEFT: 172796.80
 STEP:  80 TIME =     0.04 SECS, INTEGRAL =      3.22 TIME LEFT: 172796.77
 STEP:  81 TIME =     0.04 SECS, INTEGRAL =      3.26 TIME LEFT: 172796.73
 STEP:  82 TIME =     0.04 SECS, INTEGRAL =      3.30 TIME LEFT: 172796.69
 STEP:  83 TIME =     0.04 SECS, INTEGRAL =      3.34 TIME LEFT: 172796.65
 STEP:  84 TIME =     0.05 SECS, INTEGRAL =      3.39 TIME LEFT: 172796.60
 STEP:  85 TIME =     0.04 SECS, INTEGRAL =      3.43 TIME LEFT: 172796.56
 STEP:  86 TIME =     0.04 SECS, INTEGRAL =      3.47 TIME LEFT: 172796.52
 STEP:  87 TIME =     0.04 SECS, INTEGRAL =      3.51 TIME LEFT: 172796.48
 STEP:  88 TIME =     0.04 SECS, INTEGRAL =      3.55 TIME LEFT: 172796.43
 STEP:  89 TIME =     0.04 SECS, INTEGRAL =      3.59 TIME LEFT: 172796.39
 STEP:  90 TIME =     0.04 SECS, INTEGRAL =      3.64 TIME LEFT: 172796.35
 STEP:  91 TIME =     0.04 SECS, INTEGRAL =      3.68 TIME LEFT: 172796.31
 STEP:  92 TIME =     0.04 SECS, INTEGRAL =      3.72 TIME LEFT: 172796.27
 STEP:  93 TIME =     0.04 SECS, INTEGRAL =      3.76 TIME LEFT: 172796.23
 STEP:  94 TIME =     0.04 SECS, INTEGRAL =      3.79 TIME LEFT: 172796.20
 STEP:  95 TIME =     0.04 SECS, INTEGRAL =      3.84 TIME LEFT: 172796.15
 STEP:  96 TIME =     0.04 SECS, INTEGRAL =      3.88 TIME LEFT: 172796.11
 STEP:  97 TIME =     0.04 SECS, INTEGRAL =      3.92 TIME LEFT: 172796.07
 STEP:  98 TIME =     0.04 SECS, INTEGRAL =      3.96 TIME LEFT: 172796.02
 STEP:  99 TIME =     0.04 SECS, INTEGRAL =      4.00 TIME LEFT: 172795.98
 STEP: 100 TIME =     0.04 SECS, INTEGRAL =      4.05 TIME LEFT: 172795.94
 STEP: 101 TIME =     0.04 SECS, INTEGRAL =      4.09 TIME LEFT: 172795.90
 STEP: 102 TIME =     0.04 SECS, INTEGRAL =      4.13 TIME LEFT: 172795.86

(To convert to Hartree/Bohr^2, multiply by (10^(-21) x N x a0^2)/(4.184 x 627.51) =  0.0642)


           FORCE MATRIX IN MILLIDYNES/ANGSTROM


                  C  1       C  2       C  3       C  4       C  5       C  6
 ------------------------------------------------------------------------------
     C    1  14.268120
     C    2   3.147449  14.411172
     C    3   3.872029   0.506046  14.593430
     C    4   1.809422   3.494228   0.040941  14.458244
     C    5   3.433044   1.817685   0.524741   3.784418  14.418274
     C    6   0.526055   4.298727   0.034826   0.551627   0.041475  14.489607
     C    7   0.642340   0.048156   3.795281   0.005262   0.045522   0.006458
     C    8   0.028615   0.653139   0.001755   0.051096   0.004877   4.476551
     C    9   0.053533   0.009014   0.633078   0.000868   0.002525   0.001697
     C   10   0.023017   0.001748   0.145164   0.000468   0.004168   0.000928
     C   11   0.695793   0.042136   4.640260   0.005489   0.048843   0.003728
     C   12   0.034528   0.021792   0.794170   0.001632   0.003726   0.002838
     H   13   0.438696   4.368684   0.033444   0.426837   0.026635   0.430390
     H   14   4.388533   0.437312   0.434978   0.026577   0.428480   0.030644
     H   15   0.432172   0.019750   4.152145   0.001722   0.026871   0.000973
     H   16   0.046606   0.432358   0.006236   0.020610   0.003626   4.450753
     H   17   0.024069   0.450754   0.001549   0.020522   0.001905   4.433379
     H   18   0.044736   0.002048   0.439504   0.000834   0.017391   0.000556
     H   19   0.021069   0.000990   0.451055   0.000425   0.002271   0.000401
     H   20   0.030486   0.443033   0.003624   4.705578   0.445805   0.033776
     H   21   0.029697   0.452821   0.001316   4.666687   0.445811   0.032334
     H   22   0.451578   0.029943   0.026817   0.445258   4.652518   0.001823
     H   23   0.441822   0.030668   0.033285   0.445642   4.704111   0.003818
     H   24   0.002004   0.022770   0.000979   0.001668   0.000460   0.464306
     H   25   0.002147   0.052387   0.000431   0.008818   0.000630   0.451517
     H   26   0.007127   0.020272   0.004075   0.001995   0.000593   0.463144
     H   27   0.001639   0.000484   0.022439   0.000118   0.000307   0.000093
     H   28   0.009414   0.001717   0.051224   0.000170   0.000550   0.000442
     H   29   0.002024   0.000507   0.022935   0.000181   0.000440   0.000132
     H   30   0.002515   0.000219   0.018043   0.000112   0.000329   0.000239
     H   31   0.000858   0.000159   0.002848   0.000146   0.000206   0.000268
     H   32   0.004241   0.000464   0.020818   0.000178   0.000973   0.000680
     H   33   0.013043   0.002759   0.434771   0.000645   0.002105   0.000850
     H   34   0.011889   0.005033   0.085043   0.000608   0.002264   0.001090


                  C  7       C  8       C  9       C 10       C 11       C 12
 ------------------------------------------------------------------------------
     C    7  14.297157
     C    8   0.000263  14.356636
     C    9   4.481038   0.000213  14.378269
     C   10   0.019387   0.005694   0.000961  14.710766
     C   11   0.687800   0.025044   0.048307   0.847404  18.107811
     C   12   0.041201   0.012336   0.007687   5.262268  10.670176  18.153033
     H   13   0.002883   0.031438   0.000838   0.001437   0.010755   0.010770
     H   14   0.029261   0.007778   0.001463   0.000727   0.023185   0.001823
     H   15   0.424987   0.000337   0.034042   0.002821   0.442656   0.055508
     H   16   0.001464   0.439997   0.000477   0.000267   0.000907   0.000612
     H   17   0.000531   0.437521   0.000135   0.000259   0.000567   0.000738
     H   18   4.426722   0.000051   0.436711   0.003402   0.049607   0.006679
     H   19   4.437707   0.000148   0.437955   0.000847   0.035057   0.002321
     H   20   0.000853   0.006283   0.000168   0.000171   0.000714   0.000272
     H   21   0.000435   0.002882   0.000224   0.000093   0.000520   0.000353
     H   22   0.013833   0.000491   0.001028   0.000314   0.002330   0.000676
     H   23   0.002068   0.000786   0.000484   0.000703   0.006759   0.000631
     H   24   0.000280   4.694189   0.000160   0.003553   0.001913   0.004169
     H   25   0.000216   4.760350   0.000107   0.000302   0.002063   0.001142
     H   26   0.000481   4.668767   0.000211   0.000737   0.008155   0.005445
     H   27   0.463694   0.000062   4.722229   0.000196   0.002201   0.000557
     H   28   0.450342   0.000071   4.751780   0.000269   0.003114   0.000482
     H   29   0.464732   0.000051   4.719192   0.000469   0.010898   0.005380
     H   30   0.003409   0.000306   0.000232   4.727710   0.040585   0.444003
     H   31   0.000546   0.000590   0.000194   4.722687   0.041381   0.480027
     H   32   0.002182   0.003906   0.000269   4.672947   0.030855   0.435049
     H   33   0.027682   0.009229   0.004912   0.084973   4.742845   0.467474
     H   34   0.008156   0.000800   0.000714   0.424562   0.470381   4.765761


                  H 13       H 14       H 15       H 16       H 17       H 18
 ------------------------------------------------------------------------------
     H   13   4.872858
     H   14   0.029049   4.898672
     H   15   0.018987   0.040460   4.637334
     H   16   0.024210   0.003106   0.000401   5.060654
     H   17   0.043067   0.026245   0.000500   0.571859   5.051119
     H   18   0.000558   0.002913   0.023232   0.000154   0.000122   5.047121
     H   19   0.000501   0.017376   0.042680   0.000121   0.000154   0.569990
     H   20   0.026485   0.001236   0.000947   0.001931   0.001244   0.000300
     H   21   0.031156   0.002633   0.000549   0.012921   0.016150   0.000363
     H   22   0.002662   0.031421   0.024820   0.000599   0.000537   0.024480
     H   23   0.001143   0.026729   0.001544   0.000689   0.000973   0.001856
     H   24   0.021742   0.000493   0.000214   0.024534   0.048157   0.000123
     H   25   0.002064   0.000535   0.000160   0.028539   0.030802   0.000092
     H   26   0.002174   0.010380   0.000324   0.049083   0.024059   0.000162
     H   27   0.000189   0.000482   0.022709   0.000038   0.000049   0.025929
     H   28   0.000164   0.000458   0.002113   0.000131   0.000052   0.029210
     H   29   0.000257   0.000431   0.002155   0.000043   0.000046   0.048735
     H   30   0.000247   0.000117   0.000314   0.000082   0.000093   0.000734
     H   31   0.000303   0.000200   0.000522   0.000133   0.000093   0.000128
     H   32   0.000322   0.000222   0.000661   0.000203   0.000255   0.000272
     H   33   0.001066   0.008080   0.036292   0.000420   0.000312   0.002186
     H   34   0.006970   0.000739   0.030216   0.000297   0.000333   0.001663


                  H 19       H 20       H 21       H 22       H 23       H 24
 ------------------------------------------------------------------------------
     H   19   5.061660
     H   20   0.000164   5.326511
     H   21   0.000094   0.556673   5.297022
     H   22   0.000501   0.023501   0.032896   5.284821
     H   23   0.000357   0.033422   0.023140   0.557079   5.325506
     H   24   0.000084   0.000333   0.000440   0.000097   0.000188   5.432840
     H   25   0.000062   0.001198   0.000679   0.000095   0.000124   0.567167
     H   26   0.000132   0.000420   0.000418   0.000283   0.000239   0.584316
     H   27   0.048354   0.000056   0.000042   0.000279   0.000132   0.000036
     H   28   0.031064   0.000036   0.000039   0.000176   0.000108   0.000044
     H   29   0.023245   0.000067   0.000088   0.000318   0.000227   0.000066
     H   30   0.000162   0.000037   0.000038   0.000054   0.000046   0.000256
     H   31   0.000209   0.000065   0.000032   0.000054   0.000056   0.000264
     H   32   0.000164   0.000075   0.000050   0.000103   0.000199   0.010725
     H   33   0.027065   0.000301   0.000239   0.000706   0.000548   0.000772
     H   34   0.000740   0.000228   0.000291   0.000296   0.000427   0.000618


                  H 25       H 26       H 27       H 28       H 29       H 30
 ------------------------------------------------------------------------------
     H   25   5.489352
     H   26   0.560832   5.406700
     H   27   0.000020   0.000050   5.465416
     H   28   0.000029   0.000069   0.573672   5.486951
     H   29   0.000034   0.000091   0.577236   0.569077   5.453488
     H   30   0.000107   0.000275   0.000073   0.000128   0.000163   5.441809
     H   31   0.000076   0.001314   0.000120   0.000092   0.000156   0.564645
     H   32   0.000264   0.000806   0.000101   0.000101   0.000222   0.570089
     H   33   0.000486   0.015388   0.000600   0.000646   0.002288   0.008349
     H   34   0.000354   0.000537   0.000327   0.000304   0.000635   0.028197


                  H 31       H 32       H 33       H 34
 ------------------------------------------------------
     H   31   5.448907
     H   32   0.566845   5.385969
     H   33   0.029543   0.010694   5.130615
     H   34   0.041128   0.018759   0.106497   5.145551


          HEAT OF FORMATION =     -22.232578 KCALS/MOLE

          ZERO POINT ENERGY     194.491 KCAL/MOL


           NORMAL COORDINATE ANALYSIS (Total motion = 1 Angstrom)


   Root No.       1         2         3         4         5         6         7         8

                 1 A       2 A       3 A       4 A       5 A       6 A       7 A       8 A   

                  36.1      41.5      67.4      87.5     100.6     114.6     134.3     157.7
  
           1   -0.0015   -0.0033    0.0017   -0.0072    0.0004   -0.0025    0.0088    0.0045
           2    0.0043    0.0022   -0.0020    0.0011    0.0004    0.0001    0.0129    0.0139
           3   -0.0043    0.0029   -0.0115   -0.0075    0.0066    0.0120   -0.0011    0.0029
           4   -0.0016   -0.0031    0.0017   -0.0072    0.0006   -0.0020    0.0082    0.0043
           5    0.0128    0.0036   -0.0084   -0.0036   -0.0003    0.0097   -0.0053    0.0001
           6    0.0070   -0.0065   -0.0014    0.0134    0.0053    0.0065   -0.0089    0.0006
           7   -0.0097   -0.0039    0.0053   -0.0075    0.0004   -0.0042    0.0075    0.0037
           8    0.0007    0.0020   -0.0003    0.0009    0.0005   -0.0002    0.0122    0.0150
           9   -0.0045   -0.0022   -0.0145   -0.0005   -0.0002   -0.0044    0.0025   -0.0066
          10    0.0124   -0.0108    0.0073    0.0087   -0.0007   -0.0024   -0.0066   -0.0049
          11    0.0191   -0.0143   -0.0205    0.0094    0.0119    0.0209   -0.0178   -0.0106
          12    0.0036    0.0033    0.0051    0.0063   -0.0013    0.0006   -0.0023    0.0060
          13    0.0122   -0.0107    0.0076    0.0091   -0.0008   -0.0029   -0.0060   -0.0044
          14    0.0094   -0.0097   -0.0051    0.0182   -0.0019   -0.0140    0.0122    0.0017
          15   -0.0067    0.0091   -0.0097   -0.0165    0.0077    0.0197   -0.0015    0.0095
          16   -0.0061    0.0060   -0.0081   -0.0247   -0.0004    0.0052   -0.0011    0.0004
          17    0.0114    0.0212    0.0005   -0.0162   -0.0153   -0.0003   -0.0068   -0.0053
          18    0.0088    0.0001    0.0105    0.0152   -0.0041   -0.0044   -0.0043   -0.0001
          19   -0.0094   -0.0026    0.0058   -0.0079    0.0011   -0.0025    0.0083    0.0056
          20   -0.0104    0.0035    0.0032   -0.0023   -0.0005    0.0019   -0.0081   -0.0021
          21    0.0034   -0.0153   -0.0214    0.0046   -0.0075   -0.0199    0.0014   -0.0136
          22   -0.0297    0.0183   -0.0023    0.0363    0.0244    0.0117   -0.0091    0.0066
          23    0.0006    0.0427    0.0197    0.0108   -0.0194   -0.0137   -0.0043   -0.0120
          24    0.0142   -0.0118   -0.0003    0.0019   -0.0010    0.0033   -0.0061    0.0036
          25   -0.0215    0.0012   -0.0005   -0.0111   -0.0009   -0.0014   -0.0166   -0.0216
          26   -0.0148    0.0045    0.0139   -0.0062    0.0006    0.0063   -0.0221   -0.0152
          27    0.0126   -0.0201    0.0566   -0.0078    0.0042    0.0009   -0.0030   -0.0064
          28    0.0365    0.0075   -0.0128    0.0092   -0.0156    0.0019   -0.0086    0.0196
          29   -0.0184   -0.0334   -0.0009   -0.0066    0.0147   -0.0036    0.0184   -0.0135
          30   -0.0155    0.0232   -0.0032   -0.0042   -0.0043   -0.0053    0.0098    0.0096
          31   -0.0046   -0.0130   -0.0009   -0.0019   -0.0077   -0.0129   -0.0025    0.0030
          32    0.0062   -0.0014   -0.0024   -0.0022    0.0079    0.0063    0.0188    0.0115
          33   -0.0089    0.0021   -0.0118   -0.0004   -0.0022   -0.0057    0.0017   -0.0050
          34    0.0239    0.0111   -0.0028   -0.0000   -0.0019    0.0098    0.0271   -0.0190
          35   -0.0174   -0.0226   -0.0011   -0.0036    0.0030   -0.0130   -0.0067    0.0299
          36   -0.0123    0.0164   -0.0059   -0.0030   -0.0022   -0.0024    0.0124   -0.0025
          37   -0.0069   -0.0048    0.0058   -0.0033    0.0024   -0.0069    0.0212    0.0140
          38    0.0156    0.0035   -0.0106   -0.0045   -0.0006    0.0123   -0.0115   -0.0046
          39    0.0152   -0.0237   -0.0090    0.0277    0.0162    0.0165   -0.0186   -0.0052
          40   -0.0037    0.0022   -0.0046   -0.0191    0.0000    0.0015    0.0098    0.0037
          41   -0.0008    0.0080   -0.0004   -0.0078    0.0038    0.0093    0.0144    0.0224
          42   -0.0094    0.0103   -0.0134   -0.0206    0.0089    0.0208    0.0009    0.0094
          43   -0.0182    0.0037    0.0104   -0.0116    0.0043    0.0046    0.0035    0.0045
          44    0.0009    0.0029    0.0003    0.0038   -0.0025   -0.0060    0.0155    0.0145
          45   -0.0083    0.0019   -0.0117   -0.0004   -0.0006   -0.0043    0.0033   -0.0061
          46   -0.0005    0.0033   -0.0098   -0.0400   -0.0065    0.0039   -0.0001   -0.0009
          47    0.0252    0.0156   -0.0142   -0.0726   -0.0313    0.0033   -0.0118   -0.0095
          48    0.0193   -0.0057    0.0152    0.0007   -0.0150   -0.0122    0.0037   -0.0021
          49    0.0034    0.0061   -0.0183   -0.0707   -0.0153    0.0067   -0.0062   -0.0042
          50    0.0052    0.0235    0.0071    0.0095   -0.0079   -0.0019   -0.0046   -0.0035
          51   -0.0045    0.0205    0.0237    0.0417   -0.0034   -0.0118   -0.0065   -0.0031
          52   -0.0080    0.0034    0.0090   -0.0083    0.0053    0.0051    0.0192    0.0208
          53   -0.0088    0.0045    0.0498   -0.0114    0.0079    0.0185   -0.0138    0.0011
          54    0.0018   -0.0178   -0.0600    0.0120   -0.0154   -0.0353    0.0029   -0.0206
          55   -0.0009   -0.0110    0.0087   -0.0052   -0.0013   -0.0100    0.0151    0.0097
          56   -0.0174    0.0031   -0.0493    0.0061   -0.0107   -0.0160   -0.0134   -0.0170
          57    0.0037   -0.0196   -0.0483    0.0105   -0.0141   -0.0332    0.0021   -0.0196
          58    0.0144   -0.0120    0.0212    0.0246   -0.0112   -0.0267    0.0045   -0.0024
          59    0.0262   -0.0271   -0.0334    0.0142    0.0249    0.0409   -0.0362   -0.0212
          60    0.0095   -0.0060    0.0046    0.0188    0.0012   -0.0003   -0.0081    0.0004
          61    0.0187   -0.0141   -0.0036    0.0024    0.0094    0.0224   -0.0272   -0.0132
          62    0.0219   -0.0155   -0.0251    0.0065    0.0162    0.0317   -0.0269   -0.0142
          63    0.0018    0.0153    0.0191    0.0039   -0.0142   -0.0155    0.0079    0.0127
          64    0.0137   -0.0114    0.0217    0.0246   -0.0112   -0.0274    0.0066   -0.0010
          65    0.0094   -0.0150   -0.0016    0.0317   -0.0087   -0.0354    0.0221   -0.0021
          66   -0.0075    0.0058   -0.0149   -0.0155    0.0086    0.0181   -0.0015    0.0049
          67    0.0188   -0.0142   -0.0028    0.0033    0.0089    0.0213   -0.0269   -0.0130
          68    0.0062   -0.0080   -0.0000    0.0211   -0.0066   -0.0258    0.0224    0.0057
          69   -0.0134    0.0190   -0.0128   -0.0367    0.0132    0.0384   -0.0023    0.0195
          70   -0.0434    0.0194    0.0090    0.1045    0.0558    0.0260    0.0237   -0.0085
          71    0.0091    0.0409    0.0127   -0.0276   -0.0362   -0.0207   -0.0215   -0.0040
          72    0.0268   -0.0314   -0.0127   -0.0187    0.0030    0.0149    0.0050    0.0015
          73   -0.0290    0.0235   -0.0107    0.0005    0.0059    0.0009   -0.0475    0.0259
          74    0.0011    0.0550    0.0258   -0.0074   -0.0379   -0.0289   -0.0183   -0.0093
          75    0.0142   -0.0061    0.0090    0.0097   -0.0035   -0.0013    0.0061   -0.0055
          76   -0.0356    0.0210   -0.0005    0.0531    0.0313    0.0138   -0.0097    0.0076
          77   -0.0168    0.0500    0.0359    0.0894    0.0129   -0.0017    0.0298   -0.0290
          78    0.0061   -0.0074   -0.0057    0.0034   -0.0004    0.0020   -0.0321    0.0189
          79   -0.0284    0.0102    0.0028   -0.0157    0.0058    0.0174   -0.0151    0.0166
          80   -0.0068    0.0050    0.0732   -0.0161    0.0138    0.0321   -0.0118    0.0280
          81    0.0140   -0.0164    0.0882   -0.0147    0.0136    0.0213    0.0029    0.0304
          82   -0.0209    0.0018    0.0006   -0.0112    0.0002    0.0008   -0.0132   -0.0134
          83   -0.0237    0.0060    0.0127   -0.0092   -0.0017    0.0052   -0.0458   -0.0477
          84    0.0154   -0.0301    0.0432   -0.0023   -0.0067   -0.0257   -0.0172   -0.0733
          85   -0.0250   -0.0054   -0.0097   -0.0091   -0.0103   -0.0215   -0.0426   -0.0923
          86   -0.0176    0.0035   -0.0359    0.0035   -0.0097   -0.0151   -0.0201   -0.0369
          87    0.0158   -0.0175    0.1014   -0.0167    0.0152    0.0240    0.0016    0.0291
          88    0.0927    0.0556   -0.0202   -0.0237    0.1152   -0.0693   -0.0462    0.0425
          89   -0.0153   -0.0301   -0.0013   -0.0081    0.0206   -0.0081    0.0143   -0.0088
          90   -0.0305    0.0184   -0.0019    0.0082   -0.0528    0.0049   -0.0062    0.0474
          91    0.0076   -0.0259   -0.0143    0.0365   -0.1103    0.0431   -0.0084    0.0320
          92    0.0239   -0.0048   -0.0066   -0.0328    0.1199   -0.0499    0.0078   -0.0272
          93   -0.0214    0.0088   -0.0064    0.0065   -0.0360    0.0082    0.0060    0.0137
          94    0.0209   -0.0084   -0.0123    0.0214   -0.0601    0.0230   -0.0039    0.0204
          95   -0.0678   -0.0770    0.0061    0.0205   -0.0940    0.0604    0.0594   -0.0460
          96    0.0036    0.0486    0.0010   -0.0292    0.0772   -0.0335    0.0262   -0.0214
          97   -0.0222   -0.0387   -0.0065    0.0021   -0.0211   -0.0364   -0.0435    0.0340
          98    0.0288    0.0123   -0.0037   -0.0036    0.0205    0.0260    0.0513   -0.0197
          99   -0.0090   -0.0060   -0.0154    0.0012   -0.0043   -0.0102   -0.0067   -0.0013
         100    0.0410    0.0365    0.0022   -0.0055    0.0146    0.0329    0.0728   -0.0563
         101   -0.0399   -0.0357    0.0002   -0.0016   -0.0126   -0.0337   -0.0414    0.0687
         102   -0.0124    0.0249   -0.0025   -0.0053    0.0003    0.0015    0.0229   -0.0066


   Root No.       9        10        11        12        13        14        15        16

                 9 A      10 A      11 A      12 A      13 A      14 A      15 A      16 A   

                 171.3     180.5     217.0     241.2     308.0     311.3     364.8     387.3
  
           1    0.0052   -0.0014    0.0011   -0.0043   -0.0104   -0.0184    0.0000   -0.0237
           2    0.0069    0.0070    0.0027    0.0013   -0.0150   -0.0115    0.0143   -0.0223
           3    0.0005   -0.0015    0.0040   -0.0069    0.0162   -0.0069   -0.0119   -0.0173
           4    0.0053   -0.0015    0.0029   -0.0023   -0.0130   -0.0201   -0.0071   -0.0273
           5    0.0049   -0.0022    0.0006    0.0050   -0.0130    0.0004    0.0335   -0.0070
           6   -0.0034    0.0061    0.0016    0.0023    0.0135    0.0057   -0.0161    0.0024
           7    0.0039   -0.0009   -0.0084   -0.0092    0.0080    0.0095    0.0012   -0.0029
           8    0.0068    0.0080   -0.0016    0.0006   -0.0094    0.0030    0.0032   -0.0052
           9   -0.0123   -0.0091    0.0089   -0.0130   -0.0006   -0.0028   -0.0042    0.0035
          10    0.0007    0.0001   -0.0022    0.0051   -0.0216   -0.0084   -0.0105    0.0121
          11   -0.0002   -0.0058   -0.0162   -0.0143    0.0158    0.0042   -0.0059   -0.0062
          12   -0.0007    0.0076    0.0101    0.0120   -0.0026    0.0027    0.0002    0.0037
          13    0.0003    0.0007   -0.0009    0.0056   -0.0210   -0.0087   -0.0107    0.0119
          14   -0.0148    0.0062    0.0192   -0.0019    0.0276   -0.0079   -0.0019   -0.0292
          15    0.0124   -0.0011   -0.0048   -0.0048   -0.0055   -0.0086   -0.0018   -0.0238
          16   -0.0018   -0.0007    0.0231    0.0167    0.0136    0.0047   -0.0332    0.0008
          17    0.0005   -0.0067    0.0091    0.0129    0.0016    0.0178    0.0324    0.0066
          18   -0.0018    0.0030   -0.0041   -0.0027    0.0075    0.0026   -0.0029   -0.0082
          19    0.0032   -0.0010   -0.0057   -0.0155    0.0115    0.0104    0.0076   -0.0022
          20    0.0001    0.0021   -0.0005    0.0115   -0.0193    0.0143   -0.0266   -0.0097
          21   -0.0027   -0.0092   -0.0165    0.0247   -0.0074   -0.0191   -0.0001    0.0006
          22   -0.0072    0.0193    0.0086    0.0130    0.0008    0.0064    0.0081    0.0043
          23   -0.0025   -0.0113   -0.0126   -0.0141    0.0072   -0.0010   -0.0118   -0.0033
          24   -0.0004    0.0060    0.0072    0.0118    0.0056    0.0141    0.0240   -0.0040
          25   -0.0057   -0.0117    0.0007   -0.0067    0.0218   -0.0279    0.0337    0.0091
          26   -0.0029   -0.0012    0.0061    0.0131   -0.0150   -0.0034   -0.0170   -0.0054
          27    0.0063    0.0025   -0.0013    0.0011    0.0032   -0.0069    0.0047    0.0017
          28   -0.0008   -0.0073    0.0120   -0.0187   -0.0086    0.0005   -0.0003    0.0214
          29   -0.0137   -0.0013    0.0028   -0.0151   -0.0131    0.0148    0.0018    0.0218
          30    0.0111    0.0039   -0.0131    0.0035    0.0044    0.0036   -0.0013    0.0236
          31    0.0034   -0.0048   -0.0219    0.0071    0.0090    0.0388    0.0041   -0.0149
          32    0.0083    0.0106   -0.0034    0.0046    0.0147   -0.0269   -0.0066    0.0345
          33   -0.0131   -0.0099    0.0135   -0.0219   -0.0183    0.0080    0.0014   -0.0038
          34   -0.0040    0.0091   -0.0172    0.0108    0.0089    0.0167    0.0015   -0.0024
          35    0.0137   -0.0019   -0.0065    0.0002    0.0149   -0.0075   -0.0046    0.0259
          36   -0.0029   -0.0008    0.0015   -0.0137   -0.0165    0.0098    0.0018    0.0224
          37    0.0096    0.0029   -0.0002   -0.0089   -0.0240   -0.0352   -0.0034   -0.0506
          38    0.0026   -0.0040    0.0011    0.0071   -0.0068    0.0075    0.0299    0.0039
          39   -0.0038    0.0050   -0.0109   -0.0068    0.0196    0.0061   -0.0322    0.0081
          40    0.0074   -0.0067    0.0043   -0.0056   -0.0176   -0.0282    0.0108   -0.0381
          41    0.0186    0.0100   -0.0064    0.0016   -0.0213   -0.0114    0.0167   -0.0313
          42    0.0109   -0.0020   -0.0016   -0.0078    0.0062   -0.0126   -0.0030   -0.0327
          43   -0.0001   -0.0014   -0.0006   -0.0228    0.0133    0.0204   -0.0085    0.0005
          44    0.0034    0.0066    0.0049   -0.0067   -0.0248    0.0057    0.0138   -0.0139
          45   -0.0157   -0.0099    0.0161   -0.0237   -0.0093    0.0043   -0.0020   -0.0005
          46   -0.0012   -0.0044    0.0282    0.0200    0.0177    0.0076   -0.0404    0.0028
          47   -0.0041   -0.0117    0.0394    0.0395    0.0309    0.0473    0.0012    0.0375
          48    0.0043   -0.0080   -0.0090   -0.0119    0.0009   -0.0100   -0.0069   -0.0261
          49   -0.0071   -0.0047    0.0484    0.0386    0.0415    0.0311   -0.0643    0.0290
          50    0.0024   -0.0043   -0.0046    0.0008   -0.0109    0.0048    0.0451   -0.0069
          51   -0.0070    0.0062   -0.0154   -0.0137    0.0123    0.0002   -0.0139   -0.0073
          52   -0.0017    0.0005    0.0059   -0.0401    0.0149    0.0272    0.0091   -0.0002
          53   -0.0003    0.0062    0.0156   -0.0109   -0.0113    0.0250   -0.0251   -0.0077
          54   -0.0009   -0.0128   -0.0327    0.0497   -0.0150   -0.0331   -0.0017   -0.0017
          55    0.0139    0.0045   -0.0186   -0.0023    0.0092    0.0092    0.0095   -0.0055
          56   -0.0029   -0.0066   -0.0168    0.0428   -0.0289   -0.0068   -0.0300   -0.0113
          57    0.0010   -0.0110   -0.0318    0.0480   -0.0138   -0.0310   -0.0012   -0.0019
          58   -0.0129    0.0098    0.0216    0.0209   -0.0164   -0.0075   -0.0070    0.0212
          59    0.0029   -0.0125   -0.0425   -0.0338    0.0312    0.0113   -0.0362    0.0011
          60   -0.0066    0.0087    0.0066    0.0083    0.0106    0.0080   -0.0174    0.0138
          61    0.0117   -0.0085   -0.0293   -0.0058   -0.0314   -0.0009   -0.0171    0.0295
          62    0.0047   -0.0096   -0.0282   -0.0191    0.0115    0.0077   -0.0084    0.0014
          63   -0.0023    0.0132    0.0305    0.0336   -0.0245    0.0021    0.0341    0.0128
          64   -0.0137    0.0104    0.0243    0.0194   -0.0124   -0.0081   -0.0086    0.0167
          65   -0.0341    0.0100    0.0438    0.0017    0.0616   -0.0099   -0.0106   -0.0421
          66    0.0068   -0.0038   -0.0017   -0.0097    0.0125   -0.0102   -0.0089   -0.0344
          67    0.0110   -0.0077   -0.0272   -0.0032   -0.0333   -0.0008   -0.0168    0.0320
          68   -0.0201    0.0103    0.0321    0.0024    0.0340   -0.0117    0.0009   -0.0391
          69    0.0347   -0.0040   -0.0266   -0.0098   -0.0429   -0.0134    0.0128   -0.0264
          70    0.0553   -0.0769    0.0372    0.0321    0.0051    0.0231    0.0207    0.0076
          71   -0.0349    0.0386   -0.0262   -0.0228    0.0051   -0.0089   -0.0175   -0.0046
          72    0.0241   -0.0294    0.0384    0.0402    0.0087    0.0353    0.0498    0.0032
          73   -0.0748    0.1307   -0.0292   -0.0081   -0.0118   -0.0088    0.0257    0.0038
          74   -0.0350    0.0325   -0.0404   -0.0416    0.0091   -0.0238   -0.0552   -0.0116
          75    0.0157   -0.0273    0.0094    0.0047    0.0142    0.0070   -0.0161   -0.0095
          76   -0.0058    0.0202    0.0063    0.0132   -0.0024    0.0080    0.0213    0.0052
          77    0.0602   -0.1097    0.0104   -0.0020    0.0124    0.0099   -0.0113   -0.0024
          78   -0.0400    0.0782   -0.0171    0.0031   -0.0087    0.0113    0.0671   -0.0019
          79   -0.0879   -0.0776   -0.0253    0.0296    0.0237   -0.0615    0.0513    0.0159
          80   -0.0442   -0.0292   -0.0029    0.0149   -0.0127    0.0069   -0.0194   -0.0079
          81   -0.0463   -0.0370   -0.0159    0.0159    0.0051   -0.0143    0.0099    0.0030
          82   -0.0148   -0.0185   -0.0034   -0.0034    0.0206   -0.0266    0.0320    0.0082
          83    0.0049    0.0019    0.0185    0.0132   -0.0032   -0.0387    0.0111    0.0071
          84    0.1136    0.0863    0.0367   -0.0424    0.0069    0.0142   -0.0016    0.0004
          85    0.0793    0.0527    0.0374   -0.0397    0.0330   -0.0355    0.0488    0.0168
          86    0.0281    0.0208    0.0079    0.0120   -0.0228    0.0034   -0.0281   -0.0092
          87   -0.0406   -0.0318   -0.0116    0.0099    0.0074   -0.0115    0.0110    0.0034
          88    0.0053   -0.0213    0.0182   -0.0273   -0.0112   -0.0035   -0.0018    0.0315
[...]
 EFFECTIVE MASS      1.4797         C  4 -- H 20         +12.3% ( 36.2%)     95.8%
 FORCE CONSTANT      0.9877         C  7 -- H 18         +10.6% ( 33.6%)     97.2%

 VIBRATION         81   81A           ATOM PAIR      ENERGY CONTRIBUTION    RADIAL
 FREQUENCY          3027.94         C  7 -- H 19         +34.2% ( 58.6%)     97.9%
 TRANSITION DIPOLE   0.0641         C  7 -- H 18         +31.6% ( 56.3%)     97.5%
 TRAVEL (Ang.)       0.2978         C  5 -- H 22          +8.1% ( 28.5%)     97.4%
 REDUCED MASS        0.2510         C  4 -- H 21          +7.6% ( 27.6%)     97.4%
 EFFECTIVE MASS      1.3565
 FORCE CONSTANT      1.3560

 VIBRATION         82   82A           ATOM PAIR      ENERGY CONTRIBUTION    RADIAL
 FREQUENCY          3030.06         C  6 -- H 16         +51.7% ( 70.8%)     98.1%
 TRANSITION DIPOLE   0.0159         C  6 -- H 17         +46.1% ( 66.9%)     97.4%
 TRAVEL (Ang.)       0.2160         C  6 -- C  8          +0.6% (  7.8%)     25.9%
 REDUCED MASS        0.4768         C  2 -- C  6          +0.6% (  7.7%)     29.0%
 EFFECTIVE MASS      1.2756
 FORCE CONSTANT      2.5793

 VIBRATION         83   83A           ATOM PAIR      ENERGY CONTRIBUTION    RADIAL
 FREQUENCY          3032.14         C 11 -- H 33         +91.5% ( 96.8%)    100.0%
 TRANSITION DIPOLE   0.2548         C  7 -- H 19          +2.2% ( 15.0%)     98.2%
 TRAVEL (Ang.)       0.1648         C  7 -- H 18          +1.9% ( 13.9%)     97.4%
 REDUCED MASS        0.8188         C 11 -- C 12          +1.3% ( 11.5%)     40.4%
 EFFECTIVE MASS      1.4855
 FORCE CONSTANT      4.4355

 VIBRATION         84   84A           ATOM PAIR      ENERGY CONTRIBUTION    RADIAL
 FREQUENCY          3036.89         C 12 -- H 34         +93.5% ( 98.3%)    100.0%
 TRANSITION DIPOLE   0.2084         C 11 -- C 12          +1.6% ( 12.9%)     39.0%
 TRAVEL (Ang.)       0.1599         C 10 -- H 31          +1.4% ( 12.1%)     98.0%
 REDUCED MASS        0.8682         C 10 -- C 12          +1.4% ( 12.0%)     10.8%
 EFFECTIVE MASS      1.5314
 FORCE CONSTANT      4.7175

 VIBRATION         85   85A           ATOM PAIR      ENERGY CONTRIBUTION    RADIAL
 FREQUENCY          3041.55         C  4 -- H 21         +32.8% ( 59.5%)     97.7%
 TRANSITION DIPOLE   0.0875         C  5 -- H 22         +24.1% ( 50.9%)     98.0%
 TRAVEL (Ang.)       0.2854         C  4 -- H 20         +23.9% ( 50.8%)     95.9%
 REDUCED MASS        0.2721         C  5 -- H 23         +15.5% ( 40.8%)     95.5%
 EFFECTIVE MASS      1.5296
 FORCE CONSTANT      1.4830

 VIBRATION         86   86A           ATOM PAIR      ENERGY CONTRIBUTION    RADIAL
 FREQUENCY          3062.12         C  8 -- H 26         +46.9% ( 70.7%)     97.7%
 TRANSITION DIPOLE   0.0342         C  8 -- H 24         +35.7% ( 61.7%)     95.9%
 TRAVEL (Ang.)       0.2407         C 10 -- H 32         +10.8% ( 33.8%)     99.1%
 REDUCED MASS        0.3801         C 10 -- H 31          +2.0% ( 14.7%)     81.5%
 EFFECTIVE MASS      1.5009
 FORCE CONSTANT      2.0999

 VIBRATION         87   87A           ATOM PAIR      ENERGY CONTRIBUTION    RADIAL
 FREQUENCY          3065.23         C 10 -- H 32         +59.5% ( 79.5%)     99.1%
 TRANSITION DIPOLE   0.0259         C 10 -- H 30         +12.0% ( 35.7%)     82.2%
 TRAVEL (Ang.)       0.2302         C 10 -- H 31         +12.0% ( 35.7%)     82.1%
 REDUCED MASS        0.4151         C  8 -- H 26          +9.8% ( 32.2%)     98.5%
 EFFECTIVE MASS      1.5001
 FORCE CONSTANT      2.2982

 VIBRATION         88   88A           ATOM PAIR      ENERGY CONTRIBUTION    RADIAL
 FREQUENCY          3076.80         C  9 -- H 29         +51.9% ( 74.3%)     97.5%
 TRANSITION DIPOLE   0.0175         C  9 -- H 27         +45.0% ( 69.2%)     96.5%
 TRAVEL (Ang.)       0.2094         C  9 -- H 28          +1.0% ( 10.3%)      2.0%
 REDUCED MASS        0.4996         C  7 -- C  9          +1.0% ( 10.2%)      0.0%
 EFFECTIVE MASS      1.5020
 FORCE CONSTANT      2.7867

 VIBRATION         89   89A           ATOM PAIR      ENERGY CONTRIBUTION    RADIAL
 FREQUENCY          3076.91         C 10 -- H 30         +48.0% ( 71.4%)     97.0%
 TRANSITION DIPOLE   0.0536         C 10 -- H 31         +47.6% ( 71.1%)     97.0%
 TRAVEL (Ang.)       0.2127         C 12 -- H 34          +1.5% ( 12.8%)    100.0%
 REDUCED MASS        0.4846         C 10 -- C 12          +1.0% ( 10.3%)      0.1%
 EFFECTIVE MASS      1.5084
 FORCE CONSTANT      2.7032

 VIBRATION         90   90A           ATOM PAIR      ENERGY CONTRIBUTION    RADIAL
 FREQUENCY          3082.90         C  8 -- H 25         +56.4% ( 77.4%)     98.5%
 TRANSITION DIPOLE   0.0105         C  8 -- H 24         +27.0% ( 53.5%)     91.1%
 TRAVEL (Ang.)       0.2224         C  8 -- H 26         +14.8% ( 39.7%)     81.8%
 REDUCED MASS        0.4422         C  6 -- C  8          +1.0% ( 10.3%)      0.0%
 EFFECTIVE MASS      1.5028
 FORCE CONSTANT      2.4761

 VIBRATION         91   91A           ATOM PAIR      ENERGY CONTRIBUTION    RADIAL
 FREQUENCY          3084.23         C  9 -- H 28         +61.5% ( 80.9%)     98.7%
 TRANSITION DIPOLE   0.0109         C  9 -- H 27         +21.0% ( 47.3%)     87.8%
 TRAVEL (Ang.)       0.2142         C  9 -- H 29         +16.0% ( 41.3%)     83.4%
 REDUCED MASS        0.4765         C  7 -- C  9          +1.0% ( 10.4%)      0.0%
 EFFECTIVE MASS      1.5041
 FORCE CONSTANT      2.6708

 VIBRATION         92   92A           ATOM PAIR      ENERGY CONTRIBUTION    RADIAL
 FREQUENCY          3101.58         C  5 -- H 23         +51.2% ( 70.9%)     98.3%
 TRANSITION DIPOLE   0.0702         C  5 -- H 22         +32.9% ( 56.9%)     95.5%
 TRAVEL (Ang.)       0.2388         C  4 -- H 20          +8.4% ( 28.7%)     98.2%
 REDUCED MASS        0.3813         C  4 -- H 21          +5.5% ( 23.2%)     95.4%
 EFFECTIVE MASS      1.2834
 FORCE CONSTANT      2.1613

 VIBRATION         93   93A           ATOM PAIR      ENERGY CONTRIBUTION    RADIAL
 FREQUENCY          3103.83         C  4 -- H 20         +48.2% ( 68.9%)     98.0%
 TRANSITION DIPOLE   0.0715         C  4 -- H 21         +35.8% ( 59.4%)     96.1%
 TRAVEL (Ang.)       0.2412         C  5 -- H 23          +8.1% ( 28.1%)     98.2%
 REDUCED MASS        0.3735         C  5 -- H 22          +5.7% ( 23.8%)     96.0%
 EFFECTIVE MASS      1.2881
 FORCE CONSTANT      2.1199

 VIBRATION         94   94A           ATOM PAIR      ENERGY CONTRIBUTION    RADIAL
 FREQUENCY          3166.93         C 10 -- H 30         +36.3% ( 58.0%)     97.6%
 TRANSITION DIPOLE   0.0633         C 10 -- H 31         +35.7% ( 57.6%)     97.4%
 TRAVEL (Ang.)       0.2568         C 10 -- H 32         +26.2% ( 49.3%)     95.8%
 REDUCED MASS        0.3229         C  8 -- H 25          +0.7% (  8.0%)     98.6%
 EFFECTIVE MASS      1.1410
 FORCE CONSTANT      1.9078

 VIBRATION         95   95A           ATOM PAIR      ENERGY CONTRIBUTION    RADIAL
 FREQUENCY          3172.02         C  8 -- H 25         +41.7% ( 62.2%)     98.2%
 TRANSITION DIPOLE   0.0281         C  8 -- H 24         +30.7% ( 53.4%)     96.7%
 TRAVEL (Ang.)       0.2546         C  8 -- H 26         +25.9% ( 49.0%)     95.6%
 REDUCED MASS        0.3281         C 10 -- H 30          +0.5% (  6.7%)     97.2%
 EFFECTIVE MASS      1.1399
 FORCE CONSTANT      1.9449

 VIBRATION         96   96A           ATOM PAIR      ENERGY CONTRIBUTION    RADIAL
 FREQUENCY          3179.11         C  9 -- H 28         +36.9% ( 58.4%)     97.6%
 TRANSITION DIPOLE   0.0201         C  9 -- H 27         +32.5% ( 54.9%)     97.0%
 TRAVEL (Ang.)       0.2540         C  9 -- H 29         +30.3% ( 53.0%)     96.5%
 REDUCED MASS        0.3288         C  7 -- C  9          +0.3% (  5.1%)     99.5%
 EFFECTIVE MASS      1.1366
 FORCE CONSTANT      1.9579

      SYMMETRY NUMBER FOR POINT-GROUP C1  =  1


          SYSTEM IS A GROUND STATE



 InChI=1S/C12H22/c1-4-7-10(5-2)12-9-8-11(12)6-3/h4,7,10-12H,5-6,8-9H2,1-3H3


          MOLECULE IS NOT LINEAR

          THERE ARE 96 GENUINE VIBRATIONS IN THIS SYSTEM
          THIS THERMODYNAMICS CALCULATION IS LIMITED TO
          MOLECULES WHICH HAVE NO INTERNAL ROTATIONS




                    CALCULATED THERMODYNAMIC PROPERTIES
                                          *
   TEMP. (K)   PARTITION FUNCTION   H.O.F.    ENTHALPY  HEAT CAPACITY ENTROPY
                                   KCAL/MOL   CAL/MOLE    CAL/K/MOL  CAL/K/MOL


 298.00  VIB.     0.2708D+06                  7476.8458    47.9900    49.9480
         ROT.     0.1505D+07                   888.2803     2.9808    31.2479
         INT.     0.4076D+12                  8365.1261    50.9708    81.1959
         TRA.     0.2073D+28                  1480.4672     4.9680    41.2320
         TOT.                      -22.233    9845.5933    55.9388   122.4279

 200.00  VIB.     0.3846D+04                  3572.5930    32.4133    34.2667
         ROT.     0.8277D+06                   596.1613     2.9808    30.0593
         INT.     0.3183D+10                  4168.7543    35.3942    64.3260
         TRA.     0.1140D+28                   993.6021     4.9680    39.2509
         TOT.                      -26.916    5162.3564    40.3622   103.5769

 210.00  VIB.     0.6016D+04                  3903.5695    33.7902    35.8813
         ROT.     0.8905D+06                   625.9693     2.9808    30.2047
         INT.     0.5357D+10                  4529.5388    36.7710    66.0860
         TRA.     0.1227D+28                  1043.2822     4.9680    39.4932
         TOT.                      -26.505    5572.8211    41.7390   105.5792

 220.00  VIB.     0.9374D+04                  4248.5664    35.2179    37.4860
         ROT.     0.9549D+06                   655.7774     2.9808    30.3434
         INT.     0.8951D+10                  4904.3438    38.1987    67.8293
         TRA.     0.1315D+28                  1092.9623     4.9680    39.7244
         TOT.                      -26.081    5997.3062    43.1667   107.5537

 230.00  VIB.     0.1455D+05                  4608.1028    36.6982    39.0839
         ROT.     0.1021D+07                   685.5855     2.9808    30.4759
         INT.     0.1486D+11                  5293.6882    39.6790    69.5598
         TRA.     0.1406D+28                  1142.6424     4.9680    39.9452
         TOT.                      -25.642    6436.3307    44.6470   109.5050

 240.00  VIB.     0.2253D+05                  4982.7042    38.2307    40.6780
         ROT.     0.1088D+07                   715.3935     2.9808    30.6027
         INT.     0.2451D+11                  5698.0977    41.2115    71.2807
         TRA.     0.1499D+28                  1192.3226     4.9680    40.1566
         TOT.                      -25.188    6890.4203    46.1795   111.4374

 250.00  VIB.     0.3477D+05                  5372.8854    39.8137    42.2706
         ROT.     0.1157D+07                   745.2016     2.9808    30.7244
         INT.     0.4022D+11                  6118.0870    42.7945    72.9950
         TRA.     0.1593D+28                  1242.0027     4.9680    40.3594
         TOT.                      -24.718    7360.0896    47.7625   113.3544

 260.00  VIB.     0.5352D+05                  5779.1357    41.4439    43.8637
         ROT.     0.1227D+07                   775.0097     2.9808    30.8413
         INT.     0.6566D+11                  6554.1454    44.4247    74.7050
         TRA.     0.1690D+28                  1291.6828     4.9680    40.5543
         TOT.                      -24.232    7845.8282    49.3928   115.2593

 270.00  VIB.     0.8220D+05                  6201.9082    43.1174    45.4591
         ROT.     0.1298D+07                   804.8177     2.9808    30.9538
         INT.     0.1067D+12                  7006.7259    46.0982    76.4129
         TRA.     0.1788D+28                  1341.3629     4.9680    40.7418
         TOT.                      -23.730    8348.0888    51.0662   117.1547

 280.00  VIB.     0.1260D+06                  6641.6107    44.8291    47.0580
         ROT.     0.1371D+07                   834.6258     2.9808    31.0622
         INT.     0.1728D+12                  7476.2364    47.8099    78.1202
         TRA.     0.1888D+28                  1391.0430     4.9680    40.9225
         TOT.                      -23.211    8867.2794    52.7779   119.0426

 290.00  VIB.     0.1928D+06                  7098.6008    46.5740    48.6614
         ROT.     0.1445D+07                   864.4339     2.9808    31.1668
         INT.     0.2787D+12                  7963.0346    49.5548    79.8282
         TRA.     0.1990D+28                  1440.7231     4.9680    41.0968
         TOT.                      -22.674    9403.7577    54.5228   120.9250

 300.00  VIB.     0.2947D+06                  7573.1821    48.3464    50.2702
         ROT.     0.1521D+07                   894.2419     2.9808    31.2679
         INT.     0.4481D+12                  8467.4240    51.3272    81.5380
         TRA.     0.2094D+28                  1490.4032     4.9680    41.2652
         TOT.                      -22.120    9957.8272    56.2953   122.8033

 310.00  VIB.     0.4498D+06                  8065.6031    50.1410    51.8846
         ROT.     0.1597D+07                   924.0500     2.9808    31.3656
         INT.     0.7184D+12                  8989.6531    53.1218    83.2503
         TRA.     0.2200D+28                  1540.0833     4.9680    41.4281
         TOT.                      -21.548   10529.7364    58.0898   124.6784

 320.00  VIB.     0.6859D+06                  8576.0570    51.9521    53.5051
         ROT.     0.1675D+07                   953.8580     2.9808    31.4602
         INT.     0.1149D+13                  9529.9150    54.9329    84.9654
         TRA.     0.2307D+28                  1589.7634     4.9680    41.5859
         TOT.                      -20.958   11119.6784    59.9009   126.5512

 330.00  VIB.     0.1045D+07                  9104.6832    53.7746    55.1316
         ROT.     0.1754D+07                   983.6661     2.9808    31.5520
         INT.     0.1833D+13                 10088.3493    56.7554    86.6836
         TRA.     0.2416D+28                  1639.4435     4.9680    41.7387
         TOT.                      -20.350   11727.7928    61.7234   128.4223

 340.00  VIB.     0.1591D+07                  9651.5699    55.6034    56.7641
         ROT.     0.1835D+07                  1013.4742     2.9808    31.6410
         INT.     0.2919D+13                 10665.0440    58.5842    88.4051
         TRA.     0.2527D+28                  1689.1236     4.9680    41.8870
         TOT.                      -19.724   12354.1677    63.5522   130.2921

 350.00  VIB.     0.2421D+07                 10216.7568    57.4339    58.4023
         ROT.     0.1916D+07                  1043.2822     2.9808    31.7274
         INT.     0.4640D+13                 11260.0391    60.4147    90.1297
         TRA.     0.2639D+28                  1738.8037     4.9680    42.0310
         TOT.                      -19.079   12998.8428    65.3827   132.1607

 360.00  VIB.     0.3683D+07                 10800.2391    59.2618    60.0459
         ROT.     0.1999D+07                  1073.0903     2.9808    31.8113
         INT.     0.7363D+13                 11873.3294    62.2426    91.8573
         TRA.     0.2753D+28                  1788.4838     4.9680    42.1710
         TOT.                      -18.416   13661.8133    67.2106   134.0283

 370.00  VIB.     0.5602D+07                 11401.9709    61.0832    61.6945
         ROT.     0.2083D+07                  1102.8984     2.9808    31.8930
         INT.     0.1167D+14                 12504.8693    64.0640    93.5875
         TRA.     0.2869D+28                  1838.1639     4.9680    42.3071
         TOT.                      -17.735   14343.0332    69.0320   135.8946

 380.00  VIB.     0.8517D+07                 12021.8692    62.8946    63.3476
         ROT.     0.2168D+07                  1132.7064     2.9808    31.9725
         INT.     0.1846D+14                 13154.5756    65.8754    95.3201
         TRA.     0.2986D+28                  1887.8440     4.9680    42.4396
         TOT.                      -17.036   15042.4197    70.8434   137.7597

 390.00  VIB.     0.1295D+08                 12659.8182    64.6928    65.0046
         ROT.     0.2254D+07                  1162.5145     2.9808    32.0499
         INT.     0.2918D+14                 13822.3327    67.6736    97.0545
         TRA.     0.3104D+28                  1937.5242     4.9680    42.5687
         TOT.                      -16.318   15759.8568    72.6416   139.6231

 400.00  VIB.     0.1968D+08                 13315.6730    66.4753    66.6650
         ROT.     0.2341D+07                  1192.3226     2.9808    32.1254
         INT.     0.4608D+14                 14507.9956    69.4561    98.7903
         TRA.     0.3224D+28                  1987.2043     4.9680    42.6944
         TOT.                      -15.583   16495.1998    74.4241   141.4848

   *: NOTE: HEATS OF FORMATION ARE RELATIVE TO THE
            ELEMENTS IN THEIR STANDARD STATE AT 298K
              (=  Standard Enthalpy of Formation).

            Hvib:  Zero-point energy is not included.
                   frequencies of less than zero cm-1 are not included.
            Hrot = (3/2)RT
            Htra = (3/2)RT + pV = (5/2)RT

            Heat capacity is Cp, not Cv

          For more information, see: HTTP://OpenMOPAC.net/Manual/thermochemistry.html


           FORCE CONSTANT IN CARTESIAN COORDINATES (Millidynes/A)

    ATOM   CHEMICAL       X               Y               Z
   NUMBER   SYMBOL  FORCE CONSTANT  FORCE CONSTANT  FORCE CONSTANT

      1       C        7.835350        8.266329        8.264846
      2       C        7.682304        8.628050        8.264237
      3       C        8.068136        8.308201        8.868726
      4       C        8.127869        8.391898        8.070768
      5       C        8.125448        8.434935        7.957631
      6       C        8.294153        8.361772        8.438385
      7       C        7.926215        8.534553        8.290001
      8       C        8.191587        8.264915        8.405041
      9       C        8.460956        8.228647        8.211592
     10       C        8.117031        8.422937        8.897705
     11       C        7.983071       10.156317        9.008081
     12       C        7.811765        9.944360        9.363738
     13       H        1.346788        4.127454        0.743478
     14       H        1.370653        1.984122        2.894734
     15       H        1.219762        1.783926        3.018175
     16       H        4.569304        0.811776        0.990298
     17       H        1.597266        4.007797        0.786989
     18       H        0.904138        2.242219        3.248899
     19       H        1.370585        1.456211        3.586804
     20       H        1.517315        1.901927        3.208566
     21       H        1.410752        4.480019        0.727651
     22       H        1.402761        1.985371        3.227812
     23       H        1.512138        4.407853        0.705632
     24       H        1.762173        4.222473        0.756585
     25       H        1.541058        2.079394        3.164434
     26       H        4.853433        0.839459        1.015597
     27       H        1.227269        1.509689        4.039312
     28       H        5.306850        0.788302        0.692518
     29       H        0.848822        2.520055        3.376096
     30       H        0.675584        5.274633        0.738611
     31       H        2.279546        1.108850        3.372485
     32       H        4.852415        0.869072        0.884696
     33       H        1.407127        1.124834        3.678623
     34       H        1.407032        1.111788        3.686734

 **********************
 *                    *
 * JOB ENDED NORMALLY *
 *                    *
 **********************



 TOTAL JOB TIME:             9.00 SECONDS

 == MOPAC DONE ==
