 *******************************************************************************
 **                                                                           **
 **                              MOPAC v23.1.2                                **
 **                                                                           **
 *******************************************************************************
 **          Digital Object Identifier (DOI): 10.5281/zenodo.6511958          **
 **    Visit the DOI location for information on how to cite this program.    **
 *******************************************************************************

                              PM3 CALCULATION RESULTS

 *******************************************************************************
 *  CALCULATION DONE: (MAX THREADS = 1)              Tue Jun  3 16:27:51 2025  *
 *  PM3        - The PM3 Hamiltonian to be used
 *  PRECISE    - TIGHTER CRITERIA TO BE USED
 *  NOSYM      - POINT-GROUP SYMMETRY SET TO C1
 *  THREADS=1  - MULTI-THREADING NOT USED
 *  T=         - A TIME OF 172800.0 SECONDS REQUESTED
 *  DUMP=N     - RESTART FILE WRITTEN EVERY 7200.0 SECONDS REQUESTED
 *******************************************************************************
pm3  precise nosym THREADS=1
 InChI=1S/C10H10/c1-8-6-7-9-4-2-3-5-10(8)9/h2-5H,1,6-7H2

   ATOM   CHEMICAL          X               Y               Z
  NUMBER   SYMBOL      (ANGSTROMS)     (ANGSTROMS)     (ANGSTROMS)

     1       C         -2.07360000  *  -0.54990000  *  -0.14140000  *
     2       C         -0.97570000  *  -1.63620000  *  -0.19180000  *
     3       C          0.30400000  *  -0.87710000  *  -0.06640000  *
     4       C         -1.32930000  *   0.74260000  *   0.00900000  *
     5       C          0.09700000  *   0.47660000  *   0.04760000  *
     6       C          1.59530000  *  -1.40990000  *  -0.05800000  *
     7       C          1.16780000  *   1.36860000  *   0.17600000  *
     8       C          2.47240000  *   0.85070000  *   0.18630000  *
     9       C          2.68580000  *  -0.53520000  *   0.06970000  *
    10       C         -1.90880000  *   1.93950000  *   0.09230000  *
    11       H         -2.66510000  *  -0.54530000  *  -1.08250000  *
    12       H         -2.74500000  *  -0.71020000  *   0.72990000  *
    13       H         -1.00320000  *  -2.18300000  *  -1.15890000  *
    14       H         -1.08320000  *  -2.34790000  *   0.65480000  *
    15       H          1.00550000  *   2.43410000  *   0.26570000  *
    16       H          3.69400000  *  -0.92830000  *   0.07830000  *
    17       H          1.75360000  *  -2.47690000  *  -0.14800000  *
    18       H          3.31720000  *   1.52000000  *   0.28440000  *
    19       H         -1.32150000  *   2.84120000  *   0.20020000  *
    20       H         -2.98700000  *   2.02660000  *   0.05270000  *



          CARTESIAN COORDINATES 

    NO.       ATOM           X           Y           Z

     1         C         -2.0736     -0.5499     -0.1414
     2         C         -0.9757     -1.6362     -0.1918
     3         C          0.3040     -0.8771     -0.0664
     4         C         -1.3293      0.7426      0.0090
     5         C          0.0970      0.4766      0.0476
     6         C          1.5953     -1.4099     -0.0580
     7         C          1.1678      1.3686      0.1760
     8         C          2.4724      0.8507      0.1863
     9         C          2.6858     -0.5352      0.0697
    10         C         -1.9088      1.9395      0.0923
    11         H         -2.6651     -0.5453     -1.0825
    12         H         -2.7450     -0.7102      0.7299
    13         H         -1.0032     -2.1830     -1.1589
    14         H         -1.0832     -2.3479      0.6548
    15         H          1.0055      2.4341      0.2657
    16         H          3.6940     -0.9283      0.0783
    17         H          1.7536     -2.4769     -0.1480
    18         H          3.3172      1.5200      0.2844
    19         H         -1.3215      2.8412      0.2002
    20         H         -2.9870      2.0266      0.0527

  H: (PM3): J. J. P. STEWART, J. COMP. CHEM. 10, 209 (1989).
  C: (PM3): J. J. P. STEWART, J. COMP. CHEM. 10, 209 (1989).

           Empirical Formula: C10 H10  =    20 atoms



      MOLECULAR POINT GROUP   :   C1  


      RHF CALCULATION, NO. OF DOUBLY OCCUPIED LEVELS = 25


          Geometry optimization using EF

          DIAGONAL MATRIX USED AS START HESSIAN

 CYCLE:     1 TIME:   0.008 TIME LEFT:  2.00D  GRAD.:    91.241 HEAT:  34.57254
 CYCLE:     2 TIME:   0.016 TIME LEFT:  2.00D  GRAD.:    49.449 HEAT:  33.29905
 CYCLE:     3 TIME:   0.004 TIME LEFT:  2.00D  GRAD.:    64.152 HEAT:  33.26760
 CYCLE:     4 TIME:   0.008 TIME LEFT:  2.00D  GRAD.:    46.368 HEAT:  32.87247
 CYCLE:     5 TIME:   0.008 TIME LEFT:  2.00D  GRAD.:    46.910 HEAT:  32.79936
 CYCLE:     6 TIME:   0.012 TIME LEFT:  2.00D  GRAD.:    23.455 HEAT:  32.43375
 CYCLE:     7 TIME:   0.012 TIME LEFT:  2.00D  GRAD.:    10.081 HEAT:  32.30672
 CYCLE:     8 TIME:   0.004 TIME LEFT:  2.00D  GRAD.:    12.028 HEAT:  32.26486
 CYCLE:     9 TIME:   0.012 TIME LEFT:  2.00D  GRAD.:    11.454 HEAT:  32.24019
 CYCLE:    10 TIME:   0.004 TIME LEFT:  2.00D  GRAD.:    12.440 HEAT:  32.22218
 CYCLE:    11 TIME:   0.008 TIME LEFT:  2.00D  GRAD.:    10.939 HEAT:  32.21387
 CYCLE:    12 TIME:   0.008 TIME LEFT:  2.00D  GRAD.:    11.053 HEAT:  32.20323
 CYCLE:    13 TIME:   0.008 TIME LEFT:  2.00D  GRAD.:     5.424 HEAT:  32.17770
 CYCLE:    14 TIME:   0.008 TIME LEFT:  2.00D  GRAD.:     5.694 HEAT:  32.17702
 CYCLE:    15 TIME:   0.004 TIME LEFT:  2.00D  GRAD.:     2.077 HEAT:  32.16899
 CYCLE:    16 TIME:   0.008 TIME LEFT:  2.00D  GRAD.:     4.067 HEAT:  32.17141
 CYCLE:    17 TIME:   0.008 TIME LEFT:  2.00D  GRAD.:     1.389 HEAT:  32.16689
 CYCLE:    18 TIME:   0.004 TIME LEFT:  2.00D  GRAD.:     2.737 HEAT:  32.16806
 CYCLE:    19 TIME:   0.008 TIME LEFT:  2.00D  GRAD.:     1.160 HEAT:  32.16587
 CYCLE:    20 TIME:   0.008 TIME LEFT:  2.00D  GRAD.:     1.704 HEAT:  32.16597
 CYCLE:    21 TIME:   0.004 TIME LEFT:  2.00D  GRAD.:     0.702 HEAT:  32.16519
 CYCLE:    22 TIME:   0.008 TIME LEFT:  2.00D  GRAD.:     1.427 HEAT:  32.16536
 CYCLE:    23 TIME:   0.008 TIME LEFT:  2.00D  GRAD.:     0.390 HEAT:  32.16473
 CYCLE:    24 TIME:   0.004 TIME LEFT:  2.00D  GRAD.:     0.497 HEAT:  32.16460
 CYCLE:    25 TIME:   0.008 TIME LEFT:  2.00D  GRAD.:     0.365 HEAT:  32.16440
 CYCLE:    26 TIME:   0.008 TIME LEFT:  2.00D  GRAD.:     0.496 HEAT:  32.16435
 CYCLE:    27 TIME:   0.004 TIME LEFT:  2.00D  GRAD.:     0.283 HEAT:  32.16426
 CYCLE:    28 TIME:   0.008 TIME LEFT:  2.00D  GRAD.:     0.242 HEAT:  32.16422
 CYCLE:    29 TIME:   0.004 TIME LEFT:  2.00D  GRAD.:     0.136 HEAT:  32.16418
 CYCLE:    30 TIME:   0.008 TIME LEFT:  2.00D  GRAD.:     0.187 HEAT:  32.16415
 CYCLE:    31 TIME:   0.008 TIME LEFT:  2.00D  GRAD.:     0.103 HEAT:  32.16413
 CYCLE:    32 TIME:   0.004 TIME LEFT:  2.00D  GRAD.:     0.099 HEAT:  32.16413
 CYCLE:    33 TIME:   0.008 TIME LEFT:  2.00D  GRAD.:     0.061 HEAT:  32.16412
 CYCLE:    34 TIME:   0.004 TIME LEFT:  2.00D  GRAD.:     0.101 HEAT:  32.16411
 CYCLE:    35 TIME:   0.008 TIME LEFT:  2.00D  GRAD.:     0.071 HEAT:  32.16410
 CYCLE:    36 TIME:   0.004 TIME LEFT:  2.00D  GRAD.:     0.056 HEAT:  32.16410
 CYCLE:    37 TIME:   0.008 TIME LEFT:  2.00D  GRAD.:     0.051 HEAT:  32.16409
 CYCLE:    38 TIME:   0.008 TIME LEFT:  2.00D  GRAD.:     0.050 HEAT:  32.16409

     GRADIENT =  0.04992 IS LESS THAN CUTOFF =  0.05000



 -------------------------------------------------------------------------------
 pm3  precise nosym THREADS=1
 InChI=1S/C10H10/c1-8-6-7-9-4-2-3-5-10(8)9/h2-5H,1,6-7H2



     GEOMETRY OPTIMISED USING EIGENVECTOR FOLLOWING (EF).     
     SCF FIELD WAS ACHIEVED                                   


                              PM3 CALCULATION
                                                       MOPAC v23.1.2 MacOS
                                                       Tue Jun  3 16:27:51 2025




          FINAL HEAT OF FORMATION =         32.16409 KCAL/MOL =     134.57455 KJ/MOL


          COSMO AREA              =        172.76 SQUARE ANGSTROMS
          COSMO VOLUME            =        172.94 CUBIC ANGSTROMS

          GRADIENT NORM           =          0.04992          =       0.01116 PER ATOM
          IONIZATION POTENTIAL    =          8.933871 EV
          HOMO LUMO ENERGIES (EV) =         -8.934 -0.070
          NO. OF FILLED LEVELS    =         25
          MOLECULAR WEIGHT        =        130.1890         POINT GROUP:  C1  

          MOLECULAR DIMENSIONS (Angstroms)

            Atom       Atom       Distance
            H    20    H    16     7.33967
            H    18    H    14     5.36363
            H    12    H    13     1.88261


          SCF CALCULATIONS        =         45

          WALL-CLOCK TIME         =      0.289 SECONDS
          COMPUTATION TIME        =      0.183 SECONDS




   ATOM   CHEMICAL          X               Y               Z
  NUMBER   SYMBOL      (ANGSTROMS)     (ANGSTROMS)     (ANGSTROMS)

     1       C         -2.05739013  *  -0.55009387  *  -0.14088100  *
     2       C         -0.97073119  *  -1.64078494  *  -0.19207966  *
     3       C          0.32145047  *  -0.90154419  *  -0.06780755  *
     4       C         -1.33606587  *   0.76294373  *   0.01052949  *
     5       C          0.10079470  *   0.48478793  *   0.04845697  *
     6       C          1.60579271  *  -1.41592222  *  -0.05784859  *
     7       C          1.16682891  *   1.36130559  *   0.17505580  *
     8       C          2.46137253  *   0.83845446  *   0.18459988  *
     9       C          2.67790743  *  -0.52971245  *   0.06990528  *
    10       C         -1.91997880  *   1.95556183  *   0.09356523  *
    11       H         -2.67630781  *  -0.54986377  *  -1.05673253  *
    12       H         -2.75413198  *  -0.70997322  *   0.70221882  *
    13       H         -1.00771106  *  -2.21701164  *  -1.13473430  *
    14       H         -1.08544558  *  -2.37703292  *   0.62448701  *
    15       H          0.99700807  *   2.43939656  *   0.26546589  *
    16       H          3.70084255  *  -0.92015091  *   0.07955572  *
    17       H          1.77772421  *  -2.49282505  *  -0.14807024  *
    18       H          3.31519283  *   1.51669159  *   0.28378523  *
    19       H         -1.35624741  *   2.87745765  *   0.20241227  *
    20       H         -2.99768379  *   2.07985074  *   0.05753606  *

                             CARTESIAN COORDINATES

   1    C       -2.057390132    -0.550093865    -0.140881003
   2    C       -0.970731193    -1.640784937    -0.192079657
   3    C        0.321450474    -0.901544194    -0.067807549
   4    C       -1.336065873     0.762943733     0.010529491
   5    C        0.100794697     0.484787934     0.048456967
   6    C        1.605792713    -1.415922221    -0.057848590
   7    C        1.166828909     1.361305586     0.175055800
   8    C        2.461372528     0.838454460     0.184599882
   9    C        2.677907434    -0.529712452     0.069905278
  10    C       -1.919978804     1.955561828     0.093565230
  11    H       -2.676307815    -0.549863775    -1.056732533
  12    H       -2.754131980    -0.709973224     0.702218817
  13    H       -1.007711065    -2.217011637    -1.134734301
  14    H       -1.085445577    -2.377032920     0.624487006
  15    H        0.997008075     2.439396558     0.265465886
  16    H        3.700842554    -0.920150908     0.079555724
  17    H        1.777724212    -2.492825050    -0.148070242
  18    H        3.315192828     1.516691593     0.283785230
  19    H       -1.356247405     2.877457650     0.202412266
  20    H       -2.997683792     2.079850742     0.057536060


           Empirical Formula: C10 H10  =    20 atoms



      MOLECULAR POINT GROUP   :   C1  


                  EIGENVALUES  
 -41.46288 -35.70629 -31.88916 -28.30301 -27.37671 -23.49265 -21.76289 -20.41892
 -19.08738 -17.25221 -16.48619 -16.02201 -15.67604 -14.97146 -14.73688 -14.05385
 -13.26714 -13.17113 -12.82264 -12.67693 -12.35510 -12.14833 -10.75243  -9.59590
  -8.93387  -0.07002   0.39631   1.53397   2.91056   3.06729   3.22730   3.38776
   3.45316   3.54956   3.70569   3.86936   3.97830   4.01785   4.03817   4.17012
   4.60196   4.79655   4.87164   4.99188   5.12891   5.33675   5.58001   5.91712
   6.23392   6.46468


              NET ATOMIC CHARGES AND DIPOLE CONTRIBUTIONS

  ATOM NO.   TYPE          CHARGE      No. of ELECS.   s-Pop       p-Pop       
    1          C          -0.059304        4.0593     1.15376     2.90554
    2          C          -0.047151        4.0472     1.14911     2.89804
    3          C          -0.076762        4.0768     1.18802     2.88875
    4          C          -0.062940        4.0629     1.18440     2.87854
    5          C          -0.051237        4.0512     1.16914     2.88210
    6          C          -0.093198        4.0932     1.17226     2.92094
    7          C          -0.072317        4.0723     1.17178     2.90053
    8          C          -0.109763        4.1098     1.17946     2.93031
    9          C          -0.095669        4.0957     1.17923     2.91644
   10          C          -0.159023        4.1590     1.17621     2.98281
   11          H           0.059484        0.9405     0.94052
   12          H           0.059481        0.9405     0.94052
   13          H           0.059809        0.9402     0.94019
   14          H           0.059812        0.9402     0.94019
   15          H           0.107510        0.8925     0.89249
   16          H           0.101050        0.8989     0.89895
   17          H           0.106326        0.8937     0.89367
   18          H           0.102013        0.8980     0.89799
   19          H           0.086749        0.9133     0.91325
   20          H           0.085130        0.9149     0.91487
 DIPOLE           X         Y         Z       TOTAL
 POINT-CHG.    -0.220    -0.368    -0.043     0.431
 HYBRID         0.001     0.015     0.001     0.015
 SUM           -0.219    -0.353    -0.042     0.417


          ATOMIC ORBITAL ELECTRON POPULATIONS

     Atom    s        px        py        pz   
    1  C   1.15376   0.96440   0.92661   1.01453
    2  C   1.14911   0.92169   0.96309   1.01325
    3  C   1.18802   0.94951   0.94991   0.98933
    4  C   1.18440   0.92882   0.95434   0.99539
    5  C   1.16914   0.93113   0.94257   1.00840
    6  C   1.17226   0.92853   0.98062   1.01178
    7  C   1.17178   0.92962   0.97776   0.99315
    8  C   1.17946   0.96436   0.95617   1.00977
    9  C   1.17923   0.97515   0.94374   0.99755
   10  C   1.17621   0.99959   0.96002   1.02320
   11  H   0.94052
   12  H   0.94052
   13  H   0.94019
   14  H   0.94019
   15  H   0.89249
   16  H   0.89895
   17  H   0.89367
   18  H   0.89799
   19  H   0.91325
   20  H   0.91487
 *******************************************************************************
 **                                                                           **
 **                              MOPAC v23.1.2                                **
 **                                                                           **
 *******************************************************************************
 **          Digital Object Identifier (DOI): 10.5281/zenodo.6511958          **
 **    Visit the DOI location for information on how to cite this program.    **
 *******************************************************************************

                              PM3 CALCULATION RESULTS

 *******************************************************************************
 *  CALCULATION DONE: (MAX THREADS = 1)              Tue Jun  3 16:27:51 2025  *
 *  PM3        - The PM3 Hamiltonian to be used
 *  OLDGEO     - PREVIOUS GEOMETRY TO BE USED
 *  PRECISE    - TIGHTER CRITERIA TO BE USED
 *  NOSYM      - POINT-GROUP SYMMETRY SET TO C1
 *  THREADS=1  - MULTI-THREADING NOT USED
 *  T=         - A TIME OF 172800.0 SECONDS REQUESTED
 *  DUMP=N     - RESTART FILE WRITTEN EVERY 7200.0 SECONDS REQUESTED
 *  THERMO     - THERMODYNAMIC QUANTITIES TO BE CALCULATED
 *******************************************************************************
oldgeo thermo nosym precise THREADS=1  pm3
 InChI=1S/C10H10/c1-8-6-7-9-4-2-3-5-10(8)9/h2-5H,1,6-7H2

   ATOM   CHEMICAL          X               Y               Z
  NUMBER   SYMBOL      (ANGSTROMS)     (ANGSTROMS)     (ANGSTROMS)

     1       C         -2.05739013  *  -0.55009387  *  -0.14088100  *
     2       C         -0.97073119  *  -1.64078494  *  -0.19207966  *
     3       C          0.32145047  *  -0.90154419  *  -0.06780755  *
     4       C         -1.33606587  *   0.76294373  *   0.01052949  *
     5       C          0.10079470  *   0.48478793  *   0.04845697  *
     6       C          1.60579271  *  -1.41592222  *  -0.05784859  *
     7       C          1.16682891  *   1.36130559  *   0.17505580  *
     8       C          2.46137253  *   0.83845446  *   0.18459988  *
     9       C          2.67790743  *  -0.52971245  *   0.06990528  *
    10       C         -1.91997880  *   1.95556183  *   0.09356523  *
    11       H         -2.67630781  *  -0.54986377  *  -1.05673253  *
    12       H         -2.75413198  *  -0.70997322  *   0.70221882  *
    13       H         -1.00771106  *  -2.21701164  *  -1.13473430  *
    14       H         -1.08544558  *  -2.37703292  *   0.62448701  *
    15       H          0.99700807  *   2.43939656  *   0.26546589  *
    16       H          3.70084255  *  -0.92015091  *   0.07955572  *
    17       H          1.77772421  *  -2.49282505  *  -0.14807024  *
    18       H          3.31519283  *   1.51669159  *   0.28378523  *
    19       H         -1.35624741  *   2.87745765  *   0.20241227  *
    20       H         -2.99768379  *   2.07985074  *   0.05753606  *



          CARTESIAN COORDINATES 

    NO.       ATOM           X           Y           Z

     1         C         -2.0574     -0.5501     -0.1409
     2         C         -0.9707     -1.6408     -0.1921
     3         C          0.3215     -0.9015     -0.0678
     4         C         -1.3361      0.7629      0.0105
     5         C          0.1008      0.4848      0.0485
     6         C          1.6058     -1.4159     -0.0578
     7         C          1.1668      1.3613      0.1751
     8         C          2.4614      0.8385      0.1846
     9         C          2.6779     -0.5297      0.0699
    10         C         -1.9200      1.9556      0.0936
    11         H         -2.6763     -0.5499     -1.0567
    12         H         -2.7541     -0.7100      0.7022
    13         H         -1.0077     -2.2170     -1.1347
    14         H         -1.0854     -2.3770      0.6245
    15         H          0.9970      2.4394      0.2655
    16         H          3.7008     -0.9202      0.0796
    17         H          1.7777     -2.4928     -0.1481
    18         H          3.3152      1.5167      0.2838
    19         H         -1.3562      2.8775      0.2024
    20         H         -2.9977      2.0799      0.0575

  H: (PM3): J. J. P. STEWART, J. COMP. CHEM. 10, 209 (1989).
  C: (PM3): J. J. P. STEWART, J. COMP. CHEM. 10, 209 (1989).

           Empirical Formula: C10 H10  =    20 atoms



      MOLECULAR POINT GROUP   :   C1  


      RHF CALCULATION, NO. OF DOUBLY OCCUPIED LEVELS = 25



          HEAT OF FORMATION =      32.164090 KCALS/MOLE


          CARTESIAN COORDINATE DERIVATIVES

   NUMBER  ATOM         X            Y            Z

     1       C      0.014029     0.004726     0.001898
     2       C      0.000505     0.004594     0.001236
     3       C      0.007827     0.007373    -0.013671
     4       C      0.003729    -0.000336    -0.003115
     5       C      0.004873     0.012291     0.005229
     6       C      0.010071     0.001953     0.023784
     7       C     -0.007812     0.006084     0.004539
     8       C     -0.006747    -0.010539     0.004363
     9       C     -0.000340     0.002910    -0.020987
    10       C     -0.000760     0.003662     0.001283
    11       H     -0.000117    -0.006563    -0.002956
    12       H      0.002187    -0.004966    -0.000367
    13       H     -0.013435    -0.006493     0.002057
    14       H     -0.014674    -0.010699    -0.002887
    15       H     -0.007094    -0.001067    -0.003810
    16       H      0.003133     0.009141     0.002144
    17       H     -0.000577    -0.006063    -0.000736
    18       H     -0.004768    -0.006710     0.000266
    19       H      0.013269     0.001193    -0.000074
    20       H     -0.003298    -0.000491     0.001805



          GRADIENT NORM =   0.05755

          MOLECULAR WEIGHT =  130.19



          ROTATIONAL CONSTANTS IN CM(-1)

          A =    0.08466573   B =    0.04245772   C =    0.02857944



           PRINCIPAL MOMENTS OF INERTIA IN UNITS OF 10**(-40)*GRAM-CM**2

          A =      330.6267   B =      659.3089   C =      979.4717


          ORIENTATION OF MOLECULE IN FORCE CALCULATION

    NO.       ATOM         X         Y         Z

     1          C      -1.1569   -1.9991    0.0000
     2          C       0.3836   -1.9991    0.0000
     3          C       0.7676   -0.5555    0.0000
     4          C      -1.5828   -0.5549    0.0002
     5          C      -0.3735    0.2704    0.0000
     6          C       2.0374   -0.0062    0.0000
     7          C      -0.2463    1.6505   -0.0002
     8          C       1.0367    2.2010   -0.0003
     9          C       2.1620    1.3851   -0.0003
    10          C      -2.8418   -0.1248    0.0005
    11          H      -1.5632   -2.5238   -0.8840
    12          H      -1.5632   -2.5240    0.8839
    13          H       0.7968   -2.5184   -0.8841
    14          H       0.7968   -2.5184    0.8841
    15          H      -1.1324    2.2940   -0.0002
    16          H       3.1597    1.8362   -0.0004
    17          H       2.9242   -0.6473    0.0001
    18          H       1.1555    3.2895   -0.0005
    19          H      -3.1005    0.9300    0.0007
    20          H      -3.6888   -0.8036    0.0008


    FIRST DERIVATIVES WILL BE USED IN THE CALCULATION OF SECOND DERIVATIVES

          ESTIMATED TIME TO COMPLETE CALCULATION =        1.88 SECONDS

    FOR POINT-GROUP C1   THERE ARE   1 UNIQUE SYMMETRY FUNCTIONS.

 STEP:   1 TIME =     0.02 SECS, INTEGRAL =      0.02 TIME LEFT: 172799.97
 STEP:   2 TIME =     0.02 SECS, INTEGRAL =      0.04 TIME LEFT: 172799.95
 STEP:   3 TIME =     0.02 SECS, INTEGRAL =      0.06 TIME LEFT: 172799.93
 STEP:   4 TIME =     0.02 SECS, INTEGRAL =      0.08 TIME LEFT: 172799.91
 STEP:   5 TIME =     0.02 SECS, INTEGRAL =      0.11 TIME LEFT: 172799.89
 STEP:   6 TIME =     0.02 SECS, INTEGRAL =      0.12 TIME LEFT: 172799.87
 STEP:   7 TIME =     0.02 SECS, INTEGRAL =      0.15 TIME LEFT: 172799.84
 STEP:   8 TIME =     0.02 SECS, INTEGRAL =      0.17 TIME LEFT: 172799.82
 STEP:   9 TIME =     0.02 SECS, INTEGRAL =      0.19 TIME LEFT: 172799.80
 STEP:  10 TIME =     0.02 SECS, INTEGRAL =      0.21 TIME LEFT: 172799.79
 STEP:  11 TIME =     0.02 SECS, INTEGRAL =      0.23 TIME LEFT: 172799.77
 STEP:  12 TIME =     0.02 SECS, INTEGRAL =      0.25 TIME LEFT: 172799.75
 STEP:  13 TIME =     0.02 SECS, INTEGRAL =      0.27 TIME LEFT: 172799.72
 STEP:  14 TIME =     0.03 SECS, INTEGRAL =      0.30 TIME LEFT: 172799.70
 STEP:  15 TIME =     0.02 SECS, INTEGRAL =      0.32 TIME LEFT: 172799.68
 STEP:  16 TIME =     0.02 SECS, INTEGRAL =      0.34 TIME LEFT: 172799.65
 STEP:  17 TIME =     0.02 SECS, INTEGRAL =      0.36 TIME LEFT: 172799.63
 STEP:  18 TIME =     0.02 SECS, INTEGRAL =      0.39 TIME LEFT: 172799.61
 STEP:  19 TIME =     0.02 SECS, INTEGRAL =      0.41 TIME LEFT: 172799.58
 STEP:  20 TIME =     0.02 SECS, INTEGRAL =      0.43 TIME LEFT: 172799.56
 STEP:  21 TIME =     0.02 SECS, INTEGRAL =      0.46 TIME LEFT: 172799.54
 STEP:  22 TIME =     0.02 SECS, INTEGRAL =      0.48 TIME LEFT: 172799.51
 STEP:  23 TIME =     0.02 SECS, INTEGRAL =      0.50 TIME LEFT: 172799.49
 STEP:  24 TIME =     0.02 SECS, INTEGRAL =      0.52 TIME LEFT: 172799.47
 STEP:  25 TIME =     0.02 SECS, INTEGRAL =      0.55 TIME LEFT: 172799.45
 STEP:  26 TIME =     0.02 SECS, INTEGRAL =      0.57 TIME LEFT: 172799.42
 STEP:  27 TIME =     0.02 SECS, INTEGRAL =      0.59 TIME LEFT: 172799.40
 STEP:  28 TIME =     0.02 SECS, INTEGRAL =      0.61 TIME LEFT: 172799.38
 STEP:  29 TIME =     0.02 SECS, INTEGRAL =      0.63 TIME LEFT: 172799.36
 STEP:  30 TIME =     0.02 SECS, INTEGRAL =      0.66 TIME LEFT: 172799.34
 STEP:  31 TIME =     0.02 SECS, INTEGRAL =      0.68 TIME LEFT: 172799.32
 STEP:  32 TIME =     0.02 SECS, INTEGRAL =      0.70 TIME LEFT: 172799.30
 STEP:  33 TIME =     0.02 SECS, INTEGRAL =      0.71 TIME LEFT: 172799.28
 STEP:  34 TIME =     0.02 SECS, INTEGRAL =      0.73 TIME LEFT: 172799.26
 STEP:  35 TIME =     0.02 SECS, INTEGRAL =      0.75 TIME LEFT: 172799.24
 STEP:  36 TIME =     0.02 SECS, INTEGRAL =      0.77 TIME LEFT: 172799.22
 STEP:  37 TIME =     0.02 SECS, INTEGRAL =      0.79 TIME LEFT: 172799.20
 STEP:  38 TIME =     0.02 SECS, INTEGRAL =      0.81 TIME LEFT: 172799.18
 STEP:  39 TIME =     0.02 SECS, INTEGRAL =      0.83 TIME LEFT: 172799.16
 STEP:  40 TIME =     0.02 SECS, INTEGRAL =      0.85 TIME LEFT: 172799.14
 STEP:  41 TIME =     0.02 SECS, INTEGRAL =      0.87 TIME LEFT: 172799.12
 STEP:  42 TIME =     0.02 SECS, INTEGRAL =      0.89 TIME LEFT: 172799.10
 STEP:  43 TIME =     0.02 SECS, INTEGRAL =      0.91 TIME LEFT: 172799.08
 STEP:  44 TIME =     0.02 SECS, INTEGRAL =      0.93 TIME LEFT: 172799.06
 STEP:  45 TIME =     0.02 SECS, INTEGRAL =      0.95 TIME LEFT: 172799.04
 STEP:  46 TIME =     0.02 SECS, INTEGRAL =      0.97 TIME LEFT: 172799.02
 STEP:  47 TIME =     0.02 SECS, INTEGRAL =      0.99 TIME LEFT: 172799.00
 STEP:  48 TIME =     0.02 SECS, INTEGRAL =      1.01 TIME LEFT: 172798.98
 STEP:  49 TIME =     0.02 SECS, INTEGRAL =      1.03 TIME LEFT: 172798.96
 STEP:  50 TIME =     0.02 SECS, INTEGRAL =      1.04 TIME LEFT: 172798.95
 STEP:  51 TIME =     0.02 SECS, INTEGRAL =      1.06 TIME LEFT: 172798.93
 STEP:  52 TIME =     0.02 SECS, INTEGRAL =      1.08 TIME LEFT: 172798.91
 STEP:  53 TIME =     0.02 SECS, INTEGRAL =      1.10 TIME LEFT: 172798.89
 STEP:  54 TIME =     0.02 SECS, INTEGRAL =      1.12 TIME LEFT: 172798.87
 STEP:  55 TIME =     0.02 SECS, INTEGRAL =      1.14 TIME LEFT: 172798.85
 STEP:  56 TIME =     0.02 SECS, INTEGRAL =      1.16 TIME LEFT: 172798.83
 STEP:  57 TIME =     0.02 SECS, INTEGRAL =      1.18 TIME LEFT: 172798.81
 STEP:  58 TIME =     0.02 SECS, INTEGRAL =      1.20 TIME LEFT: 172798.79
 STEP:  59 TIME =     0.02 SECS, INTEGRAL =      1.22 TIME LEFT: 172798.77
 STEP:  60 TIME =     0.02 SECS, INTEGRAL =      1.24 TIME LEFT: 172798.75

(To convert to Hartree/Bohr^2, multiply by (10^(-21) x N x a0^2)/(4.184 x 627.51) =  0.0642)


           FORCE MATRIX IN MILLIDYNES/ANGSTROM


                  C  1       C  2       C  3       C  4       C  5       C  6
 ------------------------------------------------------------------------------
     C    1  14.490479
     C    2   3.656460  14.635705
     C    3   0.886290   4.712074  18.250021
     C    4   4.354135   0.784693   1.195953  19.296010
     C    5   0.897037   0.973974   6.208019   5.163595  18.730438
     C    6   0.052058   0.569975   7.211366   0.100955   2.329919  17.334669
     C    7   0.047909   0.085953   2.335563   0.660467   7.152552   1.783803
     C    8   0.009141   0.015368   1.861564   0.114780   2.516632   2.499968
     C    9   0.008708   0.101640   2.579783   0.021046   1.807579   6.746749
     C   10   0.707508   0.055772   0.074882  10.680547   0.888882   0.023659
     H   11   4.536212   0.438103   0.027280   0.433521   0.028547   0.004484
     H   12   4.536394   0.438098   0.027286   0.433537   0.028562   0.004486
     H   13   0.437012   4.528881   0.436924   0.028262   0.030131   0.017973
     H   14   0.437013   4.528898   0.436949   0.028251   0.030134   0.017970
     H   15   0.002848   0.008440   0.090722   0.041237   0.450662   0.011208
     H   16   0.001491   0.007467   0.089410   0.008813   0.008926   0.436072
     H   17   0.001852   0.039142   0.451018   0.008791   0.090594   4.877262
     H   18   0.001604   0.008075   0.008814   0.007414   0.088606   0.089201
     H   19   0.122633   0.006603   0.006395   0.477744   0.092236   0.003323
     H   20   0.086294   0.003057   0.008473   0.475018   0.132179   0.005855


                  C  7       C  8       C  9       C 10       H 11       H 12
 ------------------------------------------------------------------------------
     C    7  17.326480
     C    8   6.766753  17.088020
     C    9   2.480033   6.997297  17.096965
     C   10   0.069135   0.016996   0.007843  17.967680
     H   11   0.003296   0.000901   0.000841   0.021901   5.134493
     H   12   0.003298   0.000902   0.000841   0.021901   0.569776   5.134677
     H   13   0.010306   0.003124   0.011329   0.004801   0.029624   0.026599
     H   14   0.010306   0.003123   0.011328   0.004800   0.026604   0.029625
     H   15   4.847067   0.438811   0.087471   0.013204   0.000399   0.000399
     H   16   0.089273   0.437396   4.857686   0.000945   0.000259   0.000260
     H   17   0.010699   0.087322   0.440374   0.001779   0.000303   0.000303
     H   18   0.437479   4.858086   0.439106   0.000734   0.000191   0.000192
     H   19   0.016043   0.004820   0.001068   5.087864   0.012830   0.012824
     H   20   0.005962   0.005234   0.001107   5.112690   0.010921   0.010919


                  H 13       H 14       H 15       H 16       H 17       H 18
 ------------------------------------------------------------------------------
     H   13   5.129657
     H   14   0.569294   5.129695
     H   15   0.000980   0.000980   5.220136
     H   16   0.000717   0.000717   0.006959   5.221689
     H   17   0.005711   0.005712   0.008615   0.039648   5.247405
     H   18   0.001058   0.001058   0.039720   0.043760   0.006881   5.223310
     H   19   0.001431   0.001431   0.021000   0.000378   0.000310   0.000390
     H   20   0.000758   0.000758   0.004550   0.000535   0.000657   0.000465


                  H 19       H 20
 ------------------------------
     H   19   5.467760
     H   20   0.406870   5.488368


          HEAT OF FORMATION =      32.164090 KCALS/MOLE

          ZERO POINT ENERGY     105.330 KCAL/MOL


           NORMAL COORDINATE ANALYSIS (Total motion = 1 Angstrom)


   Root No.       1         2         3         4         5         6         7         8

                 1 A       2 A       3 A       4 A       5 A       6 A       7 A       8 A   

                  83.0     131.1     211.7     279.3     372.5     435.2     468.9     529.6
  
           1    0.0000    0.0000    0.0000   -0.0036    0.0000    0.0000   -0.0353    0.0000
           2   -0.0000    0.0000    0.0000   -0.0136   -0.0000   -0.0000    0.0229    0.0000
           3    0.0616   -0.0272   -0.0150   -0.0000    0.0048   -0.0024    0.0000    0.0034
           4    0.0000    0.0000    0.0000    0.0038    0.0000    0.0000   -0.0329    0.0000
           5   -0.0000    0.0000    0.0000   -0.0235    0.0000    0.0000   -0.0245    0.0000
           6   -0.0181    0.0456   -0.0437   -0.0000    0.0032    0.0011    0.0000   -0.0063
           7    0.0000    0.0000    0.0000    0.0190   -0.0000   -0.0000    0.0317    0.0000
           8   -0.0000    0.0000    0.0000   -0.0240    0.0000    0.0000   -0.0287    0.0000
           9   -0.0137    0.0158    0.0474    0.0000   -0.0167    0.0681    0.0000   -0.0102
          10    0.0000   -0.0000   -0.0000    0.0119   -0.0000   -0.0000    0.0128   -0.0000
          11   -0.0000    0.0000    0.0000   -0.0115   -0.0000   -0.0000    0.0282    0.0000
          12    0.0042   -0.0007    0.0205    0.0000   -0.0525   -0.0420   -0.0000    0.0610
          13    0.0000    0.0000    0.0000    0.0177   -0.0000   -0.0000    0.0376   -0.0000
          14   -0.0000    0.0000    0.0000   -0.0303    0.0000    0.0000   -0.0150   -0.0000
          15    0.0078    0.0307    0.0564    0.0000   -0.0518   -0.0024   -0.0000   -0.0254
          16    0.0000    0.0000    0.0000    0.0053   -0.0000   -0.0000    0.0184    0.0000
          17   -0.0000   -0.0000    0.0000    0.0111    0.0000   -0.0000    0.0168    0.0000
          18   -0.0256   -0.0326    0.0442    0.0000    0.0529   -0.0053    0.0000    0.0247
          19    0.0000    0.0000    0.0000   -0.0251    0.0000   -0.0000    0.0108   -0.0000
          20    0.0000    0.0000    0.0000   -0.0283    0.0000    0.0000   -0.0152   -0.0000
          21    0.0288    0.0446    0.0182    0.0000    0.0536   -0.0295   -0.0000   -0.0204
          22    0.0000    0.0000    0.0000   -0.0418    0.0000    0.0000   -0.0080   -0.0000
          23    0.0000    0.0000   -0.0000    0.0009   -0.0000    0.0000    0.0212   -0.0000
          24    0.0228    0.0080   -0.0519   -0.0000   -0.0035    0.0440    0.0000    0.0293
          25    0.0000   -0.0000    0.0000   -0.0305   -0.0000   -0.0000   -0.0060    0.0000
          26    0.0000   -0.0000   -0.0000    0.0163   -0.0000   -0.0000    0.0255   -0.0000
          27   -0.0073   -0.0437   -0.0252   -0.0000   -0.0396   -0.0332   -0.0000   -0.0313
          28   -0.0000   -0.0000   -0.0000    0.0448    0.0000    0.0000   -0.0051   -0.0000
          29    0.0000   -0.0000   -0.0000    0.0843    0.0000    0.0000   -0.0242    0.0000
          30   -0.0593   -0.0310   -0.0170   -0.0000    0.0155    0.0113    0.0000   -0.0107
          31   -0.0484    0.0446   -0.0180   -0.0060   -0.0061   -0.0042   -0.0580    0.0132
          32   -0.0562    0.0343    0.0147   -0.0108   -0.0517   -0.0452    0.0389    0.0935
          33    0.1176   -0.0685   -0.0154   -0.0002    0.0391    0.0272    0.0004   -0.0605
          34    0.0484   -0.0446    0.0180   -0.0060    0.0061    0.0042   -0.0580   -0.0132
          35    0.0562   -0.0343   -0.0147   -0.0108    0.0517    0.0451    0.0389   -0.0935
          36    0.1176   -0.0685   -0.0154    0.0002    0.0391    0.0272   -0.0004   -0.0606
          37   -0.0474    0.0444   -0.0211   -0.0029   -0.0005   -0.0059   -0.0612   -0.0116
          38    0.0187   -0.0378    0.0767   -0.0283   -0.0139    0.0736   -0.0460    0.0056
          39   -0.0515    0.0890   -0.0995   -0.0001    0.0113   -0.0463   -0.0002   -0.0157
          40    0.0474   -0.0444    0.0211   -0.0029    0.0005    0.0060   -0.0612    0.0116
          41   -0.0187    0.0378   -0.0767   -0.0284    0.0139   -0.0735   -0.0460   -0.0056
          42   -0.0515    0.0890   -0.0995    0.0000    0.0113   -0.0463    0.0001   -0.0157
          43    0.0000    0.0000    0.0000   -0.0433    0.0000   -0.0000   -0.0123   -0.0000
          44    0.0000    0.0000    0.0000   -0.0529    0.0000    0.0000   -0.0470   -0.0000
          45    0.0497    0.0746    0.0198    0.0000    0.1620   -0.1054   -0.0000   -0.0222
          46   -0.0000   -0.0000    0.0000   -0.0400   -0.0000   -0.0000   -0.0113   -0.0000
          47    0.0000   -0.0000   -0.0000    0.0376   -0.0000   -0.0000    0.0381   -0.0000
          48   -0.0152   -0.0893   -0.0664   -0.0000   -0.1088   -0.1125   -0.0000   -0.0918
          49    0.0000    0.0000    0.0000    0.0254   -0.0000   -0.0000    0.0443    0.0000
          50   -0.0000   -0.0000    0.0000    0.0390    0.0000   -0.0000    0.0524    0.0000
          51   -0.0469   -0.0633    0.0665    0.0000    0.1587   -0.0614    0.0000    0.0959
          52   -0.0000   -0.0000   -0.0000   -0.0636    0.0000    0.0000   -0.0304   -0.0000
          53    0.0000    0.0000   -0.0000    0.0031   -0.0000    0.0000    0.0234   -0.0000
          54    0.0410    0.0137   -0.1255   -0.0000   -0.0085    0.1204    0.0000    0.1142
          55   -0.0000   -0.0000   -0.0000    0.1395    0.0000    0.0000   -0.0840   -0.0001
          56    0.0000   -0.0000   -0.0000    0.1090    0.0000    0.0000   -0.0452    0.0000
          57   -0.1038   -0.0185    0.0015   -0.0000    0.0163    0.0420    0.0001   -0.1490
          58   -0.0000   -0.0000   -0.0000   -0.0180    0.0000    0.0000    0.0463   -0.0000
          59    0.0000   -0.0000   -0.0000    0.1646    0.0000    0.0000   -0.0907   -0.0000
          60   -0.0714   -0.0706   -0.0703   -0.0000    0.0852    0.0390   -0.0000    0.0392


   Root No.       9        10        11        12        13        14        15        16

                 9 A      10 A      11 A      12 A      13 A      14 A      15 A      16 A   

                 549.8     551.4     607.5     657.6     712.7     779.6     824.2     829.8
  
           1   -0.0186   -0.0275   -0.0000   -0.0477    0.0000    0.0000   -0.0000   -0.0066
           2   -0.0515   -0.0371    0.0000   -0.0308    0.0000    0.0000   -0.0000   -0.0257
           3    0.0000   -0.0000   -0.0011    0.0000   -0.0112   -0.0090   -0.0234    0.0000
           4   -0.0288   -0.0128   -0.0000   -0.0557    0.0000    0.0000   -0.0000   -0.0017
           5   -0.0356    0.0106   -0.0000    0.0559   -0.0000   -0.0000    0.0000    0.0157
           6   -0.0000    0.0000    0.0036    0.0000   -0.0190   -0.0002   -0.0236    0.0000
           7   -0.0369    0.0070    0.0000    0.0177   -0.0000   -0.0000    0.0000    0.0320
           8   -0.0158    0.0133   -0.0000    0.0424   -0.0000   -0.0000   -0.0000   -0.0017
           9    0.0000    0.0000    0.0265   -0.0000   -0.0286    0.0025    0.0263   -0.0001
          10    0.0369   -0.0502   -0.0000    0.0297   -0.0000    0.0000   -0.0000   -0.0313
          11   -0.0309   -0.0399    0.0000   -0.0300    0.0000    0.0000   -0.0000   -0.0166
          12    0.0001   -0.0000   -0.0133    0.0000   -0.0131   -0.0098    0.0259   -0.0001
          13    0.0025   -0.0242    0.0000    0.0024    0.0000    0.0000    0.0000    0.0179
          14    0.0270   -0.0378   -0.0000    0.0125    0.0000    0.0000    0.0000    0.0030
          15   -0.0000    0.0000   -0.0064    0.0000    0.0504    0.0351   -0.0196    0.0000
          16   -0.0537    0.0046    0.0000    0.0489   -0.0000   -0.0000    0.0000    0.0568
          17    0.0143    0.0559   -0.0000   -0.0054    0.0000    0.0000   -0.0000   -0.0394
          18    0.0000   -0.0000   -0.0156    0.0000    0.0135   -0.0160    0.0123   -0.0000
          19    0.0310    0.0474    0.0000   -0.0344    0.0000   -0.0000    0.0000    0.0205
          20    0.0402   -0.0430    0.0000    0.0138   -0.0000   -0.0000    0.0000    0.0247
          21   -0.0000    0.0000    0.0172   -0.0000   -0.0010   -0.0122   -0.0122    0.0000
          22    0.0253    0.0330   -0.0000   -0.0135    0.0000   -0.0000    0.0000    0.0030
          23    0.0619    0.0062    0.0000   -0.0372    0.0000   -0.0000    0.0001    0.0647
          24    0.0000   -0.0000   -0.0152    0.0000    0.0157   -0.0228   -0.0099    0.0000
          25   -0.0116    0.0629   -0.0000    0.0179   -0.0000    0.0000   -0.0000   -0.0562
          26    0.0130    0.0538    0.0000   -0.0049   -0.0000   -0.0000   -0.0000   -0.0262
          27   -0.0000   -0.0000    0.0168   -0.0000   -0.0041   -0.0292    0.0048   -0.0000
          28    0.0499   -0.0395   -0.0000    0.0431   -0.0000    0.0000   -0.0000   -0.0420
          29   -0.0163    0.0091   -0.0000   -0.0203    0.0000   -0.0000   -0.0000   -0.0062
          30   -0.0000    0.0000   -0.0003   -0.0000    0.0006    0.0000    0.0032    0.0000
          31   -0.0332   -0.0089    0.0177   -0.0519   -0.0369   -0.0102   -0.0905    0.0216
          32   -0.0454   -0.0552    0.0260   -0.0372   -0.0446   -0.0323   -0.0529   -0.0555
          33    0.0021    0.0018   -0.0260    0.0038    0.0342    0.0159    0.0533    0.0038
          34   -0.0332   -0.0089   -0.0177   -0.0519    0.0369    0.0102    0.0906    0.0213
          35   -0.0456   -0.0551   -0.0260   -0.0372    0.0446    0.0323    0.0527   -0.0557
          36   -0.0023   -0.0018   -0.0260   -0.0038    0.0343    0.0159    0.0533   -0.0040
          37   -0.0225   -0.0121   -0.0065   -0.0557    0.0352    0.0142    0.0922    0.0028
          38   -0.0312    0.0134    0.0370    0.0666   -0.0884    0.0030   -0.0553    0.0202
          39    0.0003   -0.0007   -0.0222   -0.0047    0.0526    0.0050    0.0561   -0.0007
          40   -0.0225   -0.0121    0.0065   -0.0557   -0.0352   -0.0142   -0.0922    0.0032
          41   -0.0312    0.0134   -0.0370    0.0666    0.0884   -0.0030    0.0554    0.0200
          42   -0.0003    0.0007   -0.0222    0.0047    0.0526    0.0050    0.0561    0.0005
          43    0.0353    0.0576    0.0000   -0.0243   -0.0000    0.0000    0.0000    0.0060
          44    0.0467   -0.0282    0.0000    0.0274   -0.0000    0.0000    0.0000    0.0052
          45   -0.0000    0.0000    0.0399   -0.0000   -0.1533    0.0660    0.1147   -0.0002
          46    0.0119    0.0636   -0.0000   -0.0031   -0.0000    0.0000   -0.0000   -0.0583
          47   -0.0387    0.0524    0.0000    0.0422   -0.0000    0.0000   -0.0000   -0.0210
          48   -0.0001    0.0000    0.0461   -0.0000   -0.0878    0.2212   -0.0153    0.0000
          49   -0.0545    0.0011    0.0000    0.0411   -0.0000   -0.0000    0.0001    0.1020
          50    0.0130    0.0501   -0.0000   -0.0158    0.0000    0.0000    0.0000    0.0208
          51    0.0001    0.0000   -0.0869    0.0000    0.0330    0.1635   -0.1099    0.0002
          52    0.0468   -0.0269   -0.0000   -0.0049   -0.0000    0.0000    0.0001    0.0687
          53    0.0598    0.0131   -0.0000   -0.0379   -0.0000    0.0000    0.0001    0.0589
          54    0.0001   -0.0000   -0.0699    0.0000   -0.0350    0.2183    0.0520   -0.0001
          55    0.0857    0.0320   -0.0001    0.0686   -0.0000   -0.0000    0.0000    0.0345
          56   -0.0078    0.0282    0.0000   -0.0150    0.0000    0.0000    0.0000    0.0155
          57   -0.0001    0.0000   -0.2258   -0.0001   -0.0762   -0.0325   -0.0441    0.0001
          58    0.0338   -0.0922    0.0001    0.0366    0.0000    0.0000   -0.0001   -0.1128
          59    0.0056    0.0753   -0.0000   -0.0105    0.0000   -0.0000    0.0001    0.0817
          60   -0.0000    0.0000    0.2466    0.0000    0.1053    0.0560   -0.0250    0.0001


   Root No.      17        18        19        20        21        22        23        24

                17 A      18 A      19 A      20 A      21 A      22 A      23 A      24 A   

                 886.0     896.4     921.2     949.1     978.5    1006.0    1017.2    1067.8
  
           1   -0.0028   -0.0000    0.0132    0.0000    0.0000    0.0000   -0.0000    0.0602
           2    0.0073   -0.0000    0.0575    0.0000   -0.0000    0.0000   -0.0000    0.0088
           3    0.0000   -0.0168    0.0000   -0.0184    0.0219    0.0002   -0.0199   -0.0000
           4   -0.0097   -0.0000   -0.0116   -0.0000   -0.0000   -0.0000    0.0000   -0.0580
           5    0.0615    0.0000    0.0116    0.0000    0.0000    0.0000   -0.0000    0.0102
           6    0.0000    0.0011    0.0000    0.0188   -0.0239    0.0015    0.0224    0.0000
           7   -0.0105   -0.0000   -0.0010    0.0000   -0.0000   -0.0000    0.0000    0.0023
           8    0.0065    0.0000   -0.0021   -0.0000    0.0000   -0.0000   -0.0000   -0.0038
           9   -0.0000    0.0193    0.0000   -0.0113    0.0235    0.0060   -0.0262   -0.0000
          10    0.0109    0.0000    0.0083    0.0000   -0.0000    0.0000    0.0000   -0.0043
          11    0.0015    0.0000   -0.0127    0.0000   -0.0000   -0.0000    0.0000   -0.0052
          12   -0.0000    0.0189    0.0000    0.0051   -0.0073    0.0098    0.0287   -0.0000
          13    0.0046    0.0000   -0.0018    0.0000   -0.0000   -0.0000    0.0000   -0.0052
          14   -0.0279   -0.0000   -0.0043    0.0000   -0.0000   -0.0000    0.0000    0.0030
          15    0.0000   -0.0277   -0.0000    0.0195    0.0027   -0.0142    0.0017    0.0000
          16   -0.0274   -0.0000   -0.0125   -0.0000    0.0000    0.0000   -0.0000   -0.0011
          17   -0.0108   -0.0000   -0.0007   -0.0000   -0.0000   -0.0000    0.0000   -0.0027
          18    0.0000   -0.0303   -0.0000   -0.0280   -0.0166   -0.0230    0.0228    0.0000
          19    0.0420    0.0000    0.0081   -0.0000   -0.0000    0.0000   -0.0000    0.0004
          20   -0.0534   -0.0000   -0.0163   -0.0000   -0.0000    0.0000    0.0000   -0.0031
          21   -0.0000    0.0225    0.0000   -0.0368   -0.0202    0.0302   -0.0050    0.0000
          22    0.0015    0.0000    0.0012    0.0000    0.0000   -0.0000    0.0000    0.0028
          23    0.0255    0.0000    0.0011    0.0000    0.0000   -0.0000    0.0000   -0.0012
          24   -0.0000    0.0221    0.0000    0.0117    0.0196   -0.0401    0.0127    0.0000
          25   -0.0322   -0.0000   -0.0054    0.0000   -0.0000    0.0000    0.0000    0.0004
          26   -0.0141   -0.0000    0.0001    0.0000   -0.0000    0.0000   -0.0000    0.0046
          27    0.0000   -0.0131   -0.0000    0.0308   -0.0017    0.0374   -0.0189   -0.0000
          28    0.0229    0.0000    0.0037    0.0000   -0.0000   -0.0000   -0.0000    0.0018
          29    0.0091    0.0000   -0.0572    0.0000    0.0000    0.0000    0.0000    0.0112
          30   -0.0000    0.0058   -0.0000    0.0050   -0.0266   -0.0216   -0.0390    0.0000
          31    0.0165   -0.0464   -0.0130    0.0116   -0.0361   -0.0391   -0.0068    0.1629
          32   -0.0039   -0.0351    0.0932   -0.0660    0.0888    0.0219   -0.0582   -0.0719
          33   -0.0016    0.0275   -0.0083    0.0167   -0.0154    0.0058    0.0195   -0.0011
          34    0.0165    0.0464   -0.0129   -0.0116    0.0361    0.0391    0.0068    0.1630
          35   -0.0039    0.0351    0.0932    0.0660   -0.0888   -0.0219    0.0582   -0.0719
          36    0.0016    0.0275    0.0084    0.0168   -0.0154    0.0058    0.0195    0.0011
          37    0.0214    0.0556   -0.0431    0.0076    0.0116    0.0433    0.0336   -0.1567
          38    0.1053    0.0324   -0.0084    0.0667   -0.0708    0.0301    0.0901   -0.0717
          39   -0.0093    0.0088   -0.0025   -0.0183    0.0253    0.0046   -0.0161   -0.0002
          40    0.0214   -0.0556   -0.0431   -0.0075   -0.0116   -0.0433   -0.0336   -0.1567
          41    0.1053   -0.0324   -0.0084   -0.0667    0.0708   -0.0301   -0.0901   -0.0717
          42    0.0093    0.0088    0.0025   -0.0183    0.0253    0.0046   -0.0161    0.0002
          43   -0.0026   -0.0000    0.0075   -0.0000    0.0000   -0.0000   -0.0000    0.0114
          44   -0.1179   -0.0000   -0.0175    0.0000    0.0000   -0.0000   -0.0000    0.0120
          45    0.0001   -0.1106   -0.0000    0.1632    0.0906   -0.1050    0.0047   -0.0000
          46   -0.0103   -0.0000    0.0016    0.0000    0.0000   -0.0000    0.0000   -0.0030
          47   -0.0668    0.0000   -0.0165   -0.0000   -0.0000   -0.0000    0.0000    0.0124
          48   -0.0000    0.0895    0.0000   -0.1503    0.0091   -0.1323    0.0612    0.0000
          49   -0.0458   -0.0000   -0.0174   -0.0000   -0.0000   -0.0000   -0.0000    0.0144
          50   -0.0348    0.0000   -0.0068    0.0000    0.0000    0.0000   -0.0000    0.0189
          51   -0.0001    0.1448    0.0000    0.1288    0.0744    0.0729   -0.0828   -0.0000
          52   -0.0416   -0.0000   -0.0200   -0.0000   -0.0000    0.0000    0.0000   -0.0168
          53    0.0293   -0.0000    0.0031   -0.0000   -0.0000    0.0000   -0.0000    0.0011
          54    0.0001   -0.1400   -0.0000   -0.0499   -0.0837    0.1415   -0.0393    0.0000
          55   -0.0478   -0.0000    0.2587   -0.0000    0.0000    0.0000    0.0000   -0.0348
          56   -0.0105   -0.0000    0.0080    0.0000   -0.0000   -0.0000   -0.0000    0.0021
          57    0.0000   -0.0360   -0.0001   -0.0435    0.1278    0.0903    0.1391    0.0000
          58    0.0809    0.0000   -0.1441   -0.0000    0.0000    0.0000    0.0000    0.0260
          59   -0.0639   -0.0000    0.1346    0.0000   -0.0000   -0.0000   -0.0000   -0.0192
          60   -0.0000   -0.0428    0.0000   -0.0015    0.1039    0.0777    0.1570   -0.0000


   Root No.      25        26        27        28        29        30        31        32

                25 A      26 A      27 A      28 A      29 A      30 A      31 A      32 A   

                1076.3    1083.7    1094.2    1104.9    1137.7    1151.0    1187.7    1252.0
  
           1   -0.0000   -0.0013    0.0000   -0.0027   -0.0040    0.0034   -0.0122   -0.0424
           2    0.0000    0.0101   -0.0000   -0.0035   -0.0136    0.0038    0.0053    0.0033
           3    0.0243   -0.0000    0.0404    0.0000    0.0000    0.0000    0.0000    0.0000
           4    0.0000    0.0038   -0.0000   -0.0065   -0.0148   -0.0025    0.0085    0.0517
           5   -0.0000    0.0048    0.0000    0.0123    0.0039    0.0001    0.0133    0.0190
           6    0.0074    0.0000   -0.0470   -0.0000   -0.0000   -0.0000   -0.0000    0.0000
           7    0.0000   -0.0034   -0.0000    0.0061   -0.0045   -0.0080    0.0288   -0.0027
           8   -0.0000   -0.0030    0.0000   -0.0171   -0.0244    0.0029   -0.0094    0.0253
           9   -0.0260    0.0000    0.0038    0.0000    0.0000    0.0000    0.0000   -0.0000
          10   -0.0000   -0.0006    0.0000    0.0017    0.0091   -0.0010   -0.0021    0.0074
          11    0.0000   -0.0093   -0.0000    0.0093    0.0347   -0.0036   -0.0015    0.0237
          12   -0.0301    0.0000    0.0068   -0.0000   -0.0000    0.0000   -0.0000    0.0000
          13   -0.0000   -0.0240   -0.0000    0.0233    0.0343    0.0043    0.0203    0.0013
          14    0.0000   -0.0075    0.0000   -0.0020    0.0092   -0.0099   -0.0221    0.0103
          15    0.0150    0.0000   -0.0027   -0.0000   -0.0000    0.0000    0.0000   -0.0000
          16   -0.0000   -0.0067    0.0000   -0.0244   -0.0184   -0.0042   -0.0046   -0.0101
          17    0.0000    0.0084   -0.0000    0.0235    0.0011    0.0097    0.0202    0.0094
          18    0.0097   -0.0000   -0.0021   -0.0000   -0.0000   -0.0000   -0.0000   -0.0000
          19    0.0000    0.0207    0.0000   -0.0207    0.0110    0.0077   -0.0154    0.0187
          20   -0.0000   -0.0135   -0.0000    0.0072    0.0054   -0.0029   -0.0064   -0.0056
          21   -0.0060    0.0000    0.0007    0.0000   -0.0000   -0.0000    0.0000   -0.0000
          22    0.0000    0.0049   -0.0000    0.0031   -0.0043    0.0020   -0.0172    0.0012
          23   -0.0000   -0.0243    0.0000   -0.0150   -0.0225   -0.0048    0.0011   -0.0159
          24    0.0035    0.0000   -0.0003    0.0000    0.0000    0.0000    0.0000    0.0000
          25   -0.0000   -0.0334   -0.0000    0.0040    0.0008   -0.0070   -0.0139   -0.0157
          26   -0.0000   -0.0084    0.0000   -0.0039    0.0000    0.0013    0.0137   -0.0136
          27   -0.0046    0.0000    0.0004    0.0000    0.0000    0.0000   -0.0000    0.0000
          28    0.0000    0.0117    0.0000   -0.0075   -0.0138    0.0016   -0.0042    0.0014
          29   -0.0000    0.0038    0.0000   -0.0047   -0.0123    0.0002   -0.0000   -0.0096
          30    0.0150   -0.0000   -0.0018    0.0000    0.0000   -0.0000    0.0000   -0.0000
          31   -0.0968   -0.0178    0.2364    0.0287    0.0523    0.0040    0.0184    0.0259
          32    0.1222    0.0311   -0.0738   -0.0326   -0.0705    0.0081   -0.0265   -0.1164
          33   -0.0029   -0.0042   -0.0249    0.0026    0.0072   -0.0025    0.0041    0.0348
          34    0.0968   -0.0178   -0.2363    0.0287    0.0523    0.0040    0.0184    0.0259
          35   -0.1222    0.0312    0.0738   -0.0326   -0.0705    0.0081   -0.0265   -0.1164
          36   -0.0030    0.0042   -0.0249   -0.0026   -0.0073    0.0025   -0.0041   -0.0348
          37    0.1536    0.0037    0.1818    0.0146    0.0581   -0.0077   -0.0236   -0.0789
          38    0.1226    0.0089    0.0224    0.0401    0.0744   -0.0026   -0.0062   -0.1389
          39    0.0085   -0.0018    0.0251   -0.0057   -0.0068   -0.0007   -0.0029    0.0281
          40   -0.1536    0.0038   -0.1819    0.0145    0.0581   -0.0077   -0.0236   -0.0789
          41   -0.1226    0.0089   -0.0224    0.0401    0.0744   -0.0026   -0.0062   -0.1389
          42    0.0085    0.0018    0.0251    0.0057    0.0068    0.0007    0.0029   -0.0281
          43    0.0000    0.1654    0.0000   -0.0831    0.0468   -0.0656    0.1386   -0.0133
          44    0.0000    0.1818    0.0000   -0.0781    0.0534   -0.1071    0.2049   -0.0528
          45    0.0145   -0.0000   -0.0019    0.0000   -0.0000    0.0000   -0.0000    0.0000
          46   -0.0000   -0.0685   -0.0000    0.0733   -0.0548   -0.1303    0.0447   -0.0241
          47    0.0000    0.0659    0.0000   -0.1549    0.1207    0.2748   -0.1187   -0.0008
          48    0.0079   -0.0000   -0.0014    0.0000   -0.0000   -0.0000    0.0000   -0.0000
          49    0.0000    0.1385   -0.0000    0.0660   -0.0223   -0.0861   -0.1424   -0.0024
          50    0.0000    0.2114   -0.0000    0.1505   -0.0020   -0.1000   -0.1691    0.0235
          51   -0.0294   -0.0000    0.0087   -0.0000   -0.0000    0.0000    0.0000   -0.0000
          52    0.0000    0.0781   -0.0000    0.1692   -0.0989    0.3337    0.1119   -0.0276
          53   -0.0000   -0.0332    0.0000   -0.0351   -0.0131   -0.0407   -0.0126   -0.0150
          54   -0.0060   -0.0000    0.0008   -0.0000    0.0000   -0.0000   -0.0000    0.0000
          55   -0.0000    0.0032   -0.0000    0.0047    0.0275   -0.0020   -0.0015    0.0497
          56    0.0000   -0.0004   -0.0000   -0.0004    0.0001   -0.0006    0.0002    0.0018
          57   -0.0403    0.0000    0.0104   -0.0000   -0.0000   -0.0000   -0.0000   -0.0000
          58   -0.0000    0.0488    0.0000   -0.0346   -0.0649    0.0016    0.0004   -0.0058
          59   -0.0000   -0.0413   -0.0000    0.0285    0.0513    0.0002   -0.0064    0.0017
          60   -0.0550   -0.0000    0.0034    0.0000    0.0000   -0.0000    0.0000    0.0000


   Root No.      33        34        35        36        37        38        39        40

                33 A      34 A      35 A      36 A      37 A      38 A      39 A      40 A   

                1273.9    1313.6    1339.2    1339.3    1384.1    1407.8    1446.8    1590.3
  
           1   -0.0353    0.0231    0.0299    0.0211    0.0071   -0.0283    0.0064   -0.0010
           2    0.0359   -0.0215   -0.0310   -0.0174    0.0377   -0.0338   -0.0219    0.0008
           3    0.0000   -0.0000   -0.0000   -0.0000    0.0000   -0.0000   -0.0000    0.0000
           4   -0.0024   -0.0390   -0.0000    0.0141    0.0152    0.0283    0.0141    0.0167
           5   -0.0132   -0.0424    0.0019    0.0163   -0.0334   -0.0234    0.0402    0.0361
           6   -0.0000    0.0000    0.0000    0.0000   -0.0000   -0.0000    0.0000    0.0000
           7   -0.0008   -0.0259    0.0320   -0.0003   -0.0166   -0.0021   -0.0537   -0.0420
           8   -0.0159    0.0526   -0.0041   -0.0152    0.0039    0.0091   -0.0206   -0.0844
           9    0.0000   -0.0000    0.0000    0.0000   -0.0000   -0.0000   -0.0000    0.0000
          10   -0.0141    0.0057    0.0132   -0.0234    0.0034    0.0087    0.0162   -0.0079
          11   -0.0032    0.0508    0.0552   -0.0037   -0.0054    0.0253    0.0457   -0.0164
          12    0.0000    0.0000   -0.0000    0.0000   -0.0000    0.0000    0.0000    0.0000
          13   -0.0204   -0.0099   -0.0394    0.0265   -0.0100   -0.0130   -0.0048   -0.0224
          14   -0.0049   -0.0077    0.0310   -0.0073   -0.0122    0.0059   -0.0512    0.0577
          15    0.0000   -0.0000   -0.0000   -0.0000    0.0000    0.0000    0.0000   -0.0000
          16    0.0092    0.0403   -0.0124   -0.0095    0.0143    0.0061    0.0087    0.0431
          17   -0.0164    0.0347   -0.0472    0.0114    0.0073   -0.0037   -0.0258   -0.0352
          18    0.0000   -0.0000    0.0000   -0.0000   -0.0000    0.0000    0.0000    0.0000
          19   -0.0170    0.0351   -0.0337    0.0045    0.0066    0.0010   -0.0220    0.0785
          20    0.0000   -0.0144   -0.0529    0.0241    0.0060   -0.0096   -0.0079    0.0230
          21    0.0000   -0.0000    0.0000   -0.0000   -0.0000    0.0000    0.0000   -0.0000
          22    0.0061   -0.0383    0.0386   -0.0052   -0.0153    0.0006   -0.0471   -0.0777
          23    0.0179   -0.0093    0.0066   -0.0048    0.0073   -0.0006    0.0538   -0.0456
          24   -0.0000    0.0000   -0.0000    0.0000   -0.0000    0.0000   -0.0000    0.0000
          25    0.0142   -0.0152   -0.0124    0.0061    0.0088   -0.0041    0.0652   -0.0075
          26    0.0108   -0.0148    0.0525   -0.0156   -0.0106    0.0064   -0.0178    0.0896
          27   -0.0000    0.0000   -0.0000    0.0000    0.0000   -0.0000   -0.0000   -0.0000
          28    0.0050   -0.0107   -0.0104   -0.0267    0.0114   -0.0001    0.0080    0.0072
          29   -0.0006   -0.0061   -0.0048    0.0107   -0.0028   -0.0048   -0.0105    0.0009
          30   -0.0000    0.0000    0.0000    0.0000   -0.0000   -0.0000   -0.0000   -0.0000
          31    0.1093   -0.0006   -0.1100   -0.0671   -0.0525    0.1179   -0.0141   -0.0115
          32   -0.0623   -0.0115   -0.0612    0.0256   -0.1174    0.0961    0.0097    0.0049
          33   -0.0070    0.0045    0.0716    0.0130    0.1041   -0.1252   -0.0065    0.0024
          34    0.1093   -0.0005   -0.1100   -0.0671   -0.0525    0.1179   -0.0141   -0.0115
          35   -0.0623   -0.0115   -0.0612    0.0257   -0.1174    0.0961    0.0097    0.0049
          36    0.0070   -0.0045   -0.0716   -0.0130   -0.1042    0.1252    0.0065   -0.0024
          37    0.0745    0.0748   -0.0259   -0.0756   -0.0783   -0.1165   -0.0266   -0.0125
          38    0.0237   -0.0120    0.0209    0.0225    0.1174    0.0865   -0.0533   -0.0077
          39    0.0124    0.0307   -0.0209   -0.0398   -0.1150   -0.1151    0.0314    0.0091
          40    0.0745    0.0748   -0.0259   -0.0756   -0.0783   -0.1165   -0.0266   -0.0125
          41    0.0237   -0.0120    0.0209    0.0225    0.1173    0.0865   -0.0533   -0.0077
          42   -0.0124   -0.0307    0.0209    0.0398    0.1150    0.1151   -0.0314   -0.0091
          43   -0.0162    0.0307    0.0093   -0.0188    0.0040    0.0028    0.0416    0.0127
          44    0.0046   -0.0271    0.0060   -0.0062    0.0027   -0.0082    0.0851   -0.0821
          45   -0.0000    0.0000   -0.0000    0.0000    0.0000    0.0000   -0.0000    0.0000
          46    0.0136    0.0242    0.0137   -0.0115    0.0071    0.0046    0.0401    0.0798
          47    0.0179   -0.1069   -0.0013    0.0222   -0.0049   -0.0129    0.0595   -0.0909
          48   -0.0000    0.0000    0.0000   -0.0000   -0.0000    0.0000   -0.0000    0.0000
          49    0.0235   -0.0064    0.0165   -0.0146    0.0111    0.0061    0.0730    0.0381
          50   -0.0004   -0.0311   -0.0101    0.0067    0.0009   -0.0049    0.0551   -0.0624
          51   -0.0000    0.0000    0.0000   -0.0000   -0.0000    0.0000   -0.0000    0.0000
          52    0.0201    0.0567    0.0646   -0.0388    0.0081    0.0126    0.0656    0.0744
          53    0.0187   -0.0224    0.0050   -0.0016    0.0056   -0.0021    0.0498   -0.0716
          54   -0.0000   -0.0000   -0.0000    0.0000   -0.0000   -0.0000   -0.0000    0.0000
          55    0.1473    0.1295    0.0945    0.1729   -0.0453    0.0166   -0.0005   -0.0105
          56    0.0286    0.0266    0.0209    0.0545   -0.0160   -0.0001   -0.0116   -0.0040
          57   -0.0000   -0.0000   -0.0000   -0.0000    0.0000   -0.0000   -0.0000    0.0000
          58    0.1048    0.0314    0.0091    0.1106   -0.0205   -0.0109   -0.0318    0.0083
          59   -0.1165   -0.0519   -0.0242   -0.1531    0.0355    0.0098    0.0400    0.0002
          60   -0.0000   -0.0000   -0.0000   -0.0000    0.0000    0.0000    0.0000   -0.0000


   Root No.      41        42        43        44        45        46        47        48

                41 A      42 A      43 A      44 A      45 A      46 A      47 A      48 A   

                1604.6    1796.2    1821.1    1910.0    2971.8    2986.3    3054.3    3054.4
  
           1   -0.0063   -0.0065   -0.0010   -0.0158    0.0000   -0.0000   -0.0086   -0.0035
           2    0.0157   -0.0024    0.0028    0.0237    0.0000   -0.0000   -0.0106   -0.0044
           3    0.0000    0.0000    0.0000    0.0000    0.0293   -0.0322    0.0000    0.0000
           4    0.0036   -0.0079    0.0131   -0.0027    0.0000    0.0000   -0.0116   -0.0044
           5   -0.0319   -0.0084    0.0185    0.0092    0.0000    0.0000    0.0144    0.0055
           6    0.0000   -0.0000    0.0000    0.0000   -0.0324   -0.0292   -0.0000   -0.0000
           7   -0.0388    0.1219   -0.1067   -0.0233   -0.0000    0.0000    0.0001    0.0002
           8    0.0876   -0.0174   -0.0768   -0.0085   -0.0000   -0.0000    0.0004   -0.0000
           9   -0.0000    0.0000    0.0000    0.0000   -0.0000   -0.0001   -0.0000   -0.0000
          10   -0.0088    0.0160   -0.0015    0.2445   -0.0000    0.0000    0.0003    0.0001
          11   -0.0501   -0.0195   -0.0285   -0.0674    0.0000   -0.0000   -0.0004   -0.0001
          12   -0.0000   -0.0000   -0.0000   -0.0001    0.0000   -0.0001   -0.0000   -0.0000
          13    0.1123   -0.0570    0.0404   -0.0419    0.0000   -0.0000    0.0001    0.0001
          14    0.0429    0.1089    0.1296   -0.0378   -0.0000    0.0000    0.0000   -0.0005
          15   -0.0000   -0.0000   -0.0000    0.0000   -0.0000   -0.0002    0.0000    0.0000
          16   -0.0364   -0.0553    0.0949    0.0120   -0.0000   -0.0000    0.0019   -0.0047
          17   -0.0761    0.0177    0.1024    0.0006   -0.0000    0.0000   -0.0012    0.0027
          18    0.0000   -0.0000   -0.0000    0.0000   -0.0000   -0.0000    0.0000   -0.0000
          19   -0.0043    0.0359   -0.0689    0.0026   -0.0000   -0.0000    0.0036   -0.0101
          20   -0.0553   -0.0442   -0.1235    0.0151   -0.0000    0.0000   -0.0029    0.0082
          21    0.0000    0.0000    0.0000   -0.0000   -0.0000   -0.0000    0.0000   -0.0000
          22   -0.0401   -0.1123    0.0542    0.0124    0.0000   -0.0000    0.0009   -0.0023
          23    0.0063    0.0396    0.0285   -0.0037   -0.0000   -0.0000    0.0076   -0.0202
          24    0.0000    0.0000   -0.0000   -0.0000    0.0000    0.0000   -0.0000    0.0000
          25    0.0238    0.0727   -0.0102   -0.0084    0.0000    0.0000   -0.0061    0.0157
          26    0.0412   -0.0932   -0.0592    0.0111    0.0000   -0.0000   -0.0029    0.0076
          27   -0.0000    0.0000    0.0000   -0.0000   -0.0000   -0.0000    0.0000   -0.0000
          28   -0.0290   -0.0167   -0.0110   -0.1771    0.0000   -0.0000   -0.0000   -0.0001
          29    0.0131    0.0085    0.0067    0.0594   -0.0000    0.0000   -0.0001    0.0003
          30    0.0000    0.0000    0.0000    0.0001    0.0001   -0.0001   -0.0000    0.0000
          31    0.0093    0.0022   -0.0026    0.0217   -0.0816    0.0943    0.0490    0.0202
          32    0.0002   -0.0008    0.0025   -0.0106   -0.1081    0.1188    0.0639    0.0263
          33    0.0004   -0.0069    0.0004    0.0012   -0.1769    0.1938    0.1235    0.0509
          34    0.0093    0.0022   -0.0026    0.0218    0.0815   -0.0942    0.0491    0.0202
          35    0.0002   -0.0008    0.0025   -0.0107    0.1081   -0.1187    0.0640    0.0264
          36   -0.0004    0.0069   -0.0004   -0.0012   -0.1767    0.1936   -0.1235   -0.0509
          37   -0.0053    0.0148   -0.0136   -0.0021   -0.0922   -0.0873    0.0682    0.0258
          38   -0.0071    0.0133   -0.0063    0.0005    0.1182    0.1064   -0.0858   -0.0325
          39   -0.0153   -0.0032   -0.0008    0.0076    0.1950    0.1752   -0.1677   -0.0635
          40   -0.0053    0.0148   -0.0136   -0.0021    0.0922    0.0872    0.0682    0.0258
          41   -0.0071    0.0134   -0.0063    0.0005   -0.1182   -0.1064   -0.0858   -0.0325
          42    0.0153    0.0032    0.0008   -0.0076    0.1950    0.1751    0.1677    0.0635
          43    0.0770    0.0576    0.0509   -0.0148    0.0000    0.0000   -0.0428    0.1204
          44    0.0420   -0.0326    0.0313   -0.0047   -0.0000   -0.0000    0.0318   -0.0894
          45   -0.0000   -0.0000   -0.0000    0.0000    0.0000    0.0000   -0.0000    0.0000
          46    0.0452    0.0098   -0.0392   -0.0006   -0.0000   -0.0000    0.0710   -0.1845
          47    0.0098    0.0590   -0.0078   -0.0072   -0.0000   -0.0000    0.0325   -0.0846
          48   -0.0000   -0.0000    0.0000    0.0000    0.0000    0.0000   -0.0000    0.0000
          49    0.0687   -0.0483   -0.0131    0.0088    0.0000    0.0000   -0.0218    0.0515
          50    0.0689    0.0457   -0.0573   -0.0093   -0.0000   -0.0000    0.0154   -0.0357
          51   -0.0000   -0.0000    0.0000    0.0000    0.0001    0.0001   -0.0000    0.0000
          52    0.0713    0.0530   -0.0040   -0.0053    0.0000    0.0000   -0.0098    0.0260
          53   -0.0056    0.0268    0.0401   -0.0017   -0.0000    0.0000   -0.0888    0.2354
          54   -0.0000   -0.0000   -0.0000    0.0000    0.0000    0.0000    0.0000   -0.0000
          55    0.0032    0.0002   -0.0042    0.0199    0.0000   -0.0000   -0.0004    0.0011
          56    0.0218    0.0156    0.0101    0.1399   -0.0000    0.0000    0.0016   -0.0039
          57   -0.0000    0.0000    0.0000    0.0000    0.0004   -0.0004    0.0000   -0.0000
          58    0.0121    0.0010    0.0042   -0.0749    0.0000   -0.0000   -0.0005   -0.0002
          59   -0.0440   -0.0168   -0.0156   -0.1176    0.0000   -0.0000   -0.0007   -0.0001
          60   -0.0000   -0.0000   -0.0000    0.0000   -0.0002    0.0002    0.0000    0.0000


   Root No.      49        50        51        52        53        54

                49 A      50 A      51 A      52 A      53 A      54 A   

                3058.1    3061.1    3070.6    3079.3    3137.4    3145.4
  
           1    0.0146    0.0005   -0.0000   -0.0001   -0.0002   -0.0004
           2    0.0194    0.0006    0.0000   -0.0001    0.0003    0.0002
           3   -0.0000   -0.0000   -0.0000    0.0000    0.0000    0.0000
           4   -0.0108    0.0000    0.0001   -0.0002    0.0001   -0.0000
           5    0.0144    0.0001    0.0000   -0.0000   -0.0000    0.0001
           6   -0.0000   -0.0000   -0.0000   -0.0000   -0.0000   -0.0000
           7   -0.0003   -0.0004   -0.0013    0.0014    0.0002   -0.0001
           8    0.0001   -0.0004   -0.0004    0.0011   -0.0000    0.0001
           9   -0.0000    0.0000   -0.0000    0.0000   -0.0000    0.0000
          10    0.0001    0.0001   -0.0001   -0.0001   -0.0061    0.0033
          11    0.0003    0.0002   -0.0001   -0.0001    0.0018   -0.0016
          12    0.0000   -0.0000    0.0000   -0.0000    0.0000   -0.0000
          13    0.0000   -0.0004    0.0002    0.0006    0.0001    0.0006
          14   -0.0007   -0.0013    0.0014    0.0007   -0.0002   -0.0001
          15   -0.0000    0.0000   -0.0000   -0.0000    0.0000   -0.0000
          16   -0.0003    0.0122    0.0225   -0.0234   -0.0001    0.0000
          17    0.0001   -0.0076   -0.0157    0.0176   -0.0000   -0.0000
          18   -0.0000    0.0000    0.0000   -0.0000   -0.0000    0.0000
          19    0.0002   -0.0229    0.0203    0.0096   -0.0015   -0.0004
          20   -0.0001    0.0174   -0.0139   -0.0062    0.0012    0.0003
          21    0.0000   -0.0000    0.0000    0.0000   -0.0000   -0.0000
          22   -0.0000    0.0010   -0.0036   -0.0014    0.0001    0.0000
          23   -0.0002   -0.0083   -0.0253   -0.0192    0.0001    0.0001
          24    0.0000    0.0000    0.0000    0.0000   -0.0000    0.0000
          25    0.0007   -0.0239   -0.0038   -0.0213   -0.0000    0.0000
          26    0.0004   -0.0100    0.0005   -0.0098   -0.0000    0.0000
          27   -0.0000    0.0000    0.0000    0.0000   -0.0000    0.0000
          28    0.0000   -0.0002    0.0002    0.0000    0.0323   -0.0451
          29   -0.0000    0.0008   -0.0007   -0.0003   -0.0469   -0.0522
          30   -0.0000    0.0000   -0.0000   -0.0000   -0.0000    0.0000
          31   -0.0903   -0.0026   -0.0000    0.0003   -0.0006    0.0000
          32   -0.1153   -0.0034   -0.0000    0.0003   -0.0002    0.0008
          33   -0.2239   -0.0066   -0.0000    0.0007   -0.0007    0.0009
          34   -0.0903   -0.0026   -0.0000    0.0003   -0.0006    0.0000
          35   -0.1154   -0.0034   -0.0000    0.0003   -0.0002    0.0008
          36    0.2240    0.0066    0.0000   -0.0007    0.0007   -0.0009
          37    0.0687    0.0005    0.0001    0.0005    0.0000    0.0001
          38   -0.0849   -0.0005    0.0001   -0.0008   -0.0000   -0.0002
          39   -0.1667   -0.0010    0.0001   -0.0013   -0.0000   -0.0003
          40    0.0688    0.0005    0.0001    0.0005    0.0000    0.0001
          41   -0.0849   -0.0005    0.0001   -0.0008   -0.0000   -0.0002
          42    0.1667    0.0010   -0.0001    0.0013    0.0000    0.0003
          43   -0.0030    0.2662   -0.2206   -0.0988    0.0173    0.0052
          44    0.0022   -0.1945    0.1588    0.0707   -0.0119   -0.0032
          45   -0.0000    0.0000   -0.0000   -0.0000    0.0000    0.0000
          46   -0.0087    0.2719    0.0330    0.2298    0.0005   -0.0006
          47   -0.0040    0.1212    0.0112    0.1046    0.0002   -0.0003
          48    0.0000   -0.0000   -0.0000   -0.0000   -0.0000    0.0000
          49    0.0035   -0.1378   -0.2539    0.2613    0.0004   -0.0003
          50   -0.0022    0.0976    0.1834   -0.1906   -0.0003    0.0002
          51    0.0000   -0.0000   -0.0000    0.0000    0.0000   -0.0000
          52    0.0003    0.0065    0.0322    0.0217   -0.0003   -0.0001
          53    0.0023    0.0936    0.2835    0.2055   -0.0009   -0.0008
          54   -0.0000   -0.0000   -0.0000   -0.0000    0.0000    0.0000
          55    0.0000    0.0026   -0.0023   -0.0010   -0.1581   -0.0609
          56   -0.0003   -0.0096    0.0085    0.0036    0.6793    0.1904
          57   -0.0000   -0.0000    0.0000    0.0000    0.0001    0.0000
          58    0.0004    0.0002    0.0000    0.0005   -0.1547    0.5572
          59    0.0008    0.0006   -0.0003    0.0002   -0.1442    0.4470
          60   -0.0000    0.0000   -0.0000   -0.0000    0.0000   -0.0001


           MASS-WEIGHTED COORDINATE ANALYSIS (NORMAL COORDINATES)


   Root No.       1         2         3         4         5         6         7         8

                 1 A       2 A       3 A       4 A       5 A       6 A       7 A       8 A   

                  83.0     131.1     211.7     279.3     372.5     435.2     468.9     529.6
  
           1    0.0000    0.0000    0.0000   -0.0238    0.0000    0.0001   -0.2889    0.0001
           2   -0.0000    0.0000    0.0001   -0.0892   -0.0001   -0.0001    0.1874    0.0002
           3    0.4872   -0.2213   -0.1080   -0.0001    0.0337   -0.0186    0.0000    0.0284
           4    0.0000    0.0000    0.0000    0.0251    0.0000    0.0001   -0.2687    0.0001
           5   -0.0000    0.0000    0.0001   -0.1549    0.0000    0.0001   -0.2004    0.0001
           6   -0.1434    0.3702   -0.3150   -0.0000    0.0229    0.0083    0.0000   -0.0531
           7    0.0000    0.0000    0.0000    0.1252   -0.0001   -0.0001    0.2591    0.0002
           8   -0.0000    0.0000    0.0000   -0.1579    0.0000    0.0001   -0.2349    0.0000
           9   -0.1084    0.1286    0.3416    0.0001   -0.1180    0.5382    0.0001   -0.0854
          10    0.0000   -0.0000   -0.0000    0.0782   -0.0000   -0.0001    0.1043   -0.0001
          11   -0.0000    0.0000    0.0000   -0.0758   -0.0000   -0.0001    0.2308    0.0001
          12    0.0333   -0.0058    0.1476    0.0000   -0.3719   -0.3319   -0.0002    0.5104
          13    0.0000    0.0000    0.0000    0.1161   -0.0001   -0.0001    0.3078   -0.0000
          14   -0.0000    0.0000    0.0000   -0.1991    0.0000    0.0000   -0.1225   -0.0002
          15    0.0615    0.2493    0.4067    0.0001   -0.3664   -0.0186   -0.0001   -0.2128
          16    0.0000    0.0000    0.0000    0.0350   -0.0001   -0.0000    0.1507    0.0002
          17   -0.0000   -0.0000    0.0000    0.0730    0.0000   -0.0000    0.1377    0.0000
          18   -0.2022   -0.2651    0.3184    0.0000    0.3742   -0.0419    0.0001    0.2062
          19    0.0000    0.0000    0.0000   -0.1650    0.0000   -0.0000    0.0883   -0.0001
          20    0.0000    0.0000    0.0000   -0.1864    0.0001    0.0000   -0.1245   -0.0002
          21    0.2280    0.3621    0.1313    0.0001    0.3796   -0.2333   -0.0000   -0.1710
          22    0.0000    0.0000    0.0000   -0.2751    0.0000    0.0000   -0.0655   -0.0001
          23    0.0000    0.0000   -0.0001    0.0061   -0.0000    0.0000    0.1731   -0.0001
          24    0.1806    0.0652   -0.3742   -0.0000   -0.0246    0.3473    0.0001    0.2452
          25    0.0000   -0.0000    0.0000   -0.2004   -0.0000   -0.0000   -0.0494    0.0000
          26    0.0000   -0.0000   -0.0001    0.1070   -0.0001   -0.0001    0.2083   -0.0001
          27   -0.0575   -0.3550   -0.1814   -0.0000   -0.2806   -0.2619   -0.0001   -0.2621
          28   -0.0001   -0.0001   -0.0001    0.2945    0.0002    0.0001   -0.0414   -0.0003
          29    0.0001   -0.0001   -0.0001    0.5548    0.0000    0.0000   -0.1980    0.0001
          30   -0.4695   -0.2517   -0.1225   -0.0001    0.1100    0.0894    0.0000   -0.0893
          31   -0.1109    0.1050   -0.0375   -0.0115   -0.0125   -0.0095   -0.1375    0.0320
          32   -0.1288    0.0808    0.0307   -0.0206   -0.1061   -0.1033    0.0921    0.2266
          33    0.2695   -0.1611   -0.0322   -0.0004    0.0801    0.0623    0.0010   -0.1467
          34    0.1110   -0.1050    0.0375   -0.0115    0.0126    0.0096   -0.1375   -0.0319
          35    0.1287   -0.0807   -0.0307   -0.0206    0.1060    0.1033    0.0923   -0.2264
          36    0.2695   -0.1611   -0.0322    0.0003    0.0802    0.0623   -0.0009   -0.1467
          37   -0.1087    0.1044   -0.0440   -0.0055   -0.0010   -0.0136   -0.1451   -0.0281
          38    0.0428   -0.0890    0.1602   -0.0540   -0.0286    0.1683   -0.1089    0.0137
          39   -0.1181    0.2095   -0.2077   -0.0001    0.0232   -0.1059   -0.0004   -0.0379
          40    0.1087   -0.1044    0.0440   -0.0056    0.0010    0.0136   -0.1451    0.0281
          41   -0.0428    0.0890   -0.1602   -0.0540    0.0286   -0.1682   -0.1090   -0.0136
          42   -0.1181    0.2095   -0.2077    0.0001    0.0232   -0.1059    0.0003   -0.0379
          43    0.0000    0.0000    0.0000   -0.0825    0.0000   -0.0000   -0.0292   -0.0000
          44    0.0000    0.0000    0.0000   -0.1008    0.0001    0.0000   -0.1114   -0.0001
          45    0.1140    0.1756    0.0413    0.0000    0.3321   -0.2413   -0.0000   -0.0538
          46   -0.0000   -0.0000    0.0000   -0.0762   -0.0000   -0.0000   -0.0268   -0.0000
          47    0.0000   -0.0000   -0.0000    0.0716   -0.0001   -0.0001    0.0903   -0.0000
          48   -0.0349   -0.2103   -0.1386   -0.0000   -0.2230   -0.2574   -0.0001   -0.2224
          49    0.0000    0.0000    0.0000    0.0483   -0.0000   -0.0000    0.1050    0.0001
          50   -0.0000   -0.0000    0.0000    0.0743    0.0000   -0.0000    0.1242    0.0000
          51   -0.1074   -0.1489    0.1388    0.0000    0.3254   -0.1406    0.0000    0.2324
          52   -0.0000   -0.0000   -0.0000   -0.1212    0.0000    0.0000   -0.0721   -0.0000
          53    0.0000    0.0000   -0.0001    0.0059   -0.0000    0.0000    0.0555   -0.0000
          54    0.0939    0.0322   -0.2621   -0.0000   -0.0175    0.2755    0.0001    0.2768
          55   -0.0001   -0.0000   -0.0001    0.2659    0.0001    0.0001   -0.1990   -0.0002
          56    0.0000   -0.0000   -0.0000    0.2076    0.0000    0.0000   -0.1071    0.0000
          57   -0.2380   -0.0436    0.0032   -0.0000    0.0335    0.0961    0.0001   -0.3609
          58   -0.0000   -0.0000   -0.0000   -0.0343    0.0001    0.0000    0.1098   -0.0000
          59    0.0000   -0.0000   -0.0000    0.3136    0.0000    0.0001   -0.2149   -0.0000
          60   -0.1636   -0.1662   -0.1467   -0.0000    0.1747    0.0892   -0.0000    0.0949


   Root No.       9        10        11        12        13        14        15        16

                 9 A      10 A      11 A      12 A      13 A      14 A      15 A      16 A   

                 549.8     551.4     607.5     657.6     712.7     779.6     824.2     829.8
  
           1   -0.1162   -0.1623   -0.0000   -0.3044    0.0000    0.0000   -0.0001   -0.0431
           2   -0.3214   -0.2189    0.0000   -0.1969    0.0000    0.0000   -0.0002   -0.1676
           3    0.0000   -0.0000   -0.0096    0.0000   -0.1043   -0.0746   -0.2271    0.0003
           4   -0.1797   -0.0753   -0.0000   -0.3560    0.0000    0.0000   -0.0000   -0.0109
           5   -0.2224    0.0624   -0.0000    0.3567   -0.0000   -0.0000    0.0001    0.1022
           6   -0.0000    0.0000    0.0315    0.0000   -0.1773   -0.0020   -0.2283    0.0003
           7   -0.2308    0.0411    0.0000    0.1131   -0.0000   -0.0000    0.0003    0.2084
           8   -0.0984    0.0784   -0.0000    0.2710   -0.0000   -0.0000   -0.0000   -0.0109
           9    0.0000    0.0000    0.2294   -0.0000   -0.2676    0.0209    0.2552   -0.0004
          10    0.2306   -0.2960   -0.0000    0.1897   -0.0000    0.0000   -0.0002   -0.2037
          11   -0.1933   -0.2356    0.0000   -0.1914    0.0000    0.0000   -0.0001   -0.1079
          12    0.0004   -0.0000   -0.1150    0.0001   -0.1222   -0.0810    0.2513   -0.0003
          13    0.0159   -0.1429    0.0000    0.0155    0.0000    0.0000    0.0001    0.1165
          14    0.1687   -0.2227   -0.0000    0.0795    0.0000    0.0000    0.0000    0.0195
          15   -0.0000    0.0000   -0.0553    0.0000    0.4714    0.2908   -0.1898    0.0002
          16   -0.3355    0.0272    0.0000    0.3120   -0.0000   -0.0000    0.0005    0.3703
          17    0.0891    0.3299   -0.0000   -0.0344    0.0000    0.0000   -0.0003   -0.2565
          18    0.0001   -0.0000   -0.1354    0.0000    0.1264   -0.1331    0.1194   -0.0001
          19    0.1937    0.2793    0.0000   -0.2197    0.0000   -0.0000    0.0002    0.1334
          20    0.2510   -0.2539    0.0000    0.0879   -0.0000   -0.0000    0.0002    0.1612
          21   -0.0001    0.0000    0.1493   -0.0000   -0.0097   -0.1012   -0.1184    0.0001
          22    0.1580    0.1948   -0.0000   -0.0862    0.0000   -0.0000    0.0000    0.0199
          23    0.3866    0.0366    0.0000   -0.2377    0.0000   -0.0001    0.0005    0.4218
          24    0.0001   -0.0000   -0.1317    0.0000    0.1468   -0.1890   -0.0955    0.0000
          25   -0.0727    0.3707   -0.0000    0.1146   -0.0000    0.0000   -0.0005   -0.3660
          26    0.0813    0.3172    0.0000   -0.0315   -0.0000   -0.0001   -0.0002   -0.1707
          27   -0.0001   -0.0001    0.1458   -0.0000   -0.0380   -0.2421    0.0469   -0.0000
          28    0.3117   -0.2331   -0.0000    0.2755   -0.0000    0.0000   -0.0004   -0.2736
          29   -0.1018    0.0535   -0.0000   -0.1296    0.0000   -0.0000   -0.0000   -0.0404
          30   -0.0001    0.0001   -0.0025   -0.0001    0.0060    0.0002    0.0308    0.0000
          31   -0.0601   -0.0152    0.0444   -0.0959   -0.1000   -0.0245   -0.2540    0.0409
          32   -0.0822   -0.0942    0.0653   -0.0687   -0.1209   -0.0777   -0.1483   -0.1047
          33    0.0039    0.0031   -0.0651    0.0071    0.0927    0.0383    0.1495    0.0072
          34   -0.0601   -0.0152   -0.0444   -0.0959    0.1000    0.0245    0.2541    0.0402
          35   -0.0825   -0.0942   -0.0653   -0.0688    0.1208    0.0777    0.1480   -0.1051
          36   -0.0041   -0.0031   -0.0652   -0.0071    0.0928    0.0383    0.1496   -0.0076
[...]
 FORCE CONSTANT      0.3336

 VIBRATION         37   37A           ATOM PAIR      ENERGY CONTRIBUTION    RADIAL
 FREQUENCY          1384.15         C  2 -- H 13         +14.4% ( 44.4%)      5.2%
 TRANSITION DIPOLE   0.0262         C  2 -- H 14         +14.4% ( 44.4%)      5.2%
 TRAVEL (Ang.)       0.3709         C  1 -- H 11         +13.0% ( 42.2%)      5.0%
 REDUCED MASS        0.3542         C  1 -- H 12         +13.0% ( 42.2%)      5.0%
 EFFECTIVE MASS      4.0075         C  1 -- C  2         +10.3% ( 37.6%)      1.3%
 FORCE CONSTANT      0.3998

 VIBRATION         38   38A           ATOM PAIR      ENERGY CONTRIBUTION    RADIAL
 FREQUENCY          1407.82         C  1 -- H 11         +17.1% ( 46.0%)      6.0%
 TRANSITION DIPOLE   0.1009         C  1 -- H 12         +17.1% ( 46.0%)      6.0%
 TRAVEL (Ang.)       0.3489         C  2 -- H 13         +14.0% ( 41.5%)      5.1%
 REDUCED MASS        0.3935         C  2 -- H 14         +14.0% ( 41.5%)      5.1%
 EFFECTIVE MASS      3.7709         C  1 -- C  2         +11.6% ( 37.8%)     96.8%
 FORCE CONSTANT      0.4595         C  1 -- C  4         +10.3% ( 35.6%)     43.9%

 VIBRATION         39   39A           ATOM PAIR      ENERGY CONTRIBUTION    RADIAL
 FREQUENCY          1446.75         C  8 -- C  9         +19.6% ( 68.9%)     99.6%
 TRANSITION DIPOLE   0.5277         C  3 -- C  5          +9.2% ( 47.2%)     99.5%
 TRAVEL (Ang.)       0.1818         C  2 -- C  3          +8.3% ( 44.9%)     69.9%
 REDUCED MASS        1.4102         C  4 -- C  5          +8.3% ( 44.7%)     52.7%
 EFFECTIVE MASS     10.7582
 FORCE CONSTANT      1.7391

 VIBRATION         40   40A           ATOM PAIR      ENERGY CONTRIBUTION    RADIAL
 FREQUENCY          1590.26         C  7 -- C  8         +15.6% ( 58.6%)    100.0%
 TRANSITION DIPOLE   0.5762         C  8 -- C  9         +11.6% ( 50.6%)      2.2%
 TRAVEL (Ang.)       0.1554         C  3 -- C  5         +11.2% ( 49.9%)     22.1%
 REDUCED MASS        1.7567         C  6 -- C  9         +10.3% ( 47.7%)     79.1%
 EFFECTIVE MASS     11.4255         C  3 -- C  6         +10.3% ( 47.7%)     98.7%
 FORCE CONSTANT      2.6174

 VIBRATION         41   41A           ATOM PAIR      ENERGY CONTRIBUTION    RADIAL
 FREQUENCY          1604.61         C  3 -- C  5         +19.2% ( 65.1%)     88.9%
 TRANSITION DIPOLE   0.3797         C  5 -- C  7         +14.7% ( 56.9%)     50.6%
 TRAVEL (Ang.)       0.1383         C  4 -- C  5         +13.5% ( 54.4%)     99.7%
 REDUCED MASS        2.1972         C  3 -- C  6         +12.0% ( 51.3%)     14.7%
 EFFECTIVE MASS     11.4412
 FORCE CONSTANT      3.3332

 VIBRATION         42   42A           ATOM PAIR      ENERGY CONTRIBUTION    RADIAL
 FREQUENCY          1796.21         C  3 -- C  5         +17.0% ( 57.4%)    100.0%
 TRANSITION DIPOLE   0.1878         C  8 -- C  9         +16.2% ( 56.1%)    100.0%
 TRAVEL (Ang.)       0.1277         C  3 -- C  6         +10.6% ( 45.4%)     67.8%
 REDUCED MASS        2.3007         C  5 -- C  7         +10.4% ( 44.9%)     64.6%
 EFFECTIVE MASS     11.8894
 FORCE CONSTANT      4.3734

 VIBRATION         43   43A           ATOM PAIR      ENERGY CONTRIBUTION    RADIAL
 FREQUENCY          1821.05         C  5 -- C  7         +18.4% ( 60.7%)     90.3%
 TRANSITION DIPOLE   0.4196         C  3 -- C  6         +17.5% ( 59.1%)     90.2%
 TRAVEL (Ang.)       0.1241         C  3 -- C  5         +14.1% ( 53.0%)      0.0%
 REDUCED MASS        2.4044         C  7 -- C  8          +9.1% ( 42.7%)     78.3%
 EFFECTIVE MASS     11.9062
 FORCE CONSTANT      4.6978

 VIBRATION         44   44A           ATOM PAIR      ENERGY CONTRIBUTION    RADIAL
 FREQUENCY          1909.98         C  4 -- C 10         +42.6% ( 96.9%)     99.9%
 TRANSITION DIPOLE   0.2653         C  4 -- C  5         +19.8% ( 66.0%)     58.3%
 TRAVEL (Ang.)       0.0800         C  1 -- C  4         +18.3% ( 63.6%)     34.1%
 REDUCED MASS        5.5145         C 10 -- H 19          +8.3% ( 42.7%)     11.3%
 EFFECTIVE MASS     11.9114
 FORCE CONSTANT     11.8526

 VIBRATION         45   45A           ATOM PAIR      ENERGY CONTRIBUTION    RADIAL
 FREQUENCY          2971.81         C  2 -- H 13         +26.8% ( 53.9%)     96.5%
 TRANSITION DIPOLE   0.0050         C  2 -- H 14         +26.8% ( 53.9%)     96.5%
 TRAVEL (Ang.)       0.2942         C  1 -- H 11         +22.0% ( 48.9%)     96.4%
 REDUCED MASS        0.2622         C  1 -- H 12         +22.0% ( 48.8%)     96.4%
 EFFECTIVE MASS      1.5551
 FORCE CONSTANT      1.3641

 VIBRATION         46   46A           ATOM PAIR      ENERGY CONTRIBUTION    RADIAL
 FREQUENCY          2986.33         C  1 -- H 11         +26.9% ( 53.7%)     96.7%
 TRANSITION DIPOLE   0.0854         C  1 -- H 12         +26.9% ( 53.6%)     96.7%
 TRAVEL (Ang.)       0.2938         C  2 -- H 13         +22.1% ( 48.6%)     96.8%
 REDUCED MASS        0.2616         C  2 -- H 14         +22.0% ( 48.6%)     96.8%
 EFFECTIVE MASS      1.5280
 FORCE CONSTANT      1.3746

 VIBRATION         47   47A           ATOM PAIR      ENERGY CONTRIBUTION    RADIAL
 FREQUENCY          3054.30         C  2 -- H 14         +27.7% ( 52.1%)     97.5%
 TRANSITION DIPOLE   0.0744         C  2 -- H 13         +27.6% ( 52.1%)     97.5%
 TRAVEL (Ang.)       0.3277         C  1 -- H 12         +15.0% ( 38.4%)     97.5%
 REDUCED MASS        0.2056         C  1 -- H 11         +15.0% ( 38.4%)     97.5%
 EFFECTIVE MASS      1.3111
 FORCE CONSTANT      1.1300

 VIBRATION         48   48A           ATOM PAIR      ENERGY CONTRIBUTION    RADIAL
 FREQUENCY          3054.39         C  8 -- H 18         +38.7% ( 63.0%)    100.0%
 TRANSITION DIPOLE   0.0274         C  9 -- H 16         +28.4% ( 54.0%)    100.0%
 TRAVEL (Ang.)       0.2962         C  7 -- H 15         +15.5% ( 39.9%)    100.0%
 REDUCED MASS        0.2516         C  2 -- H 14          +3.7% ( 19.4%)     97.5%
 EFFECTIVE MASS      1.4666
 FORCE CONSTANT      1.3828

 VIBRATION         49   49A           ATOM PAIR      ENERGY CONTRIBUTION    RADIAL
 FREQUENCY          3058.12         C  1 -- H 12         +31.7% ( 55.5%)     97.6%
 TRANSITION DIPOLE   0.1398         C  1 -- H 11         +31.7% ( 55.5%)     97.6%
 TRAVEL (Ang.)       0.2903         C  2 -- H 14         +17.6% ( 41.3%)     97.6%
 REDUCED MASS        0.2616         C  2 -- H 13         +17.6% ( 41.3%)     97.6%
 EFFECTIVE MASS      1.2799
 FORCE CONSTANT      1.4415

 VIBRATION         50   50A           ATOM PAIR      ENERGY CONTRIBUTION    RADIAL
 FREQUENCY          3061.06         C  7 -- H 15         +44.9% ( 68.1%)    100.0%
 TRANSITION DIPOLE   0.2864         C  9 -- H 16         +36.6% ( 61.5%)    100.0%
 TRAVEL (Ang.)       0.2520         C  6 -- H 17         +11.8% ( 34.9%)     99.9%
 REDUCED MASS        0.3468         C  8 -- H 18          +3.6% ( 19.4%)     99.3%
 EFFECTIVE MASS      1.5066
 FORCE CONSTANT      1.9148

 VIBRATION         51   51A           ATOM PAIR      ENERGY CONTRIBUTION    RADIAL
 FREQUENCY          3070.65         C  6 -- H 17         +37.3% ( 62.0%)    100.0%
 TRANSITION DIPOLE   0.5157         C  8 -- H 18         +30.9% ( 56.4%)    100.0%
 TRAVEL (Ang.)       0.2656         C  7 -- H 15         +28.1% ( 53.8%)    100.0%
 REDUCED MASS        0.3112         C  7 -- C  8          +1.0% ( 10.4%)     99.8%
 EFFECTIVE MASS      1.5404
 FORCE CONSTANT      1.7287

 VIBRATION         52   52A           ATOM PAIR      ENERGY CONTRIBUTION    RADIAL
 FREQUENCY          3079.27         C  6 -- H 17         +44.7% ( 67.8%)    100.0%
 TRANSITION DIPOLE   0.3870         C  9 -- H 16         +27.2% ( 52.9%)    100.0%
 TRAVEL (Ang.)       0.2654         C  8 -- H 18         +18.3% ( 43.3%)    100.0%
 REDUCED MASS        0.3109         C  7 -- H 15          +6.3% ( 25.5%)    100.0%
 EFFECTIVE MASS      1.5842
 FORCE CONSTANT      1.7366

 VIBRATION         53   53A           ATOM PAIR      ENERGY CONTRIBUTION    RADIAL
 FREQUENCY          3137.37         C 10 -- H 19         +90.3% ( 95.6%)     99.5%
 TRANSITION DIPOLE   0.3081         C 10 -- H 20          +8.1% ( 28.7%)     54.4%
 TRAVEL (Ang.)       0.1646         C  4 -- C 10          +1.5% ( 12.2%)     70.5%
 REDUCED MASS        0.7933
 EFFECTIVE MASS      1.4365
 FORCE CONSTANT      4.6004

 VIBRATION         54   54A           ATOM PAIR      ENERGY CONTRIBUTION    RADIAL
 FREQUENCY          3145.42         C 10 -- H 20         +89.4% ( 96.3%)     99.8%
 TRANSITION DIPOLE   0.2694         C 10 -- H 19          +9.3% ( 31.0%)     77.8%
 TRAVEL (Ang.)       0.1616         C  4 -- C 10          +1.3% ( 11.8%)     17.7%
 REDUCED MASS        0.8210
 EFFECTIVE MASS      1.5554
 FORCE CONSTANT      4.7856

      SYMMETRY NUMBER FOR POINT-GROUP C1  =  1


          SYSTEM IS A GROUND STATE



 InChI=1S/C10H10/c1-8-6-7-9-4-2-3-5-10(8)9/h2-5H,1,6-7H2


          MOLECULE IS NOT LINEAR

          THERE ARE 54 GENUINE VIBRATIONS IN THIS SYSTEM
          THIS THERMODYNAMICS CALCULATION IS LIMITED TO
          MOLECULES WHICH HAVE NO INTERNAL ROTATIONS




                    CALCULATED THERMODYNAMIC PROPERTIES
                                          *
   TEMP. (K)   PARTITION FUNCTION   H.O.F.    ENTHALPY  HEAT CAPACITY ENTROPY
                                   KCAL/MOL   CAL/MOLE    CAL/K/MOL  CAL/K/MOL


 298.00  VIB.     0.3571D+02                  3192.6034    26.1792    17.8186
         ROT.     0.5213D+06                   888.2803     2.9808    29.1404
         INT.     0.1861D+08                  4080.8837    29.1600    46.9590
         TRA.     0.1436D+28                  1480.4672     4.9680    40.5022
         TOT.                       32.164    5561.3509    34.1280    87.4611

 200.00  VIB.     0.6974D+01                  1204.3475    14.6230     9.8813
         ROT.     0.2866D+06                   596.1613     2.9808    27.9517
         INT.     0.1999D+07                  1800.5088    17.6038    37.8330
         TRA.     0.7896D+27                   993.6021     4.9680    38.5210
         TOT.                       29.397    2794.1109    22.5718    76.3540

 210.00  VIB.     0.8128D+01                  1356.0445    15.7212    10.6212
         ROT.     0.3084D+06                   625.9693     2.9808    28.0971
         INT.     0.2506D+07                  1982.0139    18.7020    38.7183
         TRA.     0.8496D+27                  1043.2822     4.9680    38.7634
         TOT.                       29.628    3025.2961    23.6700    77.4818

 220.00  VIB.     0.9504D+01                  1518.8606    16.8463    11.3784
         ROT.     0.3306D+06                   655.7774     2.9808    28.2358
         INT.     0.3142D+07                  2174.6380    19.8271    39.6142
         TRA.     0.9110D+27                  1092.9623     4.9680    38.9945
         TOT.                       29.870    3267.6004    24.7951    78.6088

 230.00  VIB.     0.1115D+02                  1693.0497    17.9952    12.1526
         ROT.     0.3534D+06                   685.5855     2.9808    28.3683
         INT.     0.3940D+07                  2378.6351    20.9760    40.5208
         TRA.     0.9738D+27                  1142.6424     4.9680    39.2154
         TOT.                       30.124    3521.2776    25.9440    79.7362

 240.00  VIB.     0.1312D+02                  1878.8336    19.1647    12.9431
         ROT.     0.3767D+06                   715.3935     2.9808    28.4951
         INT.     0.4941D+07                  2594.2272    22.1455    41.4382
         TRA.     0.1038D+28                  1192.3226     4.9680    39.4268
         TOT.                       30.389    3786.5497    27.1135    80.8650

 250.00  VIB.     0.1548D+02                  2076.4010    20.3513    13.7494
         ROT.     0.4005D+06                   745.2016     2.9808    28.6168
         INT.     0.6200D+07                  2821.6026    23.3322    42.3662
         TRA.     0.1103D+28                  1242.0027     4.9680    39.6296
         TOT.                       30.666    4063.6053    28.3002    81.9959

 260.00  VIB.     0.1832D+02                  2285.9062    21.5517    14.5710
         ROT.     0.4248D+06                   775.0097     2.9808    28.7337
         INT.     0.7783D+07                  3060.9159    24.5325    43.3047
         TRA.     0.1170D+28                  1291.6828     4.9680    39.8245
         TOT.                       30.955    4352.5986    29.5005    83.1292

 270.00  VIB.     0.2175D+02                  2507.4691    22.7623    15.4070
         ROT.     0.4495D+06                   804.8177     2.9808    28.8462
         INT.     0.9779D+07                  3312.2868    25.7431    44.2532
         TRA.     0.1239D+28                  1341.3629     4.9680    40.0120
         TOT.                       31.256    4653.6497    30.7111    84.2652

 280.00  VIB.     0.2590D+02                  2741.1761    23.9800    16.2568
         ROT.     0.4747D+06                   834.6258     2.9808    28.9546
         INT.     0.1230D+08                  3575.8019    26.9608    45.2114
         TRA.     0.1308D+28                  1391.0430     4.9680    40.1926
         TOT.                       31.570    4966.8449    31.9288    85.4041

 290.00  VIB.     0.3093D+02                  2987.0809    25.2014    17.1196
         ROT.     0.5004D+06                   864.4339     2.9808    29.0592
         INT.     0.1548D+08                  3851.5147    28.1822    46.1788
         TRA.     0.1379D+28                  1440.7231     4.9680    40.3670
         TOT.                       31.895    5292.2378    33.1502    86.5458

 300.00  VIB.     0.3703D+02                  3245.2062    26.4236    17.9946
         ROT.     0.5265D+06                   894.2419     2.9808    29.1603
         INT.     0.1950D+08                  4139.4481    29.4044    47.1548
         TRA.     0.1451D+28                  1490.4032     4.9680    40.5354
         TOT.                       32.233    5629.8513    34.3724    87.6902

 310.00  VIB.     0.4446D+02                  3515.5458    27.6438    18.8809
         ROT.     0.5531D+06                   924.0500     2.9808    29.2580
         INT.     0.2459D+08                  4439.5957    30.6246    48.1389
         TRA.     0.1524D+28                  1540.0833     4.9680    40.6983
         TOT.                       32.582    5979.6790    35.5926    88.8372

 320.00  VIB.     0.5351D+02                  3798.0661    28.8593    19.7778
         ROT.     0.5800D+06                   953.8580     2.9808    29.3527
         INT.     0.3104D+08                  4751.9242    31.8401    49.1304
         TRA.     0.1598D+28                  1589.7634     4.9680    40.8560
         TOT.                       32.944    6341.6876    36.8082    89.9864

 330.00  VIB.     0.6457D+02                  4092.7092    30.0679    20.6843
         ROT.     0.6074D+06                   983.6661     2.9808    29.4444
         INT.     0.3922D+08                  5076.3753    33.0487    50.1287
         TRA.     0.1674D+28                  1639.4435     4.9680    41.0089
         TOT.                       33.319    6715.8188    38.0168    91.1376

 340.00  VIB.     0.7811D+02                  4399.3946    31.2675    21.5998
         ROT.     0.6352D+06                  1013.4742     2.9808    29.5334
         INT.     0.4962D+08                  5412.8687    34.2483    51.1332
         TRA.     0.1750D+28                  1689.1236     4.9680    41.1572
         TOT.                       33.705    7101.9923    39.2163    92.2904

 350.00  VIB.     0.9470D+02                  4718.0216    32.4560    22.5233
         ROT.     0.6635D+06                  1043.2822     2.9808    29.6198
         INT.     0.6283D+08                  5761.3039    35.4368    52.1431
         TRA.     0.1828D+28                  1738.8037     4.9680    41.3012
         TOT.                       34.103    7500.1076    40.4048    93.4443

 360.00  VIB.     0.1151D+03                  5048.4722    33.6319    23.4541
         ROT.     0.6921D+06                  1073.0903     2.9808    29.7038
         INT.     0.7965D+08                  6121.5625    36.6127    53.1579
         TRA.     0.1907D+28                  1788.4838     4.9680    41.4412
         TOT.                       34.513    7910.0464    41.5807    94.5991

 370.00  VIB.     0.1402D+03                  5390.6127    34.7937    24.3915
         ROT.     0.7212D+06                  1102.8984     2.9808    29.7854
         INT.     0.1011D+09                  6493.5110    37.7745    54.1769
         TRA.     0.1987D+28                  1838.1639     4.9680    41.5773
         TOT.                       34.934    8331.6750    42.7426    95.7542

 380.00  VIB.     0.1710D+03                  5744.2959    35.9403    25.3346
         ROT.     0.7506D+06                  1132.7064     2.9808    29.8649
         INT.     0.1284D+09                  6877.0024    38.9211    55.1996
         TRA.     0.2068D+28                  1887.8440     4.9680    41.7098
         TOT.                       35.368    8764.8464    43.8891    96.9094

 390.00  VIB.     0.2092D+03                  6109.3638    37.0705    26.2829
         ROT.     0.7804D+06                  1162.5145     2.9808    29.9423
         INT.     0.1632D+09                  7271.8783    40.0513    56.2252
         TRA.     0.2150D+28                  1937.5242     4.9680    41.8388
         TOT.                       35.812    9209.4024    45.0193    98.0640

 400.00  VIB.     0.2563D+03                  6485.6485    38.1835    27.2355
         ROT.     0.8106D+06                  1192.3226     2.9808    30.0178
         INT.     0.2077D+09                  7677.9711    41.1643    57.2533
         TRA.     0.2233D+28                  1987.2043     4.9680    41.9646
         TOT.                       36.268    9665.1753    46.1323    99.2179

   *: NOTE: HEATS OF FORMATION ARE RELATIVE TO THE
            ELEMENTS IN THEIR STANDARD STATE AT 298K
              (=  Standard Enthalpy of Formation).

            Hvib:  Zero-point energy is not included.
                   frequencies of less than zero cm-1 are not included.
            Hrot = (3/2)RT
            Htra = (3/2)RT + pV = (5/2)RT

            Heat capacity is Cp, not Cv

          For more information, see: HTTP://OpenMOPAC.net/Manual/thermochemistry.html


           FORCE CONSTANT IN CARTESIAN COORDINATES (Millidynes/A)

    ATOM   CHEMICAL       X               Y               Z
   NUMBER   SYMBOL  FORCE CONSTANT  FORCE CONSTANT  FORCE CONSTANT

      1       C        7.932425        8.936618        8.126892
      2       C        7.821639        9.273615        8.117898
      3       C       13.616334       11.734783        2.652268
      4       C       16.358815        9.454636        2.585456
      5       C       11.657536       14.414696        2.505018
      6       C       12.412665       11.877689        2.309417
      7       C       11.979154       12.299395        2.322476
      8       C       11.909268       12.031165        2.325471
      9       C       12.075516       11.875601        2.335150
     10       C       14.703217        9.796972        1.927167
     11       H        1.260865        1.576077        3.561083
     12       H        1.260870        1.577000        3.560330
     13       H        1.276924        1.551718        3.557572
     14       H        1.276921        1.552027        3.557320
     15       H        3.627638        2.274708        0.354586
     16       H        4.408863        1.506416        0.350049
     17       H        3.654638        2.262650        0.350864
     18       H        0.811835        5.104198        0.349406
     19       H        0.948620        5.153256        0.330005
     20       H        3.554739        2.552546        0.325799

 **********************
 *                    *
 * JOB ENDED NORMALLY *
 *                    *
 **********************



 TOTAL JOB TIME:             1.94 SECONDS

 == MOPAC DONE ==
