 *******************************************************************************
 **                                                                           **
 **                              MOPAC v23.1.2                                **
 **                                                                           **
 *******************************************************************************
 **          Digital Object Identifier (DOI): 10.5281/zenodo.6511958          **
 **    Visit the DOI location for information on how to cite this program.    **
 *******************************************************************************

                              PM3 CALCULATION RESULTS

 *******************************************************************************
 *  CALCULATION DONE: (MAX THREADS = 1)              Tue Jun  3 16:36:18 2025  *
 *  PM3        - The PM3 Hamiltonian to be used
 *  PRECISE    - TIGHTER CRITERIA TO BE USED
 *  NOSYM      - POINT-GROUP SYMMETRY SET TO C1
 *  THREADS=1  - MULTI-THREADING NOT USED
 *  T=         - A TIME OF 172800.0 SECONDS REQUESTED
 *  DUMP=N     - RESTART FILE WRITTEN EVERY 7200.0 SECONDS REQUESTED
 *******************************************************************************
pm3  precise nosym THREADS=1
 InChI=1S/C6H12/c1-2-6-4-3-5-6/h6H,2-5H2,1H3

   ATOM   CHEMICAL          X               Y               Z
  NUMBER   SYMBOL      (ANGSTROMS)     (ANGSTROMS)     (ANGSTROMS)

     1       C          0.09090000  *  -0.03650000  *   0.53640000  *
     2       C          0.67690000  *  -1.09610000  *  -0.39710000  *
     3       C          1.43270000  *   0.69400000  *   0.54010000  *
     4       C         -1.05020000  *   0.79020000  *  -0.08180000  *
     5       C          2.01380000  *  -0.36790000  *  -0.38340000  *
     6       C         -2.35070000  *  -0.00720000  *  -0.12930000  *
     7       H         -0.16140000  *  -0.44470000  *   1.54100000  *
     8       H         -1.21370000  *   1.69730000  *   0.53920000  *
     9       H         -0.78390000  *   1.12130000  *  -1.10990000  *
    10       H          1.91380000  *   0.69060000  *   1.54270000  *
    11       H          0.73540000  *  -2.09680000  *   0.08400000  *
    12       H          0.22070000  *  -1.11620000  *  -1.41150000  *
    13       H          1.40680000  *   1.69900000  *   0.06320000  *
    14       H          2.81900000  *  -0.96200000  *   0.10160000  *
    15       H          2.28800000  *   0.03890000  *  -1.38130000  *
    16       H         -3.15740000  *   0.62370000  *  -0.55820000  *
    17       H         -2.64960000  *  -0.31810000  *   0.89450000  *
    18       H         -2.23110000  *  -0.90940000  *  -0.76550000  *



          CARTESIAN COORDINATES 

    NO.       ATOM           X           Y           Z

     1         C          0.0909     -0.0365      0.5364
     2         C          0.6769     -1.0961     -0.3971
     3         C          1.4327      0.6940      0.5401
     4         C         -1.0502      0.7902     -0.0818
     5         C          2.0138     -0.3679     -0.3834
     6         C         -2.3507     -0.0072     -0.1293
     7         H         -0.1614     -0.4447      1.5410
     8         H         -1.2137      1.6973      0.5392
     9         H         -0.7839      1.1213     -1.1099
    10         H          1.9138      0.6906      1.5427
    11         H          0.7354     -2.0968      0.0840
    12         H          0.2207     -1.1162     -1.4115
    13         H          1.4068      1.6990      0.0632
    14         H          2.8190     -0.9620      0.1016
    15         H          2.2880      0.0389     -1.3813
    16         H         -3.1574      0.6237     -0.5582
    17         H         -2.6496     -0.3181      0.8945
    18         H         -2.2311     -0.9094     -0.7655

  H: (PM3): J. J. P. STEWART, J. COMP. CHEM. 10, 209 (1989).
  C: (PM3): J. J. P. STEWART, J. COMP. CHEM. 10, 209 (1989).

           Empirical Formula: C6 H12  =    18 atoms



      MOLECULAR POINT GROUP   :   C1  


      RHF CALCULATION, NO. OF DOUBLY OCCUPIED LEVELS = 18


          Geometry optimization using EF

          DIAGONAL MATRIX USED AS START HESSIAN

 CYCLE:     1 TIME:   0.004 TIME LEFT:  2.00D  GRAD.:    71.879 HEAT: -11.36725
 CYCLE:     2 TIME:   0.008 TIME LEFT:  2.00D  GRAD.:    97.012 HEAT: -11.78617
 CYCLE:     3 TIME:   0.008 TIME LEFT:  2.00D  GRAD.:    78.746 HEAT: -12.95196
 CYCLE:     4 TIME:   0.008 TIME LEFT:  2.00D  GRAD.:    41.806 HEAT: -14.61448
 CYCLE:     5 TIME:   0.008 TIME LEFT:  2.00D  GRAD.:    21.298 HEAT: -15.18407
 CYCLE:     6 TIME:   0.008 TIME LEFT:  2.00D  GRAD.:    21.130 HEAT: -15.36487
 CYCLE:     7 TIME:   0.008 TIME LEFT:  2.00D  GRAD.:    20.820 HEAT: -15.56796
 CYCLE:     8 TIME:   0.008 TIME LEFT:  2.00D  GRAD.:    20.348 HEAT: -15.65129
 CYCLE:     9 TIME:   0.004 TIME LEFT:  2.00D  GRAD.:    21.732 HEAT: -15.65880
 CYCLE:    10 TIME:   0.004 TIME LEFT:  2.00D  GRAD.:    20.487 HEAT: -15.69494
 CYCLE:    11 TIME:   0.008 TIME LEFT:  2.00D  GRAD.:     8.852 HEAT: -15.79638
 CYCLE:    12 TIME:   0.008 TIME LEFT:  2.00D  GRAD.:     6.753 HEAT: -15.81226
 CYCLE:    13 TIME:   0.004 TIME LEFT:  2.00D  GRAD.:     4.225 HEAT: -15.82692
 CYCLE:    14 TIME:   0.008 TIME LEFT:  2.00D  GRAD.:     4.732 HEAT: -15.83099
 CYCLE:    15 TIME:   0.004 TIME LEFT:  2.00D  GRAD.:     1.945 HEAT: -15.83929
 CYCLE:    16 TIME:   0.004 TIME LEFT:  2.00D  GRAD.:     4.536 HEAT: -15.83762
 CYCLE:    17 TIME:   0.004 TIME LEFT:  2.00D  GRAD.:     2.504 HEAT: -15.84258
 CYCLE:    18 TIME:   0.004 TIME LEFT:  2.00D  GRAD.:     4.042 HEAT: -15.83915
 CYCLE:    19 TIME:   0.008 TIME LEFT:  2.00D  GRAD.:     0.788 HEAT: -15.84525
 CYCLE:    20 TIME:   0.004 TIME LEFT:  2.00D  GRAD.:     0.960 HEAT: -15.84571
 CYCLE:    21 TIME:   0.008 TIME LEFT:  2.00D  GRAD.:     0.992 HEAT: -15.84684
 CYCLE:    22 TIME:   0.004 TIME LEFT:  2.00D  GRAD.:     1.787 HEAT: -15.84963
 CYCLE:    23 TIME:   0.004 TIME LEFT:  2.00D  GRAD.:     1.059 HEAT: -15.85088
 CYCLE:    24 TIME:   0.004 TIME LEFT:  2.00D  GRAD.:     0.988 HEAT: -15.85154
 CYCLE:    25 TIME:   0.004 TIME LEFT:  2.00D  GRAD.:     1.369 HEAT: -15.85230
 CYCLE:    26 TIME:   0.008 TIME LEFT:  2.00D  GRAD.:     1.140 HEAT: -15.85378
 CYCLE:    27 TIME:   0.004 TIME LEFT:  2.00D  GRAD.:     1.188 HEAT: -15.85601
 CYCLE:    28 TIME:   0.008 TIME LEFT:  2.00D  GRAD.:     0.946 HEAT: -15.85744
 CYCLE:    29 TIME:   0.004 TIME LEFT:  2.00D  GRAD.:     0.792 HEAT: -15.85892
 CYCLE:    30 TIME:   0.004 TIME LEFT:  2.00D  GRAD.:     0.864 HEAT: -15.86028
 CYCLE:    31 TIME:   0.008 TIME LEFT:  2.00D  GRAD.:     0.865 HEAT: -15.86134
 CYCLE:    32 TIME:   0.004 TIME LEFT:  2.00D  GRAD.:     0.688 HEAT: -15.86262
 CYCLE:    33 TIME:   0.004 TIME LEFT:  2.00D  GRAD.:     0.665 HEAT: -15.86390
 CYCLE:    34 TIME:   0.004 TIME LEFT:  2.00D  GRAD.:     0.606 HEAT: -15.86447
 CYCLE:    35 TIME:   0.004 TIME LEFT:  2.00D  GRAD.:     0.503 HEAT: -15.86483
 CYCLE:    36 TIME:   0.008 TIME LEFT:  2.00D  GRAD.:     0.292 HEAT: -15.86510
 CYCLE:    37 TIME:   0.004 TIME LEFT:  2.00D  GRAD.:     0.264 HEAT: -15.86527
 CYCLE:    38 TIME:   0.008 TIME LEFT:  2.00D  GRAD.:     0.215 HEAT: -15.86540
 CYCLE:    39 TIME:   0.004 TIME LEFT:  2.00D  GRAD.:     0.160 HEAT: -15.86548
 CYCLE:    40 TIME:   0.004 TIME LEFT:  2.00D  GRAD.:     0.133 HEAT: -15.86553
 CYCLE:    41 TIME:   0.004 TIME LEFT:  2.00D  GRAD.:     0.144 HEAT: -15.86557
 CYCLE:    42 TIME:   0.008 TIME LEFT:  2.00D  GRAD.:     0.116 HEAT: -15.86560
 CYCLE:    43 TIME:   0.004 TIME LEFT:  2.00D  GRAD.:     0.118 HEAT: -15.86564
 CYCLE:    44 TIME:   0.004 TIME LEFT:  2.00D  GRAD.:     0.135 HEAT: -15.86568
 CYCLE:    45 TIME:   0.004 TIME LEFT:  2.00D  GRAD.:     0.133 HEAT: -15.86574
 CYCLE:    46 TIME:   0.008 TIME LEFT:  2.00D  GRAD.:     0.106 HEAT: -15.86576
 CYCLE:    47 TIME:   0.004 TIME LEFT:  2.00D  GRAD.:     0.102 HEAT: -15.86580
 CYCLE:    48 TIME:   0.004 TIME LEFT:  2.00D  GRAD.:     0.107 HEAT: -15.86582
 CYCLE:    49 TIME:   0.008 TIME LEFT:  2.00D  GRAD.:     0.123 HEAT: -15.86586
 CYCLE:    50 TIME:   0.004 TIME LEFT:  2.00D  GRAD.:     0.094 HEAT: -15.86588
 CYCLE:    51 TIME:   0.004 TIME LEFT:  2.00D  GRAD.:     0.107 HEAT: -15.86591
 CYCLE:    52 TIME:   0.004 TIME LEFT:  2.00D  GRAD.:     0.087 HEAT: -15.86592
 CYCLE:    53 TIME:   0.008 TIME LEFT:  2.00D  GRAD.:     0.140 HEAT: -15.86595
 CYCLE:    54 TIME:   0.004 TIME LEFT:  2.00D  GRAD.:     0.092 HEAT: -15.86597
 CYCLE:    55 TIME:   0.004 TIME LEFT:  2.00D  GRAD.:     0.052 HEAT: -15.86599
 CYCLE:    56 TIME:   0.008 TIME LEFT:  2.00D  GRAD.:     0.069 HEAT: -15.86600
 CYCLE:    57 TIME:   0.004 TIME LEFT:  2.00D  GRAD.:     0.048 HEAT: -15.86601

     GRADIENT =  0.04753 IS LESS THAN CUTOFF =  0.05000



 -------------------------------------------------------------------------------
 pm3  precise nosym THREADS=1
 InChI=1S/C6H12/c1-2-6-4-3-5-6/h6H,2-5H2,1H3



     GEOMETRY OPTIMISED USING EIGENVECTOR FOLLOWING (EF).     
     SCF FIELD WAS ACHIEVED                                   


                              PM3 CALCULATION
                                                       MOPAC v23.1.2 MacOS
                                                       Tue Jun  3 16:36:18 2025




          FINAL HEAT OF FORMATION =        -15.86601 KCAL/MOL =     -66.38339 KJ/MOL


          COSMO AREA              =        141.13 SQUARE ANGSTROMS
          COSMO VOLUME            =        133.70 CUBIC ANGSTROMS

          GRADIENT NORM           =          0.04753          =       0.01120 PER ATOM
          IONIZATION POTENTIAL    =         11.083551 EV
          HOMO LUMO ENERGIES (EV) =        -11.084  3.349
          NO. OF FILLED LEVELS    =         18
          MOLECULAR WEIGHT        =         84.1608         POINT GROUP:  C1  

          MOLECULAR DIMENSIONS (Angstroms)

            Atom       Atom       Distance
            H    16    H    14     6.25447
            H    13    H    11     3.90489
            H     7    H    15     3.11674


          SCF CALCULATIONS        =         66

          WALL-CLOCK TIME         =      0.324 SECONDS
          COMPUTATION TIME        =      0.176 SECONDS




   ATOM   CHEMICAL          X               Y               Z
  NUMBER   SYMBOL      (ANGSTROMS)     (ANGSTROMS)     (ANGSTROMS)

     1       C          0.07318847  *  -0.02455248  *   0.51723267  *
     2       C          0.67987707  *  -1.10185350  *  -0.41686859  *
     3       C          1.43955526  *   0.70510287  *   0.54076783  *
     4       C         -1.06349192  *   0.78516052  *  -0.06975093  *
     5       C          2.04006422  *  -0.37994659  *  -0.37336847  *
     6       C         -2.35286370  *  -0.00387718  *  -0.11241868  *
     7       H         -0.22391124  *  -0.42738910  *   1.50842643  *
     8       H         -1.19948904  *   1.70506304  *   0.53280933  *
     9       H         -0.79802144  *   1.13249267  *  -1.08852022  *
    10       H          1.90166328  *   0.78138831  *   1.53584351  *
    11       H          0.68162193  *  -2.12024169  *  -0.00159189  *
    12       H          0.21629580  *  -1.15842968  *  -1.41407616  *
    13       H          1.42655557  *   1.71786653  *   0.10938518  *
    14       H          2.85761456  *  -0.96224744  *   0.07690634  *
    15       H          2.40059696  *  -0.01562000  *  -1.34676749  *
    16       H         -3.16943784  *   0.59024704  *  -0.54183068  *
    17       H         -2.66888851  *  -0.32103700  *   0.89028846  *
    18       H         -2.24811254  *  -0.91069111  *  -0.72346795  *

                             CARTESIAN COORDINATES

   1    C        0.073188466    -0.024552483     0.517232665
   2    C        0.679877067    -1.101853497    -0.416868594
   3    C        1.439555264     0.705102868     0.540767829
   4    C       -1.063491922     0.785160523    -0.069750931
   5    C        2.040064221    -0.379946592    -0.373368472
   6    C       -2.352863702    -0.003877177    -0.112418677
   7    H       -0.223911243    -0.427389101     1.508426434
   8    H       -1.199489042     1.705063044     0.532809330
   9    H       -0.798021437     1.132492671    -1.088520218
  10    H        1.901663285     0.781388313     1.535843512
  11    H        0.681621927    -2.120241687    -0.001591889
  12    H        0.216295796    -1.158429675    -1.414076165
  13    H        1.426555574     1.717866530     0.109385183
  14    H        2.857614560    -0.962247440     0.076906343
  15    H        2.400596965    -0.015620001    -1.346767487
  16    H       -3.169437841     0.590247042    -0.541830683
  17    H       -2.668888507    -0.321036999     0.890288464
  18    H       -2.248112538    -0.910691109    -0.723467951


           Empirical Formula: C6 H12  =    18 atoms



      MOLECULAR POINT GROUP   :   C1  


                  EIGENVALUES  
 -40.71388 -33.14847 -25.78964 -24.87696 -21.49508 -18.56766 -17.05901 -16.34897
 -15.24253 -14.31934 -13.77991 -13.27809 -12.98117 -12.48572 -12.08237 -11.57041
 -11.31304 -11.08355   3.34892   3.43339   3.58427   3.72295   3.91961   3.98271
   4.07764   4.13798   4.33790   4.41537   4.48790   4.52974   4.56906   4.86993
   4.94712   5.00106   5.46560   5.63840


              NET ATOMIC CHARGES AND DIPOLE CONTRIBUTIONS

  ATOM NO.   TYPE          CHARGE      No. of ELECS.   s-Pop       p-Pop       
    1          C          -0.094273        4.0943     1.19139     2.90288
    2          C          -0.110135        4.1101     1.17455     2.93558
    3          C          -0.110110        4.1101     1.17470     2.93541
    4          C          -0.088546        4.0885     1.15697     2.93158
    5          C          -0.107842        4.1078     1.17022     2.93762
    6          C          -0.109431        4.1094     1.13802     2.97141
    7          H           0.071186        0.9288     0.92881
    8          H           0.049084        0.9509     0.95092
    9          H           0.051365        0.9486     0.94864
   10          H           0.054633        0.9454     0.94537
   11          H           0.054548        0.9455     0.94545
   12          H           0.059503        0.9405     0.94050
   13          H           0.057894        0.9421     0.94211
   14          H           0.054272        0.9457     0.94573
   15          H           0.054284        0.9457     0.94572
   16          H           0.036784        0.9632     0.96322
   17          H           0.037662        0.9623     0.96234
   18          H           0.039124        0.9609     0.96088
 DIPOLE           X         Y         Z       TOTAL
 POINT-CHG.    -0.036     0.038    -0.018     0.055
 HYBRID         0.001    -0.012    -0.005     0.013
 SUM           -0.035     0.025    -0.023     0.049


          ATOMIC ORBITAL ELECTRON POPULATIONS

     Atom    s        px        py        pz   
    1  C   1.19139   0.94350   0.96807   0.99131
    2  C   1.17455   0.96506   0.97275   0.99778
    3  C   1.17470   0.96328   0.97539   0.99673
    4  C   1.15697   0.94819   0.97603   1.00736
    5  C   1.17022   0.96178   0.97911   0.99673
    6  C   1.13802   0.96544   0.99652   1.00944
    7  H   0.92881
    8  H   0.95092
    9  H   0.94864
   10  H   0.94537
   11  H   0.94545
   12  H   0.94050
   13  H   0.94211
   14  H   0.94573
   15  H   0.94572
   16  H   0.96322
   17  H   0.96234
   18  H   0.96088
 *******************************************************************************
 **                                                                           **
 **                              MOPAC v23.1.2                                **
 **                                                                           **
 *******************************************************************************
 **          Digital Object Identifier (DOI): 10.5281/zenodo.6511958          **
 **    Visit the DOI location for information on how to cite this program.    **
 *******************************************************************************

                              PM3 CALCULATION RESULTS

 *******************************************************************************
 *  CALCULATION DONE: (MAX THREADS = 1)              Tue Jun  3 16:36:18 2025  *
 *  PM3        - The PM3 Hamiltonian to be used
 *  OLDGEO     - PREVIOUS GEOMETRY TO BE USED
 *  PRECISE    - TIGHTER CRITERIA TO BE USED
 *  NOSYM      - POINT-GROUP SYMMETRY SET TO C1
 *  THREADS=1  - MULTI-THREADING NOT USED
 *  T=         - A TIME OF 172800.0 SECONDS REQUESTED
 *  DUMP=N     - RESTART FILE WRITTEN EVERY 7200.0 SECONDS REQUESTED
 *  THERMO     - THERMODYNAMIC QUANTITIES TO BE CALCULATED
 *******************************************************************************
oldgeo thermo nosym precise THREADS=1  pm3
 InChI=1S/C6H12/c1-2-6-4-3-5-6/h6H,2-5H2,1H3

   ATOM   CHEMICAL          X               Y               Z
  NUMBER   SYMBOL      (ANGSTROMS)     (ANGSTROMS)     (ANGSTROMS)

     1       C          0.07318847  *  -0.02455248  *   0.51723267  *
     2       C          0.67987707  *  -1.10185350  *  -0.41686859  *
     3       C          1.43955526  *   0.70510287  *   0.54076783  *
     4       C         -1.06349192  *   0.78516052  *  -0.06975093  *
     5       C          2.04006422  *  -0.37994659  *  -0.37336847  *
     6       C         -2.35286370  *  -0.00387718  *  -0.11241868  *
     7       H         -0.22391124  *  -0.42738910  *   1.50842643  *
     8       H         -1.19948904  *   1.70506304  *   0.53280933  *
     9       H         -0.79802144  *   1.13249267  *  -1.08852022  *
    10       H          1.90166328  *   0.78138831  *   1.53584351  *
    11       H          0.68162193  *  -2.12024169  *  -0.00159189  *
    12       H          0.21629580  *  -1.15842968  *  -1.41407616  *
    13       H          1.42655557  *   1.71786653  *   0.10938518  *
    14       H          2.85761456  *  -0.96224744  *   0.07690634  *
    15       H          2.40059696  *  -0.01562000  *  -1.34676749  *
    16       H         -3.16943784  *   0.59024704  *  -0.54183068  *
    17       H         -2.66888851  *  -0.32103700  *   0.89028846  *
    18       H         -2.24811254  *  -0.91069111  *  -0.72346795  *



          CARTESIAN COORDINATES 

    NO.       ATOM           X           Y           Z

     1         C          0.0732     -0.0246      0.5172
     2         C          0.6799     -1.1019     -0.4169
     3         C          1.4396      0.7051      0.5408
     4         C         -1.0635      0.7852     -0.0698
     5         C          2.0401     -0.3799     -0.3734
     6         C         -2.3529     -0.0039     -0.1124
     7         H         -0.2239     -0.4274      1.5084
     8         H         -1.1995      1.7051      0.5328
     9         H         -0.7980      1.1325     -1.0885
    10         H          1.9017      0.7814      1.5358
    11         H          0.6816     -2.1202     -0.0016
    12         H          0.2163     -1.1584     -1.4141
    13         H          1.4266      1.7179      0.1094
    14         H          2.8576     -0.9622      0.0769
    15         H          2.4006     -0.0156     -1.3468
    16         H         -3.1694      0.5902     -0.5418
    17         H         -2.6689     -0.3210      0.8903
    18         H         -2.2481     -0.9107     -0.7235

  H: (PM3): J. J. P. STEWART, J. COMP. CHEM. 10, 209 (1989).
  C: (PM3): J. J. P. STEWART, J. COMP. CHEM. 10, 209 (1989).

           Empirical Formula: C6 H12  =    18 atoms



      MOLECULAR POINT GROUP   :   C1  


      RHF CALCULATION, NO. OF DOUBLY OCCUPIED LEVELS = 18



          HEAT OF FORMATION =     -15.866010 KCALS/MOLE


          CARTESIAN COORDINATE DERIVATIVES

   NUMBER  ATOM         X            Y            Z

     1       C     -0.000908     0.002866    -0.001645
     2       C     -0.009221     0.000070    -0.006626
     3       C     -0.000813     0.011141     0.001757
     4       C     -0.004904    -0.003684    -0.003014
     5       C      0.005992     0.008837    -0.000509
     6       C      0.005474    -0.004907    -0.000323
     7       H     -0.009369     0.005423    -0.007384
     8       H     -0.000689    -0.009618    -0.000936
     9       H     -0.000436    -0.006843    -0.000434
    10       H      0.009200     0.002226     0.010604
    11       H     -0.015199    -0.020637    -0.008356
    12       H      0.005506     0.008808     0.004652
    13       H      0.003643     0.008977     0.005873
    14       H     -0.001020    -0.000244    -0.005732
    15       H     -0.001849    -0.006696     0.002214
    16       H     -0.001484     0.000171    -0.000712
    17       H      0.011235     0.001105     0.003526
    18       H      0.004841     0.003004     0.007045



          GRADIENT NORM =   0.04791

          MOLECULAR WEIGHT =   84.16



          ROTATIONAL CONSTANTS IN CM(-1)

          A =    0.25533748   B =    0.07574956   C =    0.06571885



           PRINCIPAL MOMENTS OF INERTIA IN UNITS OF 10**(-40)*GRAM-CM**2

          A =      109.6304   B =      369.5434   C =      425.9471


          ORIENTATION OF MOLECULE IN FORCE CALCULATION

    NO.       ATOM         X         Y         Z

     1          C      -0.3057   -0.0294    0.4098
     2          C       1.2439   -0.0294    0.4098
     3          C      -0.2922    1.5197    0.4098
     4          C      -0.9598   -0.6538   -0.8044
     5          C       1.2483    1.5110    0.4282
     6          C      -0.8903   -2.1640   -0.7667
     7          H      -0.7394   -0.4623    1.3358
     8          H      -2.0158   -0.3221   -0.8556
     9          H      -0.4832   -0.2757   -1.7312
    10          H      -0.7641    1.9825    1.2888
    11          H       1.7023   -0.5052    1.2891
    12          H       1.7029   -0.4841   -0.4819
    13          H      -0.7413    1.9827   -0.4823
    14          H       1.7018    1.9607    1.3239
    15          H       1.7230    1.9817   -0.4455
    16          H      -1.3642   -2.6068   -1.6519
    17          H      -1.3980   -2.5724    0.1172
    18          H       0.1495   -2.5170   -0.7379


    FIRST DERIVATIVES WILL BE USED IN THE CALCULATION OF SECOND DERIVATIVES

          ESTIMATED TIME TO COMPLETE CALCULATION =        0.84 SECONDS

    FOR POINT-GROUP C1   THERE ARE   1 UNIQUE SYMMETRY FUNCTIONS.

 STEP:   1 TIME =     0.01 SECS, INTEGRAL =      0.01 TIME LEFT: 172799.98
 STEP:   2 TIME =     0.01 SECS, INTEGRAL =      0.02 TIME LEFT: 172799.97
 STEP:   3 TIME =     0.02 SECS, INTEGRAL =      0.04 TIME LEFT: 172799.96
 STEP:   4 TIME =     0.01 SECS, INTEGRAL =      0.05 TIME LEFT: 172799.95
 STEP:   5 TIME =     0.01 SECS, INTEGRAL =      0.06 TIME LEFT: 172799.93
 STEP:   6 TIME =     0.01 SECS, INTEGRAL =      0.07 TIME LEFT: 172799.92
 STEP:   7 TIME =     0.01 SECS, INTEGRAL =      0.09 TIME LEFT: 172799.91
 STEP:   8 TIME =     0.01 SECS, INTEGRAL =      0.10 TIME LEFT: 172799.90
 STEP:   9 TIME =     0.01 SECS, INTEGRAL =      0.11 TIME LEFT: 172799.89
 STEP:  10 TIME =     0.01 SECS, INTEGRAL =      0.12 TIME LEFT: 172799.88
 STEP:  11 TIME =     0.01 SECS, INTEGRAL =      0.13 TIME LEFT: 172799.86
 STEP:  12 TIME =     0.01 SECS, INTEGRAL =      0.14 TIME LEFT: 172799.85
 STEP:  13 TIME =     0.01 SECS, INTEGRAL =      0.16 TIME LEFT: 172799.84
 STEP:  14 TIME =     0.01 SECS, INTEGRAL =      0.17 TIME LEFT: 172799.83
 STEP:  15 TIME =     0.02 SECS, INTEGRAL =      0.18 TIME LEFT: 172799.81
 STEP:  16 TIME =     0.01 SECS, INTEGRAL =      0.20 TIME LEFT: 172799.80
 STEP:  17 TIME =     0.01 SECS, INTEGRAL =      0.21 TIME LEFT: 172799.79
 STEP:  18 TIME =     0.01 SECS, INTEGRAL =      0.22 TIME LEFT: 172799.78
 STEP:  19 TIME =     0.02 SECS, INTEGRAL =      0.23 TIME LEFT: 172799.76
 STEP:  20 TIME =     0.01 SECS, INTEGRAL =      0.25 TIME LEFT: 172799.75
 STEP:  21 TIME =     0.01 SECS, INTEGRAL =      0.25 TIME LEFT: 172799.74
 STEP:  22 TIME =     0.01 SECS, INTEGRAL =      0.27 TIME LEFT: 172799.73
 STEP:  23 TIME =     0.01 SECS, INTEGRAL =      0.28 TIME LEFT: 172799.72
 STEP:  24 TIME =     0.01 SECS, INTEGRAL =      0.29 TIME LEFT: 172799.71
 STEP:  25 TIME =     0.02 SECS, INTEGRAL =      0.30 TIME LEFT: 172799.69
 STEP:  26 TIME =     0.01 SECS, INTEGRAL =      0.32 TIME LEFT: 172799.68
 STEP:  27 TIME =     0.01 SECS, INTEGRAL =      0.33 TIME LEFT: 172799.67
 STEP:  28 TIME =     0.01 SECS, INTEGRAL =      0.34 TIME LEFT: 172799.66
 STEP:  29 TIME =     0.01 SECS, INTEGRAL =      0.35 TIME LEFT: 172799.64
 STEP:  30 TIME =     0.01 SECS, INTEGRAL =      0.36 TIME LEFT: 172799.63
 STEP:  31 TIME =     0.01 SECS, INTEGRAL =      0.38 TIME LEFT: 172799.62
 STEP:  32 TIME =     0.01 SECS, INTEGRAL =      0.39 TIME LEFT: 172799.61
 STEP:  33 TIME =     0.01 SECS, INTEGRAL =      0.40 TIME LEFT: 172799.60
 STEP:  34 TIME =     0.01 SECS, INTEGRAL =      0.41 TIME LEFT: 172799.59
 STEP:  35 TIME =     0.01 SECS, INTEGRAL =      0.42 TIME LEFT: 172799.57
 STEP:  36 TIME =     0.01 SECS, INTEGRAL =      0.43 TIME LEFT: 172799.56
 STEP:  37 TIME =     0.02 SECS, INTEGRAL =      0.45 TIME LEFT: 172799.55
 STEP:  38 TIME =     0.01 SECS, INTEGRAL =      0.46 TIME LEFT: 172799.54
 STEP:  39 TIME =     0.01 SECS, INTEGRAL =      0.47 TIME LEFT: 172799.52
 STEP:  40 TIME =     0.01 SECS, INTEGRAL =      0.48 TIME LEFT: 172799.51
 STEP:  41 TIME =     0.01 SECS, INTEGRAL =      0.50 TIME LEFT: 172799.50
 STEP:  42 TIME =     0.01 SECS, INTEGRAL =      0.51 TIME LEFT: 172799.49
 STEP:  43 TIME =     0.01 SECS, INTEGRAL =      0.52 TIME LEFT: 172799.48
 STEP:  44 TIME =     0.01 SECS, INTEGRAL =      0.53 TIME LEFT: 172799.46
 STEP:  45 TIME =     0.01 SECS, INTEGRAL =      0.54 TIME LEFT: 172799.45
 STEP:  46 TIME =     0.01 SECS, INTEGRAL =      0.55 TIME LEFT: 172799.44
 STEP:  47 TIME =     0.01 SECS, INTEGRAL =      0.57 TIME LEFT: 172799.43
 STEP:  48 TIME =     0.01 SECS, INTEGRAL =      0.58 TIME LEFT: 172799.42
 STEP:  49 TIME =     0.01 SECS, INTEGRAL =      0.59 TIME LEFT: 172799.41
 STEP:  50 TIME =     0.01 SECS, INTEGRAL =      0.60 TIME LEFT: 172799.39
 STEP:  51 TIME =     0.01 SECS, INTEGRAL =      0.61 TIME LEFT: 172799.38
 STEP:  52 TIME =     0.01 SECS, INTEGRAL =      0.62 TIME LEFT: 172799.37
 STEP:  53 TIME =     0.01 SECS, INTEGRAL =      0.64 TIME LEFT: 172799.36
 STEP:  54 TIME =     0.01 SECS, INTEGRAL =      0.65 TIME LEFT: 172799.35

(To convert to Hartree/Bohr^2, multiply by (10^(-21) x N x a0^2)/(4.184 x 627.51) =  0.0642)


           FORCE MATRIX IN MILLIDYNES/ANGSTROM


                  C  1       C  2       C  3       C  4       C  5       C  6
 ------------------------------------------------------------------------------
     C    1  14.520271
     C    2   3.428282  14.398711
     C    3   3.445598   1.841433  14.410875
     C    4   4.326218   0.536357   0.544159  14.500038
     C    5   1.827087   3.726994   3.723728   0.041118  14.505806
     C    6   0.660794   0.031988   0.050833   4.468004   0.005241  14.374180
     H    7   4.426152   0.428917   0.427507   0.431096   0.027412   0.031785
     H    8   0.433803   0.047509   0.018777   4.455937   0.003327   0.440026
     H    9   0.450745   0.022799   0.020258   4.439927   0.002009   0.437011
     H   10   0.442030   0.031085   4.712341   0.033593   0.444261   0.006284
     H   11   0.441132   4.711501   0.031061   0.033927   0.444555   0.001699
     H   12   0.453167   4.666995   0.028986   0.025023   0.444931   0.008735
     H   13   0.452821   0.029092   4.675043   0.029916   0.445132   0.002937
     H   14   0.030682   0.445015   0.445198   0.002196   4.701084   0.000526
     H   15   0.029789   0.445341   0.445455   0.003555   4.701075   0.000758
     H   16   0.052687   0.002134   0.008805   0.451291   0.000704   4.752851
     H   17   0.023918   0.002073   0.001617   0.464060   0.000412   4.724914
     H   18   0.020161   0.007032   0.001890   0.463513   0.000530   4.714810


                  H  7       H  8       H  9       H 10       H 11       H 12
 ------------------------------------------------------------------------------
     H    7   4.925341
     H    8   0.025216   5.065659
     H    9   0.043766   0.570934   5.056195
     H   10   0.026635   0.001933   0.001272   5.333381
     H   11   0.026951   0.005863   0.001700   0.003199   5.333240
     H   12   0.031395   0.003462   0.022529   0.001279   0.557652   5.297448
     H   13   0.031563   0.011152   0.015990   0.557176   0.001244   0.002848
     H   14   0.002676   0.000640   0.000546   0.022905   0.022913   0.033359
     H   15   0.001487   0.000629   0.000987   0.033265   0.033302   0.022988
     H   16   0.002003   0.028811   0.030400   0.001208   0.000326   0.000580
     H   17   0.022049   0.024402   0.048319   0.000345   0.000357   0.000449
     H   18   0.001950   0.049221   0.024346   0.000408   0.000855   0.012699


                  H 13       H 14       H 15       H 16       H 17       H 18
 ------------------------------------------------------------------------------
     H   13   5.304350
     H   14   0.033378   5.325863
     H   15   0.023103   0.561909   5.325276
     H   16   0.000688   0.000123   0.000125   5.489419
     H   17   0.000470   0.000105   0.000191   0.573260   5.467833
     H   18   0.000416   0.000297   0.000247   0.571617   0.576194   5.453073


          HEAT OF FORMATION =     -15.866010 KCALS/MOLE

          ZERO POINT ENERGY     104.269 KCAL/MOL


           NORMAL COORDINATE ANALYSIS (Total motion = 1 Angstrom)


   Root No.       1         2         3         4         5         6         7         8

                 1 A       2 A       3 A       4 A       5 A       6 A       7 A       8 A   

                  94.7     137.2     184.5     260.0     421.7     436.8     749.5     813.2
  
           1   -0.0221    0.0005   -0.0082   -0.0221   -0.0043    0.0226    0.0291   -0.0046
           2    0.0118    0.0081    0.0059    0.0110   -0.0121   -0.0253    0.0279   -0.0022
           3    0.0143   -0.0189   -0.0019   -0.0194    0.0449   -0.0257   -0.0273    0.0014
           4   -0.0222    0.0005   -0.0077   -0.0230   -0.0062    0.0260    0.0103    0.0016
           5   -0.0198    0.0017   -0.0069   -0.0146   -0.0182   -0.0074   -0.0301    0.0024
           6    0.0169   -0.0290   -0.0237   -0.0203   -0.0233    0.0188   -0.0065   -0.0117
           7    0.0097    0.0072    0.0045   -0.0011   -0.0181   -0.0099   -0.0309    0.0027
           8    0.0117    0.0079    0.0053    0.0087   -0.0176   -0.0372    0.0284   -0.0054
           9   -0.0114   -0.0221    0.0053    0.0360   -0.0241   -0.0123   -0.0078   -0.0093
          10   -0.0304   -0.0214   -0.0168    0.0136    0.0314   -0.0307    0.0325   -0.0116
          11    0.0068   -0.0088    0.0018    0.0078    0.0272    0.0302    0.0022   -0.0002
          12    0.0213    0.0029    0.0054   -0.0366    0.0137   -0.0208    0.0219    0.0111
          13    0.0097    0.0065    0.0049    0.0005   -0.0186   -0.0110   -0.0293    0.0026
          14   -0.0198    0.0007   -0.0077   -0.0159   -0.0185   -0.0050   -0.0281    0.0017
          15   -0.0187    0.0484    0.0027   -0.0041   -0.0059    0.0003   -0.0020   -0.0182
          16    0.0498    0.0064    0.0194    0.0249    0.0107    0.0069    0.0044   -0.0021
          17    0.0095   -0.0077    0.0031    0.0079    0.0333    0.0395    0.0034    0.0020
          18   -0.0195    0.0150    0.0110    0.0369    0.0081    0.0254    0.0048    0.0024
          19   -0.0329    0.0124    0.0001   -0.0360    0.0048    0.0280    0.0349    0.0078
          20    0.0334    0.0199    0.0060   -0.0050   -0.0067   -0.0502    0.0484    0.0024
          21    0.0191   -0.0070    0.0019   -0.0327    0.0490   -0.0330   -0.0126    0.0096
          22   -0.0488   -0.0284   -0.0234    0.0166    0.0428   -0.0361    0.0190    0.0056
          23   -0.0458   -0.0271   -0.0195    0.0064    0.0535    0.0240   -0.0200    0.0382
          24    0.0639    0.0300    0.0132   -0.0889   -0.0403    0.0416    0.1146   -0.0593
          25   -0.0796   -0.0537   -0.0313    0.0505    0.0905   -0.0827   -0.0488    0.0611
          26    0.0535   -0.0082    0.0113   -0.0217    0.0295    0.0403    0.0208   -0.0323
          27    0.0149   -0.0133    0.0017   -0.0291    0.0430   -0.0417   -0.0108    0.0332
          28    0.0241   -0.0353    0.0096    0.0344   -0.0423   -0.0322   -0.0169    0.0713
          29    0.0358    0.0161    0.0057   -0.0227    0.0389   -0.0554   -0.0263   -0.0309
          30   -0.0164   -0.0495    0.0078    0.0722   -0.0683   -0.0147    0.0316    0.0441
          31   -0.0341    0.0084    0.0023   -0.0306    0.0514   -0.0053   -0.0335   -0.0321
          32   -0.0089   -0.0493   -0.0282   -0.0322   -0.0379    0.0217   -0.0300    0.0798
          33    0.0290   -0.0610   -0.0406   -0.0259   -0.0654    0.0519    0.0190    0.0514
          34   -0.0293   -0.0115   -0.0245   -0.0291   -0.0581    0.0733    0.0463    0.0382
          35   -0.0495    0.0495    0.0072   -0.0128    0.0034   -0.0170   -0.0534   -0.0719
          36    0.0283   -0.0599   -0.0398   -0.0249   -0.0631    0.0499    0.0243    0.0491
          37    0.0146    0.0547    0.0076   -0.0226    0.0005   -0.0129   -0.0574   -0.0671
          38    0.0069    0.0036    0.0125    0.0527   -0.0761   -0.0406    0.0855    0.0182
          39   -0.0164   -0.0485    0.0076    0.0707   -0.0662   -0.0135    0.0369    0.0415
          40    0.0241   -0.0380    0.0090    0.0346   -0.0414   -0.0294   -0.0475   -0.0829
          41   -0.0078   -0.0513   -0.0284   -0.0311   -0.0367    0.0216   -0.0519   -0.0846
          42   -0.0320    0.0974    0.0110   -0.0141    0.0150   -0.0041    0.0187    0.0746
          43    0.0147    0.0537    0.0085   -0.0183   -0.0019   -0.0180   -0.0134    0.0834
          44   -0.0506    0.0474    0.0045   -0.0164    0.0016   -0.0081   -0.0240    0.0906
          45   -0.0326    0.0998    0.0114   -0.0148    0.0147   -0.0051    0.0113    0.0795
          46    0.0278   -0.0309    0.2214   -0.0100   -0.0038    0.0274   -0.0248    0.0159
          47    0.0073   -0.0256   -0.0076   -0.0464    0.0425   -0.0203    0.0687    0.0099
          48   -0.0067    0.0440   -0.0916    0.0834    0.0116    0.0461   -0.0135   -0.0113
          49    0.1159    0.0589   -0.1559    0.0675    0.0127    0.0197   -0.0288    0.0202
          50   -0.0384   -0.0075   -0.0151    0.0525    0.0410    0.0629    0.0057   -0.0454
          51   -0.0038    0.0454   -0.0983    0.0826    0.0128    0.0446   -0.0129   -0.0084
          52    0.0693    0.0142    0.0243    0.0293    0.0061    0.0214   -0.0205    0.0142
          53    0.0613    0.0111    0.0344    0.0180    0.0183    0.0823   -0.0661    0.0447
          54   -0.0812   -0.0341    0.2305    0.0122   -0.0014    0.0490   -0.0059   -0.0139


   Root No.       9        10        11        12        13        14        15        16

                 9 A      10 A      11 A      12 A      13 A      14 A      15 A      16 A   

                 836.4     867.4     907.0     978.5     998.2    1006.1    1027.4    1038.4
  
           1   -0.0067   -0.0008   -0.0041   -0.0267   -0.0030   -0.0088   -0.0083    0.0046
           2   -0.0110    0.0006   -0.0051    0.0113    0.0104    0.0024   -0.0143    0.0460
           3    0.0114   -0.0014   -0.0235    0.0005   -0.0038   -0.0057   -0.0008   -0.0006
           4   -0.0203    0.0070   -0.0393    0.0319    0.0115    0.0115   -0.0038    0.0141
           5    0.0094   -0.0017    0.0094   -0.0000   -0.0084    0.0060    0.0371    0.0108
           6    0.0026    0.0262   -0.0129   -0.0065    0.0123    0.0042    0.0026    0.0067
           7    0.0090    0.0017    0.0086    0.0060    0.0052   -0.0020   -0.0218   -0.0490
           8   -0.0112   -0.0065   -0.0365   -0.0178   -0.0095    0.0019    0.0124   -0.0225
           9   -0.0045   -0.0272   -0.0110   -0.0054    0.0053    0.0130   -0.0058    0.0064
          10    0.0217   -0.0043    0.0146   -0.0148    0.0048   -0.0045   -0.0033   -0.0048
          11    0.0013   -0.0011    0.0001   -0.0023    0.0007    0.0011   -0.0013    0.0008
          12   -0.0145    0.0027    0.0273    0.0066   -0.0081   -0.0093   -0.0010   -0.0011
          13    0.0105   -0.0012    0.0213   -0.0037   -0.0037   -0.0017    0.0119    0.0507
          14    0.0116    0.0010    0.0210   -0.0070    0.0039   -0.0100   -0.0323   -0.0037
          15   -0.0109    0.0009    0.0079    0.0041   -0.0046   -0.0038    0.0002    0.0002
          16    0.0070   -0.0028    0.0082    0.0141   -0.0022    0.0088    0.0047   -0.0029
          17    0.0013    0.0025    0.0169    0.0057    0.0021    0.0060    0.0048   -0.0037
          18   -0.0036    0.0006    0.0200   -0.0011    0.0126    0.0209    0.0075   -0.0094
          19   -0.0346   -0.0386   -0.0162   -0.0469   -0.1068   -0.0158    0.0648    0.0079
          20   -0.0215    0.0425   -0.0168    0.0861    0.0439   -0.0603   -0.0983    0.0759
          21   -0.0064    0.0005   -0.0305    0.0257   -0.0379   -0.0402   -0.0064    0.0156
          22   -0.0113    0.0033    0.0194   -0.0446    0.0076   -0.0191   -0.0064   -0.0131
          23   -0.0761    0.0202    0.0179   -0.1090    0.0182   -0.0440   -0.0125   -0.0300
          24    0.0963   -0.0119    0.0301   -0.0924    0.0260   -0.0284   -0.0149   -0.0331
          25   -0.0919    0.0121    0.0228    0.0363   -0.0408   -0.0258    0.0059   -0.0027
          26    0.0819   -0.0149   -0.0233    0.0665   -0.0589   -0.0401    0.0093   -0.0228
          27   -0.0360    0.0046    0.0202    0.0607   -0.0563   -0.0376    0.0079   -0.0100
          28    0.0540    0.0871   -0.0445   -0.0063   -0.0434    0.0756   -0.0664   -0.0961
          29   -0.0110   -0.0892   -0.1323   -0.0522   -0.0346    0.1305   -0.0564   -0.0402
          30    0.0205    0.0681    0.0100    0.0080   -0.0075   -0.0143    0.0049   -0.0095
          31    0.0043    0.0812   -0.1376    0.0267    0.1294    0.0023    0.0992   -0.0100
          32    0.0317   -0.0929   -0.0381    0.0220    0.0597   -0.0212    0.1285   -0.0399
          33    0.0013   -0.0677    0.0121    0.0078   -0.0144   -0.0065   -0.0005   -0.0074
          34   -0.0612   -0.0591    0.0003    0.0694   -0.1089    0.0435   -0.0307   -0.0456
          35   -0.0186    0.0998    0.0187    0.0129   -0.0743    0.0566    0.0153   -0.0354
          36   -0.0038   -0.0652    0.0041    0.0083   -0.0171   -0.0055   -0.0018   -0.0017
          37   -0.0371   -0.0934    0.0251    0.0355    0.0434   -0.0530    0.0592   -0.1558
          38   -0.0210    0.0698    0.0014    0.0412    0.0086   -0.1003    0.1036   -0.1430
          39    0.0157    0.0660    0.0016    0.0103   -0.0059   -0.0161    0.0032   -0.0036
          40   -0.0387   -0.0812    0.0549    0.0015    0.0097   -0.0372    0.0453    0.0893
          41   -0.0254    0.0883    0.0449    0.0107   -0.0336    0.0073   -0.0607   -0.0543
          42    0.0359   -0.0027   -0.0237   -0.0077    0.0083    0.0067   -0.0018    0.0048
          43    0.0666    0.0673   -0.0065   -0.0565   -0.0566    0.0365    0.0972    0.0714
          44    0.0458   -0.0745   -0.0019    0.0276    0.0787   -0.0293   -0.1193   -0.0223
          45    0.0409   -0.0028   -0.0216   -0.0072    0.0081    0.0070   -0.0013    0.0039
          46   -0.0333    0.0088   -0.0153   -0.0360    0.0055   -0.0208   -0.0094    0.0035
          47   -0.0090   -0.0001    0.1476    0.0480    0.0615    0.1349    0.0479   -0.0419
          48    0.0234   -0.0041   -0.0350    0.0032   -0.0231   -0.0315   -0.0073    0.0061
          49   -0.0400    0.0097   -0.0089   -0.0348    0.0069   -0.0156   -0.0071    0.0006
          50    0.0992   -0.0177   -0.0624    0.0678   -0.0753   -0.0702   -0.0109    0.0205
          51    0.0181   -0.0024   -0.0287    0.0015   -0.0203   -0.0301   -0.0066    0.0041
          52   -0.0281    0.0073   -0.0056   -0.0248    0.0043   -0.0113   -0.0045   -0.0008
          53   -0.0918    0.0300   -0.0257   -0.0991    0.0165   -0.0531   -0.0215    0.0032
          54    0.0275   -0.0043   -0.0318    0.0037   -0.0228   -0.0323   -0.0076    0.0052


   Root No.      17        18        19        20        21        22        23        24

                17 A      18 A      19 A      20 A      21 A      22 A      23 A      24 A   

                1058.4    1090.1    1117.5    1127.0    1129.9    1173.9    1182.2    1194.7
  
           1   -0.0157    0.0186    0.0014   -0.0041   -0.0041   -0.0222    0.0206   -0.0235
           2   -0.0075   -0.0135   -0.0033    0.0052    0.0035    0.0304   -0.0252   -0.0204
           3    0.0026   -0.0033   -0.0022   -0.0062    0.0019    0.0196    0.0186    0.0488
           4    0.0040   -0.0116   -0.0082    0.0008    0.0037    0.0046   -0.0179    0.0308
           5    0.0255   -0.0085    0.0051    0.0084   -0.0024    0.0164   -0.0091   -0.0189
           6    0.0052    0.0256   -0.0214   -0.0078   -0.0137    0.0061   -0.0049   -0.0216
           7   -0.0036   -0.0006    0.0055    0.0011   -0.0021   -0.0002    0.0091   -0.0224
           8   -0.0073    0.0170   -0.0050   -0.0100   -0.0010   -0.0291    0.0116    0.0275
           9   -0.0145   -0.0225   -0.0117   -0.0075   -0.0203   -0.0073    0.0055   -0.0224
          10    0.0186   -0.0190    0.0036   -0.0279    0.0136    0.0084   -0.0076   -0.0006
          11   -0.0045   -0.0036   -0.0238    0.0364    0.0249    0.0115    0.0087    0.0002
          12    0.0031   -0.0016    0.0038    0.0078   -0.0139   -0.0235   -0.0329   -0.0138
          13   -0.0011   -0.0010   -0.0062   -0.0018    0.0036    0.0040   -0.0119    0.0237
          14   -0.0243    0.0115   -0.0049   -0.0088    0.0019   -0.0210    0.0134    0.0202
          15   -0.0011    0.0043    0.0361    0.0149    0.0277   -0.0030   -0.0029    0.0121
          16   -0.0115    0.0119    0.0001    0.0345   -0.0171   -0.0016    0.0033    0.0050
          17    0.0032    0.0062    0.0246   -0.0381   -0.0252   -0.0079   -0.0085    0.0044
          18   -0.0019    0.0020   -0.0084   -0.0056    0.0184    0.0042    0.0148    0.0013
          19   -0.0964    0.0981    0.0213   -0.0445    0.0073    0.2088    0.0154   -0.0818
          20    0.0443   -0.0556    0.0677    0.0073   -0.0387    0.0092    0.1985   -0.0965
          21   -0.0107    0.0139    0.0407   -0.0244   -0.0142    0.1202    0.1219   -0.0131
          22    0.0248   -0.0206    0.0040    0.0437   -0.0095    0.0076   -0.0066    0.0016
          23    0.0294   -0.0198   -0.0223    0.2728   -0.0469    0.0151    0.0150    0.0161
          24    0.0795   -0.0666    0.0121    0.0516   -0.0101    0.0188   -0.0282    0.0140
          25   -0.0204    0.0217   -0.0100    0.0092    0.0054   -0.0635   -0.0413   -0.0631
          26    0.0032   -0.0144   -0.1025   -0.0217    0.1904   -0.0605    0.0228   -0.0999
          27   -0.0125    0.0137   -0.0355    0.0028    0.0490   -0.0904   -0.0466   -0.0851
          28    0.0650    0.0460    0.0965    0.0476    0.0595    0.0513   -0.0573   -0.0458
          29    0.0144    0.0011    0.0367    0.0156    0.0068   -0.0149   -0.0453   -0.0367
          30    0.0106    0.0107    0.0162    0.0040    0.0094    0.0135    0.0011    0.0019
          31   -0.0175    0.0258    0.0289    0.0172    0.0118   -0.0535    0.0018   -0.0491
          32   -0.0007   -0.0494    0.1139    0.0537    0.0449   -0.0367    0.0305   -0.0573
          33    0.0019   -0.0151    0.0191    0.0076    0.0084    0.0082    0.0074    0.0023
          34    0.0979   -0.0659   -0.0229   -0.0030   -0.0198   -0.0205    0.0654    0.0857
          35    0.1392    0.0017   -0.0738   -0.0101   -0.0706    0.0034    0.0511   -0.0599
          36   -0.0036   -0.0089    0.0126    0.0005    0.0095    0.0023    0.0082    0.0278
          37   -0.0258   -0.0682   -0.0639   -0.0345   -0.0711    0.0695   -0.0247   -0.0482
          38    0.0090    0.0147   -0.0347   -0.0274   -0.0074    0.0581   -0.0212    0.0996
          39    0.0060    0.0110    0.0096    0.0009    0.0110    0.0043    0.0068    0.0283
          40    0.1116    0.1176    0.0359    0.0185    0.0468   -0.0557    0.0396    0.0501
          41   -0.1353   -0.0968    0.0579    0.0125    0.0420    0.0245   -0.0453    0.0593
          42   -0.0020   -0.0014   -0.0175   -0.0065   -0.0151    0.0039    0.0005   -0.0202
          43   -0.0698   -0.0924   -0.0411   -0.0262   -0.0518   -0.0712    0.0639    0.0112
          44    0.0451    0.0938   -0.0754   -0.0302   -0.0217    0.0552   -0.0538    0.0228
          45   -0.0023   -0.0007   -0.0217   -0.0102   -0.0159   -0.0025    0.0020    0.0040
          46    0.0145   -0.0163   -0.0027   -0.0195    0.0206    0.0066    0.0004   -0.0063
          47   -0.0292    0.0435    0.0169   -0.0296   -0.0150    0.0027    0.0527    0.0174
          48    0.0021   -0.0027   -0.0024    0.0182   -0.0074   -0.0077   -0.0164   -0.0006
          49    0.0148   -0.0160   -0.0050   -0.0213    0.0238    0.0037   -0.0012   -0.0065
          50   -0.0110    0.0274    0.0649    0.0297   -0.1359   -0.0472   -0.0644   -0.0014
          51    0.0061   -0.0037    0.0066   -0.0041   -0.0099   -0.0122   -0.0157   -0.0077
          52    0.0119   -0.0094    0.0039   -0.0187    0.0045   -0.0016   -0.0039   -0.0025
          53    0.0695   -0.0531    0.0374   -0.1909    0.0315   -0.0115   -0.0320   -0.0180
          54    0.0045   -0.0030    0.0042    0.0133   -0.0148   -0.0114   -0.0185   -0.0041


   Root No.      25        26        27        28        29        30        31        32

                25 A      26 A      27 A      28 A      29 A      30 A      31 A      32 A   

                1238.7    1260.3    1280.0    1296.0    1375.6    1406.6    1410.4    1411.5
  
           1   -0.0089   -0.0256   -0.0257    0.0333    0.0207   -0.0048   -0.0106    0.0051
           2    0.0298   -0.0028    0.0230    0.0001    0.0242   -0.0024   -0.0090    0.0051
           3    0.0103   -0.0161   -0.0090    0.0034    0.0190   -0.0040   -0.0108    0.0059
           4   -0.0158   -0.0147    0.0061   -0.0303   -0.0067    0.0039    0.0185   -0.0003
           5   -0.0183   -0.0304   -0.0335   -0.0181   -0.0074   -0.0017   -0.0076   -0.0025
           6   -0.0017    0.0053    0.0033   -0.0021   -0.0036    0.0006    0.0019   -0.0009
           7    0.0377   -0.0111   -0.0139   -0.0314   -0.0049    0.0010    0.0001   -0.0023
           8    0.0108    0.0081   -0.0340   -0.0177   -0.0082    0.0022    0.0115   -0.0005
           9   -0.0073    0.0051    0.0003   -0.0018   -0.0037    0.0006    0.0019   -0.0012
          10    0.0069    0.0019    0.0070    0.0012   -0.0015    0.0044    0.0097   -0.0031
          11    0.0186   -0.0217    0.0016    0.0285   -0.0202   -0.0032    0.0026    0.0004
          12    0.0099   -0.0077    0.0040    0.0139    0.0007    0.0087    0.0149   -0.0038
          13   -0.0150    0.0320   -0.0294    0.0220   -0.0004   -0.0037   -0.0202    0.0004
          14   -0.0027   -0.0013    0.0557   -0.0041    0.0011   -0.0027   -0.0174    0.0004
          15    0.0019   -0.0019   -0.0006    0.0006    0.0012   -0.0003   -0.0010    0.0003
          16   -0.0029    0.0015   -0.0015   -0.0019    0.0052   -0.0234    0.0016   -0.0265
          17   -0.0037    0.0022   -0.0013   -0.0010   -0.0289    0.0027    0.0018   -0.0108
          18   -0.0068    0.0036   -0.0025   -0.0044    0.0029    0.0231   -0.0050   -0.0255
          19    0.0315    0.0728    0.0615   -0.0454   -0.0269    0.0038    0.0196   -0.0082
          20   -0.1021    0.0085   -0.0310    0.0180   -0.0406   -0.0045    0.0129   -0.0111
          21   -0.0325    0.0363    0.0078   -0.0244   -0.0340   -0.0007    0.0132   -0.0076
          22   -0.0144    0.0274    0.0087   -0.0280    0.0233    0.0098    0.0128   -0.0042
          23   -0.0551    0.0697    0.0091   -0.0782    0.0733    0.0208    0.0183   -0.0016
          24   -0.0185    0.0721    0.0375   -0.0681   -0.1169   -0.0374   -0.0601   -0.0043
          25   -0.0203    0.0270    0.0069   -0.0183   -0.1094   -0.0443   -0.0610   -0.0021
          26   -0.0704    0.0565   -0.0094   -0.0603    0.0749    0.0156    0.0141   -0.0026
          27   -0.0391    0.0377    0.0008   -0.0325   -0.0275   -0.0125   -0.0236   -0.0045
          28   -0.0632   -0.0381    0.0900    0.0524    0.0256   -0.0024    0.0060    0.0086
          29   -0.1286    0.0256    0.0463    0.0682   -0.0148   -0.0019   -0.0265   -0.0078
          30    0.0111   -0.0172    0.0132   -0.0021    0.0150    0.0008    0.0224    0.0078
          31    0.0614    0.1071    0.0804    0.0337   -0.0174   -0.0088   -0.0639   -0.0088
          32    0.0727    0.0608   -0.0143    0.0728    0.0313    0.0070    0.0432    0.0101
          33    0.0066   -0.0081   -0.0236    0.0129    0.0211    0.0106    0.0644    0.0094
          34    0.0816    0.0767    0.0626    0.0435    0.0078   -0.0106   -0.0779   -0.0018
          35    0.0787    0.0611   -0.0137    0.0732    0.0336    0.0092    0.0430    0.0121
          36    0.0008    0.0052    0.0213   -0.0099   -0.0146   -0.0109   -0.0660   -0.0079
          37   -0.0690   -0.0416    0.0858    0.0542    0.0286   -0.0032    0.0045    0.0097
          38   -0.0968   -0.0094    0.0361    0.0792    0.0090   -0.0068   -0.0403   -0.0004
          39   -0.0094    0.0093   -0.0136    0.0061   -0.0103   -0.0021   -0.0251   -0.0063
          40   -0.0090   -0.0222    0.1424   -0.0054   -0.0101    0.0192    0.1000   -0.0030
          41   -0.0197    0.0847   -0.0816    0.0548   -0.0129    0.0165    0.0917   -0.0033
          42    0.0062   -0.0154   -0.0169   -0.0143    0.0109   -0.0191   -0.1034    0.0033
          43   -0.0236   -0.0161    0.1419   -0.0070   -0.0131    0.0193    0.0988   -0.0040
          44   -0.0180    0.0922   -0.0766    0.0527   -0.0158    0.0168    0.0906   -0.0037
          45   -0.0101    0.0203    0.0196    0.0146   -0.0127    0.0201    0.1084   -0.0038
          46    0.0036   -0.0075    0.0006    0.0103   -0.0422    0.2892   -0.0334    0.0559
          47   -0.0510    0.0460   -0.0114   -0.0618    0.1040   -0.0369   -0.0128    0.1621
          48    0.0115   -0.0105    0.0018    0.0156   -0.0298   -0.1327    0.0219   -0.1249
          49    0.0031   -0.0043    0.0022    0.0075   -0.0570    0.0293    0.0039    0.3143
          50   -0.0098    0.0236    0.0027   -0.0337    0.1075    0.1213   -0.0233    0.0164
          51   -0.0043    0.0082    0.0016   -0.0110    0.0197    0.0829   -0.0108    0.1871
          52   -0.0051    0.0090    0.0010   -0.0127    0.0448   -0.0333    0.0009   -0.0397
          53   -0.0121    0.0287    0.0060   -0.0393    0.1195   -0.0949    0.0060   -0.0768
          54    0.0034    0.0017    0.0035   -0.0002   -0.0166   -0.2416    0.0370    0.2526


   Root No.      33        34        35        36        37        38        39        40

                33 A      34 A      35 A      36 A      37 A      38 A      39 A      40 A   

                1413.4    1418.3    1429.9    1457.6    2947.2    2956.1    3028.3    3031.6
  
           1    0.0126    0.0159    0.0094    0.0245    0.0113    0.0116   -0.0008   -0.0002
           2    0.0051    0.0183    0.0181    0.0274    0.0114    0.0115   -0.0008   -0.0001
           3    0.0098    0.0196    0.0140    0.0188   -0.0237   -0.0240    0.0017   -0.0005
           4   -0.0113    0.0115    0.0041   -0.0208    0.0004    0.0002   -0.0008    0.0003
           5    0.0100   -0.0171   -0.0130    0.0196    0.0002   -0.0000    0.0005   -0.0002
           6   -0.0017   -0.0030   -0.0023   -0.0026    0.0020    0.0022    0.0187   -0.0007
           7   -0.0225   -0.0006   -0.0083    0.0207    0.0001    0.0001    0.0003   -0.0001
           8    0.0211   -0.0064    0.0013   -0.0219    0.0003    0.0003   -0.0005   -0.0001
           9   -0.0014   -0.0034   -0.0013   -0.0022    0.0019    0.0022    0.0150    0.0054
          10   -0.0095   -0.0198   -0.0057   -0.0109   -0.0280    0.0274    0.0009   -0.0153
          11   -0.0012    0.0009   -0.0436   -0.0228   -0.0014    0.0010   -0.0014    0.0173
          12   -0.0141   -0.0325   -0.0111   -0.0157    0.0166   -0.0162    0.0018   -0.0232
          13   -0.0014   -0.0066    0.0052   -0.0237   -0.0002   -0.0002    0.0003    0.0001
          14   -0.0127   -0.0009    0.0072   -0.0230   -0.0002   -0.0002    0.0003    0.0000
          15    0.0003    0.0009    0.0006    0.0002   -0.0002   -0.0002   -0.0225   -0.0044
          16    0.0009    0.0020   -0.0002    0.0003    0.0015   -0.0014   -0.0005    0.0020
          17   -0.0027   -0.0100    0.0447    0.0129    0.0000   -0.0001   -0.0000    0.0006
          18    0.0033    0.0064    0.0007    0.0010   -0.0010    0.0007   -0.0002    0.0030
          19   -0.0235   -0.0175   -0.0123   -0.0251   -0.1388   -0.1368    0.0105   -0.0010
          20    0.0031   -0.0250   -0.0267   -0.0297   -0.1375   -0.1370    0.0102    0.0003
          21   -0.0086   -0.0170   -0.0178   -0.0324    0.2882    0.2931   -0.0192    0.0022
          22   -0.0124   -0.0312    0.0267    0.0024    0.2264   -0.2269   -0.0259    0.3580
          23   -0.0158   -0.0525    0.0729    0.0214   -0.0733    0.0727    0.0070   -0.1002
          24    0.0511    0.1494   -0.0273    0.0096    0.0132   -0.0156    0.0004   -0.0044
          25    0.0553    0.1544   -0.0381    0.0136    0.1091   -0.1020    0.0133   -0.1721
          26   -0.0083   -0.0431    0.0740    0.0283    0.0900   -0.0840    0.0086   -0.1097
          27    0.0218    0.0547    0.0145    0.0191   -0.2157    0.2083   -0.0233    0.2874
          28    0.1097   -0.0039    0.0321   -0.0548    0.0068    0.0079    0.0456    0.0179
          29   -0.1207    0.0017   -0.0287    0.0426   -0.0044   -0.0053   -0.0466   -0.0180
          30    0.1287   -0.0075    0.0330   -0.0681   -0.0120   -0.0138   -0.0834   -0.0323
          31    0.0448   -0.0888   -0.0348    0.0408   -0.0038   -0.0060   -0.0567    0.0012
          32   -0.0501    0.0821    0.0432   -0.0525    0.0065    0.0086    0.0569   -0.0014
          33   -0.0558    0.0922    0.0436   -0.0655   -0.0112   -0.0150   -0.1021    0.0015
          34    0.0570   -0.0727   -0.0178    0.0620    0.0052    0.0050    0.0663   -0.0043
          35   -0.0504    0.0866    0.0479   -0.0509   -0.0062   -0.0070   -0.0632    0.0043
          36    0.0568   -0.0887   -0.0393    0.0684   -0.0113   -0.0137   -0.1232    0.0073
          37    0.1144   -0.0009    0.0354   -0.0533   -0.0064   -0.0063   -0.0490   -0.0176
          38   -0.1132    0.0254   -0.0173    0.0623    0.0049    0.0051    0.0530    0.0174
          39   -0.1247    0.0120   -0.0296    0.0709   -0.0116   -0.0128   -0.0972   -0.0341
          40    0.0147    0.0211   -0.0262    0.0668   -0.0004   -0.0004    0.0718    0.0139
          41    0.0473    0.0040   -0.0293    0.0654   -0.0004   -0.0004    0.0709    0.0142
          42   -0.0341   -0.0145    0.0305   -0.0806   -0.0007   -0.0007    0.1375    0.0270
          43    0.0129    0.0178   -0.0263    0.0631   -0.0009   -0.0012   -0.0750   -0.0146
          44    0.0447    0.0013   -0.0303    0.0614   -0.0009   -0.0012   -0.0741   -0.0150
          45    0.0350    0.0141   -0.0323    0.0830    0.0021    0.0025    0.1341    0.0263
          46    0.0055    0.0079    0.0169    0.0045    0.0002   -0.0008    0.0012   -0.0150
          47    0.0150    0.0400   -0.0756   -0.0054   -0.0003   -0.0005    0.0010   -0.0104
          48   -0.0083   -0.0213    0.0417    0.0055   -0.0004   -0.0010    0.0027   -0.0282
          49   -0.0099   -0.0262    0.0326    0.0106   -0.0074    0.0054   -0.0000    0.0069
          50    0.0116    0.0371   -0.1035   -0.0226   -0.0038    0.0015    0.0002    0.0042
          51    0.0015    0.0059   -0.0368   -0.0067    0.0123   -0.0102   -0.0004   -0.0092
          52    0.0031    0.0118   -0.0411   -0.0110   -0.0133    0.0127    0.0044   -0.0170
          53    0.0044    0.0241   -0.1018   -0.0271    0.0021   -0.0019   -0.0016    0.0052
          54   -0.0166   -0.0365    0.0129    0.0035   -0.0006    0.0004    0.0001    0.0007


   Root No.      41        42        43        44        45        46        47        48

                41 A      42 A      43 A      44 A      45 A      46 A      47 A      48 A   

                3036.1    3048.9    3076.8    3084.3    3103.8    3106.2    3109.2    3179.6
  
           1   -0.0001    0.0007    0.0000    0.0000   -0.0006   -0.0002    0.0006   -0.0001
           2    0.0001    0.0007    0.0002    0.0004    0.0005   -0.0003    0.0005   -0.0001
           3   -0.0001   -0.0017   -0.0002    0.0001   -0.0001   -0.0002   -0.0003    0.0001
           4   -0.0011    0.0009   -0.0006   -0.0002   -0.0163   -0.0099   -0.0058    0.0002
           5    0.0008   -0.0007    0.0006    0.0002    0.0166    0.0104    0.0053   -0.0002
           6    0.0263   -0.0159   -0.0012   -0.0003   -0.0028   -0.0016   -0.0009   -0.0002
           7   -0.0006   -0.0005   -0.0000   -0.0001   -0.0124    0.0136    0.0061   -0.0000
           8    0.0010    0.0008    0.0000    0.0000    0.0124   -0.0134   -0.0066    0.0000
           9   -0.0276   -0.0180   -0.0001    0.0001    0.0017   -0.0018   -0.0009   -0.0000
          10   -0.0015    0.0004   -0.0027   -0.0010    0.0001    0.0000    0.0000    0.0001
          11    0.0016   -0.0001    0.0003    0.0015    0.0000    0.0001    0.0001    0.0004
          12   -0.0019    0.0003    0.0009   -0.0023   -0.0001   -0.0002   -0.0001    0.0002
          13   -0.0001    0.0003    0.0000    0.0000    0.0002    0.0075   -0.0188    0.0000
          14   -0.0000    0.0003    0.0000    0.0000    0.0011    0.0074   -0.0187    0.0000
          15    0.0030   -0.0254   -0.0003   -0.0000   -0.0001   -0.0002   -0.0007   -0.0000
          16   -0.0003    0.0004   -0.0483   -0.0172    0.0008    0.0004    0.0002    0.0005
          17    0.0001   -0.0000   -0.0013   -0.0009    0.0001    0.0001    0.0000    0.0246
          18    0.0003   -0.0001    0.0186   -0.0448    0.0000   -0.0000   -0.0000    0.0009
          19    0.0015   -0.0093   -0.0017    0.0001   -0.0010   -0.0012   -0.0016    0.0008
          20   -0.0024   -0.0094   -0.0018    0.0008    0.0003   -0.0013   -0.0016    0.0011
          21    0.0009    0.0169    0.0021    0.0006    0.0006    0.0022    0.0033   -0.0013
          22    0.0313   -0.0056    0.0259    0.0260   -0.0003    0.0014    0.0006   -0.0029
          23   -0.0086    0.0019   -0.0117   -0.0087    0.0005   -0.0006   -0.0002    0.0019
          24   -0.0005    0.0000    0.0015   -0.0014    0.0000   -0.0001   -0.0001    0.0000
          25   -0.0149    0.0021    0.0045   -0.0156   -0.0008   -0.0016   -0.0009    0.0013
          26   -0.0087    0.0013    0.0079   -0.0124   -0.0002   -0.0012   -0.0006    0.0019
          27    0.0239   -0.0024   -0.0118    0.0252    0.0009    0.0025    0.0015   -0.0023
          28   -0.0862   -0.0569   -0.0002    0.0006    0.0854   -0.0879   -0.0422    0.0000
          29    0.0849    0.0542    0.0002   -0.0006   -0.0835    0.0862    0.0407   -0.0000
          30    0.1521    0.0965    0.0002   -0.0012   -0.1757    0.1813    0.0862   -0.0000
          31   -0.0790    0.0463    0.0076    0.0022    0.1100    0.0642    0.0356   -0.0005
          32    0.0821   -0.0497   -0.0078   -0.0023   -0.1144   -0.0666   -0.0376    0.0005
          33   -0.1424    0.0828    0.0149    0.0045    0.2333    0.1361    0.0761   -0.0011
          34    0.0936   -0.0569   -0.0002    0.0001    0.0915    0.0532    0.0295   -0.0016
          35   -0.0920    0.0576    0.0008    0.0001   -0.0893   -0.0518   -0.0293    0.0018
          36   -0.1747    0.1063   -0.0003   -0.0005   -0.2000   -0.1164   -0.0651    0.0033
          37    0.0938    0.0632    0.0005    0.0002    0.0690   -0.0705   -0.0339    0.0000
          38   -0.0979   -0.0638   -0.0006   -0.0003   -0.0720    0.0738    0.0348   -0.0000
          39    0.1806    0.1179    0.0011    0.0004    0.1556   -0.1596   -0.0759    0.0000
          40   -0.0074    0.0827    0.0008   -0.0000   -0.0038   -0.0418    0.1112    0.0000
          41   -0.0115    0.0819    0.0008   -0.0000   -0.0026   -0.0416    0.1103    0.0000
          42   -0.0180    0.1536    0.0014   -0.0001   -0.0074   -0.0936    0.2463    0.0000
          43    0.0079   -0.0866   -0.0009   -0.0003   -0.0046   -0.0467    0.1155   -0.0000
          44    0.0120   -0.0857   -0.0010   -0.0003   -0.0040   -0.0464    0.1145   -0.0001
          45   -0.0176    0.1500    0.0016    0.0006    0.0087    0.0959   -0.2383    0.0001
          46   -0.0009    0.0000    0.0010    0.1845   -0.0020   -0.0009   -0.0004   -0.1494
          47   -0.0003   -0.0002    0.0219    0.1678   -0.0021   -0.0009   -0.0004   -0.1193
          48   -0.0012   -0.0005    0.0581    0.3373   -0.0045   -0.0021   -0.0010   -0.2788
          49    0.0011   -0.0010    0.1554   -0.1471   -0.0020   -0.0013   -0.0008   -0.1501
          50    0.0010   -0.0010    0.1336   -0.1033   -0.0018   -0.0011   -0.0007   -0.1010
          51   -0.0022    0.0020   -0.3026    0.2162    0.0043    0.0027    0.0016    0.2607
          52    0.0037   -0.0043    0.4210    0.1682   -0.0064   -0.0032   -0.0015    0.2939
          53   -0.0015    0.0015   -0.1402   -0.0556    0.0020    0.0010    0.0005   -0.0807
          54    0.0002   -0.0002    0.0215   -0.0185   -0.0002   -0.0001   -0.0001    0.0080


           MASS-WEIGHTED COORDINATE ANALYSIS (NORMAL COORDINATES)


   Root No.       1         2         3         4         5         6         7         8

                 1 A       2 A       3 A       4 A       5 A       6 A       7 A       8 A   

                  94.7     137.2     184.5     260.0     421.7     436.8     749.5     813.2
  
           1   -0.1934    0.0052   -0.0675   -0.1970   -0.0375    0.1914    0.2503   -0.0500
           2    0.1029    0.0781    0.0487    0.0981   -0.1049   -0.2136    0.2399   -0.0237
           3    0.1248   -0.1817   -0.0153   -0.1728    0.3878   -0.2176   -0.2345    0.0147
           4   -0.1939    0.0044   -0.0637   -0.2046   -0.0540    0.2200    0.0882    0.0173
           5   -0.1733    0.0159   -0.0571   -0.1298   -0.1575   -0.0624   -0.2590    0.0263
           6    0.1475   -0.2796   -0.1946   -0.1813   -0.2015    0.1586   -0.0557   -0.1262
           7    0.0846    0.0691    0.0373   -0.0098   -0.1567   -0.0839   -0.2653    0.0297
           8    0.1026    0.0759    0.0437    0.0775   -0.1523   -0.3145    0.2441   -0.0579
           9   -0.0999   -0.2130    0.0436    0.3205   -0.2084   -0.1042   -0.0670   -0.1007
          10   -0.2654   -0.2067   -0.1384    0.1210    0.2717   -0.2592    0.2794   -0.1253
          11    0.0596   -0.0847    0.0148    0.0694    0.2350    0.2552    0.0188   -0.0020
          12    0.1860    0.0277    0.0441   -0.3261    0.1186   -0.1756    0.1883    0.1196
          13    0.0849    0.0622    0.0399    0.0044   -0.1604   -0.0931   -0.2522    0.0280
          14   -0.1730    0.0064   -0.0637   -0.1418   -0.1595   -0.0425   -0.2419    0.0189
          15   -0.1629    0.4667    0.0219   -0.0368   -0.0512    0.0026   -0.0173   -0.1963
          16    0.4351    0.0620    0.1594    0.2216    0.0926    0.0580    0.0377   -0.0227
          17    0.0832   -0.0745    0.0252    0.0706    0.2877    0.3343    0.0289    0.0214
          18   -0.1707    0.1450    0.0901    0.3286    0.0696    0.2149    0.0415    0.0255
          19   -0.0833    0.0348    0.0001   -0.0930    0.0119    0.0686    0.0868    0.0245
          20    0.0844    0.0556    0.0143   -0.0128   -0.0168   -0.1229    0.1205    0.0076
          21    0.0484   -0.0196    0.0045   -0.0845    0.1227   -0.0809   -0.0315    0.0301
          22   -0.1236   -0.0794   -0.0559    0.0428    0.1070   -0.0884    0.0473    0.0174
          23   -0.1158   -0.0757   -0.0464    0.0165    0.1339    0.0588   -0.0498    0.1196
          24    0.1618    0.0838    0.0314   -0.2296   -0.1008    0.1019    0.2854   -0.1858
          25   -0.2015   -0.1499   -0.0747    0.1305    0.2264   -0.2026   -0.1216    0.1915
          26    0.1353   -0.0229    0.0270   -0.0559    0.0737    0.0988    0.0519   -0.1013
          27    0.0377   -0.0371    0.0041   -0.0751    0.1075   -0.1020   -0.0269    0.1041
          28    0.0610   -0.0985    0.0229    0.0887   -0.1057   -0.0788   -0.0421    0.2232
          29    0.0907    0.0450    0.0136   -0.0587    0.0973   -0.1357   -0.0656   -0.0967
          30   -0.0414   -0.1383    0.0185    0.1864   -0.1709   -0.0360    0.0787    0.1382
          31   -0.0862    0.0236    0.0055   -0.0791    0.1286   -0.0130   -0.0834   -0.1006
          32   -0.0225   -0.1376   -0.0672   -0.0832   -0.0950    0.0532   -0.0747    0.2499
          33    0.0735   -0.1705   -0.0967   -0.0669   -0.1638    0.1271    0.0472    0.1611
          34   -0.0742   -0.0322   -0.0585   -0.0752   -0.1455    0.1796    0.1153    0.1196
          35   -0.1254    0.1383    0.0171   -0.0330    0.0084   -0.0417   -0.1330   -0.2252
          36    0.0716   -0.1673   -0.0949   -0.0643   -0.1580    0.1221    0.0605    0.1537
          37    0.0371    0.1528    0.0182   -0.0585    0.0013   -0.0316   -0.1430   -0.2101
          38    0.0175    0.0101    0.0298    0.1360   -0.1905   -0.0993    0.2129    0.0571
          39   -0.0416   -0.1353    0.0180    0.1825   -0.1656   -0.0330    0.0918    0.1298
          40    0.0609   -0.1060    0.0215    0.0894   -0.1037   -0.0720   -0.1182   -0.2597
          41   -0.0198   -0.1432   -0.0676   -0.0803   -0.0920    0.0528   -0.1293   -0.2649
          42   -0.0810    0.2720    0.0262   -0.0363    0.0376   -0.0100    0.0465    0.2336
          43    0.0372    0.1501    0.0203   -0.0473   -0.0048   -0.0440   -0.0334    0.2611
          44   -0.1281    0.1324    0.0108   -0.0423    0.0040   -0.0198   -0.0597    0.2837
          45   -0.0826    0.2786    0.0271   -0.0381    0.0368   -0.0125    0.0282    0.2491
          46    0.0704   -0.0864    0.5274   -0.0257   -0.0094    0.0670   -0.0618    0.0499
          47    0.0185   -0.0714   -0.0180   -0.1199    0.1064   -0.0498    0.1711    0.0311
          48   -0.0169    0.1230   -0.2182    0.2153    0.0290    0.1128   -0.0336   -0.0354
          49    0.2932    0.1645   -0.3713    0.1742    0.0319    0.0483   -0.0717    0.0633
          50   -0.0971   -0.0209   -0.0359    0.1357    0.1025    0.1541    0.0143   -0.1422
          51   -0.0097    0.1267   -0.2342    0.2132    0.0321    0.1093   -0.0321   -0.0262
          52    0.1753    0.0396    0.0579    0.0756    0.0153    0.0524   -0.0510    0.0444
          53    0.1552    0.0310    0.0821    0.0464    0.0457    0.2017   -0.1646    0.1399
          54   -0.2055   -0.0953    0.5492    0.0315   -0.0035    0.1200   -0.0148   -0.0434


   Root No.       9        10        11        12        13        14        15        16

                 9 A      10 A      11 A      12 A      13 A      14 A      15 A      16 A   

                 836.4     867.4     907.0     978.5     998.2    1006.1    1027.4    1038.4
  
           1   -0.0714   -0.0083   -0.0353   -0.2746   -0.0322   -0.0947   -0.0768    0.0370
           2   -0.1178    0.0058   -0.0441    0.1160    0.1128    0.0258   -0.1322    0.3682
           3    0.1214   -0.0138   -0.2028    0.0051   -0.0414   -0.0615   -0.0074   -0.0051
           4   -0.2167    0.0689   -0.3390    0.3286    0.1246    0.1238   -0.0349    0.1131
           5    0.1001   -0.0166    0.0812   -0.0005   -0.0918    0.0652    0.3423    0.0868
           6    0.0277    0.2564   -0.1111   -0.0669    0.1343    0.0451    0.0236    0.0540
           7    0.0959    0.0166    0.0744    0.0616    0.0566   -0.0218   -0.2015   -0.3926
           8   -0.1192   -0.0634   -0.3148   -0.1835   -0.1035    0.0204    0.1143   -0.1804
           9   -0.0477   -0.2658   -0.0953   -0.0558    0.0572    0.1403   -0.0539    0.0512
          10    0.2312   -0.0418    0.1260   -0.1528    0.0517   -0.0480   -0.0309   -0.0386
          11    0.0134   -0.0103    0.0011   -0.0240    0.0081    0.0123   -0.0122    0.0062
          12   -0.1550    0.0263    0.2356    0.0675   -0.0884   -0.1005   -0.0088   -0.0089
          13    0.1116   -0.0115    0.1840   -0.0383   -0.0401   -0.0179    0.1096    0.4060
          14    0.1239    0.0097    0.1814   -0.0722    0.0423   -0.1078   -0.2985   -0.0296
          15   -0.1168    0.0090    0.0684    0.0425   -0.0500   -0.0414    0.0019    0.0016
          16    0.0746   -0.0276    0.0710    0.1449   -0.0241    0.0954    0.0433   -0.0234
          17    0.0140    0.0245    0.1458    0.0585    0.0225    0.0649    0.0443   -0.0293
          18   -0.0388    0.0059    0.1727   -0.0112    0.1371    0.2252    0.0694   -0.0754
          19   -0.1071   -0.1095   -0.0405   -0.1397   -0.3365   -0.0493    0.1732    0.0184
          20   -0.0666    0.1204   -0.0420    0.2566    0.1383   -0.1886   -0.2628    0.1761
          21   -0.0197    0.0014   -0.0763    0.0765   -0.1194   -0.1257   -0.0172    0.0361
          22   -0.0349    0.0093    0.0485   -0.1330    0.0241   -0.0596   -0.0170   -0.0303
          23   -0.2353    0.0572    0.0446   -0.3249    0.0573   -0.1376   -0.0334   -0.0696
          24    0.2979   -0.0337    0.0751   -0.2755    0.0820   -0.0889   -0.0398   -0.0768
          25   -0.2842    0.0343    0.0569    0.1083   -0.1285   -0.0806    0.0158   -0.0062
          26    0.2531   -0.0423   -0.0582    0.1982   -0.1858   -0.1252    0.0249   -0.0529
          27   -0.1114    0.0130    0.0504    0.1809   -0.1773   -0.1176    0.0212   -0.0233
          28    0.1671    0.2468   -0.1111   -0.0188   -0.1368    0.2363   -0.1776   -0.2229
          29   -0.0340   -0.2526   -0.3306   -0.1557   -0.1091    0.4079   -0.1509   -0.0932
          30    0.0634    0.1930    0.0249    0.0240   -0.0237   -0.0448    0.0131   -0.0221
          31    0.0132    0.2301   -0.3440    0.0796    0.4079    0.0072    0.2652   -0.0232
          32    0.0979   -0.2632   -0.0953    0.0656    0.1881   -0.0664    0.3437   -0.0925
          33    0.0040   -0.1917    0.0303    0.0232   -0.0453   -0.0202   -0.0012   -0.0172
          34   -0.1892   -0.1674    0.0008    0.2071   -0.3431    0.1361   -0.0821   -0.1057
          35   -0.0575    0.2829    0.0467    0.0384   -0.2342    0.1769    0.0409   -0.0822
          36   -0.0117   -0.1848    0.0103    0.0246   -0.0539   -0.0171   -0.0049   -0.0039
          37   -0.1147   -0.2646    0.0628    0.1059    0.1368   -0.1656    0.1583   -0.3614
          38   -0.0651    0.1978    0.0035    0.1230    0.0272   -0.3136    0.2771   -0.3319
          39    0.0485    0.1869    0.0039    0.0308   -0.0186   -0.0503    0.0085   -0.0083
          40   -0.1196   -0.2300    0.1372    0.0045    0.0305   -0.1163    0.1211    0.2072
          41   -0.0786    0.2502    0.1122    0.0320   -0.1060    0.0228   -0.1623   -0.1259
          42    0.1111   -0.0075   -0.0592   -0.0229    0.0260    0.0208   -0.0049    0.0112
          43    0.2059    0.1906   -0.0162   -0.1684   -0.1784    0.1140    0.2600    0.1657
          44    0.1418   -0.2111   -0.0049    0.0824    0.2482   -0.0916   -0.3189   -0.0517
          45    0.1265   -0.0079   -0.0540   -0.0216    0.0256    0.0218   -0.0034    0.0090
          46   -0.1031    0.0250   -0.0382   -0.1073    0.0173   -0.0650   -0.0252    0.0080
          47   -0.0279   -0.0003    0.3690    0.1431    0.1939    0.4217    0.1280   -0.0972
          48    0.0724   -0.0117   -0.0875    0.0096   -0.0729   -0.0984   -0.0194    0.0140
          49   -0.1237    0.0275   -0.0223   -0.1039    0.0217   -0.0487   -0.0191    0.0014
          50    0.3067   -0.0502   -0.1558    0.2021   -0.2373   -0.2193   -0.0293    0.0475
          51    0.0561   -0.0067   -0.0716    0.0045   -0.0640   -0.0942   -0.0177    0.0095
          52   -0.0870    0.0206   -0.0140   -0.0739    0.0136   -0.0354   -0.0121   -0.0019
          53   -0.2838    0.0849   -0.0642   -0.2955    0.0521   -0.1658   -0.0574    0.0075
          54    0.0850   -0.0123   -0.0794    0.0109   -0.0720   -0.1009   -0.0202    0.0121


   Root No.      17        18        19        20        21        22        23        24

                17 A      18 A      19 A      20 A      21 A      22 A      23 A      24 A   

                1058.4    1090.1    1117.5    1127.0    1129.9    1173.9    1182.2    1194.7
  
           1   -0.1521    0.1887    0.0141   -0.0315   -0.0392   -0.1933    0.1896   -0.1927
           2   -0.0730   -0.1373   -0.0331    0.0406    0.0330    0.2648   -0.2319   -0.1669
           3    0.0251   -0.0339   -0.0222   -0.0478    0.0177    0.1711    0.1709    0.3999
           4    0.0391   -0.1178   -0.0832    0.0063    0.0354    0.0403   -0.1647    0.2517
           5    0.2472   -0.0869    0.0517    0.0656   -0.0224    0.1425   -0.0841   -0.1551
           6    0.0500    0.2601   -0.2173   -0.0609   -0.1303    0.0529   -0.0455   -0.1771
           7   -0.0351   -0.0061    0.0561    0.0086   -0.0197   -0.0013    0.0840   -0.1831
           8   -0.0702    0.1729   -0.0512   -0.0776   -0.0091   -0.2540    0.1070    0.2250
           9   -0.1405   -0.2291   -0.1189   -0.0583   -0.1932   -0.0636    0.0503   -0.1833
          10    0.1799   -0.1933    0.0371   -0.2163    0.1293    0.0733   -0.0699   -0.0047
          11   -0.0440   -0.0368   -0.2418    0.2826    0.2360    0.1003    0.0801    0.0018
          12    0.0296   -0.0162    0.0387    0.0606   -0.1316   -0.2048   -0.3028   -0.1133
          13   -0.0106   -0.0098   -0.0629   -0.0143    0.0345    0.0352   -0.1096    0.1943
          14   -0.2354    0.1164   -0.0502   -0.0684    0.0180   -0.1830    0.1231    0.1654
          15   -0.0109    0.0442    0.3674    0.1153    0.2627   -0.0265   -0.0267    0.0989
          16   -0.1110    0.1208    0.0006    0.2677   -0.1621   -0.0138    0.0307    0.0408
          17    0.0309    0.0628    0.2507   -0.2959   -0.2391   -0.0688   -0.0782    0.0358
          18   -0.0181    0.0200   -0.0854   -0.0438    0.1747    0.0366    0.1365    0.0110
          19   -0.2706    0.2888    0.0627   -0.1001    0.0201    0.5272    0.0410   -0.1940
          20    0.1242   -0.1637    0.1994    0.0164   -0.1064    0.0233    0.5295   -0.2287
          21   -0.0301    0.0409    0.1200   -0.0549   -0.0391    0.3034    0.3251   -0.0310
          22    0.0697   -0.0608    0.0117    0.0982   -0.0260    0.0191   -0.0175    0.0038
          23    0.0824   -0.0584   -0.0658    0.6132   -0.1289    0.0381    0.0401    0.0382
          24    0.2231   -0.1961    0.0357    0.1161   -0.0279    0.0473   -0.0752    0.0333
          25   -0.0572    0.0639   -0.0296    0.0207    0.0149   -0.1602   -0.1102   -0.1496
          26    0.0090   -0.0423   -0.3022   -0.0489    0.5238   -0.1528    0.0609   -0.2369
          27   -0.0350    0.0403   -0.1046    0.0063    0.1348   -0.2282   -0.1243   -0.2019
          28    0.1824    0.1355    0.2845    0.1070    0.1636    0.1296   -0.1528   -0.1086
          29    0.0404    0.0032    0.1082    0.0350    0.0188   -0.0375   -0.1208   -0.0870
          30    0.0298    0.0314    0.0478    0.0089    0.0259    0.0340    0.0029    0.0044
          31   -0.0492    0.0759    0.0853    0.0387    0.0325   -0.1351    0.0049   -0.1165
          32   -0.0019   -0.1454    0.3358    0.1206    0.1235   -0.0927    0.0813   -0.1358
          33    0.0053   -0.0444    0.0564    0.0170    0.0231    0.0208    0.0199    0.0055
          34    0.2746   -0.1939   -0.0674   -0.0068   -0.0544   -0.0516    0.1746    0.2032
          35    0.3906    0.0049   -0.2176   -0.0227   -0.1942    0.0085    0.1363   -0.1420
          36   -0.0101   -0.0262    0.0371    0.0010    0.0261    0.0059    0.0219    0.0660
          37   -0.0725   -0.2007   -0.1884   -0.0775   -0.1956    0.1755   -0.0658   -0.1144
          38    0.0252    0.0434   -0.1024   -0.0616   -0.0202    0.1468   -0.0567    0.2362
          39    0.0168    0.0324    0.0284    0.0020    0.0303    0.0108    0.0180    0.0672
          40    0.3132    0.3464    0.1059    0.0416    0.1286   -0.1407    0.1055    0.1188
          41   -0.3796   -0.2851    0.1706    0.0280    0.1155    0.0619   -0.1208    0.1406
          42   -0.0057   -0.0042   -0.0515   -0.0146   -0.0415    0.0099    0.0013   -0.0478
          43   -0.1958   -0.2723   -0.1211   -0.0589   -0.1425   -0.1799    0.1704    0.0265
          44    0.1265    0.2763   -0.2222   -0.0679   -0.0596    0.1394   -0.1436    0.0542
          45   -0.0064   -0.0020   -0.0638   -0.0230   -0.0438   -0.0064    0.0053    0.0095
          46    0.0408   -0.0479   -0.0079   -0.0438    0.0566    0.0166    0.0011   -0.0148
          47   -0.0820    0.1280    0.0497   -0.0665   -0.0413    0.0069    0.1405    0.0412
          48    0.0059   -0.0079   -0.0070    0.0410   -0.0203   -0.0194   -0.0436   -0.0015
          49    0.0417   -0.0470   -0.0148   -0.0479    0.0654    0.0093   -0.0031   -0.0154
          50   -0.0308    0.0808    0.1912    0.0667   -0.3737   -0.1192   -0.1718   -0.0032
          51    0.0171   -0.0110    0.0194   -0.0092   -0.0272   -0.0309   -0.0419   -0.0183
          52    0.0334   -0.0276    0.0114   -0.0420    0.0124   -0.0041   -0.0103   -0.0060
          53    0.1950   -0.1564    0.1104   -0.4293    0.0865   -0.0291   -0.0853   -0.0427
          54    0.0127   -0.0089    0.0124    0.0300   -0.0407   -0.0288   -0.0495   -0.0096


   Root No.      25        26        27        28        29        30        31        32

                25 A      26 A      27 A      28 A      29 A      30 A      31 A      32 A   

                1238.7    1260.3    1280.0    1296.0    1375.6    1406.6    1410.4    1411.5
  
           1   -0.0840   -0.2563   -0.2064    0.3240    0.2000   -0.0355   -0.1050    0.0341
           2    0.2828   -0.0280    0.1845    0.0014    0.2343   -0.0179   -0.0894    0.0337
           3    0.0981   -0.1612   -0.0723    0.0330    0.1843   -0.0301   -0.1075    0.0389
           4   -0.1502   -0.1466    0.0492   -0.2948   -0.0651    0.0293    0.1843   -0.0019
           5   -0.1734   -0.3041   -0.2689   -0.1759   -0.0717   -0.0128   -0.0755   -0.0163
           6   -0.0166    0.0528    0.0263   -0.0208   -0.0352    0.0048    0.0188   -0.0061
           7    0.3570   -0.1105   -0.1119   -0.3059   -0.0479    0.0071    0.0007   -0.0150
           8    0.1023    0.0811   -0.2728   -0.1726   -0.0794    0.0164    0.1139   -0.0031
           9   -0.0693    0.0515    0.0021   -0.0180   -0.0356    0.0045    0.0187   -0.0079
          10    0.0659    0.0190    0.0564    0.0116   -0.0144    0.0331    0.0969   -0.0207
          11    0.1765   -0.2171    0.0133    0.2778   -0.1954   -0.0240    0.0256    0.0029
          12    0.0938   -0.0768    0.0325    0.1350    0.0064    0.0648    0.1476   -0.0251
          13   -0.1425    0.3197   -0.2365    0.2147   -0.0040   -0.0275   -0.2009    0.0029
          14   -0.0253   -0.0130    0.4473   -0.0399    0.0109   -0.0203   -0.1733    0.0027
          15    0.0180   -0.0194   -0.0045    0.0062    0.0114   -0.0025   -0.0096    0.0019
          16   -0.0274    0.0151   -0.0119   -0.0189    0.0499   -0.1736    0.0156   -0.1758
          17   -0.0351    0.0215   -0.0105   -0.0097   -0.2799    0.0199    0.0179   -0.0720
          18   -0.0648    0.0362   -0.0198   -0.0429    0.0276    0.1719   -0.0499   -0.1692
          19    0.0864    0.2107    0.1432   -0.1281   -0.0755    0.0082    0.0565   -0.0157
          20   -0.2804    0.0246   -0.0721    0.0509   -0.1138   -0.0097    0.0371   -0.0214
          21   -0.0893    0.1050    0.0182   -0.0689   -0.0954   -0.0014    0.0380   -0.0147
          22   -0.0397    0.0793    0.0203   -0.0791    0.0652    0.0210    0.0368   -0.0080
          23   -0.1515    0.2018    0.0213   -0.2206    0.2057    0.0447    0.0526   -0.0030
          24   -0.0507    0.2088    0.0872   -0.1922   -0.3277   -0.0804   -0.1729   -0.0083
          25   -0.0559    0.0783    0.0161   -0.0516   -0.3067   -0.0954   -0.1756   -0.0041
[...]
 REDUCED MASS        0.3842         C  4 -- C  6          +5.0% ( 19.6%)      4.6%
 EFFECTIVE MASS      1.6234
 FORCE CONSTANT      0.4479

 VIBRATION         31   31A           ATOM PAIR      ENERGY CONTRIBUTION    RADIAL
 FREQUENCY          1410.42         C  5 -- H 15         +18.7% ( 47.7%)      3.7%
 TRANSITION DIPOLE   0.0183         C  5 -- H 14         +18.3% ( 47.2%)      4.1%
 TRAVEL (Ang.)       0.4417         C  2 -- H 12          +8.5% ( 32.3%)      2.8%
 REDUCED MASS        0.2451         C  2 -- H 11          +7.0% ( 29.2%)      5.6%
 EFFECTIVE MASS      2.8323
 FORCE CONSTANT      0.2873

 VIBRATION         32   32A           ATOM PAIR      ENERGY CONTRIBUTION    RADIAL
 FREQUENCY          1411.52         C  6 -- H 17         +48.8% ( 61.0%)      0.1%
 TRANSITION DIPOLE   0.0462         C  6 -- H 18         +26.7% ( 45.2%)      4.1%
 TRAVEL (Ang.)       0.3474         C  6 -- H 16         +16.8% ( 35.8%)     20.8%
 REDUCED MASS        0.3959         C  4 -- C  6          +5.0% ( 19.5%)      8.1%
 EFFECTIVE MASS      1.6156
 FORCE CONSTANT      0.4647

 VIBRATION         33   33A           ATOM PAIR      ENERGY CONTRIBUTION    RADIAL
 FREQUENCY          1413.39         C  3 -- H 10         +24.2% ( 52.8%)      3.4%
 TRANSITION DIPOLE   0.0221         C  3 -- H 13         +23.3% ( 51.9%)      4.1%
 TRAVEL (Ang.)       0.4010         C  1 -- C  3          +6.1% ( 26.6%)     15.3%
 REDUCED MASS        0.2966         C  3 -- C  5          +5.8% ( 25.8%)     28.6%
 EFFECTIVE MASS      2.5887
 FORCE CONSTANT      0.3491

 VIBRATION         34   34A           ATOM PAIR      ENERGY CONTRIBUTION    RADIAL
 FREQUENCY          1418.25         C  4 -- H  9         +16.5% ( 46.5%)      4.4%
 TRANSITION DIPOLE   0.0209         C  4 -- H  8         +15.1% ( 44.5%)      5.6%
 TRAVEL (Ang.)       0.3526         C  1 -- C  4         +12.9% ( 41.1%)     96.6%
 REDUCED MASS        0.3825         C  2 -- H 11         +10.6% ( 37.3%)      2.3%
 EFFECTIVE MASS      3.5541
 FORCE CONSTANT      0.4533

 VIBRATION         35   35A           ATOM PAIR      ENERGY CONTRIBUTION    RADIAL
 FREQUENCY          1429.90         C  4 -- C  6         +18.1% ( 56.8%)     96.4%
 TRANSITION DIPOLE   0.0247         C  6 -- H 17         +11.3% ( 45.0%)      3.5%
 TRAVEL (Ang.)       0.2238         C  6 -- H 18         +11.1% ( 44.4%)      2.9%
 REDUCED MASS        0.9419         C  1 -- C  4         +10.5% ( 43.2%)     58.1%
 EFFECTIVE MASS      5.8410
 FORCE CONSTANT      1.1346

 VIBRATION         36   36A           ATOM PAIR      ENERGY CONTRIBUTION    RADIAL
 FREQUENCY          1457.64         C  1 -- C  4          +8.9% ( 42.0%)     81.7%
 TRANSITION DIPOLE   0.0156         C  1 -- C  5          +8.8% ( 41.8%)     93.7%
 TRAVEL (Ang.)       0.2839         C  1 -- C  3          +8.0% ( 39.7%)     84.2%
 REDUCED MASS        0.5739         C  1 -- C  2          +7.5% ( 38.6%)     79.8%
 EFFECTIVE MASS      6.0112
 FORCE CONSTANT      0.7184

 VIBRATION         37   37A           ATOM PAIR      ENERGY CONTRIBUTION    RADIAL
 FREQUENCY          2947.17         C  1 -- H  7         +45.9% ( 70.0%)    100.0%
 TRANSITION DIPOLE   0.0516         C  4 -- H  9         +26.9% ( 53.6%)     96.8%
 TRAVEL (Ang.)       0.2537         C  4 -- H  8         +23.3% ( 49.9%)     96.0%
 REDUCED MASS        0.3555         C  1 -- C  4          +1.2% ( 11.4%)      3.1%
 EFFECTIVE MASS      1.5040
 FORCE CONSTANT      1.8195

 VIBRATION         38   38A           ATOM PAIR      ENERGY CONTRIBUTION    RADIAL
 FREQUENCY          2956.11         C  1 -- H  7         +47.5% ( 70.9%)    100.0%
 TRANSITION DIPOLE   0.0498         C  4 -- H  9         +25.1% ( 51.5%)     96.8%
 TRAVEL (Ang.)       0.2515         C  4 -- H  8         +23.6% ( 50.0%)     96.4%
 REDUCED MASS        0.3607         C  1 -- C  4          +1.0% ( 10.2%)     18.1%
 EFFECTIVE MASS      1.4877
 FORCE CONSTANT      1.8570

 VIBRATION         39   39A           ATOM PAIR      ENERGY CONTRIBUTION    RADIAL
 FREQUENCY          3028.35         C  5 -- H 15         +22.2% ( 49.3%)     96.6%
 TRANSITION DIPOLE   0.0316         C  5 -- H 14         +22.2% ( 49.3%)     96.6%
 TRAVEL (Ang.)       0.3458         C  2 -- H 12         +17.7% ( 44.1%)     97.5%
 REDUCED MASS        0.1862         C  2 -- H 11         +13.1% ( 37.8%)     95.6%
 EFFECTIVE MASS      1.5575         C  3 -- H 13         +11.1% ( 34.8%)     97.3%
 FORCE CONSTANT      1.0059

 VIBRATION         40   40A           ATOM PAIR      ENERGY CONTRIBUTION    RADIAL
 FREQUENCY          3031.56         C  4 -- H  8         +50.5% ( 70.1%)     98.0%
 TRANSITION DIPOLE   0.0174         C  4 -- H  9         +45.1% ( 66.2%)     97.4%
 TRAVEL (Ang.)       0.2204         C  3 -- H 13          +0.7% (  8.5%)     96.5%
 REDUCED MASS        0.4580         C  3 -- H 10          +0.7% (  8.3%)     96.8%
 EFFECTIVE MASS      1.2808
 FORCE CONSTANT      2.4801

 VIBRATION         41   41A           ATOM PAIR      ENERGY CONTRIBUTION    RADIAL
 FREQUENCY          3036.07         C  3 -- H 13         +28.3% ( 55.4%)     97.5%
 TRANSITION DIPOLE   0.0161         C  2 -- H 12         +26.4% ( 53.5%)     97.7%
 TRAVEL (Ang.)       0.2943         C  3 -- H 10         +21.5% ( 48.3%)     96.0%
 REDUCED MASS        0.2563         C  2 -- H 11         +19.0% ( 45.4%)     95.8%
 EFFECTIVE MASS      1.5357
 FORCE CONSTANT      1.3922

 VIBRATION         42   42A           ATOM PAIR      ENERGY CONTRIBUTION    RADIAL
 FREQUENCY          3048.93         C  5 -- H 15         +25.5% ( 52.4%)     97.0%
 TRANSITION DIPOLE   0.0939         C  5 -- H 14         +25.4% ( 52.3%)     97.0%
 TRAVEL (Ang.)       0.3298         C  3 -- H 13         +14.8% ( 39.9%)     97.8%
 REDUCED MASS        0.2033         C  2 -- H 12         +12.0% ( 35.9%)     98.0%
 EFFECTIVE MASS      1.5285         C  3 -- H 10         +10.7% ( 34.0%)     96.0%
 FORCE CONSTANT      1.1134

 VIBRATION         43   43A           ATOM PAIR      ENERGY CONTRIBUTION    RADIAL
 FREQUENCY          3076.80         C  6 -- H 18         +57.4% ( 78.2%)     98.1%
 TRANSITION DIPOLE   0.0085         C  6 -- H 17         +39.4% ( 64.7%)     95.4%
 TRAVEL (Ang.)       0.2068         C  6 -- H 16          +1.9% ( 14.1%)     21.2%
 REDUCED MASS        0.5125         C  4 -- C  6          +1.0% ( 10.2%)      0.0%
 EFFECTIVE MASS      1.5013
 FORCE CONSTANT      2.8584

 VIBRATION         44   44A           ATOM PAIR      ENERGY CONTRIBUTION    RADIAL
 FREQUENCY          3084.32         C  6 -- H 16         +60.1% ( 80.0%)     98.6%
 TRANSITION DIPOLE   0.0040         C  6 -- H 17         +27.1% ( 53.7%)     91.2%
 TRAVEL (Ang.)       0.2143         C  6 -- H 18         +11.3% ( 34.6%)     76.1%
 REDUCED MASS        0.4760         C  4 -- C  6          +1.0% ( 10.3%)      0.0%
 EFFECTIVE MASS      1.5035
 FORCE CONSTANT      2.6682

 VIBRATION         45   45A           ATOM PAIR      ENERGY CONTRIBUTION    RADIAL
 FREQUENCY          3103.75         C  2 -- H 11         +36.6% ( 59.9%)     98.2%
 TRANSITION DIPOLE   0.0943         C  2 -- H 12         +25.4% ( 49.9%)     95.9%
 TRAVEL (Ang.)       0.2865         C  3 -- H 10         +20.7% ( 45.1%)     98.2%
 REDUCED MASS        0.2647         C  3 -- H 13         +15.4% ( 38.9%)     96.3%
 EFFECTIVE MASS      1.2642
 FORCE CONSTANT      1.5021

 VIBRATION         46   46A           ATOM PAIR      ENERGY CONTRIBUTION    RADIAL
 FREQUENCY          3106.18         C  3 -- H 10         +30.3% ( 54.6%)     97.9%
 TRANSITION DIPOLE   0.0239         C  3 -- H 13         +22.3% ( 46.9%)     95.9%
 TRAVEL (Ang.)       0.3293         C  2 -- H 11         +17.1% ( 41.1%)     98.0%
 REDUCED MASS        0.2002         C  2 -- H 12         +11.8% ( 34.1%)     95.5%
 EFFECTIVE MASS      1.2980
 FORCE CONSTANT      1.1380

 VIBRATION         47   47A           ATOM PAIR      ENERGY CONTRIBUTION    RADIAL
 FREQUENCY          3109.16         C  5 -- H 14         +41.3% ( 63.7%)     97.3%
 TRANSITION DIPOLE   0.0564         C  5 -- H 15         +40.3% ( 62.9%)     97.2%
 TRAVEL (Ang.)       0.2512         C  3 -- H 10          +5.3% ( 22.8%)     98.0%
 REDUCED MASS        0.3438         C  2 -- H 11          +4.1% ( 20.2%)     98.1%
 EFFECTIVE MASS      1.2925
 FORCE CONSTANT      1.9582

 VIBRATION         48   48A           ATOM PAIR      ENERGY CONTRIBUTION    RADIAL
 FREQUENCY          3179.60         C  6 -- H 16         +37.4% ( 58.8%)     97.7%
 TRANSITION DIPOLE   0.0101         C  6 -- H 17         +32.5% ( 54.9%)     97.0%
 TRAVEL (Ang.)       0.2538         C  6 -- H 18         +29.8% ( 52.5%)     96.5%
 REDUCED MASS        0.3293         C  4 -- C  6          +0.3% (  5.1%)     99.3%
 EFFECTIVE MASS      1.1368
 FORCE CONSTANT      1.9616

      SYMMETRY NUMBER FOR POINT-GROUP C1  =  1


          SYSTEM IS A GROUND STATE



 InChI=1S/C6H12/c1-2-6-4-3-5-6/h6H,2-5H2,1H3


          MOLECULE IS NOT LINEAR

          THERE ARE 48 GENUINE VIBRATIONS IN THIS SYSTEM
          THIS THERMODYNAMICS CALCULATION IS LIMITED TO
          MOLECULES WHICH HAVE NO INTERNAL ROTATIONS




                    CALCULATED THERMODYNAMIC PROPERTIES
                                          *
   TEMP. (K)   PARTITION FUNCTION   H.O.F.    ENTHALPY  HEAT CAPACITY ENTROPY
                                   KCAL/MOL   CAL/MOLE    CAL/K/MOL  CAL/K/MOL


 298.00  VIB.     0.2098D+02                  2410.5087    18.6040    14.1369
         ROT.     0.1482D+06                   888.2803     2.9808    26.6409
         INT.     0.3109D+07                  3298.7890    21.5848    40.7778
         TRA.     0.7464D+27                  1480.4672     4.9680    39.2018
         TOT.                      -15.866    4779.2562    26.5528    79.9796

 200.00  VIB.     0.5815D+01                  1005.2582    10.5900     8.5246
         ROT.     0.8148D+05                   596.1613     2.9808    25.4523
         INT.     0.4738D+06                  1601.4195    13.5709    33.9769
         TRA.     0.4104D+27                   993.6021     4.9680    37.2206
         TOT.                      -18.050    2595.0216    18.5389    71.1975

 210.00  VIB.     0.6601D+01                  1114.4369    11.2523     9.0572
         ROT.     0.8766D+05                   625.9693     2.9808    25.5977
         INT.     0.5787D+06                  1740.4062    14.2331    34.6549
         TRA.     0.4416D+27                  1043.2822     4.9680    37.4630
         TOT.                      -17.862    2783.6884    19.2011    72.1179

 220.00  VIB.     0.7499D+01                  1230.4376    11.9545     9.5967
         ROT.     0.9400D+05                   655.7774     2.9808    25.7364
         INT.     0.7049D+06                  1886.2150    14.9353    35.3331
         TRA.     0.4735D+27                  1092.9623     4.9680    37.6941
         TOT.                      -17.666    2979.1773    19.9033    73.0272

 230.00  VIB.     0.8526D+01                  1353.6581    12.6961    10.1443
         ROT.     0.1005D+06                   685.5855     2.9808    25.8689
         INT.     0.8567D+06                  2039.2436    15.6769    36.0132
         TRA.     0.5061D+27                  1142.6424     4.9680    37.9150
         TOT.                      -17.463    3181.8860    20.6449    73.9281

 240.00  VIB.     0.9702D+01                  1484.4868    13.4758    10.7010
         ROT.     0.1071D+06                   715.3935     2.9808    25.9957
         INT.     0.1039D+07                  2199.8803    16.4566    36.6967
         TRA.     0.5395D+27                  1192.3226     4.9680    38.1264
         TOT.                      -17.253    3392.2029    21.4246    74.8231

 250.00  VIB.     0.1105D+02                  1623.2933    14.2913    11.2675
         ROT.     0.1139D+06                   745.2016     2.9808    26.1174
         INT.     0.1258D+07                  2368.4949    17.2721    37.3849
         TRA.     0.5736D+27                  1242.0027     4.9680    38.3292
         TOT.                      -17.035    3610.4976    22.2401    75.7141

 260.00  VIB.     0.1260D+02                  1770.4220    15.1397    11.8445
         ROT.     0.1208D+06                   775.0097     2.9808    26.2343
         INT.     0.1522D+07                  2545.4317    18.1205    38.0788
         TRA.     0.6083D+27                  1291.6828     4.9680    38.5241
         TOT.                      -16.808    3837.1144    23.0885    76.6028

 270.00  VIB.     0.1438D+02                  1926.1865    16.0179    12.4322
         ROT.     0.1278D+06                   804.8177     2.9808    26.3468
         INT.     0.1838D+07                  2731.0042    18.9987    38.7790
         TRA.     0.6437D+27                  1341.3629     4.9680    38.7115
         TOT.                      -16.573    4072.3671    23.9667    77.4906

 280.00  VIB.     0.1644D+02                  2090.8662    16.9221    13.0310
         ROT.     0.1350D+06                   834.6258     2.9808    26.4552
         INT.     0.2219D+07                  2925.4920    19.9030    39.4862
         TRA.     0.6798D+27                  1391.0430     4.9680    38.8922
         TOT.                      -16.329    4316.5350    24.8710    78.3785

 290.00  VIB.     0.1881D+02                  2264.7044    17.8489    13.6409
         ROT.     0.1423D+06                   864.4339     2.9808    26.5598
         INT.     0.2676D+07                  3129.1382    20.8297    40.2008
         TRA.     0.7166D+27                  1440.7231     4.9680    39.0666
         TOT.                      -16.075    4569.8613    25.7977    79.2673

 300.00  VIB.     0.2156D+02                  2447.9071    18.7944    14.2619
         ROT.     0.1497D+06                   894.2419     2.9808    26.6609
         INT.     0.3227D+07                  3342.1490    21.7752    40.9228
         TRA.     0.7540D+27                  1490.4032     4.9680    39.2350
         TOT.                      -15.813    4832.5522    26.7433    80.1578

 310.00  VIB.     0.2474D+02                  2640.6434    19.7550    14.8938
         ROT.     0.1572D+06                   924.0500     2.9808    26.7586
         INT.     0.3890D+07                  3564.6934    22.7358    41.6525
         TRA.     0.7920D+27                  1540.0833     4.9680    39.3979
         TOT.                      -15.540    5104.7767    27.7039    81.0503

 320.00  VIB.     0.2843D+02                  2843.0464    20.7272    15.5364
         ROT.     0.1649D+06                   953.8580     2.9808    26.8533
         INT.     0.4688D+07                  3796.9045    23.7080    42.3896
         TRA.     0.8306D+27                  1589.7634     4.9680    39.5556
         TOT.                      -15.259    5386.6679    28.6760    81.9452

 330.00  VIB.     0.3271D+02                  3055.2148    21.7076    16.1892
         ROT.     0.1727D+06                   983.6661     2.9808    26.9450
         INT.     0.5649D+07                  4038.8809    24.6884    43.1341
         TRA.     0.8698D+27                  1639.4435     4.9680    39.7085
         TOT.                      -14.967    5678.3245    29.6564    82.8426

 340.00  VIB.     0.3770D+02                  3277.2148    22.6930    16.8518
         ROT.     0.1806D+06                  1013.4742     2.9808    27.0340
         INT.     0.6809D+07                  4290.6890    25.6738    43.8858
         TRA.     0.9097D+27                  1689.1236     4.9680    39.8568
         TOT.                      -14.665    5979.8126    30.6418    83.7426

 350.00  VIB.     0.4351D+02                  3509.0825    23.6806    17.5239
         ROT.     0.1886D+06                  1043.2822     2.9808    27.1204
         INT.     0.8208D+07                  4552.3647    26.6614    44.6443
         TRA.     0.9501D+27                  1738.8037     4.9680    40.0008
         TOT.                      -14.354    6291.1684    31.6295    84.6451

 360.00  VIB.     0.5030D+02                  3750.8262    24.6678    18.2048
         ROT.     0.1968D+06                  1073.0903     2.9808    27.2044
         INT.     0.9897D+07                  4823.9165    27.6486    45.4092
         TRA.     0.9911D+27                  1788.4838     4.9680    40.1408
         TOT.                      -14.033    6612.4003    32.6166    85.5499

 370.00  VIB.     0.5823D+02                  4002.4293    25.6522    18.8941
         ROT.     0.2050D+06                  1102.8984     2.9808    27.2860
         INT.     0.1194D+08                  5105.3277    28.6330    46.1801
         TRA.     0.1033D+28                  1838.1639     4.9680    40.2769
         TOT.                      -13.702    6943.4916    33.6010    86.4570

 380.00  VIB.     0.6751D+02                  4263.8528    26.6316    19.5912
         ROT.     0.2134D+06                  1132.7064     2.9808    27.3655
         INT.     0.1441D+08                  5396.5592    29.6124    46.9568
         TRA.     0.1075D+28                  1887.8440     4.9680    40.4094
         TOT.                      -13.361    7284.4033    34.5804    87.3661

 390.00  VIB.     0.7838D+02                  4535.0378    27.6042    20.2956
         ROT.     0.2219D+06                  1162.5145     2.9808    27.4429
         INT.     0.1739D+08                  5697.5522    30.5850    47.7385
         TRA.     0.1118D+28                  1937.5242     4.9680    40.5384
         TOT.                      -13.010    7635.0764    35.5530    88.2770

 400.00  VIB.     0.9113D+02                  4815.9078    28.5683    21.0066
         ROT.     0.2305D+06                  1192.3226     2.9808    27.5184
         INT.     0.2100D+08                  6008.2304    31.5491    48.5251
         TRA.     0.1161D+28                  1987.2043     4.9680    40.6642
         TOT.                      -12.650    7995.4346    36.5171    89.1893

   *: NOTE: HEATS OF FORMATION ARE RELATIVE TO THE
            ELEMENTS IN THEIR STANDARD STATE AT 298K
              (=  Standard Enthalpy of Formation).

            Hvib:  Zero-point energy is not included.
                   frequencies of less than zero cm-1 are not included.
            Hrot = (3/2)RT
            Htra = (3/2)RT + pV = (5/2)RT

            Heat capacity is Cp, not Cv

          For more information, see: HTTP://OpenMOPAC.net/Manual/thermochemistry.html


           FORCE CONSTANT IN CARTESIAN COORDINATES (Millidynes/A)

    ATOM   CHEMICAL       X               Y               Z
   NUMBER   SYMBOL  FORCE CONSTANT  FORCE CONSTANT  FORCE CONSTANT

      1       C        7.974950        8.147483        8.636290
      2       C        7.785297        8.092316        8.592680
      3       C        8.051774        7.844476        8.596568
      4       C        8.319003        8.492808        8.301205
      5       C        8.070868        8.041840        8.543084
      6       C        8.231413        8.317505        8.344960
      7       H        1.346985        1.349113        3.563104
      8       H        4.609751        1.070629        0.695534
      9       H        1.566931        1.189967        3.637399
     10       H        1.499546        1.470250        3.666520
     11       H        1.454989        1.512254        3.668270
     12       H        1.475118        1.430588        3.713078
     13       H        1.413616        1.488786        3.719487
     14       H        1.434956        1.422055        3.771924
     15       H        1.507189        1.492839        3.627501
     16       H        1.569260        1.415180        3.807770
     17       H        1.703373        1.309976        3.766268
     18       H        4.936710        1.147248        0.671702

 **********************
 *                    *
 * JOB ENDED NORMALLY *
 *                    *
 **********************



 TOTAL JOB TIME:             1.42 SECONDS

 == MOPAC DONE ==
