 *******************************************************************************
 **                                                                           **
 **                              MOPAC v23.1.2                                **
 **                                                                           **
 *******************************************************************************
 **          Digital Object Identifier (DOI): 10.5281/zenodo.6511958          **
 **    Visit the DOI location for information on how to cite this program.    **
 *******************************************************************************

                              PM3 CALCULATION RESULTS

 *******************************************************************************
 *  CALCULATION DONE: (MAX THREADS = 1)              Tue Jun  3 16:28:46 2025  *
 *  PM3        - The PM3 Hamiltonian to be used
 *  PRECISE    - TIGHTER CRITERIA TO BE USED
 *  NOSYM      - POINT-GROUP SYMMETRY SET TO C1
 *  THREADS=1  - MULTI-THREADING NOT USED
 *  T=         - A TIME OF 172800.0 SECONDS REQUESTED
 *  DUMP=N     - RESTART FILE WRITTEN EVERY 7200.0 SECONDS REQUESTED
 *******************************************************************************
pm3  precise nosym THREADS=1
 InChI=1S/C6H10/c1-6-4-2-3-5-6/h1-5H2

   ATOM   CHEMICAL          X               Y               Z
  NUMBER   SYMBOL      (ANGSTROMS)     (ANGSTROMS)     (ANGSTROMS)

     1       C         -1.44730000  *   0.50890000  *   0.18760000  *
     2       C         -1.11840000  *  -0.96020000  *   0.46480000  *
     3       C         -0.23600000  *   1.10370000  *  -0.52230000  *
     4       C          0.40200000  *  -1.07450000  *   0.48010000  *
     5       C          0.86600000  *   0.15230000  *  -0.22020000  *
     6       C          2.14320000  *   0.37700000  *  -0.54490000  *
     7       H         -2.36490000  *   0.60540000  *  -0.43250000  *
     8       H         -1.60760000  *   1.03760000  *   1.15330000  *
     9       H         -1.52920000  *  -1.58940000  *  -0.35570000  *
    10       H         -1.55700000  *  -1.29530000  *   1.42970000  *
    11       H         -0.00710000  *   2.11800000  *  -0.12880000  *
    12       H         -0.40450000  *   1.14680000  *  -1.62020000  *
    13       H          0.78640000  *  -1.07960000  *   1.52310000  *
    14       H          0.73410000  *  -1.99010000  *  -0.05600000  *
    15       H          2.91070000  *  -0.35080000  *  -0.30060000  *
    16       H          2.42970000  *   1.29020000  *  -1.05730000  *



          CARTESIAN COORDINATES 

    NO.       ATOM           X           Y           Z

     1         C         -1.4473      0.5089      0.1876
     2         C         -1.1184     -0.9602      0.4648
     3         C         -0.2360      1.1037     -0.5223
     4         C          0.4020     -1.0745      0.4801
     5         C          0.8660      0.1523     -0.2202
     6         C          2.1432      0.3770     -0.5449
     7         H         -2.3649      0.6054     -0.4325
     8         H         -1.6076      1.0376      1.1533
     9         H         -1.5292     -1.5894     -0.3557
    10         H         -1.5570     -1.2953      1.4297
    11         H         -0.0071      2.1180     -0.1288
    12         H         -0.4045      1.1468     -1.6202
    13         H          0.7864     -1.0796      1.5231
    14         H          0.7341     -1.9901     -0.0560
    15         H          2.9107     -0.3508     -0.3006
    16         H          2.4297      1.2902     -1.0573

  H: (PM3): J. J. P. STEWART, J. COMP. CHEM. 10, 209 (1989).
  C: (PM3): J. J. P. STEWART, J. COMP. CHEM. 10, 209 (1989).

           Empirical Formula: C6 H10  =    16 atoms



      MOLECULAR POINT GROUP   :   C1  


      RHF CALCULATION, NO. OF DOUBLY OCCUPIED LEVELS = 17


          Geometry optimization using EF

          DIAGONAL MATRIX USED AS START HESSIAN

 CYCLE:     1 TIME:   0.008 TIME LEFT:  2.00D  GRAD.:    47.010 HEAT: -2.348968
 CYCLE:     2 TIME:   0.008 TIME LEFT:  2.00D  GRAD.:    48.094 HEAT: -2.822225
 CYCLE:     3 TIME:   0.004 TIME LEFT:  2.00D  GRAD.:    17.277 HEAT: -3.408825
 CYCLE:     4 TIME:   0.008 TIME LEFT:  2.00D  GRAD.:    32.819 HEAT: -3.502635
 CYCLE:     5 TIME:   0.004 TIME LEFT:  2.00D  GRAD.:    28.305 HEAT: -3.682703
 CYCLE:     6 TIME:   0.004 TIME LEFT:  2.00D  GRAD.:    16.650 HEAT: -3.903053
 CYCLE:     7 TIME:   0.008 TIME LEFT:  2.00D  GRAD.:    19.495 HEAT: -3.916530
 CYCLE:     8 TIME:   0.008 TIME LEFT:  2.00D  GRAD.:    18.859 HEAT: -3.976534
 CYCLE:     9 TIME:   0.004 TIME LEFT:  2.00D  GRAD.:    11.294 HEAT: -4.056215
 CYCLE:    10 TIME:   0.008 TIME LEFT:  2.00D  GRAD.:     4.750 HEAT: -4.091631
 CYCLE:    11 TIME:   0.004 TIME LEFT:  2.00D  GRAD.:     6.853 HEAT: -4.099491
 CYCLE:    12 TIME:   0.004 TIME LEFT:  2.00D  GRAD.:     7.457 HEAT: -4.105929
 CYCLE:    13 TIME:   0.008 TIME LEFT:  2.00D  GRAD.:     6.742 HEAT: -4.112264
 CYCLE:    14 TIME:   0.004 TIME LEFT:  2.00D  GRAD.:     7.901 HEAT: -4.113205
 CYCLE:    15 TIME:   0.004 TIME LEFT:  2.00D  GRAD.:     5.928 HEAT: -4.121198
 CYCLE:    16 TIME:   0.004 TIME LEFT:  2.00D  GRAD.:     4.717 HEAT: -4.127917
 CYCLE:    17 TIME:   0.004 TIME LEFT:  2.00D  GRAD.:     4.067 HEAT: -4.129097
 CYCLE:    18 TIME:   0.004 TIME LEFT:  2.00D  GRAD.:     1.747 HEAT: -4.134324
 CYCLE:    19 TIME:   0.004 TIME LEFT:  2.00D  GRAD.:     1.723 HEAT: -4.134677
 CYCLE:    20 TIME:   0.008 TIME LEFT:  2.00D  GRAD.:     0.825 HEAT: -4.136019
 CYCLE:    21 TIME:   0.004 TIME LEFT:  2.00D  GRAD.:     0.850 HEAT: -4.136632
 CYCLE:    22 TIME:   0.004 TIME LEFT:  2.00D  GRAD.:     1.192 HEAT: -4.137598
 CYCLE:    23 TIME:   0.008 TIME LEFT:  2.00D  GRAD.:     1.250 HEAT: -4.139257
 CYCLE:    24 TIME:   0.004 TIME LEFT:  2.00D  GRAD.:     0.933 HEAT: -4.140092
 CYCLE:    25 TIME:   0.004 TIME LEFT:  2.00D  GRAD.:     1.037 HEAT: -4.140953
 CYCLE:    26 TIME:   0.004 TIME LEFT:  2.00D  GRAD.:     0.962 HEAT: -4.142231
 CYCLE:    27 TIME:   0.004 TIME LEFT:  2.00D  GRAD.:     0.807 HEAT: -4.144293
 CYCLE:    28 TIME:   0.004 TIME LEFT:  2.00D  GRAD.:     0.845 HEAT: -4.146029
 CYCLE:    29 TIME:   0.008 TIME LEFT:  2.00D  GRAD.:     0.940 HEAT: -4.148293
 CYCLE:    30 TIME:   0.008 TIME LEFT:  2.00D  GRAD.:     0.880 HEAT: -4.149946
 CYCLE:    31 TIME:   0.004 TIME LEFT:  2.00D  GRAD.:     0.760 HEAT: -4.151376
 CYCLE:    32 TIME:   0.004 TIME LEFT:  2.00D  GRAD.:     0.694 HEAT: -4.152340
 CYCLE:    33 TIME:   0.012 TIME LEFT:  2.00D  GRAD.:     0.545 HEAT: -4.153263
 CYCLE:    34 TIME:   0.004 TIME LEFT:  2.00D  GRAD.:     0.495 HEAT: -4.153894
 CYCLE:    35 TIME:   0.012 TIME LEFT:  2.00D  GRAD.:     0.495 HEAT: -4.154532
 CYCLE:    36 TIME:   0.004 TIME LEFT:  2.00D  GRAD.:     0.512 HEAT: -4.155195
 CYCLE:    37 TIME:   0.008 TIME LEFT:  2.00D  GRAD.:     0.435 HEAT: -4.155686
 CYCLE:    38 TIME:   0.004 TIME LEFT:  2.00D  GRAD.:     0.340 HEAT: -4.155975
 CYCLE:    39 TIME:   0.004 TIME LEFT:  2.00D  GRAD.:     0.303 HEAT: -4.156201
 CYCLE:    40 TIME:   0.004 TIME LEFT:  2.00D  GRAD.:     0.275 HEAT: -4.156405
 CYCLE:    41 TIME:   0.008 TIME LEFT:  2.00D  GRAD.:     0.218 HEAT: -4.156552
 CYCLE:    42 TIME:   0.004 TIME LEFT:  2.00D  GRAD.:     0.156 HEAT: -4.156633
 CYCLE:    43 TIME:   0.004 TIME LEFT:  2.00D  GRAD.:     0.117 HEAT: -4.156677
 CYCLE:    44 TIME:   0.008 TIME LEFT:  2.00D  GRAD.:     0.104 HEAT: -4.156698
 CYCLE:    45 TIME:   0.004 TIME LEFT:  2.00D  GRAD.:     0.069 HEAT: -4.156716
 CYCLE:    46 TIME:   0.004 TIME LEFT:  2.00D  GRAD.:     0.041 HEAT: -4.156722

     GRADIENT =  0.04086 IS LESS THAN CUTOFF =  0.05000



 -------------------------------------------------------------------------------
 pm3  precise nosym THREADS=1
 InChI=1S/C6H10/c1-6-4-2-3-5-6/h1-5H2



     GEOMETRY OPTIMISED USING EIGENVECTOR FOLLOWING (EF).     
     SCF FIELD WAS ACHIEVED                                   


                              PM3 CALCULATION
                                                       MOPAC v23.1.2 MacOS
                                                       Tue Jun  3 16:28:47 2025




          FINAL HEAT OF FORMATION =         -4.15672 KCAL/MOL =     -17.39172 KJ/MOL


          COSMO AREA              =        133.47 SQUARE ANGSTROMS
          COSMO VOLUME            =        124.03 CUBIC ANGSTROMS

          GRADIENT NORM           =          0.04086          =       0.01022 PER ATOM
          IONIZATION POTENTIAL    =          9.697822 EV
          HOMO LUMO ENERGIES (EV) =         -9.698  1.160
          NO. OF FILLED LEVELS    =         17
          MOLECULAR WEIGHT        =         82.1450         POINT GROUP:  C1  

          MOLECULAR DIMENSIONS (Angstroms)

            Atom       Atom       Distance
            H    15    H     7     5.40273
            H    16    H    10     4.12273
            H     9    H     8     2.72551


          SCF CALCULATIONS        =         52

          WALL-CLOCK TIME         =      0.262 SECONDS
          COMPUTATION TIME        =      0.124 SECONDS




   ATOM   CHEMICAL          X               Y               Z
  NUMBER   SYMBOL      (ANGSTROMS)     (ANGSTROMS)     (ANGSTROMS)

     1       C         -1.46615210  *   0.50133220  *   0.17922868  *
     2       C         -1.13250866  *  -0.95814352  *   0.48202265  *
     3       C         -0.23598633  *   1.09748568  *  -0.50390443  *
     4       C          0.39142733  *  -1.07064626  *   0.46331950  *
     5       C          0.89277578  *   0.15705762  *  -0.22699493  *
     6       C          2.16266631  *   0.38073821  *  -0.54914711  *
     7       H         -2.36835442  *   0.59148362  *  -0.45185423  *
     8       H         -1.69854100  *   1.05044811  *   1.11085820  *
     9       H         -1.58140362  *  -1.62690995  *  -0.27605616  *
    10       H         -1.55441046  *  -1.28091527  *   1.45058319  *
    11       H         -0.01117460  *   2.11551159  *  -0.13589668  *
    12       H         -0.38608965  *   1.19522846  *  -1.59600339  *
    13       H          0.80688381  *  -1.12395882  *   1.48767892  *
    14       H          0.73196880  *  -1.98842754  *  -0.05057523  *
    15       H          2.95367804  *  -0.33171907  *  -0.33733524  *
    16       H          2.48864542  *   1.28990501  *  -1.04441222  *

                             CARTESIAN COORDINATES

   1    C       -1.466152100     0.501332197     0.179228681
   2    C       -1.132508663    -0.958143518     0.482022648
   3    C       -0.235986331     1.097485676    -0.503904432
   4    C        0.391427332    -1.070646260     0.463319496
   5    C        0.892775779     0.157057625    -0.226994926
   6    C        2.162666306     0.380738209    -0.549147110
   7    H       -2.368354424     0.591483624    -0.451854225
   8    H       -1.698540999     1.050448115     1.110858199
   9    H       -1.581403623    -1.626909953    -0.276056157
  10    H       -1.554410457    -1.280915267     1.450583189
  11    H       -0.011174596     2.115511590    -0.135896676
  12    H       -0.386089652     1.195228456    -1.596003390
  13    H        0.806883809    -1.123958816     1.487678919
  14    H        0.731968801    -1.988427539    -0.050575226
  15    H        2.953678043    -0.331719075    -0.337335241
  16    H        2.488645424     1.289905015    -1.044412225


           Empirical Formula: C6 H10  =    16 atoms



      MOLECULAR POINT GROUP   :   C1  


                  EIGENVALUES  
 -40.34406 -31.12409 -28.86856 -23.81075 -20.29195 -18.40020 -16.75908 -16.62965
 -14.71896 -14.24729 -13.49835 -13.33708 -12.76961 -12.63045 -12.04480 -11.21187
  -9.69782   1.16008   3.41379   3.58772   3.67002   3.74411   3.77715   3.98216
   4.09525   4.17065   4.27151   4.62289   4.67882   4.86009   5.08239   5.13597
   5.70060   6.04135


              NET ATOMIC CHARGES AND DIPOLE CONTRIBUTIONS

  ATOM NO.   TYPE          CHARGE      No. of ELECS.   s-Pop       p-Pop       
    1          C          -0.095228        4.0952     1.16331     2.93192
    2          C          -0.095234        4.0952     1.16331     2.93193
    3          C          -0.057579        4.0576     1.15009     2.90749
    4          C          -0.057607        4.0576     1.15009     2.90752
    5          C          -0.109493        4.1095     1.20334     2.90615
    6          C          -0.181686        4.1817     1.17699     3.00470
    7          H           0.050046        0.9500     0.94995
    8          H           0.048440        0.9516     0.95156
    9          H           0.048432        0.9516     0.95157
   10          H           0.050049        0.9500     0.94995
   11          H           0.057930        0.9421     0.94207
   12          H           0.057448        0.9426     0.94255
   13          H           0.057463        0.9425     0.94254
   14          H           0.057912        0.9421     0.94209
   15          H           0.084556        0.9154     0.91544
   16          H           0.084552        0.9154     0.91545
 DIPOLE           X         Y         Z       TOTAL
 POINT-CHG.    -0.390    -0.069     0.099     0.408
 HYBRID         0.042     0.007    -0.011     0.044
 SUM           -0.349    -0.062     0.088     0.365


          ATOMIC ORBITAL ELECTRON POPULATIONS

     Atom    s        px        py        pz   
    1  C   1.16331   0.97062   0.95867   1.00262
    2  C   1.16331   0.95574   0.96399   1.01219
    3  C   1.15009   0.93583   0.97170   0.99996
    4  C   1.15009   0.95122   0.95883   0.99747
    5  C   1.20334   0.95753   0.96653   0.98209
    6  C   1.17699   0.95306   1.01833   1.03330
    7  H   0.94995
    8  H   0.95156
    9  H   0.95157
   10  H   0.94995
   11  H   0.94207
   12  H   0.94255
   13  H   0.94254
   14  H   0.94209
   15  H   0.91544
   16  H   0.91545
 *******************************************************************************
 **                                                                           **
 **                              MOPAC v23.1.2                                **
 **                                                                           **
 *******************************************************************************
 **          Digital Object Identifier (DOI): 10.5281/zenodo.6511958          **
 **    Visit the DOI location for information on how to cite this program.    **
 *******************************************************************************

                              PM3 CALCULATION RESULTS

 *******************************************************************************
 *  CALCULATION DONE: (MAX THREADS = 1)              Tue Jun  3 16:28:47 2025  *
 *  PM3        - The PM3 Hamiltonian to be used
 *  OLDGEO     - PREVIOUS GEOMETRY TO BE USED
 *  PRECISE    - TIGHTER CRITERIA TO BE USED
 *  NOSYM      - POINT-GROUP SYMMETRY SET TO C1
 *  THREADS=1  - MULTI-THREADING NOT USED
 *  T=         - A TIME OF 172800.0 SECONDS REQUESTED
 *  DUMP=N     - RESTART FILE WRITTEN EVERY 7200.0 SECONDS REQUESTED
 *  THERMO     - THERMODYNAMIC QUANTITIES TO BE CALCULATED
 *******************************************************************************
oldgeo thermo nosym precise THREADS=1  pm3
 InChI=1S/C6H10/c1-6-4-2-3-5-6/h1-5H2

   ATOM   CHEMICAL          X               Y               Z
  NUMBER   SYMBOL      (ANGSTROMS)     (ANGSTROMS)     (ANGSTROMS)

     1       C         -1.46615210  *   0.50133220  *   0.17922868  *
     2       C         -1.13250866  *  -0.95814352  *   0.48202265  *
     3       C         -0.23598633  *   1.09748568  *  -0.50390443  *
     4       C          0.39142733  *  -1.07064626  *   0.46331950  *
     5       C          0.89277578  *   0.15705762  *  -0.22699493  *
     6       C          2.16266631  *   0.38073821  *  -0.54914711  *
     7       H         -2.36835442  *   0.59148362  *  -0.45185423  *
     8       H         -1.69854100  *   1.05044811  *   1.11085820  *
     9       H         -1.58140362  *  -1.62690995  *  -0.27605616  *
    10       H         -1.55441046  *  -1.28091527  *   1.45058319  *
    11       H         -0.01117460  *   2.11551159  *  -0.13589668  *
    12       H         -0.38608965  *   1.19522846  *  -1.59600339  *
    13       H          0.80688381  *  -1.12395882  *   1.48767892  *
    14       H          0.73196880  *  -1.98842754  *  -0.05057523  *
    15       H          2.95367804  *  -0.33171907  *  -0.33733524  *
    16       H          2.48864542  *   1.28990501  *  -1.04441222  *



          CARTESIAN COORDINATES 

    NO.       ATOM           X           Y           Z

     1         C         -1.4662      0.5013      0.1792
     2         C         -1.1325     -0.9581      0.4820
     3         C         -0.2360      1.0975     -0.5039
     4         C          0.3914     -1.0706      0.4633
     5         C          0.8928      0.1571     -0.2270
     6         C          2.1627      0.3807     -0.5491
     7         H         -2.3684      0.5915     -0.4519
     8         H         -1.6985      1.0504      1.1109
     9         H         -1.5814     -1.6269     -0.2761
    10         H         -1.5544     -1.2809      1.4506
    11         H         -0.0112      2.1155     -0.1359
    12         H         -0.3861      1.1952     -1.5960
    13         H          0.8069     -1.1240      1.4877
    14         H          0.7320     -1.9884     -0.0506
    15         H          2.9537     -0.3317     -0.3373
    16         H          2.4886      1.2899     -1.0444

  H: (PM3): J. J. P. STEWART, J. COMP. CHEM. 10, 209 (1989).
  C: (PM3): J. J. P. STEWART, J. COMP. CHEM. 10, 209 (1989).

           Empirical Formula: C6 H10  =    16 atoms



      MOLECULAR POINT GROUP   :   C1  


      RHF CALCULATION, NO. OF DOUBLY OCCUPIED LEVELS = 17



          HEAT OF FORMATION =      -4.156722 KCALS/MOLE


          CARTESIAN COORDINATE DERIVATIVES

   NUMBER  ATOM         X            Y            Z

     1       C     -0.006070    -0.001499    -0.000980
     2       C     -0.004755     0.008416     0.002664
     3       C     -0.000030     0.003584     0.000827
     4       C     -0.002839     0.003248     0.005430
     5       C      0.001572     0.004623     0.005145
     6       C      0.002382     0.005897     0.006256
     7       H     -0.010802    -0.015261    -0.005980
     8       H      0.001046    -0.012544    -0.002804
     9       H     -0.007638     0.010973    -0.000878
    10       H      0.002617     0.009159     0.005094
    11       H     -0.003679    -0.004291    -0.004334
    12       H      0.009086    -0.003220    -0.005294
    13       H      0.012868    -0.000888     0.002144
    14       H     -0.001994    -0.005743    -0.001331
    15       H      0.008045     0.002490    -0.005416
    16       H      0.000191    -0.004944    -0.000543



          GRADIENT NORM =   0.04107

          MOLECULAR WEIGHT =   82.15



          ROTATIONAL CONSTANTS IN CM(-1)

          A =    0.21776152   B =    0.10939840   C =    0.07743384



           PRINCIPAL MOMENTS OF INERTIA IN UNITS OF 10**(-40)*GRAM-CM**2

          A =      128.5477   B =      255.8790   C =      361.5054


          ORIENTATION OF MOLECULE IN FORCE CALCULATION

    NO.       ATOM         X         Y         Z

     1          C      -0.7637   -1.4230   -0.2560
     2          C       0.7637   -1.4230   -0.2560
     3          C      -1.2001    0.0416   -0.2560
     4          C       1.2004   -0.0499    0.2533
     5          C      -0.0000    0.8353    0.1504
     6          C      -0.0002    2.1432    0.3868
     7          H      -1.1721   -1.9713   -1.1237
     8          H      -1.1545   -1.9456    0.6371
     9          H       1.1544   -1.6022   -1.2752
    10          H       1.1720   -2.2389    0.3668
    11          H      -2.0508    0.2197    0.4273
    12          H      -1.5428    0.3626   -1.2582
    13          H       1.5451   -0.0977    1.3039
    14          H       2.0498    0.3553   -0.3268
    15          H       0.8953    2.6856    0.6731
    16          H      -0.8959    2.7512    0.3082


    FIRST DERIVATIVES WILL BE USED IN THE CALCULATION OF SECOND DERIVATIVES

          ESTIMATED TIME TO COMPLETE CALCULATION =        1.50 SECONDS

    FOR POINT-GROUP C1   THERE ARE   1 UNIQUE SYMMETRY FUNCTIONS.

 STEP:   1 TIME =     0.01 SECS, INTEGRAL =      0.01 TIME LEFT: 172799.98
 STEP:   2 TIME =     0.01 SECS, INTEGRAL =      0.02 TIME LEFT: 172799.97
 STEP:   3 TIME =     0.01 SECS, INTEGRAL =      0.04 TIME LEFT: 172799.96
 STEP:   4 TIME =     0.01 SECS, INTEGRAL =      0.05 TIME LEFT: 172799.95
 STEP:   5 TIME =     0.01 SECS, INTEGRAL =      0.06 TIME LEFT: 172799.93
 STEP:   6 TIME =     0.01 SECS, INTEGRAL =      0.07 TIME LEFT: 172799.92
 STEP:   7 TIME =     0.01 SECS, INTEGRAL =      0.08 TIME LEFT: 172799.91
 STEP:   8 TIME =     0.01 SECS, INTEGRAL =      0.09 TIME LEFT: 172799.90
 STEP:   9 TIME =     0.01 SECS, INTEGRAL =      0.11 TIME LEFT: 172799.89
 STEP:  10 TIME =     0.01 SECS, INTEGRAL =      0.12 TIME LEFT: 172799.88
 STEP:  11 TIME =     0.01 SECS, INTEGRAL =      0.13 TIME LEFT: 172799.86
 STEP:  12 TIME =     0.01 SECS, INTEGRAL =      0.14 TIME LEFT: 172799.85
 STEP:  13 TIME =     0.01 SECS, INTEGRAL =      0.15 TIME LEFT: 172799.84
 STEP:  14 TIME =     0.01 SECS, INTEGRAL =      0.16 TIME LEFT: 172799.83
 STEP:  15 TIME =     0.01 SECS, INTEGRAL =      0.18 TIME LEFT: 172799.82
 STEP:  16 TIME =     0.01 SECS, INTEGRAL =      0.19 TIME LEFT: 172799.80
 STEP:  17 TIME =     0.01 SECS, INTEGRAL =      0.20 TIME LEFT: 172799.79
 STEP:  18 TIME =     0.01 SECS, INTEGRAL =      0.21 TIME LEFT: 172799.78
 STEP:  19 TIME =     0.01 SECS, INTEGRAL =      0.22 TIME LEFT: 172799.77
 STEP:  20 TIME =     0.01 SECS, INTEGRAL =      0.23 TIME LEFT: 172799.77
 STEP:  21 TIME =     0.01 SECS, INTEGRAL =      0.24 TIME LEFT: 172799.75
 STEP:  22 TIME =     0.01 SECS, INTEGRAL =      0.25 TIME LEFT: 172799.74
 STEP:  23 TIME =     0.01 SECS, INTEGRAL =      0.26 TIME LEFT: 172799.73
 STEP:  24 TIME =     0.01 SECS, INTEGRAL =      0.27 TIME LEFT: 172799.72
 STEP:  25 TIME =     0.01 SECS, INTEGRAL =      0.28 TIME LEFT: 172799.71
 STEP:  26 TIME =     0.01 SECS, INTEGRAL =      0.29 TIME LEFT: 172799.70
 STEP:  27 TIME =     0.01 SECS, INTEGRAL =      0.30 TIME LEFT: 172799.69
 STEP:  28 TIME =     0.01 SECS, INTEGRAL =      0.31 TIME LEFT: 172799.68
 STEP:  29 TIME =     0.01 SECS, INTEGRAL =      0.32 TIME LEFT: 172799.67
 STEP:  30 TIME =     0.01 SECS, INTEGRAL =      0.34 TIME LEFT: 172799.66
 STEP:  31 TIME =     0.01 SECS, INTEGRAL =      0.34 TIME LEFT: 172799.65
 STEP:  32 TIME =     0.01 SECS, INTEGRAL =      0.36 TIME LEFT: 172799.64
 STEP:  33 TIME =     0.01 SECS, INTEGRAL =      0.37 TIME LEFT: 172799.62
 STEP:  34 TIME =     0.01 SECS, INTEGRAL =      0.38 TIME LEFT: 172799.61
 STEP:  35 TIME =     0.01 SECS, INTEGRAL =      0.39 TIME LEFT: 172799.61
 STEP:  36 TIME =     0.01 SECS, INTEGRAL =      0.39 TIME LEFT: 172799.60
 STEP:  37 TIME =     0.01 SECS, INTEGRAL =      0.40 TIME LEFT: 172799.59
 STEP:  38 TIME =     0.01 SECS, INTEGRAL =      0.41 TIME LEFT: 172799.58
 STEP:  39 TIME =     0.01 SECS, INTEGRAL =      0.42 TIME LEFT: 172799.57
 STEP:  40 TIME =     0.01 SECS, INTEGRAL =      0.43 TIME LEFT: 172799.56
 STEP:  41 TIME =     0.01 SECS, INTEGRAL =      0.44 TIME LEFT: 172799.55
 STEP:  42 TIME =     0.01 SECS, INTEGRAL =      0.45 TIME LEFT: 172799.54
 STEP:  43 TIME =     0.01 SECS, INTEGRAL =      0.46 TIME LEFT: 172799.54
 STEP:  44 TIME =     0.01 SECS, INTEGRAL =      0.46 TIME LEFT: 172799.53
 STEP:  45 TIME =     0.01 SECS, INTEGRAL =      0.48 TIME LEFT: 172799.52
 STEP:  46 TIME =     0.01 SECS, INTEGRAL =      0.48 TIME LEFT: 172799.51
 STEP:  47 TIME =     0.01 SECS, INTEGRAL =      0.49 TIME LEFT: 172799.50
 STEP:  48 TIME =     0.01 SECS, INTEGRAL =      0.50 TIME LEFT: 172799.49

(To convert to Hartree/Bohr^2, multiply by (10^(-21) x N x a0^2)/(4.184 x 627.51) =  0.0642)


           FORCE MATRIX IN MILLIDYNES/ANGSTROM


                  C  1       C  2       C  3       C  4       C  5       C  6
 ------------------------------------------------------------------------------
     C    1  14.398186
     C    2   3.990828  14.392310
     C    3   3.973679   0.763598  14.697047
     C    4   0.763098   3.973120   0.745196  14.697197
     C    5   0.843735   0.843723   4.676996   4.677511  19.024642
     C    6   0.053231   0.053260   0.745448   0.745653  10.864625  18.092400
     H    7   4.566869   0.440288   0.437092   0.039383   0.039081   0.006583
     H    8   4.525964   0.443131   0.443047   0.013347   0.016961   0.002498
     H    9   0.442554   4.525893   0.013350   0.443057   0.017007   0.002501
     H   10   0.439824   4.567209   0.039386   0.436932   0.039004   0.006549
     H   11   0.437069   0.036916   4.526611   0.029242   0.439564   0.024032
     H   12   0.441754   0.014913   4.490642   0.024452   0.428824   0.024314
     H   13   0.014919   0.442401   0.024549   4.491395   0.428995   0.024277
     H   14   0.036887   0.437325   0.029113   4.526229   0.439382   0.024067
     H   15   0.007126   0.002733   0.126831   0.089165   0.479726   5.110828
     H   16   0.002772   0.007068   0.089140   0.126500   0.479733   5.111106


                  H  7       H  8       H  9       H 10       H 11       H 12
 ------------------------------------------------------------------------------
     H    7   5.180304
     H    8   0.584539   5.129486
     H    9   0.031164   0.038755   5.129414
     H   10   0.017469   0.031144   0.584637   5.180782
     H   11   0.018648   0.030546   0.001352   0.003946   5.132021
     H   12   0.030693   0.036433   0.001105   0.001779   0.574432   5.089005
     H   13   0.001782   0.001102   0.036374   0.030814   0.003130   0.001175
     H   14   0.003939   0.001352   0.030511   0.018637   0.001104   0.003127
     H   15   0.001034   0.000487   0.000387   0.000524   0.011376   0.014527
     H   16   0.000532   0.000389   0.000487   0.001018   0.010740   0.011681


                  H 13       H 14       H 15       H 16
 ------------------------------------------------------
     H   13   5.089598
     H   14   0.574005   5.131606
     H   15   0.011747   0.010783   5.493089
     H   16   0.014466   0.011339   0.410792   5.493387


          HEAT OF FORMATION =      -4.156722 KCALS/MOLE

          ZERO POINT ENERGY      89.628 KCAL/MOL


           NORMAL COORDINATE ANALYSIS (Total motion = 1 Angstrom)


   Root No.       1         2         3         4         5         6         7         8

                 1 A       2 A       3 A       4 A       5 A       6 A       7 A       8 A   

                  73.3     114.5     368.1     441.7     590.3     611.5     645.2     795.4
  
           1   -0.0051    0.0001    0.0124   -0.0028    0.0060    0.0046    0.0440   -0.0184
           2    0.0022   -0.0023   -0.0177   -0.0025   -0.0352   -0.0214    0.0495   -0.0159
           3    0.0231    0.0418    0.0010   -0.0079   -0.0029    0.0001    0.0002   -0.0234
           4   -0.0051   -0.0003    0.0124   -0.0028   -0.0059   -0.0046    0.0440   -0.0176
           5   -0.0106    0.0120    0.0162    0.0049   -0.0342   -0.0200   -0.0463    0.0245
           6    0.0225   -0.0392    0.0071   -0.0065   -0.0096   -0.0076   -0.0172   -0.0186
           7    0.0097    0.0064   -0.0309    0.0031    0.0369    0.0203   -0.0272    0.0121
           8    0.0060    0.0000   -0.0229   -0.0030   -0.0143   -0.0080    0.0339   -0.0169
           9   -0.0408   -0.0256   -0.0122   -0.0051    0.0094    0.0029   -0.0012   -0.0058
          10    0.0099   -0.0060   -0.0309    0.0029   -0.0369   -0.0205   -0.0271    0.0130
          11    0.0089   -0.0086    0.0257    0.0046   -0.0103   -0.0064   -0.0313    0.0193
          12   -0.0413    0.0225   -0.0033   -0.0039   -0.0138   -0.0056   -0.0129   -0.0035
          13    0.0019    0.0000   -0.0465   -0.0224    0.0000   -0.0001   -0.0246    0.0084
          14    0.0020   -0.0009    0.0024   -0.0175    0.0475    0.0275   -0.0028   -0.0034
          15   -0.0110   -0.0003   -0.0136    0.0977    0.0084    0.0049    0.0150    0.0158
          16   -0.0119   -0.0003    0.0639    0.0090   -0.0001    0.0002   -0.0089    0.0052
          17   -0.0083   -0.0014   -0.0027    0.0052    0.0564    0.0331    0.0004   -0.0013
          18    0.0461    0.0006    0.0147   -0.0282    0.0102    0.0061   -0.0026    0.0024
          19   -0.0115   -0.0471    0.0310   -0.0027   -0.0096   -0.0102   -0.0179   -0.0936
          20   -0.0327   -0.0601   -0.0371    0.0006   -0.0085   -0.0172    0.0036   -0.1055
          21    0.0482    0.1011    0.0047   -0.0101   -0.0137    0.0042    0.0629    0.0719
          22   -0.0090    0.0533    0.0238   -0.0030   -0.0034    0.0066    0.1018    0.0631
          23    0.0463    0.0574   -0.0200   -0.0049   -0.0501   -0.0201    0.1198    0.0657
          24    0.0473    0.1001    0.0046   -0.0095   -0.0159    0.0022    0.0687    0.0653
          25   -0.0069   -0.0536    0.0237   -0.0028    0.0037   -0.0064    0.1018    0.0656
          26   -0.0634    0.0864    0.0174    0.0074   -0.0529   -0.0182   -0.1363   -0.0976
          27    0.0312   -0.0728    0.0112   -0.0071   -0.0025   -0.0090    0.0227    0.0398
          28   -0.0133    0.0466    0.0310   -0.0028    0.0094    0.0103   -0.0180   -0.0946
          29    0.0148   -0.0206    0.0330    0.0030   -0.0129   -0.0145   -0.0250    0.0834
          30    0.0612   -0.1135    0.0172   -0.0093    0.0100   -0.0097    0.0578    0.1143
          31   -0.0222   -0.0243   -0.0376   -0.0847    0.0004    0.0483   -0.0263    0.0383
          32    0.0363    0.0293   -0.0440   -0.0097   -0.0222   -0.0235   -0.0132   -0.0477
          33   -0.0887   -0.0722   -0.0158   -0.1157   -0.0370    0.0428    0.0151    0.0365
          34    0.0640    0.0582   -0.0378    0.1412    0.0909   -0.0299   -0.0574   -0.0231
          35   -0.0200   -0.0313   -0.0431    0.0228   -0.0298   -0.0198    0.0552    0.0228
          36   -0.0679   -0.0534   -0.0159   -0.0461   -0.0148    0.0180    0.0164    0.0211
          37    0.0660   -0.0554   -0.0382    0.1406   -0.0912    0.0296   -0.0573   -0.0407
          38    0.0444   -0.0463    0.0459   -0.0051   -0.0333   -0.0121   -0.0574   -0.0352
          39   -0.0583    0.0370    0.0004   -0.0514    0.0037   -0.0239   -0.0038    0.0141
          40   -0.0232    0.0235   -0.0374   -0.0849   -0.0001   -0.0486   -0.0262    0.0496
          41   -0.0033    0.0023    0.0466    0.0492   -0.0339   -0.0070    0.0073    0.0362
          42   -0.0987    0.0740    0.0010   -0.1049    0.0273   -0.0483    0.0189    0.0646
          43   -0.0180   -0.0039    0.1372    0.0275    0.0266   -0.0569   -0.0007    0.0003
          44   -0.0116   -0.0044   -0.1182    0.0127    0.0876   -0.0100   -0.0052    0.0135
          45    0.0714    0.0177    0.0123   -0.0996   -0.1293    0.2687   -0.0189   -0.0099
          46   -0.0181    0.0030    0.1370    0.0274   -0.0267    0.0569   -0.0007    0.0019
          47   -0.0142    0.0014    0.1063    0.0231    0.0371    0.0840    0.0114   -0.0097
          48    0.0718   -0.0156    0.0538   -0.0973    0.1521   -0.2553   -0.0163   -0.0235


   Root No.       9        10        11        12        13        14        15        16

                 9 A      10 A      11 A      12 A      13 A      14 A      15 A      16 A   

                 797.9     915.5     938.9     942.3     987.8    1005.1    1021.8    1054.0
  
           1   -0.0038    0.0034   -0.0001   -0.0059    0.0039   -0.0002    0.0471    0.0013
           2    0.0043   -0.0107    0.0015   -0.0031    0.0015   -0.0021    0.0405   -0.0264
           3    0.0162    0.0023   -0.0122    0.0015   -0.0231    0.0044    0.0145   -0.0082
           4    0.0060    0.0034    0.0001    0.0059   -0.0039   -0.0004   -0.0471    0.0013
           5    0.0068    0.0092    0.0028   -0.0025   -0.0065    0.0006    0.0430    0.0276
           6   -0.0115    0.0059   -0.0121   -0.0019    0.0220    0.0050    0.0005    0.0015
           7   -0.0063   -0.0283   -0.0068    0.0529   -0.0007    0.0018    0.0320   -0.0138
           8    0.0006    0.0045   -0.0055    0.0154   -0.0013    0.0024   -0.0210    0.0263
           9    0.0266   -0.0099    0.0267    0.0055    0.0202   -0.0073    0.0004    0.0066
          10    0.0047   -0.0283   -0.0082   -0.0526    0.0006    0.0017   -0.0320   -0.0138
          11    0.0075   -0.0008   -0.0038    0.0165    0.0058    0.0003   -0.0195   -0.0270
          12   -0.0244   -0.0108    0.0271   -0.0010   -0.0192   -0.0078   -0.0076   -0.0030
          13   -0.0005    0.0107    0.0048   -0.0001    0.0000   -0.0032    0.0000    0.0087
          14   -0.0066   -0.0011    0.0040   -0.0192   -0.0018   -0.0034   -0.0032   -0.0003
          15   -0.0023    0.0062   -0.0234   -0.0030   -0.0004    0.0189   -0.0006    0.0018
          16   -0.0003    0.0583    0.0091   -0.0002    0.0000    0.0087   -0.0000   -0.0130
          17   -0.0100   -0.0025    0.0023   -0.0350   -0.0042    0.0086   -0.0141    0.0005
          18   -0.0020    0.0139   -0.0153   -0.0060   -0.0007   -0.0480   -0.0024   -0.0025
          19    0.0107    0.0527   -0.0775   -0.0607   -0.0291    0.0502    0.1179    0.0838
          20    0.0811   -0.0374    0.0156    0.0394   -0.0514   -0.0292    0.0426   -0.1122
          21   -0.0413   -0.0040    0.0165    0.0023    0.0283   -0.0023   -0.0204    0.0092
          22   -0.0186    0.0016    0.0901   -0.0206    0.0303   -0.0572    0.0517    0.0468
          23   -0.0753   -0.0189   -0.0180    0.0170    0.0690    0.0283    0.0070   -0.0307
          24   -0.0396   -0.0041    0.0172    0.0057    0.0302   -0.0028   -0.0029    0.0081
          25    0.0106    0.0017    0.0907    0.0169   -0.0294   -0.0575   -0.0513    0.0472
          26   -0.0728    0.0191    0.0111    0.0174    0.0752   -0.0252    0.0059    0.0263
          27    0.0061    0.0027    0.0224   -0.0003   -0.0041   -0.0124    0.0053    0.0183
          28    0.0010    0.0526   -0.0759    0.0639    0.0284    0.0498   -0.1183    0.0830
          29    0.0518    0.0364   -0.0192    0.0386   -0.0382    0.0280    0.0326    0.1015
          30    0.0532    0.0094    0.0105    0.0112   -0.0440    0.0079    0.0338    0.0474
          31   -0.0710   -0.0334   -0.0586    0.1115   -0.0650    0.0004    0.0202    0.0115
          32    0.0546   -0.0093    0.0279    0.0826   -0.0995   -0.0590   -0.1169    0.1373
          33   -0.0723   -0.0124   -0.0497    0.0597   -0.0351    0.0085    0.0081    0.0075
          34    0.1100   -0.0436    0.0799    0.0598    0.0905   -0.0052    0.0178    0.0211
          35   -0.0318   -0.0072   -0.0393    0.0760    0.1210    0.0741   -0.0581    0.0508
          36   -0.0269   -0.0080   -0.0161    0.0244    0.0280    0.0193   -0.0052    0.0035
          37   -0.1059   -0.0438    0.0788   -0.0635   -0.0902   -0.0057   -0.0177    0.0211
          38   -0.0351    0.0092    0.0444    0.0781    0.1233   -0.0760   -0.0560   -0.0493
          39    0.0128   -0.0049   -0.0015    0.0038    0.0160   -0.0077   -0.0153   -0.0146
          40    0.0656   -0.0331   -0.0619   -0.1089    0.0651    0.0007   -0.0204    0.0113
          41    0.0218    0.0130   -0.0060    0.0984   -0.1059    0.0516   -0.1068   -0.1306
          42    0.0795   -0.0080   -0.0570   -0.0245   -0.0019    0.0285   -0.0485   -0.0407
          43   -0.0104   -0.0921   -0.0261    0.0141   -0.0039   -0.0380    0.0081    0.0119
          44   -0.0243    0.2390    0.0059   -0.0571   -0.0126   -0.0382   -0.0286   -0.0391
          45    0.0554    0.0117    0.0866   -0.0167    0.0261    0.1873   -0.0051   -0.0046
          46    0.0103   -0.0923   -0.0265   -0.0131    0.0039   -0.0379   -0.0080    0.0119
          47   -0.0022   -0.2281   -0.0374   -0.0581   -0.0027   -0.0297   -0.0285    0.0382
          48   -0.0580   -0.0715    0.0791   -0.0076   -0.0293    0.1886   -0.0060    0.0092


   Root No.      17        18        19        20        21        22        23        24

                17 A      18 A      19 A      20 A      21 A      22 A      23 A      24 A   

                1077.2    1089.4    1122.6    1127.7    1140.7    1237.3    1273.0    1310.5
  
           1   -0.0015    0.0009    0.0030   -0.0013    0.0289   -0.0129    0.0198   -0.0471
           2    0.0010    0.0050    0.0131   -0.0173   -0.0118    0.0052   -0.0235    0.0217
           3    0.0060   -0.0024   -0.0187    0.0396   -0.0146   -0.0005    0.0001   -0.0029
           4    0.0015    0.0010    0.0029    0.0012   -0.0289   -0.0130   -0.0198    0.0474
           5    0.0031   -0.0038   -0.0058   -0.0023   -0.0161   -0.0047   -0.0220    0.0198
           6   -0.0053   -0.0039   -0.0231   -0.0425    0.0097   -0.0023   -0.0083    0.0104
           7   -0.0016    0.0034   -0.0004   -0.0042   -0.0091    0.0017    0.0068    0.0069
           8    0.0023   -0.0016   -0.0120    0.0115    0.0205    0.0244    0.0418   -0.0019
           9   -0.0197   -0.0135    0.0232   -0.0152    0.0004    0.0026    0.0081   -0.0011
          10    0.0015    0.0034   -0.0002    0.0042    0.0091    0.0017   -0.0068   -0.0069
          11   -0.0048    0.0062    0.0033    0.0054    0.0193   -0.0238    0.0420   -0.0025
          12    0.0192   -0.0123    0.0263    0.0176    0.0066   -0.0061    0.0070    0.0003
          13   -0.0000   -0.0090    0.0018   -0.0000   -0.0000    0.0387   -0.0000    0.0001
          14    0.0005   -0.0073    0.0012   -0.0008   -0.0019   -0.0016    0.0119    0.0126
          15    0.0003    0.0407   -0.0065   -0.0000   -0.0003    0.0087    0.0022    0.0023
          16   -0.0000    0.0050    0.0009   -0.0000    0.0000   -0.0121    0.0000   -0.0000
          17    0.0006    0.0032   -0.0006    0.0003   -0.0036    0.0005   -0.0059    0.0092
          18    0.0000   -0.0174    0.0034    0.0000   -0.0007   -0.0026   -0.0011    0.0017
          19   -0.1377   -0.0309    0.0738    0.1187    0.0570    0.0490   -0.0203    0.0306
          20    0.1235    0.0302   -0.0762   -0.0173   -0.0638   -0.0502   -0.0081   -0.0882
          21   -0.0081   -0.0043    0.0030   -0.0172    0.0037    0.0045    0.0079    0.0263
          22    0.0888    0.0297   -0.1220   -0.0699    0.1842    0.0428   -0.0491    0.0469
          23   -0.0900   -0.0181    0.1424   -0.0691   -0.1003   -0.0442    0.0119   -0.0877
          24   -0.0088   -0.0043    0.0012   -0.0201    0.0015   -0.0042   -0.0081   -0.0221
          25   -0.0887    0.0303   -0.1209    0.0727   -0.1838    0.0428    0.0490   -0.0481
          26   -0.0874    0.0192   -0.1358   -0.0682   -0.0930    0.0430    0.0083   -0.0902
          27   -0.0231    0.0025   -0.0486   -0.0040   -0.0361    0.0114    0.0117   -0.0101
          28    0.1382   -0.0318    0.0704   -0.1203   -0.0574    0.0490    0.0204   -0.0321
          29    0.1135   -0.0275    0.0695   -0.0240   -0.0589    0.0455   -0.0049   -0.0740
          30    0.0507   -0.0148    0.0294    0.0092   -0.0258    0.0217   -0.0102   -0.0553
          31   -0.0116    0.0670   -0.0207   -0.0006    0.0145   -0.0645   -0.0568    0.0204
          32   -0.0946    0.1187    0.0356   -0.0538    0.0973   -0.1158   -0.0591   -0.0558
          33   -0.0064    0.0349   -0.0136    0.0072    0.0070   -0.0417   -0.0412    0.0259
          34   -0.0345   -0.0812    0.0211    0.0043    0.0135   -0.0654   -0.0618    0.0289
          35    0.0455   -0.1488   -0.0959    0.1570    0.0348   -0.1036   -0.0702   -0.0315
          36    0.0043   -0.0318   -0.0111    0.0297   -0.0025   -0.0167   -0.0066   -0.0152
          37    0.0340   -0.0815    0.0208   -0.0051   -0.0137   -0.0653    0.0618   -0.0298
          38    0.0450    0.1499    0.0976    0.1553    0.0316    0.1029   -0.0681   -0.0348
          39    0.0118    0.0220    0.0236    0.0262    0.0144    0.0205   -0.0183    0.0035
          40    0.0121    0.0672   -0.0208    0.0012   -0.0143   -0.0644    0.0569   -0.0212
          41   -0.0924   -0.1230   -0.0294   -0.0474    0.0936    0.1231   -0.0698   -0.0430
          42   -0.0273   -0.0084   -0.0257   -0.0248    0.0274    0.0014    0.0178   -0.0443
          43    0.0005   -0.0128    0.0012   -0.0006    0.0029    0.0131    0.0756    0.0639
          44    0.0032   -0.0063    0.0043    0.0021   -0.0082   -0.0384   -0.1373   -0.1005
          45   -0.0062    0.0558   -0.0066   -0.0012   -0.0022   -0.0040   -0.0102   -0.0048
          46   -0.0006   -0.0127    0.0012    0.0005   -0.0029    0.0131   -0.0756   -0.0638
          47    0.0008   -0.0135   -0.0017    0.0015   -0.0085    0.0374   -0.1323   -0.0957
          48    0.0075    0.0545   -0.0076    0.0021   -0.0008    0.0095   -0.0384   -0.0305


   Root No.      25        26        27        28        29        30        31        32

                25 A      26 A      27 A      28 A      29 A      30 A      31 A      32 A   

                1312.5    1347.7    1361.8    1396.0    1414.1    1423.2    1429.5    1906.8
  
           1   -0.0296   -0.0092   -0.0054    0.0191    0.0111    0.0086   -0.0266   -0.0049
           2    0.0380    0.0008    0.0026   -0.0040    0.0358   -0.0098   -0.0225   -0.0055
           3    0.0035   -0.0013    0.0019    0.0008    0.0019    0.0014    0.0001   -0.0013
           4   -0.0291    0.0092   -0.0054   -0.0191    0.0115    0.0084    0.0265    0.0049
           5   -0.0366    0.0003   -0.0031   -0.0034   -0.0345    0.0088   -0.0206   -0.0057
           6   -0.0098    0.0015    0.0009   -0.0021   -0.0107    0.0048   -0.0078   -0.0007
           7    0.0018    0.0132   -0.0053   -0.0323   -0.0123   -0.0486   -0.0037   -0.0206
           8   -0.0223    0.0331   -0.0332    0.0079   -0.0227   -0.0091    0.0147   -0.0258
           9   -0.0034    0.0067   -0.0038   -0.0079   -0.0050   -0.0138   -0.0002   -0.0090
          10    0.0017   -0.0132   -0.0053    0.0322   -0.0123   -0.0488    0.0036    0.0206
          11    0.0220    0.0333    0.0324    0.0047    0.0232    0.0133    0.0135   -0.0273
          12    0.0046    0.0052    0.0079    0.0100    0.0033   -0.0097    0.0052   -0.0006
          13   -0.0117    0.0000    0.0423    0.0001    0.0251    0.0680    0.0001   -0.0000
          14    0.0006   -0.0185   -0.0014    0.0027   -0.0009   -0.0025   -0.0007    0.2622
          15   -0.0027   -0.0033    0.0080    0.0005    0.0049    0.0141   -0.0001    0.0473
          16    0.0047    0.0000   -0.0054   -0.0000   -0.0027   -0.0104   -0.0000    0.0000
          17   -0.0001   -0.0298    0.0002    0.0058    0.0001    0.0004   -0.0016   -0.2014
          18    0.0011   -0.0054   -0.0010    0.0010   -0.0005   -0.0022   -0.0003   -0.0363
          19    0.1361   -0.0000    0.0334   -0.0416   -0.0571   -0.0189    0.0923   -0.0023
          20   -0.0248   -0.0563    0.0519    0.0022   -0.1110    0.0563    0.0919   -0.0015
          21   -0.0307    0.0269   -0.0415    0.0216    0.1096   -0.0241   -0.1115   -0.0087
          22    0.1123   -0.0070    0.0353   -0.0464   -0.0615   -0.0142    0.0918   -0.0006
          23   -0.0237   -0.0452    0.0422    0.0002   -0.1219    0.0453    0.0941    0.0013
          24    0.0252   -0.0235    0.0370   -0.0219   -0.1053    0.0200    0.1029    0.0054
          25    0.1117    0.0071    0.0354    0.0463   -0.0628   -0.0135   -0.0911    0.0006
          26    0.0122   -0.0508   -0.0525   -0.0076    0.1523   -0.0504    0.1218    0.0031
          27    0.0318    0.0064    0.0201    0.0206   -0.0572    0.0034   -0.0630   -0.0046
          28    0.1357    0.0002    0.0335    0.0415   -0.0584   -0.0183   -0.0917    0.0023
          29    0.0331   -0.0435   -0.0342    0.0094    0.0665   -0.0447    0.0462   -0.0044
          30   -0.0208   -0.0450   -0.0571   -0.0196    0.1430   -0.0431    0.1344    0.0077
          31    0.0555   -0.0063   -0.0662    0.0826   -0.0029    0.0508    0.0155    0.0054
          32   -0.0077   -0.0796    0.0741   -0.0455    0.0323   -0.0388   -0.0445    0.0298
          33    0.0535    0.0083   -0.0931    0.1290   -0.0063    0.0999    0.0337    0.0073
          34    0.0712    0.0054   -0.1053    0.1421   -0.0033    0.1036    0.0315    0.0006
          35    0.0066   -0.0683    0.0640   -0.0337    0.0331   -0.0244   -0.0360    0.0225
          36   -0.0135   -0.0208    0.0515   -0.0668    0.0086   -0.0583   -0.0243    0.0026
          37    0.0707   -0.0056   -0.1053   -0.1419   -0.0039    0.1041   -0.0309   -0.0006
          38   -0.0019   -0.0714   -0.0777   -0.0547   -0.0347    0.0437   -0.0417    0.0221
          39   -0.0150   -0.0042    0.0262    0.0511   -0.0032   -0.0466    0.0101    0.0055
          40    0.0552    0.0061   -0.0663   -0.0828   -0.0031    0.0514   -0.0153   -0.0054
          41   -0.0119   -0.0717   -0.0370    0.0022   -0.0287    0.0018   -0.0297    0.0304
          42    0.0520   -0.0357   -0.1127   -0.1364   -0.0179    0.1078   -0.0463    0.0035
          43   -0.0026   -0.0961    0.0103    0.0147    0.0054    0.0137   -0.0018   -0.1477
          44    0.0115    0.1327   -0.0231   -0.0185   -0.0117   -0.0356    0.0013   -0.0250
          45    0.0015    0.0032   -0.0021   -0.0005   -0.0010   -0.0036   -0.0004   -0.0361
          46   -0.0034    0.0961    0.0102   -0.0147    0.0055    0.0137    0.0018    0.1478
          47   -0.0125    0.1255    0.0222   -0.0175    0.0114    0.0347    0.0012   -0.0359
          48   -0.0029    0.0433    0.0061   -0.0059    0.0032    0.0091    0.0009    0.0247


   Root No.      33        34        35        36        37        38        39        40

                33 A      34 A      35 A      36 A      37 A      38 A      39 A      40 A   

                2964.2    2967.7    2978.0    2989.5    3050.4    3051.4    3062.2    3067.1
  
           1    0.0004   -0.0003   -0.0005    0.0006    0.0017   -0.0017   -0.0118   -0.0108
           2    0.0005   -0.0003   -0.0006    0.0008    0.0025   -0.0028   -0.0153   -0.0148
           3   -0.0138    0.0087    0.0172   -0.0219    0.0003   -0.0002   -0.0021   -0.0023
           4   -0.0004   -0.0003    0.0005    0.0006    0.0017    0.0017   -0.0116    0.0109
           5   -0.0043   -0.0028    0.0053    0.0069   -0.0025   -0.0027    0.0150   -0.0148
           6    0.0130    0.0084   -0.0162   -0.0210   -0.0006   -0.0008    0.0033   -0.0030
           7   -0.0041    0.0052   -0.0032    0.0021   -0.0175    0.0173   -0.0023   -0.0033
           8   -0.0017    0.0022   -0.0014    0.0009    0.0069   -0.0068    0.0006    0.0010
           9    0.0166   -0.0212    0.0132   -0.0084   -0.0024    0.0024   -0.0003   -0.0004
          10    0.0041    0.0053    0.0032    0.0021   -0.0176   -0.0172   -0.0023    0.0033
          11    0.0041    0.0054    0.0033    0.0021   -0.0057   -0.0055   -0.0005    0.0008
          12   -0.0160   -0.0209   -0.0128   -0.0083   -0.0047   -0.0046   -0.0005    0.0007
          13    0.0000   -0.0001    0.0000    0.0000   -0.0004    0.0000   -0.0000    0.0000
          14    0.0002    0.0000   -0.0000    0.0000    0.0000    0.0004    0.0000    0.0005
          15    0.0000   -0.0001   -0.0000   -0.0001   -0.0001    0.0001   -0.0000    0.0001
          16    0.0000    0.0000    0.0000    0.0000   -0.0000    0.0000   -0.0000   -0.0000
          17   -0.0000    0.0000   -0.0000    0.0000    0.0000   -0.0001    0.0000   -0.0000
          18   -0.0000   -0.0001   -0.0000   -0.0000   -0.0000   -0.0000    0.0000   -0.0000
          19    0.0354   -0.0238   -0.0437    0.0588   -0.0111    0.0142    0.0768    0.0754
          20    0.0472   -0.0294   -0.0611    0.0780   -0.0141    0.0174    0.1048    0.1002
          21    0.0728   -0.0463   -0.0908    0.1164   -0.0263    0.0326    0.1880    0.1807
          22   -0.0407    0.0270    0.0495   -0.0664   -0.0087    0.0114    0.0602    0.0577
          23   -0.0541    0.0328    0.0694   -0.0873   -0.0110    0.0142    0.0813    0.0765
          24    0.0935   -0.0582   -0.1152    0.1458    0.0229   -0.0293   -0.1630   -0.1543
          25    0.0403    0.0276   -0.0490   -0.0670   -0.0088   -0.0113    0.0595   -0.0582
          26   -0.0180   -0.0108    0.0248    0.0314    0.0024    0.0031   -0.0193    0.0182
          27   -0.1054   -0.0675    0.1312    0.1685    0.0255    0.0321   -0.1791    0.1728
          28   -0.0349   -0.0242    0.0433    0.0591   -0.0112   -0.0141    0.0761   -0.0762
          29    0.0688    0.0446   -0.0880   -0.1143    0.0225    0.0274   -0.1621    0.1586
          30   -0.0512   -0.0339    0.0633    0.0824   -0.0199   -0.0243    0.1385   -0.1361
          31    0.0936   -0.1197    0.0757   -0.0478    0.1648   -0.1601    0.0238    0.0293
          32   -0.0195    0.0255   -0.0173    0.0115   -0.0312    0.0304   -0.0054   -0.0062
          33   -0.0721    0.0922   -0.0578    0.0362   -0.1490    0.1449   -0.0217   -0.0266
          34   -0.0450    0.0570   -0.0360    0.0231    0.0468   -0.0454    0.0067    0.0080
          35    0.0408   -0.0524    0.0342   -0.0226   -0.0522    0.0509   -0.0081   -0.0095
          36   -0.1289    0.1630   -0.1010    0.0641    0.1789   -0.1739    0.0256    0.0309
          37    0.0445    0.0579    0.0359    0.0234    0.0476    0.0454    0.0066   -0.0081
          38   -0.0065   -0.0077   -0.0031   -0.0011   -0.0135   -0.0128   -0.0013    0.0019
          39    0.1328    0.1726    0.1058    0.0684    0.1877    0.1795    0.0264   -0.0325
          40   -0.0923   -0.1211   -0.0754   -0.0482    0.1656    0.1583    0.0233   -0.0293
          41   -0.0429   -0.0568   -0.0363   -0.0237    0.0817    0.0783    0.0124   -0.0151
          42    0.0603    0.0789    0.0482    0.0304   -0.1300   -0.1243   -0.0181    0.0230
          43   -0.0004    0.0001   -0.0002    0.0000   -0.0006   -0.0008    0.0001   -0.0004
          44   -0.0003   -0.0000   -0.0002    0.0000   -0.0001   -0.0001    0.0001   -0.0003
          45    0.0002   -0.0002    0.0002   -0.0001   -0.0001   -0.0001    0.0001   -0.0001
          46    0.0004    0.0001    0.0002    0.0000   -0.0006    0.0008    0.0001    0.0004
          47   -0.0002    0.0001   -0.0001   -0.0000    0.0001   -0.0001   -0.0002   -0.0003
          48   -0.0003   -0.0001   -0.0003   -0.0001   -0.0001    0.0001    0.0000    0.0000


   Root No.      41        42

                41 A      42 A   

                3144.5    3147.1
  
           1   -0.0001    0.0000
           2   -0.0001    0.0000
           3   -0.0000    0.0000
           4    0.0001    0.0000
           5   -0.0001   -0.0000
           6    0.0000    0.0000
           7    0.0001    0.0001
           8    0.0000    0.0005
           9    0.0001    0.0001
          10   -0.0001    0.0001
          11    0.0000   -0.0005
          12   -0.0001   -0.0001
          13   -0.0000   -0.0005
          14    0.0066   -0.0001
          15    0.0012   -0.0001
          16   -0.0011   -0.0636
          17   -0.0465    0.0032
          18   -0.0086   -0.0128
          19    0.0003   -0.0001
          20    0.0003   -0.0002
          21    0.0006   -0.0003
          22    0.0001   -0.0001
          23    0.0001   -0.0001
          24   -0.0003    0.0002
          25   -0.0001   -0.0001
          26    0.0000    0.0000
          27    0.0003    0.0002
          28   -0.0003   -0.0001
          29    0.0005    0.0002
          30   -0.0005   -0.0002
          31   -0.0001    0.0006
          32    0.0000    0.0005
          33    0.0001   -0.0003
          34   -0.0003    0.0002
          35    0.0005    0.0003
          36   -0.0010    0.0005
          37    0.0003    0.0002
          38    0.0001   -0.0004
          39    0.0011    0.0004
          40    0.0001    0.0006
          41    0.0000   -0.0004
          42   -0.0001   -0.0004
          43    0.4012    0.3728
          44    0.2280    0.2341
          45    0.1255    0.1207
          46   -0.3882    0.3868
          47    0.2483   -0.2703
          48   -0.0368    0.0326


           MASS-WEIGHTED COORDINATE ANALYSIS (NORMAL COORDINATES)


   Root No.       1         2         3         4         5         6         7         8

                 1 A       2 A       3 A       4 A       5 A       6 A       7 A       8 A   

                  73.3     114.5     368.1     441.7     590.3     611.5     645.2     795.4
  
           1   -0.0451    0.0009    0.0922   -0.0196    0.0445    0.0349    0.3072   -0.1662
           2    0.0194   -0.0205   -0.1313   -0.0173   -0.2614   -0.1607    0.3460   -0.1443
           3    0.2028    0.3763    0.0078   -0.0548   -0.0219    0.0009    0.0012   -0.2115
           4   -0.0450   -0.0030    0.0922   -0.0197   -0.0438   -0.0345    0.3074   -0.1589
           5   -0.0927    0.1082    0.1205    0.0342   -0.2538   -0.1499   -0.3238    0.2216
           6    0.1973   -0.3527    0.0529   -0.0450   -0.0711   -0.0567   -0.1199   -0.1680
           7    0.0848    0.0580   -0.2295    0.0214    0.2736    0.1525   -0.1903    0.1092
           8    0.0528    0.0001   -0.1700   -0.0211   -0.1060   -0.0602    0.2370   -0.1528
           9   -0.3581   -0.2305   -0.0905   -0.0353    0.0700    0.0219   -0.0082   -0.0523
          10    0.0868   -0.0541   -0.2297    0.0203   -0.2736   -0.1537   -0.1896    0.1178
          11    0.0785   -0.0772    0.1906    0.0321   -0.0761   -0.0478   -0.2190    0.1742
          12   -0.3625    0.2025   -0.0247   -0.0269   -0.1024   -0.0422   -0.0900   -0.0320
          13    0.0171    0.0004   -0.3449   -0.1562    0.0002   -0.0004   -0.1717    0.0759
          14    0.0175   -0.0085    0.0181   -0.1222    0.3527    0.2065   -0.0194   -0.0310
          15   -0.0964   -0.0028   -0.1008    0.6809    0.0623    0.0371    0.1045    0.1428
          16   -0.1042   -0.0024    0.4746    0.0626   -0.0010    0.0014   -0.0625    0.0475
          17   -0.0728   -0.0127   -0.0198    0.0361    0.4187    0.2489    0.0027   -0.0116
          18    0.4041    0.0055    0.1095   -0.1965    0.0756    0.0455   -0.0185    0.0218
          19   -0.0291   -0.1228    0.0667   -0.0055   -0.0205   -0.0223   -0.0363   -0.2453
          20   -0.0832   -0.1567   -0.0798    0.0013   -0.0182   -0.0375    0.0073   -0.2766
          21    0.1226    0.2637    0.0102   -0.0204   -0.0295    0.0091    0.1273    0.1886
          22   -0.0229    0.1389    0.0511   -0.0061   -0.0073    0.0143    0.2060    0.1653
          23    0.1177    0.1497   -0.0431   -0.0098   -0.1078   -0.0438    0.2425    0.1722
          24    0.1203    0.2612    0.0099   -0.0193   -0.0343    0.0048    0.1391    0.1711
          25   -0.0175   -0.1399    0.0511   -0.0057    0.0079   -0.0139    0.2061    0.1720
          26   -0.1610    0.2252    0.0374    0.0150   -0.1138   -0.0396   -0.2760   -0.2558
          27    0.0792   -0.1899    0.0242   -0.0143   -0.0053   -0.0195    0.0459    0.1043
          28   -0.0339    0.1215    0.0668   -0.0056    0.0203    0.0224   -0.0364   -0.2480
          29    0.0375   -0.0538    0.0711    0.0061   -0.0277   -0.0315   -0.0506    0.2187
          30    0.1555   -0.2961    0.0370   -0.0188    0.0215   -0.0211    0.1170    0.2997
          31   -0.0565   -0.0635   -0.0809   -0.1710    0.0009    0.1051   -0.0533    0.1003
          32    0.0923    0.0765   -0.0946   -0.0195   -0.0478   -0.0512   -0.0268   -0.1251
          33   -0.2255   -0.1883   -0.0339   -0.2336   -0.0797    0.0931    0.0305    0.0956
          34    0.1626    0.1518   -0.0813    0.2850    0.1954   -0.0651   -0.1161   -0.0606
          35   -0.0509   -0.0815   -0.0927    0.0460   -0.0640   -0.0431    0.1117    0.0598
          36   -0.1727   -0.1393   -0.0342   -0.0932   -0.0318    0.0393    0.0331    0.0552
          37    0.1678   -0.1444   -0.0821    0.2839   -0.1962    0.0644   -0.1160   -0.1068
          38    0.1128   -0.1209    0.0988   -0.0104   -0.0716   -0.0263   -0.1162   -0.0924
          39   -0.1481    0.0965    0.0008   -0.1039    0.0080   -0.0520   -0.0076    0.0370
          40   -0.0591    0.0613   -0.0805   -0.1714   -0.0002   -0.1057   -0.0530    0.1300
          41   -0.0083    0.0060    0.1002    0.0994   -0.0730   -0.0151    0.0149    0.0950
          42   -0.2509    0.1930    0.0020   -0.2119    0.0587   -0.1051    0.0382    0.1693
          43   -0.0457   -0.0101    0.2951    0.0554    0.0572   -0.1238   -0.0015    0.0007
          44   -0.0296   -0.0115   -0.2542    0.0256    0.1884   -0.0218   -0.0105    0.0355
          45    0.1814    0.0462    0.0265   -0.2011   -0.2781    0.5845   -0.0383   -0.0261
          46   -0.0461    0.0079    0.2946    0.0553   -0.0575    0.1239   -0.0013    0.0051
          47   -0.0361    0.0036    0.2286    0.0466    0.0798    0.1828    0.0230   -0.0254
          48    0.1823   -0.0408    0.1157   -0.1964    0.3272   -0.5555   -0.0330   -0.0617


   Root No.       9        10        11        12        13        14        15        16

                 9 A      10 A      11 A      12 A      13 A      14 A      15 A      16 A   

                 797.9     915.5     938.9     942.3     987.8    1005.1    1021.8    1054.0
  
           1   -0.0394    0.0251   -0.0009   -0.0485    0.0377   -0.0021    0.3550    0.0122
           2    0.0453   -0.0789    0.0152   -0.0251    0.0145   -0.0192    0.3053   -0.2469
           3    0.1692    0.0168   -0.1263    0.0121   -0.2257    0.0401    0.1090   -0.0762
           4    0.0625    0.0251    0.0011    0.0483   -0.0380   -0.0038   -0.3550    0.0119
           5    0.0710    0.0682    0.0290   -0.0201   -0.0639    0.0050    0.3242    0.2580
           6   -0.1200    0.0435   -0.1253   -0.0159    0.2155    0.0453    0.0041    0.0143
           7   -0.0656   -0.2098   -0.0710    0.4330   -0.0064    0.0165    0.2413   -0.1292
           8    0.0064    0.0333   -0.0566    0.1256   -0.0124    0.0213   -0.1581    0.2460
           9    0.2768   -0.0733    0.2774    0.0453    0.1974   -0.0661    0.0030    0.0621
          10    0.0490   -0.2094   -0.0849   -0.4304    0.0059    0.0156   -0.2414   -0.1294
          11    0.0784   -0.0059   -0.0393    0.1350    0.0566    0.0027   -0.1472   -0.2521
          12   -0.2544   -0.0802    0.2812   -0.0080   -0.1882   -0.0707   -0.0573   -0.0279
          13   -0.0055    0.0796    0.0498   -0.0007    0.0003   -0.0287    0.0001    0.0814
          14   -0.0689   -0.0082    0.0411   -0.1573   -0.0179   -0.0307   -0.0241   -0.0031
          15   -0.0239    0.0456   -0.2427   -0.0242   -0.0039    0.1709   -0.0048    0.0172
          16   -0.0032    0.4323    0.0946   -0.0012    0.0000    0.0789   -0.0001   -0.1212
          17   -0.1040   -0.0184    0.0237   -0.2862   -0.0409    0.0781   -0.1060    0.0042
          18   -0.0204    0.1031   -0.1585   -0.0491   -0.0068   -0.4348   -0.0183   -0.0235
          19    0.0322    0.1132   -0.2329   -0.1439   -0.0824    0.1317    0.2574    0.2269
          20    0.2447   -0.0803    0.0467    0.0933   -0.1459   -0.0765    0.0931   -0.3039
          21   -0.1245   -0.0085    0.0497    0.0055    0.0802   -0.0060   -0.0445    0.0248
          22   -0.0561    0.0035    0.2707   -0.0489    0.0860   -0.1501    0.1129    0.1268
          23   -0.2272   -0.0405   -0.0541    0.0402    0.1958    0.0742    0.0153   -0.0831
          24   -0.1195   -0.0089    0.0517    0.0134    0.0858   -0.0074   -0.0064    0.0218
          25    0.0319    0.0036    0.2726    0.0400   -0.0835   -0.1508   -0.1121    0.1279
          26   -0.2196    0.0410    0.0333    0.0412    0.2132   -0.0661    0.0129    0.0711
          27    0.0184    0.0059    0.0673   -0.0007   -0.0115   -0.0326    0.0115    0.0496
          28    0.0031    0.1129   -0.2282    0.1515    0.0806    0.1307   -0.2583    0.2247
          29    0.1564    0.0781   -0.0577    0.0915   -0.1084    0.0733    0.0711    0.2748
          30    0.1604    0.0201    0.0317    0.0264   -0.1249    0.0207    0.0738    0.1284
          31   -0.2141   -0.0717   -0.1761    0.2641   -0.1844    0.0012    0.0442    0.0312
          32    0.1648   -0.0200    0.0838    0.1957   -0.2823   -0.1546   -0.2552    0.3718
          33   -0.2183   -0.0266   -0.1493    0.1414   -0.0997    0.0224    0.0178    0.0204
          34    0.3320   -0.0936    0.2402    0.1418    0.2567   -0.0137    0.0389    0.0572
          35   -0.0959   -0.0154   -0.1182    0.1802    0.3431    0.1942   -0.1269    0.1377
          36   -0.0812   -0.0172   -0.0484    0.0579    0.0795    0.0507   -0.0114    0.0094
          37   -0.3194   -0.0941    0.2368   -0.1504   -0.2559   -0.0150   -0.0386    0.0571
          38   -0.1060    0.0199    0.1335    0.1850    0.3496   -0.1993   -0.1224   -0.1335
          39    0.0385   -0.0105   -0.0044    0.0089    0.0455   -0.0201   -0.0335   -0.0395
          40    0.1980   -0.0711   -0.1862   -0.2579    0.1846    0.0019   -0.0445    0.0305
          41    0.0656    0.0280   -0.0181    0.2333   -0.3003    0.1354   -0.2332   -0.3537
          42    0.2399   -0.0172   -0.1715   -0.0581   -0.0054    0.0747   -0.1058   -0.1101
          43   -0.0315   -0.1978   -0.0786    0.0334   -0.0112   -0.0998    0.0178    0.0323
          44   -0.0733    0.5130    0.0178   -0.1353   -0.0356   -0.1003   -0.0625   -0.1058
          45    0.1671    0.0250    0.2604   -0.0397    0.0741    0.4911   -0.0112   -0.0124
          46    0.0311   -0.1981   -0.0797   -0.0310    0.0111   -0.0995   -0.0174    0.0323
          47   -0.0068   -0.4897   -0.1124   -0.1376   -0.0077   -0.0778   -0.0622    0.1035
          48   -0.1749   -0.1534    0.2378   -0.0179   -0.0831    0.4945   -0.0132    0.0250


   Root No.      17        18        19        20        21        22        23        24

                17 A      18 A      19 A      20 A      21 A      22 A      23 A      24 A   

                1077.2    1089.4    1122.6    1127.7    1140.7    1237.3    1273.0    1310.5
  
           1   -0.0136    0.0087    0.0271   -0.0111    0.2454   -0.1239    0.1717   -0.4195
           2    0.0092    0.0454    0.1179   -0.1498   -0.1000    0.0498   -0.2029    0.1932
           3    0.0557   -0.0223   -0.1684    0.3430   -0.1239   -0.0049    0.0010   -0.0255
           4    0.0137    0.0088    0.0264    0.0104   -0.2454   -0.1242   -0.1718    0.4224
           5    0.0291   -0.0345   -0.0525   -0.0199   -0.1367   -0.0453   -0.1901    0.1765
           6   -0.0492   -0.0360   -0.2075   -0.3684    0.0821   -0.0219   -0.0717    0.0923
           7   -0.0146    0.0313   -0.0032   -0.0363   -0.0774    0.0165    0.0591    0.0617
           8    0.0218   -0.0145   -0.1081    0.1000    0.1736    0.2341    0.3618   -0.0173
           9   -0.1843   -0.1235    0.2089   -0.1321    0.0032    0.0251    0.0699   -0.0097
          10    0.0143    0.0311   -0.0021    0.0366    0.0775    0.0165   -0.0590   -0.0619
          11   -0.0447    0.0565    0.0300    0.0470    0.1640   -0.2280    0.3638   -0.0221
          12    0.1794   -0.1125    0.2369    0.1524    0.0564   -0.0581    0.0608    0.0024
          13   -0.0001   -0.0822    0.0165   -0.0003   -0.0002    0.3708   -0.0002    0.0008
          14    0.0048   -0.0670    0.0104   -0.0065   -0.0163   -0.0149    0.1027    0.1121
          15    0.0024    0.3722   -0.0584   -0.0001   -0.0027    0.0830    0.0186    0.0205
          16   -0.0000    0.0457    0.0077   -0.0000    0.0001   -0.1157    0.0001   -0.0003
          17    0.0056    0.0288   -0.0056    0.0030   -0.0308    0.0045   -0.0507    0.0822
          18    0.0003   -0.1591    0.0309    0.0000   -0.0057   -0.0252   -0.0092    0.0147
          19   -0.3726   -0.0818    0.1923    0.2978    0.1401    0.1362   -0.0510    0.0790
          20    0.3342    0.0799   -0.1987   -0.0434   -0.1569   -0.1394   -0.0204   -0.2277
          21   -0.0219   -0.0113    0.0077   -0.0431    0.0091    0.0126    0.0197    0.0680
          22    0.2404    0.0785   -0.3180   -0.1754    0.4531    0.1190   -0.1230    0.1212
          23   -0.2436   -0.0479    0.3712   -0.1735   -0.2466   -0.1227    0.0299   -0.2264
          24   -0.0237   -0.0113    0.0032   -0.0505    0.0038   -0.0118   -0.0202   -0.0570
          25   -0.2401    0.0803   -0.3152    0.1826   -0.4519    0.1189    0.1229   -0.1241
          26   -0.2364    0.0509   -0.3540   -0.1712   -0.2287    0.1193    0.0207   -0.2329
          27   -0.0625    0.0066   -0.1267   -0.0101   -0.0888    0.0316    0.0293   -0.0260
          28    0.3739   -0.0840    0.1836   -0.3020   -0.1412    0.1362    0.0512   -0.0829
          29    0.3070   -0.0728    0.1812   -0.0602   -0.1449    0.1264   -0.0122   -0.1912
          30    0.1372   -0.0393    0.0766    0.0231   -0.0635    0.0603   -0.0256   -0.1428
          31   -0.0314    0.1773   -0.0539   -0.0014    0.0356   -0.1790   -0.1424    0.0528
          32   -0.2561    0.3142    0.0929   -0.1351    0.2392   -0.3216   -0.1481   -0.1441
          33   -0.0172    0.0924   -0.0356    0.0180    0.0172   -0.1159   -0.1032    0.0670
          34   -0.0934   -0.2149    0.0551    0.0109    0.0331   -0.1816   -0.1549    0.0746
          35    0.1232   -0.3938   -0.2500    0.3940    0.0855   -0.2878   -0.1760   -0.0812
          36    0.0117   -0.0843   -0.0290    0.0746   -0.0061   -0.0464   -0.0166   -0.0393
          37    0.0921   -0.2156    0.0542   -0.0127   -0.0336   -0.1815    0.1549   -0.0769
          38    0.1218    0.3968    0.2543    0.3898    0.0778    0.2859   -0.1708   -0.0897
          39    0.0321    0.0581    0.0615    0.0658    0.0354    0.0570   -0.0460    0.0091
          40    0.0327    0.1778   -0.0543    0.0030   -0.0351   -0.1788    0.1427   -0.0547
          41   -0.2501   -0.3254   -0.0767   -0.1189    0.2301    0.3417   -0.1751   -0.1111
          42   -0.0738   -0.0222   -0.0669   -0.0621    0.0674    0.0040    0.0447   -0.1144
          43    0.0014   -0.0338    0.0031   -0.0014    0.0071    0.0364    0.1894    0.1650
          44    0.0086   -0.0166    0.0112    0.0052   -0.0202   -0.1067   -0.3442   -0.2595
          45   -0.0169    0.1477   -0.0172   -0.0031   -0.0054   -0.0112   -0.0256   -0.0125
          46   -0.0016   -0.0335    0.0031    0.0012   -0.0072    0.0364   -0.1894   -0.1648
          47    0.0022   -0.0357   -0.0045    0.0037   -0.0209    0.1038   -0.3316   -0.2472
          48    0.0202    0.1442   -0.0199    0.0053   -0.0020    0.0265   -0.0963   -0.0789


   Root No.      25        26        27        28        29        30        31        32

                25 A      26 A      27 A      28 A      29 A      30 A      31 A      32 A   

                1312.5    1347.7    1361.8    1396.0    1414.1    1423.2    1429.5    1906.8
  
           1   -0.2563   -0.0851   -0.0486    0.1700    0.0901    0.0662   -0.2302   -0.0141
           2    0.3288    0.0070    0.0235   -0.0355    0.2918   -0.0753   -0.1946   -0.0160
           3    0.0300   -0.0119    0.0170    0.0071    0.0157    0.0108    0.0008   -0.0038
           4   -0.2515    0.0849   -0.0492   -0.1697    0.0936    0.0648    0.2295    0.0141
           5   -0.3165    0.0028   -0.0277   -0.0303   -0.2811    0.0680   -0.1782   -0.0163
           6   -0.0851    0.0136    0.0078   -0.0188   -0.0875    0.0367   -0.0670   -0.0020
           7    0.0154    0.1225   -0.0480   -0.2875   -0.1004   -0.3748   -0.0321   -0.0597
           8   -0.1925    0.3066   -0.3016    0.0703   -0.1847   -0.0703    0.1268   -0.0747
           9   -0.0292    0.0626   -0.0348   -0.0700   -0.0409   -0.1063   -0.0018   -0.0261
          10    0.0149   -0.1223   -0.0478    0.2868   -0.1001   -0.3759    0.0307    0.0597
          11    0.1902    0.3093    0.2942    0.0416    0.1893    0.1021    0.1170   -0.0791
          12    0.0398    0.0484    0.0721    0.0893    0.0267   -0.0751    0.0449   -0.0017
          13   -0.1015    0.0001    0.3838    0.0007    0.2044    0.5239    0.0008   -0.0001
          14    0.0049   -0.1713   -0.0130    0.0242   -0.0072   -0.0196   -0.0057    0.7583
          15   -0.0236   -0.0309    0.0729    0.0046    0.0397    0.1086   -0.0008    0.1367
          16    0.0404    0.0000   -0.0493   -0.0001   -0.0220   -0.0803   -0.0002    0.0000
          17   -0.0011   -0.2765    0.0017    0.0518    0.0005    0.0029   -0.0138   -0.5824
          18    0.0091   -0.0498   -0.0087    0.0093   -0.0039   -0.0166   -0.0025   -0.1050
          19    0.3409   -0.0001    0.0878   -0.1072   -0.1349   -0.0422    0.2313   -0.0020
          20   -0.0622   -0.1514    0.1366    0.0057   -0.2622    0.1256    0.2302   -0.0012
          21   -0.0769    0.0723   -0.1093    0.0556    0.2587   -0.0538   -0.2794   -0.0073
          22    0.2813   -0.0188    0.0928   -0.1195   -0.1451   -0.0317    0.2299   -0.0005
          23   -0.0594   -0.1215    0.1112    0.0005   -0.2878    0.1011    0.2356    0.0011
          24    0.0632   -0.0631    0.0974   -0.0565   -0.2486    0.0446    0.2578    0.0045
          25    0.2798    0.0191    0.0931    0.1194   -0.1482   -0.0302   -0.2282    0.0005
          26    0.0307   -0.1366   -0.1383   -0.0196    0.3597   -0.1125    0.3051    0.0026
          27    0.0797    0.0172    0.0528    0.0532   -0.1350    0.0076   -0.1579   -0.0039
          28    0.3399    0.0004    0.0881    0.1069   -0.1379   -0.0408   -0.2296    0.0020
          29    0.0828   -0.1170   -0.0900    0.0243    0.1570   -0.0999    0.1158   -0.0037
          30   -0.0522   -0.1210   -0.1502   -0.0506    0.3377   -0.0963    0.3368    0.0064
          31    0.1390   -0.0169   -0.1742    0.2127   -0.0068    0.1135    0.0388    0.0045
          32   -0.0193   -0.2138    0.1950   -0.1172    0.0763   -0.0867   -0.1114    0.0249
          33    0.1340    0.0224   -0.2449    0.3323   -0.0148    0.2231    0.0843    0.0061
          34    0.1783    0.0146   -0.2771    0.3660   -0.0079    0.2313    0.0789    0.0005
          35    0.0166   -0.1836    0.1685   -0.0869    0.0781   -0.0546   -0.0902    0.0189
          36   -0.0338   -0.0559    0.1355   -0.1721    0.0204   -0.1303   -0.0610    0.0022
          37    0.1770   -0.0150   -0.2770   -0.3656   -0.0093    0.2325   -0.0775   -0.0005
          38   -0.0049   -0.1918   -0.2044   -0.1410   -0.0820    0.0976   -0.1044    0.0185
          39   -0.0375   -0.0114    0.0689    0.1317   -0.0077   -0.1041    0.0253    0.0046
          40    0.1384    0.0165   -0.1745   -0.2132   -0.0074    0.1148   -0.0383   -0.0045
          41   -0.0298   -0.1925   -0.0973    0.0057   -0.0677    0.0040   -0.0744    0.0255
          42    0.1303   -0.0960   -0.2966   -0.3515   -0.0424    0.2408   -0.1159    0.0029
          43   -0.0066   -0.2582    0.0272    0.0379    0.0129    0.0305   -0.0045   -0.1237
          44    0.0289    0.3566   -0.0607   -0.0477   -0.0277   -0.0796    0.0033   -0.0209
          45    0.0038    0.0087   -0.0054   -0.0013   -0.0025   -0.0079   -0.0011   -0.0302
          46   -0.0086    0.2582    0.0270   -0.0378    0.0130    0.0307    0.0046    0.1238
          47   -0.0313    0.3373    0.0585   -0.0450    0.0270    0.0775    0.0030   -0.0301
          48   -0.0074    0.1164    0.0161   -0.0153    0.0075    0.0203    0.0023    0.0207


   Root No.      33        34        35        36        37        38        39        40

                33 A      34 A      35 A      36 A      37 A      38 A      39 A      40 A   

                2964.2    2967.7    2978.0    2989.5    3050.4    3051.4    3062.2    3067.1
  
           1    0.0036   -0.0023   -0.0050    0.0056    0.0133   -0.0142   -0.0934   -0.0880
           2    0.0047   -0.0028   -0.0064    0.0073    0.0203   -0.0232   -0.1218   -0.1206
           3   -0.1360    0.0785    0.1688   -0.1990    0.0026   -0.0019   -0.0169   -0.0184
           4   -0.0036   -0.0024    0.0050    0.0057    0.0134    0.0140   -0.0924    0.0889
           5   -0.0424   -0.0252    0.0522    0.0627   -0.0200   -0.0222    0.1189   -0.1208
           6    0.1278    0.0762   -0.1591   -0.1905   -0.0047   -0.0062    0.0261   -0.0247
           7   -0.0407    0.0476   -0.0319    0.0189   -0.1392    0.1420   -0.0183   -0.0270
           8   -0.0169    0.0203   -0.0136    0.0080    0.0550   -0.0558    0.0050    0.0086
           9    0.1633   -0.1926    0.1293   -0.0764   -0.0193    0.0200   -0.0027   -0.0033
          10    0.0400    0.0480    0.0316    0.0190   -0.1403   -0.1408   -0.0179    0.0271
          11    0.0405    0.0486    0.0321    0.0193   -0.0452   -0.0449   -0.0037    0.0069
          12   -0.1567   -0.1897   -0.1253   -0.0751   -0.0378   -0.0379   -0.0043    0.0061
          13    0.0000   -0.0005    0.0000    0.0000   -0.0033    0.0000   -0.0000    0.0000
          14    0.0020    0.0001   -0.0002    0.0001    0.0001    0.0032    0.0000    0.0038
          15    0.0004   -0.0005   -0.0000   -0.0008   -0.0005    0.0006   -0.0002    0.0007
          16    0.0000    0.0003    0.0000    0.0002   -0.0000    0.0000   -0.0000   -0.0000
          17   -0.0004    0.0001   -0.0001    0.0001    0.0000   -0.0006    0.0000   -0.0001
          18   -0.0001   -0.0008   -0.0000   -0.0003   -0.0000   -0.0001    0.0000   -0.0000
          19    0.1006   -0.0624   -0.1245    0.1544   -0.0256    0.0337    0.1768    0.1785
          20    0.1342   -0.0773   -0.1738    0.2048   -0.0324    0.0413    0.2410    0.2373
          21    0.2070   -0.1218   -0.2584    0.3057   -0.0606    0.0774    0.4326    0.4280
          22   -0.1159    0.0710    0.1407   -0.1745   -0.0201    0.0270    0.1386    0.1367
          23   -0.1538    0.0862    0.1975   -0.2294   -0.0254    0.0337    0.1871    0.1812
          24    0.2659   -0.1529   -0.3278    0.3829    0.0527   -0.0695   -0.3750   -0.3652
          25    0.1147    0.0725   -0.1395   -0.1759   -0.0202   -0.0267    0.1370   -0.1379
          26   -0.0513   -0.0283    0.0706    0.0825    0.0055    0.0074   -0.0444    0.0431
          27   -0.3000   -0.1773    0.3732    0.4426    0.0587    0.0761   -0.4120    0.4092
          28   -0.0994   -0.0636    0.1232    0.1553   -0.0258   -0.0334    0.1751   -0.1805
          29    0.1956    0.1172   -0.2504   -0.3002    0.0519    0.0650   -0.3729    0.3755
          30   -0.1457   -0.0891    0.1800    0.2166   -0.0460   -0.0577    0.3187   -0.3223
          31    0.2664   -0.3146    0.2153   -0.1255    0.3798   -0.3799    0.0547    0.0693
          32   -0.0554    0.0670   -0.0493    0.0302   -0.0718    0.0723   -0.0124   -0.0146
          33   -0.2052    0.2423   -0.1645    0.0952   -0.3433    0.3439   -0.0498   -0.0631
          34   -0.1279    0.1499   -0.1023    0.0608    0.1078   -0.1077    0.0153    0.0189
          35    0.1162   -0.1377    0.0972   -0.0594   -0.1202    0.1207   -0.0185   -0.0224
          36   -0.3667    0.4285   -0.2874    0.1685    0.4122   -0.4127    0.0589    0.0731
          37    0.1265    0.1522    0.1022    0.0615    0.1097    0.1078    0.0152   -0.0192
          38   -0.0185   -0.0203   -0.0088   -0.0030   -0.0311   -0.0303   -0.0031    0.0044
          39    0.3778    0.4537    0.3011    0.1798    0.4326    0.4260    0.0608   -0.0770
          40   -0.2627   -0.3183   -0.2144   -0.1267    0.3817    0.3755    0.0536   -0.0695
          41   -0.1219   -0.1492   -0.1033   -0.0623    0.1883    0.1858    0.0285   -0.0358
          42    0.1716    0.2073    0.1372    0.0799   -0.2996   -0.2950   -0.0417    0.0544
          43   -0.0013    0.0002   -0.0005    0.0001   -0.0013   -0.0019    0.0003   -0.0009
          44   -0.0010   -0.0000   -0.0005    0.0001   -0.0002   -0.0001    0.0003   -0.0007
          45    0.0007   -0.0004    0.0007   -0.0002   -0.0002   -0.0003    0.0001   -0.0003
          46    0.0012    0.0002    0.0005    0.0001   -0.0013    0.0019    0.0003    0.0009
          47   -0.0007    0.0001   -0.0002   -0.0000    0.0002   -0.0002   -0.0004   -0.0008
          48   -0.0010   -0.0004   -0.0008   -0.0002   -0.0001    0.0002    0.0000    0.0001


   Root No.      41        42

                41 A      42 A   

                3144.5    3147.1
  
           1   -0.0004    0.0002
           2   -0.0005    0.0000
           3   -0.0002    0.0001
           4    0.0004    0.0002
           5   -0.0006   -0.0000
           6    0.0000    0.0000
           7    0.0003    0.0005
           8    0.0001    0.0024
           9    0.0005    0.0006
          10   -0.0003    0.0005
          11    0.0002   -0.0025
          12   -0.0005   -0.0003
          13   -0.0000   -0.0027
          14    0.0332   -0.0005
          15    0.0060   -0.0007
          16   -0.0055   -0.3161
          17   -0.2344    0.0157
          18   -0.0435   -0.0636
          19    0.0004   -0.0002
          20    0.0005   -0.0002
          21    0.0009   -0.0004
          22    0.0001   -0.0001
          23    0.0002   -0.0002
          24   -0.0005    0.0003
          25   -0.0001   -0.0001
          26    0.0000    0.0001
          27    0.0005    0.0003
          28   -0.0004   -0.0001
          29    0.0008    0.0003
          30   -0.0007   -0.0003
          31   -0.0002    0.0008
          32    0.0000    0.0007
          33    0.0001   -0.0004
          34   -0.0005    0.0003
          35    0.0007    0.0004
          36   -0.0015    0.0007
          37    0.0005    0.0003
          38    0.0001   -0.0006
          39    0.0016    0.0005
          40    0.0002    0.0008
          41    0.0001   -0.0006
          42   -0.0001   -0.0006
          43    0.5854    0.5368
          44    0.3327    0.3370
          45    0.1832    0.1737
          46   -0.5665    0.5569
          47    0.3623   -0.3892
          48   -0.0537    0.0469


          DESCRIPTION OF VIBRATIONS


 VIBRATION          1    1A           ATOM PAIR      ENERGY CONTRIBUTION    RADIAL
 FREQUENCY            73.26         C  2 -- C  4         +13.9% (681.7%)      0.0%
 TRANSITION DIPOLE   0.0416         C  1 -- C  3         +12.9% (657.7%)      0.0%
 TRAVEL (Ang.)       0.9873         C  4 -- C  5          +8.7% (539.4%)      0.0%
 REDUCED MASS        0.9443         C  4 -- H 14          +8.5% (534.5%)     99.3%
 EFFECTIVE MASS    563.8697
 FORCE CONSTANT      0.0030

 VIBRATION          2    2A           ATOM PAIR      ENERGY CONTRIBUTION    RADIAL
 FREQUENCY           114.55         C  1 -- C  2         +18.0% (532.0%)      0.0%
 TRANSITION DIPOLE   0.0028         C  1 -- C  3         +12.6% (444.9%)      0.0%
 TRAVEL (Ang.)       0.0000         C  2 -- C  4         +11.8% (430.0%)      0.0%
 REDUCED MASS        0.5880         C  1 -- H  7          +9.6% (387.6%)     87.5%
 EFFECTIVE MASS    257.0487
 FORCE CONSTANT      0.0045

 VIBRATION          3    3A           ATOM PAIR      ENERGY CONTRIBUTION    RADIAL
 FREQUENCY           368.14         C  5 -- C  6         +23.9% (199.1%)      0.0%
 TRANSITION DIPOLE   0.0285         C  6 -- H 15         +12.5% (144.0%)     87.6%
 TRAVEL (Ang.)       0.4013         C  6 -- H 16         +12.5% (144.0%)     87.6%
 REDUCED MASS        1.1371         C  3 -- C  5          +7.1% (108.6%)      0.0%
 EFFECTIVE MASS     29.4940
 FORCE CONSTANT      0.0908

 VIBRATION          4    4A           ATOM PAIR      ENERGY CONTRIBUTION    RADIAL
 FREQUENCY           441.74         C  5 -- C  6         +22.8% (113.4%)      0.0%
 TRANSITION DIPOLE   0.2814         C  4 -- C  5         +18.7% (102.6%)      0.0%
 TRAVEL (Ang.)       0.2220         C  3 -- C  5         +18.7% (102.5%)      0.0%
 REDUCED MASS        3.0963         C  3 -- H 12          +9.0% ( 71.0%)      0.1%
 EFFECTIVE MASS     12.3725
 FORCE CONSTANT      0.3560

 VIBRATION          5    5A           ATOM PAIR      ENERGY CONTRIBUTION    RADIAL
 FREQUENCY           590.31         C  6 -- H 15         +13.3% (108.4%)     14.2%
 TRANSITION DIPOLE   0.0543         C  6 -- H 16         +13.3% (108.3%)     14.4%
 TRAVEL (Ang.)       0.3480         C  4 -- C  5         +12.9% (106.8%)      0.2%
 REDUCED MASS        0.9435         C  3 -- C  5         +12.9% (106.7%)      0.2%
 EFFECTIVE MASS     12.8935
 FORCE CONSTANT      0.1937

 VIBRATION          6    6A           ATOM PAIR      ENERGY CONTRIBUTION    RADIAL
[...]
 FREQUENCY          1312.50         C  1 -- H  7         +14.0% ( 48.1%)      0.6%
 TRANSITION DIPOLE   0.0110         C  2 -- H 10         +13.8% ( 47.7%)      0.7%
 TRAVEL (Ang.)       0.2528         C  1 -- H  8         +12.0% ( 44.6%)      0.1%
 REDUCED MASS        0.8042         C  1 -- C  2         +11.8% ( 44.2%)      0.0%
 EFFECTIVE MASS      5.2007         C  2 -- H  9         +11.8% ( 44.1%)      0.1%
 FORCE CONSTANT      0.8162         C  1 -- C  3         +10.6% ( 41.9%)     95.4%
                            C  2 -- C  4         +10.4% ( 41.5%)     95.6%

 VIBRATION         26   26A           ATOM PAIR      ENERGY CONTRIBUTION    RADIAL
 FREQUENCY          1347.72         C  6 -- H 16         +15.8% ( 48.9%)      3.0%
 TRANSITION DIPOLE   0.1285         C  6 -- H 15         +15.8% ( 48.9%)      3.0%
 TRAVEL (Ang.)       0.3232         C  4 -- C  5          +8.8% ( 36.5%)     56.5%
 REDUCED MASS        0.4789         C  3 -- C  5          +8.8% ( 36.5%)     56.5%
 EFFECTIVE MASS      4.3683
 FORCE CONSTANT      0.5125

 VIBRATION         27   27A           ATOM PAIR      ENERGY CONTRIBUTION    RADIAL
 FREQUENCY          1361.82         C  3 -- C  5         +14.7% ( 44.2%)     99.5%
 TRANSITION DIPOLE   0.0116         C  4 -- C  5         +14.6% ( 44.2%)     99.5%
 TRAVEL (Ang.)       0.2966         C  3 -- H 11         +11.4% ( 38.9%)      0.7%
 REDUCED MASS        0.5629         C  4 -- H 14         +11.3% ( 38.9%)      0.7%
 EFFECTIVE MASS      4.5736         C  3 -- H 12         +11.1% ( 38.4%)      0.9%
 FORCE CONSTANT      0.6150         C  4 -- H 13         +11.0% ( 38.4%)      0.9%

 VIBRATION         28   28A           ATOM PAIR      ENERGY CONTRIBUTION    RADIAL
 FREQUENCY          1395.99         C  3 -- H 12         +15.0% ( 42.9%)      5.2%
 TRANSITION DIPOLE   0.0107         C  4 -- H 13         +14.9% ( 42.9%)      5.2%
 TRAVEL (Ang.)       0.3748         C  3 -- H 11         +14.6% ( 42.5%)      6.2%
 REDUCED MASS        0.3439         C  4 -- H 14         +14.6% ( 42.4%)      6.2%
 EFFECTIVE MASS      3.4956
 FORCE CONSTANT      0.3949

 VIBRATION         29   29A           ATOM PAIR      ENERGY CONTRIBUTION    RADIAL
 FREQUENCY          1414.14         C  2 -- H  9         +13.6% ( 43.2%)      4.5%
 TRANSITION DIPOLE   0.0106         C  1 -- H  8         +13.3% ( 42.7%)      4.5%
 TRAVEL (Ang.)       0.3478         C  2 -- H 10         +12.6% ( 41.6%)      6.7%
 REDUCED MASS        0.3942         C  1 -- H  7         +12.3% ( 41.1%)      6.7%
 EFFECTIVE MASS      4.3775
 FORCE CONSTANT      0.4644

 VIBRATION         30   30A           ATOM PAIR      ENERGY CONTRIBUTION    RADIAL
 FREQUENCY          1423.22         C  4 -- C  5         +20.4% ( 62.0%)     75.9%
 TRANSITION DIPOLE   0.1845         C  3 -- C  5         +20.4% ( 61.9%)     76.0%
 TRAVEL (Ang.)       0.1718         C  5 -- C  6         +10.0% ( 43.4%)      0.0%
 REDUCED MASS        1.6050         C  4 -- H 13          +8.2% ( 39.2%)      7.1%
 EFFECTIVE MASS      7.8135
 FORCE CONSTANT      1.9155

 VIBRATION         31   31A           ATOM PAIR      ENERGY CONTRIBUTION    RADIAL
 FREQUENCY          1429.46         C  1 -- H  7         +16.6% ( 43.2%)      5.5%
 TRANSITION DIPOLE   0.0404         C  2 -- H 10         +16.2% ( 42.7%)      5.5%
 TRAVEL (Ang.)       0.3785         C  1 -- H  8         +16.1% ( 42.5%)      5.4%
 REDUCED MASS        0.3293         C  2 -- H  9         +15.6% ( 42.0%)      5.4%
 EFFECTIVE MASS      3.1298         C  1 -- C  2         +11.9% ( 36.6%)     97.7%
 FORCE CONSTANT      0.3965

 VIBRATION         32   32A           ATOM PAIR      ENERGY CONTRIBUTION    RADIAL
 FREQUENCY          1906.80         C  5 -- C  6         +44.3% ( 98.7%)    100.0%
 TRANSITION DIPOLE   0.3472         C  4 -- C  5         +18.3% ( 63.5%)     39.4%
 TRAVEL (Ang.)       0.0787         C  3 -- C  5         +18.3% ( 63.5%)     39.4%
 REDUCED MASS        5.7088         C  6 -- H 15          +9.1% ( 44.7%)     11.7%
 EFFECTIVE MASS     11.8906
 FORCE CONSTANT     12.2293

 VIBRATION         33   33A           ATOM PAIR      ENERGY CONTRIBUTION    RADIAL
 FREQUENCY          2964.19         C  3 -- H 12         +17.4% ( 43.5%)     97.2%
 TRANSITION DIPOLE   0.0135         C  4 -- H 13         +16.8% ( 42.8%)     97.2%
 TRAVEL (Ang.)       0.4039         C  3 -- H 11         +12.7% ( 37.1%)     95.5%
 REDUCED MASS        0.1394         C  4 -- H 14         +12.4% ( 36.6%)     95.5%
 EFFECTIVE MASS      1.5564         C  1 -- H  8         +11.5% ( 35.3%)     97.1%
 FORCE CONSTANT      0.7217         C  2 -- H  9         +11.3% ( 35.0%)     97.1%

 VIBRATION         34   34A           ATOM PAIR      ENERGY CONTRIBUTION    RADIAL
 FREQUENCY          2967.67         C  4 -- H 13         +24.4% ( 51.4%)     97.2%
 TRANSITION DIPOLE   0.0462         C  3 -- H 12         +23.9% ( 50.9%)     97.2%
 TRAVEL (Ang.)       0.3351         C  4 -- H 14         +18.2% ( 44.4%)     95.5%
 REDUCED MASS        0.2024         C  3 -- H 11         +17.7% ( 43.8%)     95.5%
 EFFECTIVE MASS      1.5473
 FORCE CONSTANT      1.0500

 VIBRATION         35   35A           ATOM PAIR      ENERGY CONTRIBUTION    RADIAL
 FREQUENCY          2978.01         C  1 -- H  8         +17.7% ( 43.7%)     97.3%
 TRANSITION DIPOLE   0.0045         C  2 -- H  9         +17.5% ( 43.3%)     97.3%
 TRAVEL (Ang.)       0.4033         C  1 -- H  7         +12.4% ( 36.5%)     95.3%
 REDUCED MASS        0.1392         C  2 -- H 10         +12.2% ( 36.2%)     95.3%
 EFFECTIVE MASS      1.5316         C  3 -- H 12         +10.9% ( 34.2%)     97.5%
 FORCE CONSTANT      0.7274         C  4 -- H 13         +10.7% ( 34.0%)     97.4%

 VIBRATION         36   36A           ATOM PAIR      ENERGY CONTRIBUTION    RADIAL
 FREQUENCY          2989.50         C  2 -- H  9         +24.9% ( 51.6%)     97.5%
 TRANSITION DIPOLE   0.0461         C  1 -- H  8         +24.5% ( 51.1%)     97.5%
 TRAVEL (Ang.)       0.3332         C  2 -- H 10         +17.7% ( 43.5%)     95.6%
 REDUCED MASS        0.2032         C  1 -- H  7         +17.5% ( 43.2%)     95.6%
 EFFECTIVE MASS      1.5238
 FORCE CONSTANT      1.0699

 VIBRATION         37   37A           ATOM PAIR      ENERGY CONTRIBUTION    RADIAL
 FREQUENCY          3050.39         C  4 -- H 14         +28.3% ( 52.4%)     98.4%
 TRANSITION DIPOLE   0.1061         C  3 -- H 11         +27.9% ( 52.1%)     98.5%
 TRAVEL (Ang.)       0.3049         C  4 -- H 13         +20.5% ( 44.6%)     96.6%
 REDUCED MASS        0.2378         C  3 -- H 12         +20.1% ( 44.2%)     96.6%
 EFFECTIVE MASS      1.2777
 FORCE CONSTANT      1.3039

 VIBRATION         38   38A           ATOM PAIR      ENERGY CONTRIBUTION    RADIAL
 FREQUENCY          3051.42         C  3 -- H 11         +28.0% ( 52.2%)     98.4%
 TRANSITION DIPOLE   0.0142         C  4 -- H 14         +27.4% ( 51.6%)     98.4%
 TRAVEL (Ang.)       0.3086         C  3 -- H 12         +20.1% ( 44.3%)     96.4%
 REDUCED MASS        0.2321         C  4 -- H 13         +19.9% ( 44.0%)     96.5%
 EFFECTIVE MASS      1.2893
 FORCE CONSTANT      1.2732

 VIBRATION         39   39A           ATOM PAIR      ENERGY CONTRIBUTION    RADIAL
 FREQUENCY          3062.20         C  1 -- H  7         +28.9% ( 53.0%)     98.5%
 TRANSITION DIPOLE   0.0486         C  2 -- H 10         +28.4% ( 52.5%)     98.5%
 TRAVEL (Ang.)       0.3032         C  1 -- H  8         +19.9% ( 44.0%)     96.4%
 REDUCED MASS        0.2395         C  2 -- H  9         +19.5% ( 43.5%)     96.3%
 EFFECTIVE MASS      1.2814
 FORCE CONSTANT      1.3233

 VIBRATION         40   40A           ATOM PAIR      ENERGY CONTRIBUTION    RADIAL
 FREQUENCY          3067.14         C  2 -- H 10         +29.0% ( 53.0%)     98.6%
 TRANSITION DIPOLE   0.0430         C  1 -- H  7         +28.3% ( 52.4%)     98.6%
 TRAVEL (Ang.)       0.3060         C  2 -- H  9         +19.2% ( 43.2%)     96.2%
 REDUCED MASS        0.2348         C  1 -- H  8         +18.9% ( 42.8%)     96.2%
 EFFECTIVE MASS      1.2864
 FORCE CONSTANT      1.3016

 VIBRATION         41   41A           ATOM PAIR      ENERGY CONTRIBUTION    RADIAL
 FREQUENCY          3144.55         C  6 -- H 15         +50.9% ( 71.3%)     95.6%
 TRANSITION DIPOLE   0.3091         C  6 -- H 16         +47.5% ( 68.9%)     94.9%
 TRAVEL (Ang.)       0.2099         C  5 -- C  6          +1.5% ( 12.4%)    100.0%
 REDUCED MASS        0.4865
 EFFECTIVE MASS      1.3874
 FORCE CONSTANT      2.8346

 VIBRATION         42   42A           ATOM PAIR      ENERGY CONTRIBUTION    RADIAL
 FREQUENCY          3147.09         C  6 -- H 16         +51.0% ( 73.2%)     97.2%
 TRANSITION DIPOLE   0.1941         C  6 -- H 15         +47.7% ( 70.8%)     96.8%
 TRAVEL (Ang.)       0.2001         C  5 -- C  6          +1.3% ( 11.7%)      0.0%
 REDUCED MASS        0.5354
 EFFECTIVE MASS      1.6059
 FORCE CONSTANT      3.1240

      SYMMETRY NUMBER FOR POINT-GROUP C1  =  1


          SYSTEM IS A GROUND STATE



 InChI=1S/C6H10/c1-6-4-2-3-5-6/h1-5H2


          MOLECULE IS NOT LINEAR

          THERE ARE 42 GENUINE VIBRATIONS IN THIS SYSTEM
          THIS THERMODYNAMICS CALCULATION IS LIMITED TO
          MOLECULES WHICH HAVE NO INTERNAL ROTATIONS




                    CALCULATED THERMODYNAMIC PROPERTIES
                                          *
   TEMP. (K)   PARTITION FUNCTION   H.O.F.    ENTHALPY  HEAT CAPACITY ENTROPY
                                   KCAL/MOL   CAL/MOLE    CAL/K/MOL  CAL/K/MOL


 298.00  VIB.     0.1462D+02                  2016.8605    16.5787    12.0989
         ROT.     0.1230D+06                   888.2803     2.9808    26.2709
         INT.     0.1799D+07                  2905.1408    19.5595    38.3698
         TRA.     0.7198D+27                  1480.4672     4.9680    39.1295
         TOT.                       -4.157    4385.6080    24.5276    77.4993

 200.00  VIB.     0.5143D+01                   797.5064     8.6838     7.2418
         ROT.     0.6763D+05                   596.1613     2.9808    25.0822
         INT.     0.3478D+06                  1393.6677    11.6646    32.3240
         TRA.     0.3957D+27                   993.6021     4.9680    37.1484
         TOT.                       -6.155    2387.2698    16.6327    69.4724

 210.00  VIB.     0.5688D+01                   887.7356     9.3680     7.6819
         ROT.     0.7277D+05                   625.9693     2.9808    25.2277
         INT.     0.4139D+06                  1513.7050    12.3488    32.9096
         TRA.     0.4258D+27                  1043.2822     4.9680    37.3907
         TOT.                       -5.985    2556.9872    17.3168    70.3003

 220.00  VIB.     0.6298D+01                   984.9838    10.0873     8.1342
         ROT.     0.7803D+05                   655.7774     2.9808    25.3663
         INT.     0.4914D+06                  1640.7612    13.0681    33.5005
         TRA.     0.4566D+27                  1092.9623     4.9680    37.6219
         TOT.                       -5.809    2733.7236    18.0361    71.1224

 230.00  VIB.     0.6982D+01                  1089.5897    10.8391     8.5990
         ROT.     0.8341D+05                   685.5855     2.9808    25.4988
         INT.     0.5823D+06                  1775.1751    13.8199    34.0979
         TRA.     0.4880D+27                  1142.6424     4.9680    37.8427
         TOT.                       -5.625    2917.8176    18.7879    71.9406

 240.00  VIB.     0.7749D+01                  1201.8660    11.6209     9.0768
         ROT.     0.8891D+05                   715.3935     2.9808    25.6257
         INT.     0.6890D+06                  1917.2595    14.6017    34.7025
         TRA.     0.5202D+27                  1192.3226     4.9680    38.0541
         TOT.                       -5.433    3109.5821    19.5697    72.7566

 250.00  VIB.     0.8613D+01                  1322.0961    12.4294     9.5674
         ROT.     0.9452D+05                   745.2016     2.9808    25.7474
         INT.     0.8141D+06                  2067.2977    15.4102    35.3148
         TRA.     0.5531D+27                  1242.0027     4.9680    38.2569
         TOT.                       -5.233    3309.3004    20.3782    73.5718

 260.00  VIB.     0.9588D+01                  1450.5317    13.2614    10.0711
         ROT.     0.1002D+06                   775.0097     2.9808    25.8643
         INT.     0.9612D+06                  2225.5414    16.2422    35.9354
         TRA.     0.5866D+27                  1291.6828     4.9680    38.4518
         TOT.                       -5.025    3517.2242    21.2102    74.3872

 270.00  VIB.     0.1069D+02                  1587.3913    14.1136    10.5875
         ROT.     0.1061D+06                   804.8177     2.9808    25.9768
         INT.     0.1134D+07                  2392.2090    17.0944    36.5643
         TRA.     0.6208D+27                  1341.3629     4.9680    38.6393
         TOT.                       -4.809    3733.5719    22.0624    75.2036

 280.00  VIB.     0.1194D+02                  1732.8598    14.9826    11.1164
         ROT.     0.1120D+06                   834.6258     2.9808    26.0852
         INT.     0.1337D+07                  2567.4856    17.9634    37.2016
         TRA.     0.6556D+27                  1391.0430     4.9680    38.8200
         TOT.                       -4.584    3958.5286    22.9314    76.0216

 290.00  VIB.     0.1335D+02                  1887.0888    15.8651    11.6575
         ROT.     0.1181D+06                   864.4339     2.9808    26.1898
         INT.     0.1577D+07                  2751.5226    18.8460    37.8473
         TRA.     0.6910D+27                  1440.7231     4.9680    38.9943
         TOT.                       -4.350    4192.2457    23.8140    76.8416

 300.00  VIB.     0.1496D+02                  2050.1972    16.7580    12.2104
         ROT.     0.1243D+06                   894.2419     2.9808    26.2909
         INT.     0.1859D+07                  2944.4391    19.7388    38.5013
         TRA.     0.7270D+27                  1490.4032     4.9680    39.1627
         TOT.                       -4.107    4434.8423    24.7068    77.6640

 310.00  VIB.     0.1679D+02                  2222.2728    17.6581    12.7746
         ROT.     0.1305D+06                   924.0500     2.9808    26.3886
         INT.     0.2192D+07                  3146.3227    20.6389    39.1632
         TRA.     0.7637D+27                  1540.0833     4.9680    39.3256
         TOT.                       -3.856    4686.4060    25.6069    78.4888

 320.00  VIB.     0.1888D+02                  2403.3739    18.5626    13.3495
         ROT.     0.1369D+06                   953.8580     2.9808    26.4832
         INT.     0.2585D+07                  3357.2320    21.5435    39.8327
         TRA.     0.8009D+27                  1589.7634     4.9680    39.4834
         TOT.                       -3.595    4946.9954    26.5115    79.3160

 330.00  VIB.     0.2127D+02                  2593.5316    19.4690    13.9345
         ROT.     0.1433D+06                   983.6661     2.9808    26.5750
         INT.     0.3049D+07                  3577.1977    22.4498    40.5095
         TRA.     0.8388D+27                  1639.4435     4.9680    39.6362
         TOT.                       -3.326    5216.6412    27.4178    80.1457

 340.00  VIB.     0.2400D+02                  2792.7514    20.3747    14.5292
         ROT.     0.1499D+06                  1013.4742     2.9808    26.6639
         INT.     0.3598D+07                  3806.2255    23.3555    41.1931
         TRA.     0.8772D+27                  1689.1236     4.9680    39.7845
         TOT.                       -3.047    5495.3492    28.3235    80.9777

 350.00  VIB.     0.2712D+02                  3001.0160    21.2776    15.1328
         ROT.     0.1566D+06                  1043.2822     2.9808    26.7503
         INT.     0.4247D+07                  4044.2982    24.2584    41.8832
         TRA.     0.9162D+27                  1738.8037     4.9680    39.9285
         TOT.                       -2.759    5783.1020    29.2264    81.8117

 360.00  VIB.     0.3071D+02                  3218.2875    22.1758    15.7449
         ROT.     0.1633D+06                  1073.0903     2.9808    26.8343
         INT.     0.5016D+07                  4291.3778    25.1566    42.5792
         TRA.     0.9557D+27                  1788.4838     4.9680    40.0685
         TOT.                       -2.462    6079.8616    30.1246    82.6477

 370.00  VIB.     0.3482D+02                  3444.5096    23.0674    16.3646
         ROT.     0.1702D+06                  1102.8984     2.9808    26.9160
         INT.     0.5926D+07                  4547.4080    26.0483    43.2806
         TRA.     0.9958D+27                  1838.1639     4.9680    40.2046
         TOT.                       -2.157    6385.5719    31.0163    83.4852

 380.00  VIB.     0.3956D+02                  3679.6099    23.9512    16.9915
         ROT.     0.1771D+06                  1132.7064     2.9808    26.9955
         INT.     0.7007D+07                  4812.3163    26.9320    43.9870
         TRA.     0.1036D+28                  1887.8440     4.9680    40.3371
         TOT.                       -1.842    6700.1604    31.9000    84.3241

 390.00  VIB.     0.4500D+02                  3923.5020    24.8256    17.6250
         ROT.     0.1842D+06                  1162.5145     2.9808    27.0729
         INT.     0.8288D+07                  5086.0165    27.8064    44.6979
         TRA.     0.1078D+28                  1937.5242     4.9680    40.4662
         TOT.                       -1.519    7023.5406    32.7744    85.1641

 400.00  VIB.     0.5128D+02                  4176.0874    25.6897    18.2645
         ROT.     0.1913D+06                  1192.3226     2.9808    27.1484
         INT.     0.9810D+07                  5368.4100    28.6705    45.4128
         TRA.     0.1119D+28                  1987.2043     4.9680    40.5919
         TOT.                       -1.187    7355.6142    33.6385    86.0048

   *: NOTE: HEATS OF FORMATION ARE RELATIVE TO THE
            ELEMENTS IN THEIR STANDARD STATE AT 298K
              (=  Standard Enthalpy of Formation).

            Hvib:  Zero-point energy is not included.
                   frequencies of less than zero cm-1 are not included.
            Hrot = (3/2)RT
            Htra = (3/2)RT + pV = (5/2)RT

            Heat capacity is Cp, not Cv

          For more information, see: HTTP://OpenMOPAC.net/Manual/thermochemistry.html


           FORCE CONSTANT IN CARTESIAN COORDINATES (Millidynes/A)

    ATOM   CHEMICAL       X               Y               Z
   NUMBER   SYMBOL  FORCE CONSTANT  FORCE CONSTANT  FORCE CONSTANT

      1       C        7.990611        8.517754        8.332069
      2       C        7.990872        8.616517        8.222850
      3       C        9.313313        8.024328        8.045906
      4       C        9.312346        8.029679        8.041928
      5       C        8.507120       16.231831        3.425399
      6       C        8.886379       15.048749        2.662362
      7       H        1.267642        1.720316        3.511708
      8       H        1.220030        1.610295        3.619141
      9       H        1.219798        0.791809        4.437229
     10       H        1.267588        3.034398        2.197791
     11       H        3.160317        0.806288        2.435955
     12       H        1.006024        1.050536        4.289745
     13       H        1.010778        0.712834        4.623694
     14       H        3.152354        1.273120        1.976757
     15       H        3.922383        1.838624        0.686038
     16       H        3.923787        2.143445        0.380027

 **********************
 *                    *
 * JOB ENDED NORMALLY *
 *                    *
 **********************



 TOTAL JOB TIME:             1.14 SECONDS

 == MOPAC DONE ==
