 *******************************************************************************
 **                                                                           **
 **                              MOPAC v23.1.2                                **
 **                                                                           **
 *******************************************************************************
 **          Digital Object Identifier (DOI): 10.5281/zenodo.6511958          **
 **    Visit the DOI location for information on how to cite this program.    **
 *******************************************************************************

                              PM3 CALCULATION RESULTS

 *******************************************************************************
 *  CALCULATION DONE: (MAX THREADS = 1)              Tue Jun  3 16:36:17 2025  *
 *  PM3        - The PM3 Hamiltonian to be used
 *  PRECISE    - TIGHTER CRITERIA TO BE USED
 *  NOSYM      - POINT-GROUP SYMMETRY SET TO C1
 *  THREADS=1  - MULTI-THREADING NOT USED
 *  T=         - A TIME OF 172800.0 SECONDS REQUESTED
 *  DUMP=N     - RESTART FILE WRITTEN EVERY 7200.0 SECONDS REQUESTED
 *******************************************************************************
pm3  precise nosym THREADS=1
 InChI=1S/C5H8/c1-5-3-2-4-5/h2-3,5H,4H2,1H3

   ATOM   CHEMICAL          X               Y               Z
  NUMBER   SYMBOL      (ANGSTROMS)     (ANGSTROMS)     (ANGSTROMS)

     1       C         -0.16030000  *   0.41080000  *  -0.39500000  *
     2       C          0.52220000  *  -0.82470000  *  -0.66920000  *
     3       C         -1.53280000  *   0.25020000  *   0.26650000  *
     4       C          0.90830000  *   0.75820000  *   0.59120000  *
     5       C          1.57620000  *  -0.43490000  *   0.31660000  *
     6       H         -0.17320000  *   1.11180000  *  -1.25950000  *
     7       H         -0.01430000  *  -1.74680000  *  -0.35140000  *
     8       H          0.93010000  *  -0.87960000  *  -1.70250000  *
     9       H         -1.47980000  *  -0.41190000  *   1.15850000  *
    10       H         -1.91040000  *   1.24510000  *   0.58380000  *
    11       H         -2.24950000  *  -0.18350000  *  -0.46250000  *
    12       H          1.09360000  *   1.60120000  *   1.24820000  *
    13       H          2.49010000  *  -0.89580000  *   0.67510000  *



          CARTESIAN COORDINATES 

    NO.       ATOM           X           Y           Z

     1         C         -0.1603      0.4108     -0.3950
     2         C          0.5222     -0.8247     -0.6692
     3         C         -1.5328      0.2502      0.2665
     4         C          0.9083      0.7582      0.5912
     5         C          1.5762     -0.4349      0.3166
     6         H         -0.1732      1.1118     -1.2595
     7         H         -0.0143     -1.7468     -0.3514
     8         H          0.9301     -0.8796     -1.7025
     9         H         -1.4798     -0.4119      1.1585
    10         H         -1.9104      1.2451      0.5838
    11         H         -2.2495     -0.1835     -0.4625
    12         H          1.0936      1.6012      1.2482
    13         H          2.4901     -0.8958      0.6751

  H: (PM3): J. J. P. STEWART, J. COMP. CHEM. 10, 209 (1989).
  C: (PM3): J. J. P. STEWART, J. COMP. CHEM. 10, 209 (1989).

           Empirical Formula: C5 H8  =    13 atoms



      MOLECULAR POINT GROUP   :   C1  


      RHF CALCULATION, NO. OF DOUBLY OCCUPIED LEVELS = 14


          Geometry optimization using EF

          DIAGONAL MATRIX USED AS START HESSIAN

 CYCLE:     1 TIME:   0.008 TIME LEFT:  2.00D  GRAD.:   212.910 HEAT:  42.92989
 CYCLE:     2 TIME:   0.004 TIME LEFT:  2.00D  GRAD.:    61.517 HEAT:  33.97463
 CYCLE:     3 TIME:   0.004 TIME LEFT:  2.00D  GRAD.:    55.100 HEAT:  33.00961
 CYCLE:     4 TIME:   0.004 TIME LEFT:  2.00D  GRAD.:    63.715 HEAT:  32.77545
 CYCLE:     5 TIME:   0.004 TIME LEFT:  2.00D  GRAD.:    35.445 HEAT:  31.90329
 CYCLE:     6 TIME:   0.004 TIME LEFT:  2.00D  GRAD.:    27.824 HEAT:  31.60173
 CYCLE:     7 TIME:   0.004 TIME LEFT:  2.00D  GRAD.:    21.550 HEAT:  31.31228
 CYCLE:     8 TIME:   0.004 TIME LEFT:  2.00D  GRAD.:    19.597 HEAT:  31.20859
 CYCLE:     9 TIME:   0.008 TIME LEFT:  2.00D  GRAD.:    11.658 HEAT:  31.10966
 CYCLE:    10 TIME:   0.004 TIME LEFT:  2.00D  GRAD.:    14.917 HEAT:  31.08719
 CYCLE:    11 TIME:   0.004 TIME LEFT:  2.00D  GRAD.:     9.173 HEAT:  31.02390
 CYCLE:    12 TIME:   0.004 TIME LEFT:  2.00D  GRAD.:     6.347 HEAT:  30.99805
 CYCLE:    13 TIME:   0.004 TIME LEFT:  2.00D  GRAD.:     3.007 HEAT:  30.97633
 CYCLE:    14 TIME:   0.004 TIME LEFT:  2.00D  GRAD.:     6.315 HEAT:  30.97111
 CYCLE:    15 TIME:   0.008 TIME LEFT:  2.00D  GRAD.:     3.425 HEAT:  30.95822
 CYCLE:    16 TIME:   0.004 TIME LEFT:  2.00D  GRAD.:     6.152 HEAT:  30.96110
 CYCLE:    17 TIME:   0.004 TIME LEFT:  2.00D  GRAD.:     2.585 HEAT:  30.94769
 CYCLE:    18 TIME:   0.004 TIME LEFT:  2.00D  GRAD.:     2.825 HEAT:  30.94273
 CYCLE:    19 TIME:   0.004 TIME LEFT:  2.00D  GRAD.:     1.918 HEAT:  30.93512
 CYCLE:    20 TIME:   0.008 TIME LEFT:  2.00D  GRAD.:     2.593 HEAT:  30.92725
 CYCLE:    21 TIME:   0.004 TIME LEFT:  2.00D  GRAD.:     1.799 HEAT:  30.92250
 CYCLE:    22 TIME:   0.004 TIME LEFT:  2.00D  GRAD.:     1.245 HEAT:  30.91875
 CYCLE:    23 TIME:   0.004 TIME LEFT:  2.00D  GRAD.:     1.168 HEAT:  30.91567
 CYCLE:    24 TIME:   0.004 TIME LEFT:  2.00D  GRAD.:     0.694 HEAT:  30.91450
 CYCLE:    25 TIME:   0.004 TIME LEFT:  2.00D  GRAD.:     0.492 HEAT:  30.91356
 CYCLE:    26 TIME:   0.004 TIME LEFT:  2.00D  GRAD.:     0.648 HEAT:  30.91191
 CYCLE:    27 TIME:   0.004 TIME LEFT:  2.00D  GRAD.:     0.750 HEAT:  30.90984
 CYCLE:    28 TIME:   0.008 TIME LEFT:  2.00D  GRAD.:     0.556 HEAT:  30.90887
 CYCLE:    29 TIME:   0.004 TIME LEFT:  2.00D  GRAD.:     0.401 HEAT:  30.90811
 CYCLE:    30 TIME:   0.008 TIME LEFT:  2.00D  GRAD.:     0.308 HEAT:  30.90778
 CYCLE:    31 TIME:   0.004 TIME LEFT:  2.00D  GRAD.:     0.200 HEAT:  30.90746
 CYCLE:    32 TIME:   0.000 TIME LEFT:  2.00D  GRAD.:     0.202 HEAT:  30.90736
 CYCLE:    33 TIME:   0.004 TIME LEFT:  2.00D  GRAD.:     0.321 HEAT:  30.90706
 CYCLE:    34 TIME:   0.004 TIME LEFT:  2.00D  GRAD.:     0.319 HEAT:  30.90690
 CYCLE:    35 TIME:   0.004 TIME LEFT:  2.00D  GRAD.:     0.482 HEAT:  30.90569
 CYCLE:    36 TIME:   0.004 TIME LEFT:  2.00D  GRAD.:     0.523 HEAT:  30.90526
 CYCLE:    37 TIME:   0.004 TIME LEFT:  2.00D  GRAD.:     0.394 HEAT:  30.90459
 CYCLE:    38 TIME:   0.004 TIME LEFT:  2.00D  GRAD.:     0.322 HEAT:  30.90432
 CYCLE:    39 TIME:   0.008 TIME LEFT:  2.00D  GRAD.:     0.282 HEAT:  30.90401
 CYCLE:    40 TIME:   0.004 TIME LEFT:  2.00D  GRAD.:     0.214 HEAT:  30.90392
 CYCLE:    41 TIME:   0.004 TIME LEFT:  2.00D  GRAD.:     0.199 HEAT:  30.90384
 CYCLE:    42 TIME:   0.004 TIME LEFT:  2.00D  GRAD.:     0.251 HEAT:  30.90374
 CYCLE:    43 TIME:   0.004 TIME LEFT:  2.00D  GRAD.:     0.247 HEAT:  30.90362
 CYCLE:    44 TIME:   0.004 TIME LEFT:  2.00D  GRAD.:     0.204 HEAT:  30.90347
 CYCLE:    45 TIME:   0.004 TIME LEFT:  2.00D  GRAD.:     0.129 HEAT:  30.90342
 CYCLE:    46 TIME:   0.004 TIME LEFT:  2.00D  GRAD.:     0.101 HEAT:  30.90339
 CYCLE:    47 TIME:   0.004 TIME LEFT:  2.00D  GRAD.:     0.083 HEAT:  30.90338
 CYCLE:    48 TIME:   0.004 TIME LEFT:  2.00D  GRAD.:     0.047 HEAT:  30.90335

     GRADIENT =  0.04683 IS LESS THAN CUTOFF =  0.05000



 -------------------------------------------------------------------------------
 pm3  precise nosym THREADS=1
 InChI=1S/C5H8/c1-5-3-2-4-5/h2-3,5H,4H2,1H3



     GEOMETRY OPTIMISED USING EIGENVECTOR FOLLOWING (EF).     
     SCF FIELD WAS ACHIEVED                                   


                              PM3 CALCULATION
                                                       MOPAC v23.1.2 MacOS
                                                       Tue Jun  3 16:36:17 2025




          FINAL HEAT OF FORMATION =         30.90335 KCAL/MOL =     129.29963 KJ/MOL


          COSMO AREA              =        117.75 SQUARE ANGSTROMS
          COSMO VOLUME            =        105.58 CUBIC ANGSTROMS

          GRADIENT NORM           =          0.04683          =       0.01299 PER ATOM
          IONIZATION POTENTIAL    =          9.846668 EV
          HOMO LUMO ENERGIES (EV) =         -9.847  1.045
          NO. OF FILLED LEVELS    =         14
          MOLECULAR WEIGHT        =         68.1182         POINT GROUP:  C1  

          MOLECULAR DIMENSIONS (Angstroms)

            Atom       Atom       Distance
            H    13    H    11     4.99497
            H    12    H     8     3.91544
            H     6    H     9     2.96157


          SCF CALCULATIONS        =         55

          WALL-CLOCK TIME         =      0.223 SECONDS
          COMPUTATION TIME        =      0.093 SECONDS




   ATOM   CHEMICAL          X               Y               Z
  NUMBER   SYMBOL      (ANGSTROMS)     (ANGSTROMS)     (ANGSTROMS)

     1       C         -0.20345122  *   0.44585417  *  -0.36808006  *
     2       C          0.56969078  *  -0.89138554  *  -0.67831657  *
     3       C         -1.56083894  *   0.28342161  *   0.25502795  *
     4       C          0.93826966  *   0.73836056  *   0.60130437  *
     5       C          1.60095430  *  -0.40099024  *   0.32084015  *
     6       H         -0.24056275  *   1.14549178  *  -1.22797607  *
     7       H          0.04233686  *  -1.81350407  *  -0.39450206  *
     8       H          0.92677527  *  -1.00168630  *  -1.71153730  *
     9       H         -1.54274039  *  -0.41158789  *   1.10492338  *
    10       H         -1.94252577  *   1.24416690  *   0.62351397  *
    11       H         -2.28342312  *  -0.10616487  *  -0.47348520  *
    12       H          1.09290933  *   1.58672538  *   1.25354140  *
    13       H          2.52673123  *  -0.85700244  *   0.64384722  *

                             CARTESIAN COORDINATES

   1    C       -0.203451217     0.445854175    -0.368080058
   2    C        0.569690781    -0.891385541    -0.678316572
   3    C       -1.560838944     0.283421610     0.255027946
   4    C        0.938269663     0.738360564     0.601304371
   5    C        1.600954301    -0.400990240     0.320840151
   6    H       -0.240562754     1.145491776    -1.227976065
   7    H        0.042336857    -1.813504075    -0.394502060
   8    H        0.926775269    -1.001686303    -1.711537301
   9    H       -1.542740387    -0.411587894     1.104923384
  10    H       -1.942525775     1.244166899     0.623513974
  11    H       -2.283423123    -0.106164875    -0.473485199
  12    H        1.092909334     1.586725379     1.253541403
  13    H        2.526731231    -0.857002440     0.643847221


           Empirical Formula: C5 H8  =    13 atoms



      MOLECULAR POINT GROUP   :   C1  


                  EIGENVALUES  
 -39.75550 -29.76278 -24.74013 -21.92641 -17.66008 -17.39965 -15.63233 -15.02195
 -13.60890 -13.24712 -12.61654 -11.75533 -11.51763  -9.84667   1.04491   3.23812
   3.38364   3.41264   3.87719   4.00629   4.22555   4.41631   4.45029   4.66855
   4.81070   5.11551   5.14974   6.17710


              NET ATOMIC CHARGES AND DIPOLE CONTRIBUTIONS

  ATOM NO.   TYPE          CHARGE      No. of ELECS.   s-Pop       p-Pop       
    1          C          -0.066462        4.0665     1.18525     2.88121
    2          C          -0.085919        4.0859     1.17247     2.91345
    3          C          -0.097134        4.0971     1.13373     2.96340
    4          C          -0.163562        4.1636     1.22128     2.94228
    5          C          -0.158795        4.1588     1.21770     2.94110
    6          H           0.074627        0.9254     0.92537
    7          H           0.064739        0.9353     0.93526
    8          H           0.060913        0.9391     0.93909
    9          H           0.042806        0.9572     0.95719
   10          H           0.040530        0.9595     0.95947
   11          H           0.039369        0.9606     0.96063
   12          H           0.125017        0.8750     0.87498
   13          H           0.123871        0.8761     0.87613
 DIPOLE           X         Y         Z       TOTAL
 POINT-CHG.    -0.170    -0.047    -0.107     0.206
 HYBRID         0.042     0.000     0.036     0.055
 SUM           -0.128    -0.046    -0.072     0.154


          ATOMIC ORBITAL ELECTRON POPULATIONS

     Atom    s        px        py        pz   
    1  C   1.18525   0.93720   0.96843   0.97558
    2  C   1.17247   0.96490   0.96694   0.98161
    3  C   1.13373   0.95380   1.00979   0.99981
    4  C   1.22128   0.97230   0.97843   0.99155
    5  C   1.21770   0.98134   0.97284   0.98691
    6  H   0.92537
    7  H   0.93526
    8  H   0.93909
    9  H   0.95719
   10  H   0.95947
   11  H   0.96063
   12  H   0.87498
   13  H   0.87613
 *******************************************************************************
 **                                                                           **
 **                              MOPAC v23.1.2                                **
 **                                                                           **
 *******************************************************************************
 **          Digital Object Identifier (DOI): 10.5281/zenodo.6511958          **
 **    Visit the DOI location for information on how to cite this program.    **
 *******************************************************************************

                              PM3 CALCULATION RESULTS

 *******************************************************************************
 *  CALCULATION DONE: (MAX THREADS = 1)              Tue Jun  3 16:36:17 2025  *
 *  PM3        - The PM3 Hamiltonian to be used
 *  OLDGEO     - PREVIOUS GEOMETRY TO BE USED
 *  PRECISE    - TIGHTER CRITERIA TO BE USED
 *  NOSYM      - POINT-GROUP SYMMETRY SET TO C1
 *  THREADS=1  - MULTI-THREADING NOT USED
 *  T=         - A TIME OF 172800.0 SECONDS REQUESTED
 *  DUMP=N     - RESTART FILE WRITTEN EVERY 7200.0 SECONDS REQUESTED
 *  THERMO     - THERMODYNAMIC QUANTITIES TO BE CALCULATED
 *******************************************************************************
oldgeo thermo nosym precise THREADS=1  pm3
 InChI=1S/C5H8/c1-5-3-2-4-5/h2-3,5H,4H2,1H3

   ATOM   CHEMICAL          X               Y               Z
  NUMBER   SYMBOL      (ANGSTROMS)     (ANGSTROMS)     (ANGSTROMS)

     1       C         -0.20345122  *   0.44585417  *  -0.36808006  *
     2       C          0.56969078  *  -0.89138554  *  -0.67831657  *
     3       C         -1.56083894  *   0.28342161  *   0.25502795  *
     4       C          0.93826966  *   0.73836056  *   0.60130437  *
     5       C          1.60095430  *  -0.40099024  *   0.32084015  *
     6       H         -0.24056275  *   1.14549178  *  -1.22797607  *
     7       H          0.04233686  *  -1.81350407  *  -0.39450206  *
     8       H          0.92677527  *  -1.00168630  *  -1.71153730  *
     9       H         -1.54274039  *  -0.41158789  *   1.10492338  *
    10       H         -1.94252577  *   1.24416690  *   0.62351397  *
    11       H         -2.28342312  *  -0.10616487  *  -0.47348520  *
    12       H          1.09290933  *   1.58672538  *   1.25354140  *
    13       H          2.52673123  *  -0.85700244  *   0.64384722  *



          CARTESIAN COORDINATES 

    NO.       ATOM           X           Y           Z

     1         C         -0.2035      0.4459     -0.3681
     2         C          0.5697     -0.8914     -0.6783
     3         C         -1.5608      0.2834      0.2550
     4         C          0.9383      0.7384      0.6013
     5         C          1.6010     -0.4010      0.3208
     6         H         -0.2406      1.1455     -1.2280
     7         H          0.0423     -1.8135     -0.3945
     8         H          0.9268     -1.0017     -1.7115
     9         H         -1.5427     -0.4116      1.1049
    10         H         -1.9425      1.2442      0.6235
    11         H         -2.2834     -0.1062     -0.4735
    12         H          1.0929      1.5867      1.2535
    13         H          2.5267     -0.8570      0.6438

  H: (PM3): J. J. P. STEWART, J. COMP. CHEM. 10, 209 (1989).
  C: (PM3): J. J. P. STEWART, J. COMP. CHEM. 10, 209 (1989).

           Empirical Formula: C5 H8  =    13 atoms



      MOLECULAR POINT GROUP   :   C1  


      RHF CALCULATION, NO. OF DOUBLY OCCUPIED LEVELS = 14



          HEAT OF FORMATION =      30.903353 KCALS/MOLE


          CARTESIAN COORDINATE DERIVATIVES

   NUMBER  ATOM         X            Y            Z

     1       C     -0.004208     0.003875    -0.005696
     2       C      0.000671     0.002113    -0.002644
     3       C      0.010727    -0.011955    -0.000650
     4       C     -0.004608     0.002176    -0.011140
     5       C      0.006073    -0.012868     0.000267
     6       H     -0.009091     0.007846     0.005123
     7       H      0.001170     0.010286    -0.000174
     8       H     -0.003641     0.002840     0.006053
     9       H      0.001429     0.015574    -0.006487
    10       H     -0.004851    -0.004117     0.001513
    11       H      0.009565    -0.014590     0.008971
    12       H     -0.002624    -0.005375     0.002067
    13       H     -0.000611     0.004194     0.002797



          GRADIENT NORM =   0.04247

          MOLECULAR WEIGHT =   68.12



          ROTATIONAL CONSTANTS IN CM(-1)

          A =    0.33623700   B =    0.15747974   C =    0.12538718



           PRINCIPAL MOMENTS OF INERTIA IN UNITS OF 10**(-40)*GRAM-CM**2

          A =       83.2530   B =      177.7546   C =      223.2505


          ORIENTATION OF MOLECULE IN FORCE CALCULATION

    NO.       ATOM         X         Y         Z

     1          C      -0.4843   -0.0412    0.5153
     2          C       1.0912   -0.0412    0.5153
     3          C      -1.1352    1.3129    0.5153
     4          C      -0.3631   -0.7165   -0.8478
     5          C       0.9843   -0.7254   -0.8348
     6          H      -0.9270   -0.6964    1.2930
     7          H       1.5592    0.9537    0.5017
     8          H       1.5635   -0.6343    1.3105
     9          H      -0.7038    1.9766   -0.2456
    10          H      -2.2105    1.2329    0.3108
    11          H      -1.0157    1.8062    1.4884
    12          H      -1.1358   -1.0445   -1.5294
    13          H       1.7621   -1.0762   -1.4992


    FIRST DERIVATIVES WILL BE USED IN THE CALCULATION OF SECOND DERIVATIVES

          ESTIMATED TIME TO COMPLETE CALCULATION =        0.61 SECONDS

    FOR POINT-GROUP C1   THERE ARE   1 UNIQUE SYMMETRY FUNCTIONS.

 STEP:   1 TIME =     0.01 SECS, INTEGRAL =      0.01 TIME LEFT: 172799.99
 STEP:   2 TIME =     0.01 SECS, INTEGRAL =      0.02 TIME LEFT: 172799.98
 STEP:   3 TIME =     0.01 SECS, INTEGRAL =      0.02 TIME LEFT: 172799.98
 STEP:   4 TIME =     0.01 SECS, INTEGRAL =      0.03 TIME LEFT: 172799.97
 STEP:   5 TIME =     0.01 SECS, INTEGRAL =      0.04 TIME LEFT: 172799.96
 STEP:   6 TIME =     0.00 SECS, INTEGRAL =      0.04 TIME LEFT: 172799.96
 STEP:   7 TIME =     0.01 SECS, INTEGRAL =      0.05 TIME LEFT: 172799.95
 STEP:   8 TIME =     0.01 SECS, INTEGRAL =      0.06 TIME LEFT: 172799.94
 STEP:   9 TIME =     0.01 SECS, INTEGRAL =      0.07 TIME LEFT: 172799.93
 STEP:  10 TIME =     0.01 SECS, INTEGRAL =      0.07 TIME LEFT: 172799.93
 STEP:  11 TIME =     0.01 SECS, INTEGRAL =      0.08 TIME LEFT: 172799.92
 STEP:  12 TIME =     0.01 SECS, INTEGRAL =      0.09 TIME LEFT: 172799.91
 STEP:  13 TIME =     0.01 SECS, INTEGRAL =      0.10 TIME LEFT: 172799.90
 STEP:  14 TIME =     0.01 SECS, INTEGRAL =      0.11 TIME LEFT: 172799.89
 STEP:  15 TIME =     0.01 SECS, INTEGRAL =      0.11 TIME LEFT: 172799.89
 STEP:  16 TIME =     0.01 SECS, INTEGRAL =      0.12 TIME LEFT: 172799.88
 STEP:  17 TIME =     0.01 SECS, INTEGRAL =      0.13 TIME LEFT: 172799.87
 STEP:  18 TIME =     0.01 SECS, INTEGRAL =      0.14 TIME LEFT: 172799.86
 STEP:  19 TIME =     0.01 SECS, INTEGRAL =      0.15 TIME LEFT: 172799.85
 STEP:  20 TIME =     0.01 SECS, INTEGRAL =      0.16 TIME LEFT: 172799.84
 STEP:  21 TIME =     0.01 SECS, INTEGRAL =      0.16 TIME LEFT: 172799.84
 STEP:  22 TIME =     0.01 SECS, INTEGRAL =      0.17 TIME LEFT: 172799.83
 STEP:  23 TIME =     0.01 SECS, INTEGRAL =      0.18 TIME LEFT: 172799.82
 STEP:  24 TIME =     0.01 SECS, INTEGRAL =      0.19 TIME LEFT: 172799.81
 STEP:  25 TIME =     0.01 SECS, INTEGRAL =      0.20 TIME LEFT: 172799.80
 STEP:  26 TIME =     0.01 SECS, INTEGRAL =      0.20 TIME LEFT: 172799.80
 STEP:  27 TIME =     0.00 SECS, INTEGRAL =      0.21 TIME LEFT: 172799.79
 STEP:  28 TIME =     0.00 SECS, INTEGRAL =      0.21 TIME LEFT: 172799.79
 STEP:  29 TIME =     0.01 SECS, INTEGRAL =      0.22 TIME LEFT: 172799.78
 STEP:  30 TIME =     0.01 SECS, INTEGRAL =      0.23 TIME LEFT: 172799.77
 STEP:  31 TIME =     0.01 SECS, INTEGRAL =      0.24 TIME LEFT: 172799.76
 STEP:  32 TIME =     0.01 SECS, INTEGRAL =      0.25 TIME LEFT: 172799.75
 STEP:  33 TIME =     0.01 SECS, INTEGRAL =      0.25 TIME LEFT: 172799.75
 STEP:  34 TIME =     0.01 SECS, INTEGRAL =      0.26 TIME LEFT: 172799.74
 STEP:  35 TIME =     0.01 SECS, INTEGRAL =      0.27 TIME LEFT: 172799.73
 STEP:  36 TIME =     0.01 SECS, INTEGRAL =      0.28 TIME LEFT: 172799.72
 STEP:  37 TIME =     0.01 SECS, INTEGRAL =      0.29 TIME LEFT: 172799.71
 STEP:  38 TIME =     0.01 SECS, INTEGRAL =      0.29 TIME LEFT: 172799.71
 STEP:  39 TIME =     0.01 SECS, INTEGRAL =      0.30 TIME LEFT: 172799.70

(To convert to Hartree/Bohr^2, multiply by (10^(-21) x N x a0^2)/(4.184 x 627.51) =  0.0642)


           FORCE MATRIX IN MILLIDYNES/ANGSTROM


                  C  1       C  2       C  3       C  4       C  5       H  6
 ------------------------------------------------------------------------------
     C    1  14.471404
     C    2   2.868066  14.277856
     C    3   4.703400   0.508183  14.538364
     C    4   3.870990   2.262987   0.561822  18.328671
     C    5   2.242881   4.157731   0.051675  10.349156  18.419972
     H    6   4.445731   0.414608   0.429579   0.414489   0.043870   4.955541
     H    7   0.434494   4.697611   0.021419   0.040880   0.434299   0.024774
     H    8   0.421267   4.722602   0.027482   0.040317   0.434790   0.025997
     H    9   0.469881   0.018112   4.733004   0.013077   0.003268   0.046091
     H   10   0.453348   0.046645   4.747129   0.011038   0.004328   0.027636
     H   11   0.453230   0.009452   4.743308   0.048231   0.006766   0.027786
     H   12   0.338986   0.117134   0.009248   5.286854   0.422288   0.005723
     H   13   0.117697   0.341394   0.017720   0.423442   5.282582   0.014917


                  H  7       H  8       H  9       H 10       H 11       H 12
 ------------------------------------------------------------------------------
     H    7   5.316378
     H    8   0.531284   5.338771
     H    9   0.015560   0.001511   5.464872
     H   10   0.002529   0.005042   0.572096   5.471543
     H   11   0.003502   0.002001   0.572378   0.568306   5.468349
     H   12   0.015815   0.015470   0.002262   0.003141   0.001645   5.671295
     H   13   0.006074   0.005908   0.001495   0.001320   0.002640   0.030798


                  H 13
 ------------------
     H   13   5.667697


          HEAT OF FORMATION =      30.903353 KCALS/MOLE

          ZERO POINT ENERGY      71.785 KCAL/MOL


           NORMAL COORDINATE ANALYSIS (Total motion = 1 Angstrom)


   Root No.       1         2         3         4         5         6         7         8

                 1 A       2 A       3 A       4 A       5 A       6 A       7 A       8 A   

                 150.0     239.7     339.3     489.6     759.0     816.5     884.5     900.3
  
           1   -0.0089   -0.0045    0.0329   -0.0043   -0.0148    0.0408   -0.0346   -0.0047
           2   -0.0062   -0.0259    0.0214   -0.0409   -0.0003    0.0170   -0.0131   -0.0014
           3   -0.0061    0.0317    0.0255    0.0270    0.0112   -0.0389   -0.0278    0.0014
           4   -0.0093   -0.0047    0.0368   -0.0086   -0.0014    0.0008    0.0747   -0.0032
           5   -0.0068   -0.0181   -0.0358    0.0278   -0.0223    0.0198    0.0018    0.0298
           6    0.0125    0.0194    0.0073    0.0000   -0.0079    0.0289    0.0067   -0.0194
           7    0.0036    0.0311   -0.0447    0.0320   -0.0158    0.0270   -0.0265   -0.0059
           8   -0.0001   -0.0063   -0.0161   -0.0328    0.0238   -0.0238   -0.0086   -0.0049
           9   -0.0018   -0.0451   -0.0291   -0.0174    0.0040   -0.0122   -0.0192   -0.0025
          10    0.0068   -0.0141   -0.0059   -0.0134    0.0167   -0.0335   -0.0141    0.0006
          11    0.0053   -0.0178    0.0511    0.0429   -0.0262   -0.0211    0.0078   -0.0356
          12   -0.0106    0.0273    0.0106   -0.0117    0.0171   -0.0151    0.0152    0.0150
          13    0.0068   -0.0134   -0.0071   -0.0142    0.0167   -0.0325   -0.0152    0.0023
          14    0.0076    0.0670   -0.0110   -0.0111   -0.0272   -0.0005    0.0134    0.0075
          15    0.0043   -0.0234   -0.0036    0.0194   -0.0016    0.0287    0.0316   -0.0019
          16   -0.0178   -0.0185    0.0455    0.0070   -0.0253    0.0528   -0.0450    0.0619
          17   -0.0081    0.0076    0.0222   -0.0609    0.0362    0.0273   -0.0492    0.0342
          18   -0.0131    0.0487    0.0341    0.0130    0.0343   -0.0190   -0.0665    0.0698
          19   -0.0107   -0.0023    0.0801   -0.0863   -0.0288    0.0598    0.1017    0.0487
          20   -0.0060   -0.0188   -0.0574    0.0670   -0.0083   -0.0077   -0.0127    0.0022
          21    0.0298    0.0969    0.0196   -0.0901   -0.1166    0.0239   -0.0267    0.1401
          22   -0.0192   -0.0019    0.0186    0.0701    0.0295   -0.0695    0.0924   -0.0552
          23   -0.0153   -0.0833   -0.0739    0.1264    0.0661    0.0295   -0.0001   -0.1161
          24    0.0121   -0.0301   -0.0094    0.0227    0.0353    0.0809   -0.0070   -0.0905
          25   -0.1685    0.0782   -0.0928    0.0779   -0.0114   -0.0563    0.0434    0.0259
          26   -0.0896   -0.0551   -0.0267   -0.0851    0.0256    0.0675   -0.0019   -0.0087
          27   -0.1771   -0.0620   -0.0651   -0.0394    0.0080    0.0237    0.0258    0.0120
          28   -0.0460    0.0366   -0.0377    0.0357   -0.0182    0.0263   -0.0459   -0.0112
          29   -0.0071    0.0155   -0.1155   -0.0018    0.0446   -0.1146    0.1715    0.0569
          30    0.2637   -0.0816   -0.0344   -0.0450    0.0069    0.0249    0.0240    0.0082
          31    0.2435    0.0110   -0.0941    0.0291   -0.0121    0.0224    0.0924    0.0325
          32    0.1030    0.0367    0.0483    0.0063    0.0245   -0.0983   -0.1109   -0.0321
          33   -0.0834   -0.0650   -0.0570   -0.0381    0.0040    0.0267    0.0202    0.0079
          34    0.0155   -0.0203   -0.0310   -0.0168    0.0300   -0.0501    0.0222    0.0161
          35    0.0101   -0.0486    0.1229    0.1557    0.1853    0.0581   -0.0210    0.2155
          36   -0.0227    0.0491    0.0044   -0.0622   -0.0997   -0.0351   -0.0134   -0.1235
          37    0.0150   -0.0165   -0.0325   -0.0151    0.0200   -0.0159   -0.0748    0.0113
          38    0.0164    0.1589   -0.0342   -0.0385    0.2475    0.1414    0.0092   -0.0964
          39    0.0092   -0.0756   -0.0210    0.0331   -0.1436   -0.0247   -0.0358    0.0633


   Root No.       9        10        11        12        13        14        15        16

                 9 A      10 A      11 A      12 A      13 A      14 A      15 A      16 A   

                 936.2     946.3    1006.9    1021.0    1035.4    1044.2    1153.2    1164.0
  
           1   -0.0007    0.0037    0.0019    0.0056   -0.0019    0.0351   -0.0102    0.0509
           2    0.0005   -0.0068   -0.0010    0.0012   -0.0010    0.0026    0.0403    0.0456
           3   -0.0116   -0.0047   -0.0144    0.0021    0.0138   -0.0095   -0.0376    0.0180
           4   -0.0200    0.0104    0.0156   -0.0084   -0.0079    0.0020    0.0137   -0.0436
           5    0.0063   -0.0229    0.0274    0.0100    0.0052   -0.0137   -0.0101   -0.0031
           6    0.0031    0.0156    0.0104   -0.0170    0.0031    0.0368    0.0012    0.0122
           7    0.0028    0.0090    0.0045   -0.0074    0.0010   -0.0325    0.0014   -0.0137
           8   -0.0169    0.0200    0.0103   -0.0021   -0.0052    0.0080   -0.0496   -0.0207
           9   -0.0238   -0.0142    0.0217   -0.0096   -0.0123    0.0046    0.0316   -0.0066
          10    0.0200   -0.0053    0.0016   -0.0026    0.0052   -0.0052   -0.0001    0.0006
          11    0.0230   -0.0173   -0.0081    0.0243    0.0239   -0.0191   -0.0008   -0.0048
          12    0.0471    0.0034    0.0036   -0.0129   -0.0109   -0.0252   -0.0017    0.0186
          13    0.0232   -0.0052   -0.0024    0.0010   -0.0012   -0.0038    0.0033   -0.0108
          14   -0.0148    0.0188   -0.0258   -0.0408   -0.0192    0.0023    0.0039    0.0023
          15   -0.0325   -0.0024    0.0009    0.0252    0.0047   -0.0230    0.0019   -0.0062
          16   -0.0634   -0.0638   -0.0656    0.0408    0.0932    0.1513   -0.1912   -0.0800
          17    0.0050    0.0347   -0.1015   -0.0037    0.0968   -0.0153    0.3215   -0.0711
          18   -0.0402   -0.0105   -0.1383    0.0173    0.1506    0.0406    0.0906   -0.1535
          19   -0.0556   -0.1623   -0.0494   -0.0729   -0.0605   -0.0993   -0.0713   -0.0068
          20    0.0227    0.0629    0.0587    0.0406    0.0306    0.0381    0.0331   -0.0204
          21    0.0401    0.0266    0.1604    0.1117    0.0771    0.0531    0.0175   -0.0871
          22   -0.0849    0.1895    0.0171    0.1000   -0.0146    0.0384    0.0626    0.0719
          23    0.0243    0.0184   -0.0286   -0.1040   -0.0044    0.0787    0.0170   -0.0453
          24    0.0536   -0.0650   -0.0306   -0.1642    0.0014    0.0846   -0.0117   -0.0902
          25   -0.0191   -0.0995    0.0118    0.0084   -0.0116    0.0681    0.1079    0.0600
          26    0.0592    0.1316   -0.0581    0.0121    0.0406   -0.0570   -0.1889   -0.0604
          27    0.0326    0.0252   -0.0362    0.0115    0.0220    0.0003   -0.0289   -0.0001
          28   -0.0095    0.0062    0.0178   -0.0136   -0.0052   -0.0400    0.0122   -0.0181
          29    0.0236   -0.0745   -0.0490    0.0515    0.0140    0.1700   -0.0282    0.0681
          30    0.0315    0.0263   -0.0325    0.0084    0.0177   -0.0070   -0.0290   -0.0000
          31    0.0748   -0.0146   -0.0684    0.0342    0.0350    0.0236    0.0100    0.0645
          32   -0.1409   -0.0430    0.1242   -0.0453   -0.0687    0.0308    0.0200   -0.0687
          33    0.0321    0.0220   -0.0301    0.0082    0.0178   -0.0124   -0.0070    0.0076
          34   -0.0980    0.0043    0.0014   -0.0770    0.1610   -0.0845   -0.0294    0.1209
          35    0.0814    0.0463    0.0194   -0.0391   -0.1313    0.0270    0.0184   -0.0286
          36    0.1536   -0.0385   -0.0103    0.1022   -0.1120    0.0407    0.0213   -0.1027
          37   -0.0452   -0.0117   -0.1167    0.1194   -0.1396   -0.0055    0.0025   -0.0135
          38   -0.0538   -0.0786    0.0024    0.1762   -0.0210   -0.0339    0.0010   -0.0034
          39   -0.0915    0.0416   -0.1477    0.0491   -0.1560   -0.0065    0.0019   -0.0031


   Root No.      17        18        19        20        21        22        23        24

                17 A      18 A      19 A      20 A      21 A      22 A      23 A      24 A   

                1185.7    1206.3    1294.5    1342.9    1397.9    1404.6    1408.4    1441.4
  
           1   -0.0212    0.0107    0.0391    0.0342    0.0044    0.0019   -0.0030    0.0564
           2    0.0253    0.0030   -0.0030   -0.0446   -0.0101    0.0045   -0.0025   -0.0762
           3   -0.0657    0.0115    0.0255   -0.0419   -0.0026   -0.0015    0.0002   -0.0327
           4   -0.0129    0.0369    0.0051   -0.0124    0.0067   -0.0281    0.0211   -0.0230
           5   -0.0430   -0.0114   -0.0255    0.0104    0.0051   -0.0160    0.0109    0.0019
           6   -0.0289   -0.0283   -0.0606    0.0113    0.0078   -0.0303    0.0211   -0.0139
           7    0.0108   -0.0037   -0.0074    0.0090   -0.0287   -0.0096   -0.0179   -0.0402
           8   -0.0058   -0.0020   -0.0038   -0.0219   -0.0021   -0.0217    0.0017    0.0779
           9    0.0113   -0.0032   -0.0040    0.0066    0.0272   -0.0102   -0.0213    0.0035
          10   -0.0048   -0.0231    0.0041   -0.0099   -0.0009   -0.0007    0.0005   -0.0128
          11    0.0164    0.0116   -0.0137    0.0206    0.0010    0.0018   -0.0008    0.0174
          12    0.0611    0.0250   -0.0296    0.0330    0.0008    0.0047   -0.0027    0.0223
          13    0.0096   -0.0166    0.0109   -0.0034   -0.0017    0.0062   -0.0046    0.0037
          14    0.0251   -0.0132    0.0345   -0.0024   -0.0015    0.0064   -0.0045    0.0046
          15    0.0330   -0.0258    0.0707   -0.0016   -0.0023    0.0123   -0.0086    0.0151
          16    0.2685   -0.0684   -0.0913   -0.0339   -0.0078   -0.0084    0.0022   -0.0703
          17   -0.1084   -0.0175    0.0118    0.0795    0.0094   -0.0027   -0.0014    0.0798
          18   -0.0094   -0.0509   -0.0396    0.0221    0.0075   -0.0133    0.0038    0.0246
          19   -0.1463   -0.1110   -0.1321    0.0041   -0.0270    0.1224   -0.0918    0.0648
          20    0.0185    0.0616    0.0380   -0.0021    0.0167   -0.0714    0.0534   -0.0351
          21   -0.0381    0.1413   -0.0168   -0.0687   -0.0455    0.1584   -0.1133    0.0280
          22   -0.0056   -0.1222   -0.1563   -0.0227   -0.0369    0.1254   -0.0901    0.0140
          23   -0.0166    0.0780   -0.0384   -0.0586   -0.0481    0.1707   -0.1219    0.0373
          24   -0.0176    0.1337    0.0233   -0.0376   -0.0099    0.0337   -0.0237   -0.0032
          25    0.0422   -0.0006   -0.0189   -0.0930   -0.0698    0.0918    0.2107    0.1276
          26   -0.0737    0.0014    0.0304    0.0981    0.0979    0.1023    0.0494   -0.1322
          27   -0.0309    0.0012    0.0156    0.0379    0.0587    0.1468    0.1576   -0.0605
          28    0.0262   -0.0062   -0.0188   -0.0202    0.0547   -0.0127   -0.0277   -0.0116
          29   -0.0749    0.0201    0.0843    0.1795   -0.0665   -0.0353   -0.1300   -0.1416
          30   -0.0298    0.0002    0.0088    0.0174   -0.3087    0.0581    0.1643    0.0118
          31   -0.0027    0.0075   -0.0079   -0.1113    0.3200    0.0580    0.0327    0.0470
          32    0.0219   -0.0128    0.0148    0.1622    0.0824    0.1343    0.0927   -0.1027
          33   -0.0066    0.0011   -0.0094   -0.0595   -0.0717   -0.0828   -0.0575    0.0692
          34    0.0590    0.1103   -0.0732    0.0523    0.0026    0.0009   -0.0003    0.0267
          35    0.0133   -0.0484    0.0209   -0.0153   -0.0023    0.0025   -0.0022   -0.0109
          36   -0.0058   -0.0986    0.0439   -0.0184   -0.0021    0.0045   -0.0024   -0.0069
          37   -0.0215    0.1407   -0.1198    0.0152    0.0039   -0.0159    0.0115   -0.0104
          38    0.0074    0.0592   -0.0237    0.0080    0.0009   -0.0031    0.0028   -0.0010
          39    0.0094    0.1192   -0.0485    0.0180    0.0031   -0.0079    0.0061    0.0055


   Root No.      25        26        27        28        29        30        31        32

                25 A      26 A      27 A      28 A      29 A      30 A      31 A      32 A   

                1775.2    2963.4    3049.0    3080.4    3083.8    3104.7    3178.9    3195.4
  
           1   -0.0048    0.0262   -0.0012    0.0010   -0.0003   -0.0010   -0.0003    0.0005
           2    0.0151    0.0377   -0.0018    0.0013   -0.0002   -0.0001    0.0003   -0.0001
           3    0.0180   -0.0458    0.0019   -0.0017   -0.0000   -0.0004    0.0002   -0.0006
           4    0.0013    0.0008   -0.0018    0.0004    0.0001   -0.0302   -0.0001    0.0008
           5    0.0091   -0.0040   -0.0526    0.0006   -0.0009   -0.0097   -0.0002    0.0003
           6    0.0182    0.0015    0.0248    0.0002    0.0003   -0.0271   -0.0000    0.0007
           7    0.0018   -0.0022    0.0007    0.0264   -0.0403    0.0006   -0.0112    0.0000
           8   -0.0058   -0.0007    0.0004    0.0135   -0.0195    0.0001    0.0220   -0.0000
           9   -0.0029    0.0026   -0.0001   -0.0403   -0.0331   -0.0007    0.0003   -0.0000
          10   -0.2060    0.0008   -0.0000   -0.0001   -0.0002   -0.0000    0.0000   -0.0263
          11    0.0008   -0.0001   -0.0003    0.0002    0.0002   -0.0001   -0.0001   -0.0112
          12   -0.0032   -0.0007    0.0002    0.0001    0.0001   -0.0002   -0.0001   -0.0232
          13    0.2067   -0.0007   -0.0000    0.0000    0.0000   -0.0006   -0.0001   -0.0285
          14   -0.0022    0.0005   -0.0003    0.0000    0.0000   -0.0002    0.0000    0.0127
          15    0.0006    0.0002    0.0001    0.0000    0.0000   -0.0005    0.0001    0.0241
          16   -0.0179   -0.3208    0.0179   -0.0087   -0.0000   -0.0013    0.0006   -0.0014
          17   -0.0261   -0.4626    0.0191   -0.0186    0.0013   -0.0011    0.0022   -0.0017
          18   -0.0146    0.5559   -0.0231    0.0179   -0.0026    0.0007   -0.0017    0.0019
          19    0.0138    0.0108    0.2072   -0.0049    0.0034    0.1709    0.0008   -0.0033
          20    0.0071    0.0303    0.4224   -0.0087    0.0059    0.3932    0.0029   -0.0065
          21   -0.0363   -0.0000    0.0012   -0.0001   -0.0000   -0.0218   -0.0002    0.0004
          22    0.0160   -0.0089   -0.1851   -0.0013   -0.0021    0.1975    0.0002   -0.0033
          23   -0.0337    0.0161    0.2136    0.0023    0.0026   -0.2780   -0.0005    0.0042
          24   -0.0167   -0.0230   -0.3010   -0.0027   -0.0037    0.3465    0.0005   -0.0051
          25   -0.0029    0.0139   -0.0027   -0.1817   -0.0002   -0.0031   -0.1366    0.0003
          26    0.0050    0.0143   -0.0027   -0.2733    0.0193   -0.0040   -0.1792    0.0004
          27    0.0030   -0.0212    0.0038    0.3145   -0.0518    0.0045    0.2261   -0.0005
          28   -0.0002    0.0159   -0.0104   -0.1803    0.4496   -0.0055    0.3163   -0.0012
          29    0.0026    0.0048   -0.0007   -0.0125    0.0377   -0.0006    0.0421   -0.0002
          30    0.0011    0.0040   -0.0021   -0.0579    0.0735   -0.0015    0.0617   -0.0003
          31    0.0039   -0.0044    0.0002    0.0469    0.0327    0.0008   -0.0445    0.0001
          32   -0.0084   -0.0053   -0.0004    0.1242    0.1769    0.0028   -0.1297    0.0003
          33   -0.0020   -0.0168   -0.0011    0.2243    0.3740    0.0053   -0.2913    0.0007
          34   -0.1100    0.0005    0.0004   -0.0001   -0.0001    0.0127    0.0003    0.3128
          35   -0.0747    0.0010   -0.0002    0.0000    0.0002    0.0054    0.0002    0.1331
          36   -0.1507    0.0001    0.0006   -0.0002    0.0001    0.0113    0.0004    0.2762
          37    0.1104   -0.0051    0.0005   -0.0004    0.0003   -0.0011    0.0009    0.3333
          38   -0.0759    0.0028   -0.0010    0.0002   -0.0001    0.0005   -0.0004   -0.1504
          39   -0.1501    0.0042    0.0001    0.0004   -0.0002    0.0008   -0.0008   -0.2850


   Root No.      33

                33 A   

                3215.8
  
           1   -0.0014
           2    0.0005
           3    0.0014
           4    0.0018
           5    0.0009
           6    0.0019
           7   -0.0000
           8   -0.0000
           9   -0.0000
          10   -0.0357
          11   -0.0122
          12   -0.0255
          13    0.0343
          14   -0.0124
          15   -0.0235
          16    0.0007
          17    0.0016
          18   -0.0019
          19   -0.0027
          20   -0.0071
          21    0.0003
          22   -0.0032
          23    0.0048
          24   -0.0062
          25   -0.0002
          26    0.0000
          27    0.0001
          28    0.0006
          29   -0.0001
          30    0.0000
          31   -0.0000
          32   -0.0003
          33   -0.0003
          34    0.3259
          35    0.1384
          36    0.2875
          37   -0.3095
          38    0.1395
          39    0.2642


           MASS-WEIGHTED COORDINATE ANALYSIS (NORMAL COORDINATES)


   Root No.       1         2         3         4         5         6         7         8

                 1 A       2 A       3 A       4 A       5 A       6 A       7 A       8 A   

                 150.0     239.7     339.3     489.6     759.0     816.5     884.5     900.3
  
           1   -0.0640   -0.0324    0.2462   -0.0334   -0.1133    0.3157   -0.2535   -0.0387
           2   -0.0445   -0.1878    0.1600   -0.3170   -0.0023    0.1315   -0.0964   -0.0115
           3   -0.0437    0.2304    0.1912    0.2091    0.0859   -0.3007   -0.2038    0.0120
           4   -0.0669   -0.0344    0.2758   -0.0667   -0.0111    0.0063    0.5480   -0.0264
           5   -0.0492   -0.1312   -0.2679    0.2155   -0.1707    0.1534    0.0132    0.2469
           6    0.0905    0.1411    0.0550    0.0001   -0.0607    0.2237    0.0495   -0.1606
           7    0.0259    0.2261   -0.3343    0.2478   -0.1209    0.2090   -0.1945   -0.0492
           8   -0.0010   -0.0459   -0.1207   -0.2540    0.1822   -0.1846   -0.0632   -0.0407
           9   -0.0128   -0.3274   -0.2177   -0.1344    0.0303   -0.0943   -0.1405   -0.0206
          10    0.0488   -0.1027   -0.0442   -0.1040    0.1281   -0.2592   -0.1035    0.0050
          11    0.0381   -0.1293    0.3826    0.3319   -0.2005   -0.1631    0.0571   -0.2953
          12   -0.0762    0.1984    0.0797   -0.0909    0.1307   -0.1170    0.1117    0.1243
          13    0.0491   -0.0970   -0.0531   -0.1098    0.1276   -0.2519   -0.1112    0.0188
          14    0.0546    0.4864   -0.0822   -0.0862   -0.2080   -0.0042    0.0986    0.0620
          15    0.0311   -0.1697   -0.0272    0.1500   -0.0119    0.2224    0.2320   -0.0158
          16   -0.0372   -0.0390    0.0987    0.0157   -0.0561    0.1183   -0.0956    0.1487
          17   -0.0170    0.0160    0.0481   -0.1367    0.0802    0.0613   -0.1046    0.0822
          18   -0.0273    0.1025    0.0739    0.0292    0.0760   -0.0425   -0.1413    0.1677
          19   -0.0224   -0.0048    0.1737   -0.1935   -0.0638    0.1341    0.2160    0.1170
          20   -0.0125   -0.0396   -0.1244    0.1502   -0.0184   -0.0172   -0.0269    0.0053
          21    0.0622    0.2039    0.0426   -0.2021   -0.2585    0.0537   -0.0566    0.3366
          22   -0.0401   -0.0040    0.0403    0.1573    0.0654   -0.1559    0.1964   -0.1327
          23   -0.0320   -0.1753   -0.1602    0.2835    0.1466    0.0661   -0.0002   -0.2788
          24    0.0253   -0.0632   -0.0204    0.0510    0.0782    0.1815   -0.0150   -0.2174
          25   -0.3520    0.1644   -0.2014    0.1749   -0.0253   -0.1261    0.0923    0.0622
          26   -0.1871   -0.1160   -0.0579   -0.1908    0.0567    0.1513   -0.0040   -0.0209
          27   -0.3699   -0.1304   -0.1411   -0.0884    0.0178    0.0531    0.0548    0.0288
          28   -0.0960    0.0770   -0.0817    0.0801   -0.0404    0.0589   -0.0974   -0.0269
          29   -0.0147    0.0325   -0.2505   -0.0041    0.0989   -0.2570    0.3644    0.1367
          30    0.5507   -0.1717   -0.0746   -0.1011    0.0154    0.0558    0.0509    0.0197
          31    0.5085    0.0232   -0.2041    0.0654   -0.0269    0.0502    0.1963    0.0780
          32    0.2152    0.0772    0.1048    0.0141    0.0543   -0.2205   -0.2355   -0.0771
          33   -0.1741   -0.1367   -0.1237   -0.0854    0.0090    0.0599    0.0429    0.0190
          34    0.0324   -0.0427   -0.0673   -0.0377    0.0666   -0.1123    0.0471    0.0388
          35    0.0210   -0.1021    0.2665    0.3492    0.4108    0.1303   -0.0446    0.5178
          36   -0.0474    0.1033    0.0096   -0.1395   -0.2211   -0.0787   -0.0285   -0.2968
          37    0.0312   -0.0348   -0.0704   -0.0339    0.0444   -0.0357   -0.1590    0.0271
          38    0.0342    0.3342   -0.0741   -0.0864    0.5489    0.3171    0.0195   -0.2317
          39    0.0192   -0.1589   -0.0455    0.0743   -0.3184   -0.0553   -0.0760    0.1520


   Root No.       9        10        11        12        13        14        15        16

                 9 A      10 A      11 A      12 A      13 A      14 A      15 A      16 A   

                 936.2     946.3    1006.9    1021.0    1035.4    1044.2    1153.2    1164.0
  
           1   -0.0060    0.0330    0.0162    0.0451   -0.0157    0.2930   -0.0652    0.3890
           2    0.0043   -0.0602   -0.0087    0.0096   -0.0085    0.0218    0.2569    0.3484
           3   -0.0933   -0.0413   -0.1223    0.0172    0.1125   -0.0793   -0.2397    0.1374
           4   -0.1609    0.0917    0.1327   -0.0674   -0.0644    0.0166    0.0875   -0.3335
           5    0.0506   -0.2014    0.2334    0.0803    0.0422   -0.1146   -0.0643   -0.0237
           6    0.0247    0.1378    0.0887   -0.1361    0.0255    0.3068    0.0078    0.0934
           7    0.0226    0.0798    0.0381   -0.0590    0.0080   -0.2714    0.0089   -0.1047
           8   -0.1357    0.1760    0.0872   -0.0172   -0.0424    0.0664   -0.3161   -0.1580
           9   -0.1917   -0.1252    0.1846   -0.0766   -0.1001    0.0388    0.2015   -0.0506
          10    0.1612   -0.0468    0.0135   -0.0205    0.0423   -0.0432   -0.0009    0.0043
          11    0.1853   -0.1521   -0.0692    0.1947    0.1948   -0.1596   -0.0051   -0.0370
          12    0.3789    0.0299    0.0308   -0.1034   -0.0891   -0.2101   -0.0110    0.1422
          13    0.1863   -0.0454   -0.0207    0.0080   -0.0097   -0.0315    0.0212   -0.0828
          14   -0.1191    0.1655   -0.2196   -0.3269   -0.1564    0.0190    0.0249    0.0176
          15   -0.2615   -0.0216    0.0074    0.2018    0.0385   -0.1914    0.0122   -0.0472
          16   -0.1479   -0.1628   -0.1616    0.0948    0.2201    0.3657   -0.3527   -0.1771
          17    0.0117    0.0885   -0.2501   -0.0085    0.2285   -0.0370    0.5931   -0.1574
          18   -0.0937   -0.0268   -0.3407    0.0402    0.3556    0.0981    0.1671   -0.3399
          19   -0.1296   -0.4144   -0.1217   -0.1692   -0.1429   -0.2399   -0.1314   -0.0150
          20    0.0530    0.1605    0.1446    0.0944    0.0722    0.0921    0.0611   -0.0451
          21    0.0933    0.0680    0.3953    0.2593    0.1821    0.1284    0.0323   -0.1928
          22   -0.1979    0.4839    0.0422    0.2323   -0.0345    0.0929    0.1155    0.1593
          23    0.0566    0.0469   -0.0704   -0.2414   -0.0105    0.1902    0.0314   -0.1002
          24    0.1249   -0.1661   -0.0754   -0.3811    0.0033    0.2044   -0.0217   -0.1996
          25   -0.0444   -0.2541    0.0291    0.0196   -0.0275    0.1646    0.1990    0.1328
          26    0.1381    0.3360   -0.1431    0.0281    0.0958   -0.1376   -0.3484   -0.1337
          27    0.0759    0.0644   -0.0891    0.0267    0.0519    0.0007   -0.0533   -0.0002
          28   -0.0222    0.0157    0.0438   -0.0316   -0.0123   -0.0966    0.0226   -0.0400
          29    0.0549   -0.1903   -0.1206    0.1196    0.0332    0.4108   -0.0519    0.1509
          30    0.0733    0.0671   -0.0802    0.0195    0.0418   -0.0169   -0.0535   -0.0001
          31    0.1743   -0.0372   -0.1686    0.0793    0.0826    0.0571    0.0185    0.1429
          32   -0.3285   -0.1097    0.3060   -0.1051   -0.1621    0.0743    0.0369   -0.1522
          33    0.0749    0.0563   -0.0742    0.0191    0.0419   -0.0300   -0.0129    0.0167
          34   -0.2285    0.0109    0.0035   -0.1788    0.3802   -0.2043   -0.0543    0.2676
          35    0.1896    0.1181    0.0478   -0.0908   -0.3100    0.0653    0.0340   -0.0633
          36    0.3581   -0.0983   -0.0255    0.2373   -0.2644    0.0983    0.0393   -0.2274
          37   -0.1053   -0.0298   -0.2876    0.2772   -0.3296   -0.0132    0.0047   -0.0298
          38   -0.1254   -0.2007    0.0059    0.4090   -0.0496   -0.0818    0.0018   -0.0075
          39   -0.2133    0.1061   -0.3638    0.1140   -0.3682   -0.0157    0.0035   -0.0069


   Root No.      17        18        19        20        21        22        23        24

                17 A      18 A      19 A      20 A      21 A      22 A      23 A      24 A   

                1185.7    1206.3    1294.5    1342.9    1397.9    1404.6    1408.4    1441.4
  
           1   -0.1337    0.0820    0.2665    0.2599    0.0297    0.0143   -0.0228    0.3387
           2    0.1595    0.0232   -0.0204   -0.3383   -0.0678    0.0350   -0.0189   -0.4571
           3   -0.4147    0.0880    0.1733   -0.3180   -0.0172   -0.0118    0.0016   -0.1965
           4   -0.0812    0.2814    0.0350   -0.0939    0.0451   -0.2171    0.1625   -0.1378
           5   -0.2715   -0.0870   -0.1739    0.0793    0.0344   -0.1234    0.0842    0.0117
           6   -0.1826   -0.2158   -0.4128    0.0855    0.0527   -0.2336    0.1631   -0.0832
           7    0.0681   -0.0281   -0.0502    0.0680   -0.1926   -0.0738   -0.1382   -0.2410
           8   -0.0367   -0.0152   -0.0261   -0.1666   -0.0142   -0.1672    0.0128    0.4677
           9    0.0715   -0.0244   -0.0271    0.0500    0.1828   -0.0788   -0.1644    0.0209
          10   -0.0302   -0.1766    0.0276   -0.0749   -0.0062   -0.0050    0.0037   -0.0766
          11    0.1032    0.0888   -0.0936    0.1566    0.0069    0.0139   -0.0062    0.1042
          12    0.3855    0.1912   -0.2016    0.2509    0.0051    0.0366   -0.0210    0.1340
          13    0.0605   -0.1269    0.0743   -0.0256   -0.0111    0.0475   -0.0358    0.0222
          14    0.1581   -0.1006    0.2351   -0.0186   -0.0103    0.0493   -0.0348    0.0278
          15    0.2085   -0.1973    0.4811   -0.0119   -0.0155    0.0949   -0.0667    0.0903
          16    0.4909   -0.1513   -0.1801   -0.0747   -0.0152   -0.0188    0.0050   -0.1223
          17   -0.1982   -0.0386    0.0232    0.1748    0.0182   -0.0061   -0.0032    0.1388
          18   -0.0171   -0.1127   -0.0782    0.0486    0.0146   -0.0297    0.0085    0.0427
          19   -0.2675   -0.2455   -0.2605    0.0091   -0.0526    0.2738   -0.2051    0.1127
          20    0.0337    0.1362    0.0750   -0.0045    0.0325   -0.1598    0.1194   -0.0610
          21   -0.0696    0.3126   -0.0330   -0.1510   -0.0886    0.3543   -0.2533    0.0486
          22   -0.0102   -0.2703   -0.3082   -0.0498   -0.0719    0.2805   -0.2013    0.0243
          23   -0.0304    0.1726   -0.0757   -0.1288   -0.0936    0.3817   -0.2725    0.0648
          24   -0.0322    0.2957    0.0459   -0.0827   -0.0193    0.0755   -0.0530   -0.0056
          25    0.0771   -0.0013   -0.0372   -0.2045   -0.1359    0.2052    0.4710    0.2218
          26   -0.1347    0.0032    0.0600    0.2158    0.1906    0.2288    0.1103   -0.2299
          27   -0.0566    0.0027    0.0309    0.0834    0.1142    0.3283    0.3524   -0.1052
          28    0.0480   -0.0137   -0.0370   -0.0443    0.1064   -0.0284   -0.0618   -0.0202
          29   -0.1369    0.0445    0.1663    0.3947   -0.1294   -0.0790   -0.2906   -0.2462
          30   -0.0545    0.0004    0.0174    0.0384   -0.6009    0.1298    0.3673    0.0205
          31   -0.0050    0.0165   -0.0156   -0.2448    0.6228    0.1297    0.0730    0.0816
          32    0.0401   -0.0284    0.0291    0.3567    0.1603    0.3004    0.2072   -0.1785
          33   -0.0121    0.0024   -0.0185   -0.1310   -0.1395   -0.1853   -0.1284    0.1203
          34    0.1078    0.2441   -0.1443    0.1151    0.0050    0.0019   -0.0006    0.0465
          35    0.0243   -0.1071    0.0413   -0.0336   -0.0044    0.0056   -0.0048   -0.0190
          36   -0.0106   -0.2181    0.0865   -0.0404   -0.0040    0.0101   -0.0054   -0.0119
          37   -0.0393    0.3112   -0.2363    0.0334    0.0076   -0.0356    0.0258   -0.0181
          38    0.0136    0.1309   -0.0468    0.0176    0.0018   -0.0069    0.0062   -0.0017
          39    0.0172    0.2637   -0.0956    0.0397    0.0060   -0.0177    0.0135    0.0095


   Root No.      25        26        27        28        29        30        31        32

                25 A      26 A      27 A      28 A      29 A      30 A      31 A      32 A   

                1775.2    2963.4    3049.0    3080.4    3083.8    3104.7    3178.9    3195.4
  
           1   -0.0157    0.1097   -0.0062    0.0058   -0.0013   -0.0050   -0.0018    0.0026
           2    0.0496    0.1579   -0.0095    0.0076   -0.0010   -0.0004    0.0017   -0.0006
           3    0.0590   -0.1917    0.0101   -0.0098   -0.0000   -0.0022    0.0011   -0.0031
           4    0.0041    0.0035   -0.0092    0.0021    0.0007   -0.1567   -0.0003    0.0040
           5    0.0299   -0.0166   -0.2755    0.0038   -0.0048   -0.0502   -0.0013    0.0018
           6    0.0596    0.0063    0.1298    0.0011    0.0014   -0.1409   -0.0002    0.0036
           7    0.0058   -0.0090    0.0034    0.1563   -0.2144    0.0033   -0.0683    0.0001
           8   -0.0191   -0.0029    0.0024    0.0796   -0.1039    0.0007    0.1344   -0.0001
           9   -0.0096    0.0108   -0.0003   -0.2379   -0.1758   -0.0037    0.0020   -0.0001
          10   -0.6741    0.0033   -0.0002   -0.0004   -0.0008   -0.0000    0.0000   -0.1367
          11    0.0028   -0.0004   -0.0017    0.0012    0.0010   -0.0004   -0.0003   -0.0581
          12   -0.0104   -0.0028    0.0012    0.0004    0.0006   -0.0010   -0.0005   -0.1206
          13    0.6763   -0.0028   -0.0002    0.0000    0.0000   -0.0032   -0.0005   -0.1479
          14   -0.0071    0.0019   -0.0016    0.0002    0.0001   -0.0013    0.0002    0.0660
          15    0.0020    0.0006    0.0007    0.0001    0.0001   -0.0029    0.0003    0.1252
          16   -0.0170   -0.3891    0.0272   -0.0148   -0.0000   -0.0020    0.0011   -0.0021
          17   -0.0248   -0.5610    0.0289   -0.0318    0.0020   -0.0016    0.0039   -0.0025
          18   -0.0139    0.6742   -0.0351    0.0307   -0.0040    0.0010   -0.0030    0.0029
          19    0.0131    0.0131    0.3147   -0.0083    0.0052    0.2572    0.0015   -0.0049
          20    0.0068    0.0368    0.6415   -0.0148    0.0091    0.5915    0.0051   -0.0098
          21   -0.0344   -0.0001    0.0018   -0.0001   -0.0001   -0.0328   -0.0003    0.0006
          22    0.0152   -0.0108   -0.2811   -0.0023   -0.0032    0.2972    0.0004   -0.0050
          23   -0.0319    0.0195    0.3243    0.0040    0.0040   -0.4182   -0.0008    0.0063
          24   -0.0158   -0.0279   -0.4571   -0.0046   -0.0057    0.5213    0.0008   -0.0076
          25   -0.0027    0.0168   -0.0041   -0.3111   -0.0004   -0.0046   -0.2420    0.0005
          26    0.0047    0.0173   -0.0041   -0.4677    0.0297   -0.0061   -0.3176    0.0005
          27    0.0028   -0.0257    0.0058    0.5383   -0.0798    0.0068    0.4007   -0.0007
          28   -0.0002    0.0193   -0.0158   -0.3086    0.6927   -0.0082    0.5605   -0.0017
          29    0.0025    0.0059   -0.0010   -0.0215    0.0581   -0.0010    0.0746   -0.0003
          30    0.0010    0.0048   -0.0032   -0.0991    0.1133   -0.0023    0.1093   -0.0005
          31    0.0037   -0.0053    0.0003    0.0803    0.0505    0.0012   -0.0789    0.0002
          32   -0.0079   -0.0065   -0.0007    0.2126    0.2725    0.0043   -0.2298    0.0005
          33   -0.0019   -0.0204   -0.0016    0.3840    0.5762    0.0079   -0.5162    0.0011
          34   -0.1043    0.0006    0.0007   -0.0001   -0.0002    0.0191    0.0005    0.4707
          35   -0.0708    0.0013   -0.0003    0.0001    0.0002    0.0082    0.0004    0.2003
          36   -0.1429    0.0002    0.0009   -0.0003    0.0002    0.0169    0.0007    0.4156
          37    0.1047   -0.0062    0.0007   -0.0007    0.0005   -0.0016    0.0017    0.5016
          38   -0.0720    0.0034   -0.0015    0.0003   -0.0002    0.0007   -0.0007   -0.2263
          39   -0.1423    0.0051    0.0001    0.0006   -0.0003    0.0012   -0.0015   -0.4289


   Root No.      33

                33 A   

                3215.8
  
           1   -0.0071
           2    0.0028
           3    0.0074
           4    0.0094
           5    0.0046
           6    0.0098
           7   -0.0002
           8   -0.0001
           9   -0.0000
          10   -0.1857
          11   -0.0634
          12   -0.1325
          13    0.1785
          14   -0.0647
          15   -0.1220
          16    0.0010
          17    0.0024
          18   -0.0029
          19   -0.0041
          20   -0.0107
          21    0.0004
          22   -0.0048
          23    0.0072
          24   -0.0094
          25   -0.0003
          26    0.0000
          27    0.0001
          28    0.0010
          29   -0.0001
          30    0.0000
          31   -0.0001
          32   -0.0004
          33   -0.0005
          34    0.4910
          35    0.2085
          36    0.4331
          37   -0.4664
          38    0.2102
          39    0.3981


          DESCRIPTION OF VIBRATIONS


 VIBRATION          1    1A           ATOM PAIR      ENERGY CONTRIBUTION    RADIAL
 FREQUENCY           150.00         C  3 -- H 11         +30.4% (401.6%)      0.0%
 TRANSITION DIPOLE   0.0113         C  3 -- H 10         +29.6% (396.4%)      0.1%
 TRAVEL (Ang.)       0.0000         C  3 -- H  9         +28.0% (385.7%)      0.1%
 REDUCED MASS        0.3051         C  2 -- C  4          +1.8% ( 96.6%)      0.0%
 EFFECTIVE MASS      7.2220
 FORCE CONSTANT      0.0040

 VIBRATION          2    2A           ATOM PAIR      ENERGY CONTRIBUTION    RADIAL
 FREQUENCY           239.75         C  1 -- C  3         +15.3% (229.4%)      0.1%
 TRANSITION DIPOLE   0.0385         C  1 -- C  5         +10.3% (187.8%)      0.0%
 TRAVEL (Ang.)       0.4464         C  2 -- C  5          +9.1% (177.4%)      0.0%
 REDUCED MASS        1.4115         C  3 -- H 10          +8.8% (174.4%)     23.5%
 EFFECTIVE MASS     51.6697
 FORCE CONSTANT      0.0478

 VIBRATION          3    3A           ATOM PAIR      ENERGY CONTRIBUTION    RADIAL
 FREQUENCY           339.30         C  1 -- C  3         +14.9% (174.3%)      0.0%
 TRANSITION DIPOLE   0.0548         C  2 -- C  4          +9.9% (141.8%)      0.0%
 TRAVEL (Ang.)       0.4195         C  1 -- C  2          +9.4% (138.2%)      0.4%
 REDUCED MASS        1.1292         C  3 -- H  9          +8.9% (135.0%)      5.0%
 EFFECTIVE MASS     31.4129
 FORCE CONSTANT      0.0766

 VIBRATION          4    4A           ATOM PAIR      ENERGY CONTRIBUTION    RADIAL
 FREQUENCY           489.63         C  1 -- C  4         +11.6% (106.3%)      0.1%
 TRANSITION DIPOLE   0.1342         C  1 -- C  2         +11.0% (103.4%)      0.3%
 TRAVEL (Ang.)       0.4137         C  1 -- C  3         +10.8% (102.3%)      2.1%
 REDUCED MASS        0.8047         C  1 -- C  5          +9.9% ( 98.1%)     13.0%
 EFFECTIVE MASS     15.6937
 FORCE CONSTANT      0.1137

 VIBRATION          5    5A           ATOM PAIR      ENERGY CONTRIBUTION    RADIAL
 FREQUENCY           759.05         C  5 -- H 13         +22.2% ( 78.1%)      2.0%
 TRANSITION DIPOLE   0.6279         C  4 -- H 12         +15.2% ( 64.6%)      1.3%
 TRAVEL (Ang.)       0.4863         C  1 -- C  5          +7.2% ( 44.4%)     80.3%
 REDUCED MASS        0.3757         C  2 -- C  4          +6.9% ( 43.5%)     77.9%
 EFFECTIVE MASS      4.1341
 FORCE CONSTANT      0.1275

 VIBRATION          6    6A           ATOM PAIR      ENERGY CONTRIBUTION    RADIAL
 FREQUENCY           816.46         C  1 -- C  5         +14.5% ( 92.8%)     76.6%
 TRANSITION DIPOLE   0.3259         C  1 -- C  4         +12.2% ( 85.0%)      1.4%
 TRAVEL (Ang.)       0.2887         C  1 -- C  2          +9.3% ( 74.1%)     25.8%
 REDUCED MASS        0.9908         C  1 -- C  3          +9.0% ( 73.0%)     37.0%
 EFFECTIVE MASS     10.7528
 FORCE CONSTANT      0.3891

 VIBRATION          7    7A           ATOM PAIR      ENERGY CONTRIBUTION    RADIAL
 FREQUENCY           884.46         C  1 -- C  2         +15.8% ( 81.7%)     89.4%
 TRANSITION DIPOLE   0.0351         C  2 -- C  5         +13.8% ( 76.2%)      5.0%
 TRAVEL (Ang.)       0.2316         C  2 -- C  4         +10.8% ( 67.5%)     36.4%
 REDUCED MASS        1.4215         C  2 -- H  7          +8.8% ( 60.8%)     25.2%
 EFFECTIVE MASS      9.2668
 FORCE CONSTANT      0.6552

 VIBRATION          8    8A           ATOM PAIR      ENERGY CONTRIBUTION    RADIAL
 FREQUENCY           900.33         C  4 -- H 12         +23.8% ( 65.7%)      0.0%
 TRANSITION DIPOLE   0.1978         C  2 -- H  7         +17.8% ( 56.7%)      8.2%
 TRAVEL (Ang.)       0.4356         C  2 -- H  8         +17.3% ( 55.9%)     13.3%
 REDUCED MASS        0.3946         C  2 -- C  4          +8.7% ( 39.6%)      0.3%
 EFFECTIVE MASS      2.9991
 FORCE CONSTANT      0.1885

 VIBRATION          9    9A           ATOM PAIR      ENERGY CONTRIBUTION    RADIAL
 FREQUENCY           936.18         C  4 -- C  5         +16.9% ( 76.2%)      0.1%
 TRANSITION DIPOLE   0.0768         C  2 -- C  4         +13.0% ( 66.7%)     99.1%
 TRAVEL (Ang.)       0.3016         C  1 -- C  4         +12.9% ( 66.5%)     84.2%
 REDUCED MASS        0.7920         C  4 -- H 12         +12.6% ( 65.6%)     55.3%
 EFFECTIVE MASS      7.7436
 FORCE CONSTANT      0.4090

 VIBRATION         10   10A           ATOM PAIR      ENERGY CONTRIBUTION    RADIAL
 FREQUENCY           946.31         C  2 -- H  8         +19.2% ( 61.8%)     11.2%
 TRANSITION DIPOLE   0.0741         C  2 -- H  7         +18.9% ( 61.2%)      3.3%
 TRAVEL (Ang.)       0.5236         C  3 -- H  9         +13.4% ( 51.7%)     15.9%
 REDUCED MASS        0.2599         C  3 -- H 10          +7.5% ( 38.6%)      1.6%
 EFFECTIVE MASS      3.3111
 FORCE CONSTANT      0.1371

 VIBRATION         11   11A           ATOM PAIR      ENERGY CONTRIBUTION    RADIAL
 FREQUENCY          1006.89         C  2 -- H  7         +13.9% ( 48.8%)     22.2%
 TRANSITION DIPOLE   0.2015         C  5 -- H 13         +13.4% ( 47.9%)      0.5%
 TRAVEL (Ang.)       0.4936         C  1 -- H  6         +11.8% ( 44.8%)      2.7%
 REDUCED MASS        0.2749         C  3 -- H 11         +10.1% ( 41.7%)     15.0%
 EFFECTIVE MASS      3.3675
 FORCE CONSTANT      0.1642

 VIBRATION         12   12A           ATOM PAIR      ENERGY CONTRIBUTION    RADIAL
 FREQUENCY          1020.96         C  5 -- H 13         +24.8% ( 56.8%)      0.0%
 TRANSITION DIPOLE   0.1044         C  2 -- H  8         +20.6% ( 51.7%)      6.2%
 TRAVEL (Ang.)       0.3802         C  2 -- H  7         +11.3% ( 38.4%)      0.8%
 REDUCED MASS        0.4569         C  4 -- H 12          +9.2% ( 34.5%)      0.1%
 EFFECTIVE MASS      3.1570
 FORCE CONSTANT      0.2806

 VIBRATION         13   13A           ATOM PAIR      ENERGY CONTRIBUTION    RADIAL
 FREQUENCY          1035.38         C  4 -- H 12         +28.9% ( 56.8%)      0.1%
 TRANSITION DIPOLE   0.0370         C  5 -- H 13         +22.1% ( 49.7%)      0.1%
 TRAVEL (Ang.)       0.5053         C  1 -- H  6         +18.8% ( 45.8%)      2.4%
 REDUCED MASS        0.2550         C  2 -- H  7          +4.6% ( 22.6%)      0.2%
 EFFECTIVE MASS      2.0203
 FORCE CONSTANT      0.1611

 VIBRATION         14   14A           ATOM PAIR      ENERGY CONTRIBUTION    RADIAL
 FREQUENCY          1044.16         C  2 -- C  4          +9.4% ( 48.1%)     55.9%
 TRANSITION DIPOLE   0.0260         C  1 -- C  3          +9.2% ( 47.7%)     24.2%
 TRAVEL (Ang.)       0.3708         C  1 -- C  2          +9.1% ( 47.2%)     31.3%
 REDUCED MASS        0.4698         C  3 -- H 10          +9.0% ( 47.1%)     22.7%
 EFFECTIVE MASS      5.9703
 FORCE CONSTANT      0.3018

 VIBRATION         15   15A           ATOM PAIR      ENERGY CONTRIBUTION    RADIAL
 FREQUENCY          1153.24         C  1 -- H  6         +29.3% ( 70.7%)     11.2%
 TRANSITION DIPOLE   0.0632         C  1 -- C  3         +19.0% ( 56.9%)     56.9%
 TRAVEL (Ang.)       0.2851         C  3 -- H  9         +11.1% ( 43.5%)     52.6%
 REDUCED MASS        0.7192         C  3 -- H 11          +7.8% ( 36.5%)      0.5%
 EFFECTIVE MASS      4.4619
 FORCE CONSTANT      0.5635

 VIBRATION         16   16A           ATOM PAIR      ENERGY CONTRIBUTION    RADIAL
 FREQUENCY          1163.96         C  1 -- H  6         +17.3% ( 61.6%)      4.5%
 TRANSITION DIPOLE   0.0982         C  1 -- C  2         +15.6% ( 58.4%)     78.8%
 TRAVEL (Ang.)       0.2130         C  1 -- C  3         +11.9% ( 51.1%)     11.0%
 REDUCED MASS        1.2772         C  1 -- C  5          +9.3% ( 45.1%)      2.9%
 EFFECTIVE MASS      5.9736
 FORCE CONSTANT      1.0194

 VIBRATION         17   17A           ATOM PAIR      ENERGY CONTRIBUTION    RADIAL
 FREQUENCY          1185.70         C  1 -- H  6         +15.9% ( 64.5%)      8.6%
 TRANSITION DIPOLE   0.0789         C  1 -- C  4         +14.8% ( 62.2%)     71.0%
 TRAVEL (Ang.)       0.2204         C  2 -- C  4         +10.2% ( 51.7%)     58.8%
 REDUCED MASS        1.1709         C  1 -- C  2         +10.0% ( 51.2%)      1.1%
 EFFECTIVE MASS      7.7718
 FORCE CONSTANT      0.9699

 VIBRATION         18   18A           ATOM PAIR      ENERGY CONTRIBUTION    RADIAL
 FREQUENCY          1206.27         C  2 -- H  8         +18.1% ( 52.3%)      0.0%
 TRANSITION DIPOLE   0.0480         C  2 -- H  7         +17.2% ( 50.9%)      0.1%
 TRAVEL (Ang.)       0.3512         C  5 -- H 13         +15.4% ( 48.2%)      0.4%
 REDUCED MASS        0.4533         C  4 -- H 12         +12.7% ( 43.8%)      0.1%
 EFFECTIVE MASS      3.0999
 FORCE CONSTANT      0.3886

 VIBRATION         19   19A           ATOM PAIR      ENERGY CONTRIBUTION    RADIAL
 FREQUENCY          1294.47         C  2 -- C  5         +21.0% ( 70.9%)     99.7%
 TRANSITION DIPOLE   0.1437         C  1 -- C  5         +11.6% ( 52.7%)     86.9%
 TRAVEL (Ang.)       0.1754         C  4 -- C  5         +11.0% ( 51.3%)      0.5%
 REDUCED MASS        1.6936         C  5 -- H 13         +10.4% ( 50.0%)      9.7%
 EFFECTIVE MASS      8.1117
 FORCE CONSTANT      1.6720

 VIBRATION         20   20A           ATOM PAIR      ENERGY CONTRIBUTION    RADIAL
 FREQUENCY          1342.87         C  1 -- C  4         +17.9% ( 59.7%)     83.5%
 TRANSITION DIPOLE   0.1185         C  1 -- H  6         +13.6% ( 52.2%)      1.5%
 TRAVEL (Ang.)       0.2074         C  1 -- C  2         +12.3% ( 49.6%)     27.1%
 REDUCED MASS        1.1674         C  1 -- C  5         +11.1% ( 47.2%)     89.6%
 EFFECTIVE MASS      5.3545
 FORCE CONSTANT      1.2403

 VIBRATION         21   21A           ATOM PAIR      ENERGY CONTRIBUTION    RADIAL
 FREQUENCY          1397.86         C  3 -- H 11         +41.2% ( 57.5%)      1.8%
 TRANSITION DIPOLE   0.0494         C  3 -- H 10         +37.3% ( 54.7%)      2.7%
 TRAVEL (Ang.)       0.3441         C  3 -- H  9          +7.8% ( 25.1%)     75.2%
 REDUCED MASS        0.4075         C  1 -- C  3          +6.3% ( 22.4%)     22.7%
 EFFECTIVE MASS      1.7557
 FORCE CONSTANT      0.4691

 VIBRATION         22   22A           ATOM PAIR      ENERGY CONTRIBUTION    RADIAL
 FREQUENCY          1404.65         C  2 -- H  8         +21.6% ( 50.0%)      4.5%
 TRANSITION DIPOLE   0.0377         C  2 -- H  7         +21.4% ( 49.7%)      4.8%
 TRAVEL (Ang.)       0.3692         C  3 -- H  9         +14.1% ( 40.3%)      1.1%
 REDUCED MASS        0.3522         C  3 -- H 11         +10.0% ( 34.1%)      7.0%
 EFFECTIVE MASS      2.7368
 FORCE CONSTANT      0.4094

 VIBRATION         23   23A           ATOM PAIR      ENERGY CONTRIBUTION    RADIAL
 FREQUENCY          1408.35         C  3 -- H  9         +28.5% ( 51.8%)      0.6%
 TRANSITION DIPOLE   0.0310         C  3 -- H 10         +18.0% ( 41.1%)      6.1%
 TRAVEL (Ang.)       0.4120         C  2 -- H  7         +13.8% ( 36.0%)      4.6%
 REDUCED MASS        0.2820         C  2 -- H  8         +13.5% ( 35.7%)      4.7%
 EFFECTIVE MASS      2.1016
 FORCE CONSTANT      0.3296

 VIBRATION         24   24A           ATOM PAIR      ENERGY CONTRIBUTION    RADIAL
 FREQUENCY          1441.43         C  1 -- C  3         +22.6% ( 76.1%)     95.0%
 TRANSITION DIPOLE   0.1160         C  1 -- C  4         +11.6% ( 54.4%)     55.7%
 TRAVEL (Ang.)       0.1356         C  1 -- H  6         +11.5% ( 54.3%)      0.0%
 REDUCED MASS        2.5447         C  1 -- C  2         +10.7% ( 52.3%)     49.4%
 EFFECTIVE MASS      8.6265         C  3 -- H  9         +10.5% ( 51.9%)      3.2%
 FORCE CONSTANT      3.1151

 VIBRATION         25   25A           ATOM PAIR      ENERGY CONTRIBUTION    RADIAL
 FREQUENCY          1775.24         C  4 -- C  5         +36.3% (102.1%)    100.0%
 TRANSITION DIPOLE   0.0550         C  1 -- C  5         +11.2% ( 56.7%)     59.4%
 TRAVEL (Ang.)       0.0872         C  2 -- C  4         +11.1% ( 56.4%)     58.7%
 REDUCED MASS        4.9991         C  2 -- C  5         +10.9% ( 56.0%)      0.1%
 EFFECTIVE MASS     11.9870         C  1 -- C  4         +10.9% ( 56.0%)      0.2%
 FORCE CONSTANT      9.2823

 VIBRATION         26   26A           ATOM PAIR      ENERGY CONTRIBUTION    RADIAL
 FREQUENCY          2963.42         C  1 -- H  6         +95.3% ( 99.7%)    100.0%
 TRANSITION DIPOLE   0.0956         C  1 -- C  2          +1.0% ( 10.4%)     13.9%
 TRAVEL (Ang.)       0.1573         C  1 -- C  3          +1.0% ( 10.4%)     10.8%
 REDUCED MASS        0.9196         C  1 -- C  5          +1.0% ( 10.3%)     30.8%
 EFFECTIVE MASS      1.4416
 FORCE CONSTANT      4.7582

 VIBRATION         27   27A           ATOM PAIR      ENERGY CONTRIBUTION    RADIAL
 FREQUENCY          3048.98         C  2 -- H  7         +54.0% ( 76.4%)     97.6%
 TRANSITION DIPOLE   0.0736         C  2 -- H  8         +42.4% ( 67.7%)     96.3%
 TRAVEL (Ang.)       0.2058         C  2 -- C  4          +1.1% ( 10.9%)      0.1%
 REDUCED MASS        0.5221         C  2 -- C  5          +1.1% ( 10.9%)      0.1%
 EFFECTIVE MASS      1.5390
 FORCE CONSTANT      2.8597

 VIBRATION         28   28A           ATOM PAIR      ENERGY CONTRIBUTION    RADIAL
 FREQUENCY          3080.36         C  3 -- H  9         +64.9% ( 83.1%)     98.8%
 TRANSITION DIPOLE   0.0246         C  3 -- H 11         +21.9% ( 48.3%)     88.6%
 TRAVEL (Ang.)       0.2067         C  3 -- H 10         +12.0% ( 35.7%)     77.8%
 REDUCED MASS        0.5122         C  1 -- C  3          +1.0% ( 10.3%)      0.0%
 EFFECTIVE MASS      1.5055
 FORCE CONSTANT      2.8632

 VIBRATION         29   29A           ATOM PAIR      ENERGY CONTRIBUTION    RADIAL
 FREQUENCY          3083.78         C  3 -- H 10         +53.4% ( 75.4%)     97.7%
 TRANSITION DIPOLE   0.0255         C  3 -- H 11         +44.1% ( 68.5%)     96.2%
 TRAVEL (Ang.)       0.2073         C  3 -- H  9          +1.5% ( 12.7%)     13.3%
 REDUCED MASS        0.5088         C  1 -- C  3          +1.0% ( 10.4%)      0.0%
 EFFECTIVE MASS      1.5070
 FORCE CONSTANT      2.8509

 VIBRATION         30   30A           ATOM PAIR      ENERGY CONTRIBUTION    RADIAL
 FREQUENCY          3104.72         C  2 -- H  8         +55.3% ( 73.9%)     97.7%
 TRANSITION DIPOLE   0.1199         C  2 -- H  7         +42.5% ( 64.8%)     96.0%
 TRAVEL (Ang.)       0.2105         C  2 -- C  4          +0.7% (  8.3%)     99.1%
 REDUCED MASS        0.4902         C  1 -- C  2          +0.7% (  8.3%)     51.5%
 EFFECTIVE MASS      1.2816
 FORCE CONSTANT      2.7839

 VIBRATION         31   31A           ATOM PAIR      ENERGY CONTRIBUTION    RADIAL
 FREQUENCY          3178.89         C  3 -- H 10         +33.9% ( 56.0%)     97.2%
 TRANSITION DIPOLE   0.0324         C  3 -- H 11         +33.2% ( 55.5%)     97.1%
 TRAVEL (Ang.)       0.2547         C  3 -- H  9         +32.6% ( 54.9%)     97.0%
 REDUCED MASS        0.3271         C  1 -- C  3          +0.3% (  5.2%)    100.0%
 EFFECTIVE MASS      1.1365
 FORCE CONSTANT      1.9475

 VIBRATION         32   32A           ATOM PAIR      ENERGY CONTRIBUTION    RADIAL
 FREQUENCY          3195.44         C  5 -- H 13         +50.6% ( 72.9%)    100.0%
 TRANSITION DIPOLE   0.4778         C  4 -- H 12         +45.1% ( 68.8%)    100.0%
 TRAVEL (Ang.)       0.2128         C  4 -- C  5          +1.1% ( 10.6%)      0.1%
 REDUCED MASS        0.4662         C  1 -- C  5          +0.9% (  9.5%)     99.9%
 EFFECTIVE MASS      1.4642
 FORCE CONSTANT      2.8047

 VIBRATION         33   33A           ATOM PAIR      ENERGY CONTRIBUTION    RADIAL
 FREQUENCY          3215.84         C  4 -- H 12         +48.9% ( 72.4%)     99.9%
 TRANSITION DIPOLE   0.3674         C  5 -- H 13         +43.6% ( 68.3%)     99.9%
 TRAVEL (Ang.)       0.2109         C  4 -- C  5          +3.0% ( 17.9%)    100.0%
 REDUCED MASS        0.4716         C  2 -- C  4          +1.2% ( 11.1%)     98.4%
 EFFECTIVE MASS      1.7369
 FORCE CONSTANT      2.8733

      SYMMETRY NUMBER FOR POINT-GROUP C1  =  1


          SYSTEM IS A GROUND STATE



 InChI=1S/C5H8/c1-5-3-2-4-5/h2-3,5H,4H2,1H3


          MOLECULE IS NOT LINEAR

          THERE ARE 33 GENUINE VIBRATIONS IN THIS SYSTEM
          THIS THERMODYNAMICS CALCULATION IS LIMITED TO
          MOLECULES WHICH HAVE NO INTERNAL ROTATIONS




                    CALCULATED THERMODYNAMIC PROPERTIES
                                          *
   TEMP. (K)   PARTITION FUNCTION   H.O.F.    ENTHALPY  HEAT CAPACITY ENTROPY
                                   KCAL/MOL   CAL/MOLE    CAL/K/MOL  CAL/K/MOL


 298.00  VIB.     0.4478D+01                  1488.5547    12.7916     7.9743
         ROT.     0.6484D+05                   888.2803     2.9808    24.9984
         INT.     0.2903D+06                  2376.8350    15.7724    32.9727
         TRA.     0.5435D+27                  1480.4672     4.9680    38.5714
         TOT.                       30.903    3857.3022    20.7404    71.5440

 200.00  VIB.     0.2115D+01                   546.3804     6.7507     4.2204
         ROT.     0.3565D+05                   596.1613     2.9808    23.8097
         INT.     0.7540D+05                  1142.5417     9.7315    28.0301
         TRA.     0.2988D+27                   993.6021     4.9680    36.5902
         TOT.                       29.182    2136.1439    14.6995    64.6204

 210.00  VIB.     0.2267D+01                   616.4551     7.2688     4.5622
         ROT.     0.3836D+05                   625.9693     2.9808    23.9552
         INT.     0.8697D+05                  1242.4245    10.2496    28.5174
         TRA.     0.3215D+27                  1043.2822     4.9680    36.8326
         TOT.                       29.332    2285.7067    15.2176    65.3500

 220.00  VIB.     0.2434D+01                   691.8454     7.8137     4.9128
         ROT.     0.4113D+05                   655.7774     2.9808    24.0938
         INT.     0.1001D+06                  1347.6228    10.7945    29.0066
         TRA.     0.3448D+27                  1092.9623     4.9680    37.0637
         TOT.                       29.487    2440.5852    15.7625    66.0704

 230.00  VIB.     0.2618D+01                   772.8159     8.3846     5.2726
         ROT.     0.4397D+05                   685.5855     2.9808    24.2263
         INT.     0.1151D+06                  1458.4014    11.3654    29.4990
         TRA.     0.3685D+27                  1142.6424     4.9680    37.2846
         TOT.                       29.647    2601.0438    16.3334    66.7835

 240.00  VIB.     0.2820D+01                   859.6179     8.9797     5.6420
         ROT.     0.4686D+05                   715.3935     2.9808    24.3532
         INT.     0.1322D+06                  1575.0115    11.9605    29.9952
         TRA.     0.3928D+27                  1192.3226     4.9680    37.4960
         TOT.                       29.813    2767.3340    16.9285    67.4912

 250.00  VIB.     0.3042D+01                   952.4843     9.5971     6.0210
         ROT.     0.4982D+05                   745.2016     2.9808    24.4749
         INT.     0.1516D+06                  1697.6859    12.5779    30.4959
         TRA.     0.4176D+27                  1242.0027     4.9680    37.6988
         TOT.                       29.986    2939.6886    17.5459    68.1947

 260.00  VIB.     0.3288D+01                  1051.6259    10.2343     6.4098
         ROT.     0.5284D+05                   775.0097     2.9808    24.5918
         INT.     0.1737D+06                  1826.6356    13.2151    31.0015
         TRA.     0.4430D+27                  1291.6828     4.9680    37.8937
         TOT.                       30.164    3118.3184    18.1832    68.8952

 270.00  VIB.     0.3558D+01                  1157.2290    10.8889     6.8082
         ROT.     0.5592D+05                   804.8177     2.9808    24.7043
         INT.     0.1990D+06                  1962.0467    13.8697    31.5125
         TRA.     0.4687D+27                  1341.3629     4.9680    38.0812
         TOT.                       30.349    3303.4096    18.8378    69.5937

 280.00  VIB.     0.3857D+01                  1269.4536    11.5582     7.2163
         ROT.     0.5906D+05                   834.6258     2.9808    24.8127
         INT.     0.2278D+06                  2104.0794    14.5390    32.0290
         TRA.     0.4950D+27                  1391.0430     4.9680    38.2618
         TOT.                       30.541    3495.1224    19.5070    70.2908

 290.00  VIB.     0.4188D+01                  1388.4337    12.2396     7.6337
         ROT.     0.6225D+05                   864.4339     2.9808    24.9173
         INT.     0.2607D+06                  2252.8675    15.2204    32.5510
         TRA.     0.5218D+27                  1440.7231     4.9680    38.4362
         TOT.                       30.740    3693.5906    20.1884    70.9872

 300.00  VIB.     0.4554D+01                  1514.2766    12.9304     8.0603
         ROT.     0.6549D+05                   894.2419     2.9808    25.0183
         INT.     0.2983D+06                  2408.5185    15.9112    33.0786
         TRA.     0.5490D+27                  1490.4032     4.9680    38.6046
         TOT.                       30.945    3898.9217    20.8792    71.6832

 310.00  VIB.     0.4961D+01                  1647.0645    13.6282     8.4956
         ROT.     0.6880D+05                   924.0500     2.9808    25.1161
         INT.     0.3413D+06                  2571.1145    16.6090    33.6117
         TRA.     0.5767D+27                  1540.0833     4.9680    38.7675
         TOT.                       31.157    4111.1978    21.5770    72.3792

 320.00  VIB.     0.5412D+01                  1786.8551    14.3306     8.9394
         ROT.     0.7215D+05                   953.8580     2.9808    25.2107
         INT.     0.3905D+06                  2740.7132    17.3114    34.1501
         TRA.     0.6048D+27                  1589.7634     4.9680    38.9252
         TOT.                       31.377    4330.4766    22.2794    73.0753

 330.00  VIB.     0.5913D+01                  1933.6836    15.0354     9.3912
         ROT.     0.7556D+05                   983.6661     2.9808    25.3024
         INT.     0.4468D+06                  2917.3497    18.0162    34.6936
         TRA.     0.6334D+27                  1639.4435     4.9680    39.0781
         TOT.                       31.603    4556.7932    22.9842    73.7717

 340.00  VIB.     0.6470D+01                  2087.5641    15.7406     9.8505
         ROT.     0.7902D+05                  1013.4742     2.9808    25.3914
         INT.     0.5113D+06                  3101.0382    18.7214    35.2419
         TRA.     0.6624D+27                  1689.1236     4.9680    39.2264
         TOT.                       31.836    4790.1619    23.6894    74.4683

 350.00  VIB.     0.7091D+01                  2248.4914    16.4445    10.3169
         ROT.     0.8253D+05                  1043.2822     2.9808    25.4778
         INT.     0.5853D+06                  3291.7737    19.4253    35.7948
         TRA.     0.6918D+27                  1738.8037     4.9680    39.3704
         TOT.                       32.077    5030.5774    24.3933    75.1652

 360.00  VIB.     0.7783D+01                  2416.4433    17.1453    10.7900
         ROT.     0.8609D+05                  1073.0903     2.9808    25.5618
         INT.     0.6701D+06                  3489.5336    20.1261    36.3518
         TRA.     0.7217D+27                  1788.4838     4.9680    39.5104
         TOT.                       32.324    5278.0174    25.0941    75.8622

 370.00  VIB.     0.8555D+01                  2591.3819    17.8416    11.2693
         ROT.     0.8971D+05                  1102.8984     2.9808    25.6435
         INT.     0.7674D+06                  3694.2803    20.8224    36.9128
         TRA.     0.7520D+27                  1838.1639     4.9680    39.6465
         TOT.                       32.578    5532.4442    25.7904    76.5593

 380.00  VIB.     0.9416D+01                  2773.2558    18.5321    11.7543
         ROT.     0.9337D+05                  1132.7064     2.9808    25.7230
         INT.     0.8792D+06                  3905.9623    21.5130    37.4772
         TRA.     0.7827D+27                  1887.8440     4.9680    39.7790
         TOT.                       32.840    5793.8063    26.4810    77.2562

 390.00  VIB.     0.1038D+02                  2962.0019    19.2158    12.2445
         ROT.     0.9708D+05                  1162.5145     2.9808    25.8004
         INT.     0.1008D+07                  4124.5164    22.1966    38.0449
         TRA.     0.8138D+27                  1937.5242     4.9680    39.9080
         TOT.                       33.108    6062.0405    27.1647    77.9529

 400.00  VIB.     0.1146D+02                  3157.5466    19.8917    12.7395
         ROT.     0.1008D+06                  1192.3226     2.9808    25.8759
         INT.     0.1155D+07                  4349.8692    22.8725    38.6154
         TRA.     0.8452D+27                  1987.2043     4.9680    40.0338
         TOT.                       33.383    6337.0735    27.8406    78.6492

   *: NOTE: HEATS OF FORMATION ARE RELATIVE TO THE
            ELEMENTS IN THEIR STANDARD STATE AT 298K
              (=  Standard Enthalpy of Formation).

            Hvib:  Zero-point energy is not included.
                   frequencies of less than zero cm-1 are not included.
            Hrot = (3/2)RT
            Htra = (3/2)RT + pV = (5/2)RT

            Heat capacity is Cp, not Cv

          For more information, see: HTTP://OpenMOPAC.net/Manual/thermochemistry.html


           FORCE CONSTANT IN CARTESIAN COORDINATES (Millidynes/A)

    ATOM   CHEMICAL       X               Y               Z
   NUMBER   SYMBOL  FORCE CONSTANT  FORCE CONSTANT  FORCE CONSTANT

      1       C        7.543859        8.650675        8.246545
      2       C        7.318089        8.385290        8.311627
      3       C        8.386967        8.488166        8.302949
      4       C       15.184649        3.598705        7.674526
      5       C       15.221870        3.659204        7.744229
      6       H        1.383844        2.132932        2.710655
      7       H        1.498062        4.411740        0.649673
      8       H        1.508049        2.044815        3.024906
      9       H        1.464182        2.324476        2.971210
     10       H        5.178192        0.741369        0.824573
     11       H        0.726912        1.572379        4.441950
     12       H        3.179763        0.851736        2.555924
     13       H        3.214256        0.922675        2.453913

 **********************
 *                    *
 * JOB ENDED NORMALLY *
 *                    *
 **********************



 TOTAL JOB TIME:             0.80 SECONDS

 == MOPAC DONE ==
