 *******************************************************************************
 **                                                                           **
 **                              MOPAC v23.1.2                                **
 **                                                                           **
 *******************************************************************************
 **          Digital Object Identifier (DOI): 10.5281/zenodo.6511958          **
 **    Visit the DOI location for information on how to cite this program.    **
 *******************************************************************************

                              PM3 CALCULATION RESULTS

 *******************************************************************************
 *  CALCULATION DONE: (MAX THREADS = 1)              Tue Jun  3 16:29:02 2025  *
 *  PM3        - The PM3 Hamiltonian to be used
 *  NONR       - DO NOT USE NEWTON-RAPHSON STEP IN EF
 *  PRECISE    - TIGHTER CRITERIA TO BE USED
 *  NOSYM      - POINT-GROUP SYMMETRY SET TO C1
 *  THREADS=1  - MULTI-THREADING NOT USED
 *  T=         - A TIME OF 2000.0 SECONDS REQUESTED
 *  DUMP=N     - RESTART FILE WRITTEN EVERY 7200.0 SECONDS REQUESTED
 *  CYCLES=    - DO A MAXIMUM OF 2000 STEPS
 *  RECALC=    - DO  10 CYCLES BETWEEN HESSIAN RECALC
 *  DMAX=      - STARTING TRUST RADIUS  0.100 ANG/RAD
 *******************************************************************************
pm3  precise nosym recalc=10 dmax=0.10 nonr cycles=2000 t=2000 THREADS=1
 InChI=1S/C6H8/c1-6-4-2-3-5-6/h2-4H,5H2,1H3

   ATOM   CHEMICAL          X               Y               Z
  NUMBER   SYMBOL      (ANGSTROMS)     (ANGSTROMS)     (ANGSTROMS)

     1       C          0.31250000  *  -1.03770000  *  -0.48210000  *
     2       C         -1.96430000  *   0.23620000  *  -0.01830000  *
     3       C         -0.47490000  *   0.12510000  *   0.02850000  *
     4       C          1.70530000  *  -0.59570000  *  -0.17360000  *
     5       C          0.32660000  *   1.05130000  *   0.53190000  *
     6       C          1.69820000  *   0.59530000  *   0.40350000  *
     7       H          0.06000000  *  -1.96490000  *   0.07440000  *
     8       H          0.17160000  *  -1.16440000  *  -1.57630000  *
     9       H         -2.36560000  *   0.33690000  *   1.01200000  *
    10       H         -2.25560000  *   1.12590000  *  -0.61500000  *
    11       H         -2.40150000  *  -0.67020000  *  -0.48730000  *
    12       H          2.60120000  *  -1.16320000  *  -0.38820000  *
    13       H          0.00750000  *   1.99020000  *   0.96570000  *
    14       H          2.57890000  *   1.13530000  *   0.72490000  *



          CARTESIAN COORDINATES 

    NO.       ATOM           X           Y           Z

     1         C          0.3125     -1.0377     -0.4821
     2         C         -1.9643      0.2362     -0.0183
     3         C         -0.4749      0.1251      0.0285
     4         C          1.7053     -0.5957     -0.1736
     5         C          0.3266      1.0513      0.5319
     6         C          1.6982      0.5953      0.4035
     7         H          0.0600     -1.9649      0.0744
     8         H          0.1716     -1.1644     -1.5763
     9         H         -2.3656      0.3369      1.0120
    10         H         -2.2556      1.1259     -0.6150
    11         H         -2.4015     -0.6702     -0.4873
    12         H          2.6012     -1.1632     -0.3882
    13         H          0.0075      1.9902      0.9657
    14         H          2.5789      1.1353      0.7249

  H: (PM3): J. J. P. STEWART, J. COMP. CHEM. 10, 209 (1989).
  C: (PM3): J. J. P. STEWART, J. COMP. CHEM. 10, 209 (1989).

           Empirical Formula: C6 H8  =    14 atoms



      MOLECULAR POINT GROUP   :   C1  


      RHF CALCULATION, NO. OF DOUBLY OCCUPIED LEVELS = 16


          Geometry optimization using EF

          DIAGONAL MATRIX USED AS START HESSIAN

 CYCLE:     1 TIME:   0.004 TIME LEFT: 33.33M  GRAD.:   116.701 HEAT:  25.64989
 CYCLE:     2 TIME:   0.004 TIME LEFT: 33.33M  GRAD.:    67.980 HEAT:  23.97701
 CYCLE:     3 TIME:   0.004 TIME LEFT: 33.33M  GRAD.:    36.551 HEAT:  22.94939
 CYCLE:     4 TIME:   0.004 TIME LEFT: 33.33M  GRAD.:    37.229 HEAT:  22.69784
 CYCLE:     5 TIME:   0.004 TIME LEFT: 33.33M  GRAD.:    46.203 HEAT:  22.68278
 CYCLE:     6 TIME:   0.004 TIME LEFT: 33.33M  GRAD.:    37.326 HEAT:  22.51938
 CYCLE:     7 TIME:   0.004 TIME LEFT: 33.33M  GRAD.:    34.593 HEAT:  22.43469
 CYCLE:     8 TIME:   0.004 TIME LEFT: 33.33M  GRAD.:    36.397 HEAT:  22.40731
 CYCLE:     9 TIME:   0.004 TIME LEFT: 33.33M  GRAD.:    18.358 HEAT:  22.15694
 CYCLE:    10 TIME:   0.004 TIME LEFT: 33.33M  GRAD.:    10.409 HEAT:  22.06430

          HESSIAN CALCULATED NUMERICALLY

 CYCLE:    11 TIME:   0.082 TIME LEFT: 33.33M  GRAD.:     6.322 HEAT:  22.02910
 CYCLE:    12 TIME:   0.004 TIME LEFT: 33.33M  GRAD.:     3.025 HEAT:  21.98193
 CYCLE:    13 TIME:   0.004 TIME LEFT: 33.33M  GRAD.:     3.016 HEAT:  21.98123
 CYCLE:    14 TIME:   0.012 TIME LEFT: 33.33M  GRAD.:     1.605 HEAT:  21.90085
 CYCLE:    15 TIME:   0.008 TIME LEFT: 33.33M  GRAD.:     0.782 HEAT:  21.86181
 CYCLE:    16 TIME:   0.008 TIME LEFT: 33.33M  GRAD.:     1.307 HEAT:  21.86140
 CYCLE:    17 TIME:   0.031 TIME LEFT: 33.33M  GRAD.:     1.785 HEAT:  21.86146
 CYCLE:    18 TIME:   0.004 TIME LEFT: 33.33M  GRAD.:     1.784 HEAT:  21.86128
 CYCLE:    19 TIME:   0.000 TIME LEFT: 33.33M  GRAD.:     1.398 HEAT:  21.85696
 CYCLE:    20 TIME:   0.004 TIME LEFT: 33.33M  GRAD.:     0.308 HEAT:  21.85001

          HESSIAN CALCULATED NUMERICALLY

 CYCLE:    21 TIME:   0.094 TIME LEFT: 33.33M  GRAD.:     1.134 HEAT:  21.85176
 CYCLE:    22 TIME:   0.008 TIME LEFT: 33.33M  GRAD.:     1.176 HEAT:  21.85180
 CYCLE:    23 TIME:   0.004 TIME LEFT: 33.33M  GRAD.:     0.991 HEAT:  21.84788
 CYCLE:    24 TIME:   0.004 TIME LEFT: 33.33M  GRAD.:     1.696 HEAT:  21.84474
 CYCLE:    25 TIME:   0.008 TIME LEFT: 33.33M  GRAD.:     6.722 HEAT:  21.85112
 CYCLE:    26 TIME:   0.008 TIME LEFT: 33.33M  GRAD.:     4.065 HEAT:  21.83585
 CYCLE:    27 TIME:   0.008 TIME LEFT: 33.33M  GRAD.:     3.388 HEAT:  21.83137
 CYCLE:    28 TIME:   0.004 TIME LEFT: 33.33M  GRAD.:     1.813 HEAT:  21.82325
 CYCLE:    29 TIME:   0.004 TIME LEFT: 33.33M  GRAD.:     1.599 HEAT:  21.82090
 CYCLE:    30 TIME:   0.004 TIME LEFT: 33.33M  GRAD.:     1.557 HEAT:  21.81477

          HESSIAN CALCULATED NUMERICALLY

 CYCLE:    31 TIME:   0.090 TIME LEFT: 33.33M  GRAD.:     3.828 HEAT:  21.80275
 CYCLE:    32 TIME:   0.004 TIME LEFT: 33.33M  GRAD.:     5.384 HEAT:  21.77380
 CYCLE:    33 TIME:   0.004 TIME LEFT: 33.33M  GRAD.:     5.373 HEAT:  21.74598
 CYCLE:    34 TIME:   0.004 TIME LEFT: 33.33M  GRAD.:     3.520 HEAT:  21.74489
 CYCLE:    35 TIME:   0.008 TIME LEFT: 33.33M  GRAD.:     2.890 HEAT:  21.73499
 CYCLE:    36 TIME:   0.004 TIME LEFT: 33.33M  GRAD.:     8.251 HEAT:  21.71981
 CYCLE:    37 TIME:   0.008 TIME LEFT: 33.33M  GRAD.:     4.702 HEAT:  21.71382
 CYCLE:    38 TIME:   0.004 TIME LEFT: 33.33M  GRAD.:     4.916 HEAT:  21.71201
 CYCLE:    39 TIME:   0.004 TIME LEFT: 33.33M  GRAD.:     0.984 HEAT:  21.69641
 CYCLE:    40 TIME:   0.004 TIME LEFT: 33.33M  GRAD.:     1.687 HEAT:  21.69195

          HESSIAN CALCULATED NUMERICALLY

 CYCLE:    41 TIME:   0.102 TIME LEFT: 33.32M  GRAD.:     3.533 HEAT:  21.68057
 CYCLE:    42 TIME:   0.004 TIME LEFT: 33.32M  GRAD.:     8.712 HEAT:  21.67796
 CYCLE:    43 TIME:   0.008 TIME LEFT: 33.32M  GRAD.:     9.637 HEAT:  21.66770
 CYCLE:    44 TIME:   0.004 TIME LEFT: 33.32M  GRAD.:     1.893 HEAT:  21.61864
 CYCLE:    45 TIME:   0.004 TIME LEFT: 33.32M  GRAD.:     3.160 HEAT:  21.60647
 CYCLE:    46 TIME:   0.008 TIME LEFT: 33.32M  GRAD.:     2.730 HEAT:  21.59620
 CYCLE:    47 TIME:   0.004 TIME LEFT: 33.32M  GRAD.:     1.776 HEAT:  21.57279
 CYCLE:    48 TIME:   0.004 TIME LEFT: 33.32M  GRAD.:     1.519 HEAT:  21.56417
 CYCLE:    49 TIME:   0.008 TIME LEFT: 33.32M  GRAD.:     2.085 HEAT:  21.55825
 CYCLE:    50 TIME:   0.004 TIME LEFT: 33.32M  GRAD.:     4.172 HEAT:  21.55662

          HESSIAN CALCULATED NUMERICALLY

 CYCLE:    51 TIME:   0.117 TIME LEFT: 33.32M  GRAD.:     2.472 HEAT:  21.55165
 CYCLE:    52 TIME:   0.008 TIME LEFT: 33.32M  GRAD.:     2.409 HEAT:  21.55114
 CYCLE:    53 TIME:   0.008 TIME LEFT: 33.32M  GRAD.:     1.457 HEAT:  21.54779
 CYCLE:    54 TIME:   0.004 TIME LEFT: 33.32M  GRAD.:     0.355 HEAT:  21.54672
 CYCLE:    55 TIME:   0.008 TIME LEFT: 33.32M  GRAD.:     0.307 HEAT:  21.54658
 CYCLE:    56 TIME:   0.004 TIME LEFT: 33.32M  GRAD.:     0.189 HEAT:  21.54615
 CYCLE:    57 TIME:   0.008 TIME LEFT: 33.32M  GRAD.:     0.099 HEAT:  21.54511
 CYCLE:    58 TIME:   0.031 TIME LEFT: 33.32M  GRAD.:     2.173 HEAT:  21.54906
 CYCLE:    59 TIME:   0.008 TIME LEFT: 33.32M  GRAD.:     2.061 HEAT:  21.54838
 CYCLE:    60 TIME:   0.008 TIME LEFT: 33.32M  GRAD.:     1.681 HEAT:  21.54635

          HESSIAN CALCULATED NUMERICALLY

 CYCLE:    61 TIME:   0.160 TIME LEFT: 33.32M  GRAD.:     1.516 HEAT:  21.54320
 CYCLE:    62 TIME:   0.023 TIME LEFT: 33.32M  GRAD.:     1.133 HEAT:  21.54408
 CYCLE:    63 TIME:   0.043 TIME LEFT: 33.32M  GRAD.:     2.485 HEAT:  21.54604
 CYCLE:    64 TIME:   0.008 TIME LEFT: 33.32M  GRAD.:     2.072 HEAT:  21.54484
 CYCLE:    65 TIME:   0.008 TIME LEFT: 33.32M  GRAD.:     0.945 HEAT:  21.54253
 CYCLE:    66 TIME:   0.012 TIME LEFT: 33.32M  GRAD.:     1.412 HEAT:  21.54324
 CYCLE:    67 TIME:   0.008 TIME LEFT: 33.32M  GRAD.:     0.054 HEAT:  21.54186
 CYCLE:    68 TIME:   0.004 TIME LEFT: 33.32M  GRAD.:     0.032 HEAT:  21.54184

     GRADIENT =  0.03220 IS LESS THAN CUTOFF =  0.05000



 -------------------------------------------------------------------------------
 pm3  precise nosym recalc=10 dmax=0.10 nonr cycles=2000 t=2000 THREADS=1
 InChI=1S/C6H8/c1-6-4-2-3-5-6/h2-4H,5H2,1H3



     GEOMETRY OPTIMISED USING EIGENVECTOR FOLLOWING (EF).     
     SCF FIELD WAS ACHIEVED                                   


                              PM3 CALCULATION
                                                       MOPAC v23.1.2 MacOS
                                                       Tue Jun  3 16:29:03 2025




          FINAL HEAT OF FORMATION =         21.54184 KCAL/MOL =      90.13108 KJ/MOL


          COSMO AREA              =        128.55 SQUARE ANGSTROMS
          COSMO VOLUME            =        117.67 CUBIC ANGSTROMS

          GRADIENT NORM           =          0.03220          =       0.00861 PER ATOM
          IONIZATION POTENTIAL    =          8.977982 EV
          HOMO LUMO ENERGIES (EV) =         -8.978  0.304
          NO. OF FILLED LEVELS    =         16
          MOLECULAR WEIGHT        =         80.1292         POINT GROUP:  C1  

          MOLECULAR DIMENSIONS (Angstroms)

            Atom       Atom       Distance
            H    12    H    10     5.53179
            H    14    H     8     4.01955
            H    11    H     7     1.76827


          SCF CALCULATIONS        =        347

          WALL-CLOCK TIME         =      1.109 SECONDS
          COMPUTATION TIME        =      0.742 SECONDS




   ATOM   CHEMICAL          X               Y               Z
  NUMBER   SYMBOL      (ANGSTROMS)     (ANGSTROMS)     (ANGSTROMS)

     1       C          0.29158395  *  -1.06481955  *  -0.36496215  *
     2       C         -1.96412006  *   0.20931260  *  -0.03896666  *
     3       C         -0.49668028  *   0.15676479  *   0.03153404  *
     4       C          1.71082925  *  -0.63658974  *  -0.12256183  *
     5       C          0.35578528  *   1.13017434  *   0.43786692  *
     6       C          1.72831113  *   0.63380421  *   0.34090686  *
     7       H          0.01949184  *  -1.94398587  *   0.24668130  *
     8       H          0.12125678  *  -1.33670528  *  -1.42237090  *
     9       H         -2.41286174  *  -0.56898095  *   0.59295930  *
    10       H         -2.35342641  *   1.17969126  *   0.29445396  *
    11       H         -2.31100451  *   0.04253920  *  -1.06770402  *
    12       H          2.55902931  *  -1.29100961  *  -0.30896321  *
    13       H          0.09816067  *   2.12877380  *   0.78569652  *
    14       H          2.59884066  *   1.22835892  *   0.61044543  *

                             CARTESIAN COORDINATES

   1    C        0.291583950    -1.064819552    -0.364962151
   2    C       -1.964120063     0.209312596    -0.038966660
   3    C       -0.496680280     0.156764795     0.031534043
   4    C        1.710829253    -0.636589739    -0.122561827
   5    C        0.355785278     1.130174336     0.437866917
   6    C        1.728311133     0.633804206     0.340906859
   7    H        0.019491842    -1.943985874     0.246681297
   8    H        0.121256783    -1.336705279    -1.422370898
   9    H       -2.412861737    -0.568980954     0.592959299
  10    H       -2.353426408     1.179691256     0.294453962
  11    H       -2.311004511     0.042539198    -1.067704017
  12    H        2.559029313    -1.291009607    -0.308963214
  13    H        0.098160666     2.128773800     0.785696519
  14    H        2.598840660     1.228358918     0.610445427


           Empirical Formula: C6 H8  =    14 atoms



      MOLECULAR POINT GROUP   :   C1  


                  EIGENVALUES  
 -39.91876 -31.23018 -27.37256 -24.36367 -19.14536 -18.43654 -17.09541 -15.40679
 -14.32362 -13.83464 -13.61320 -13.43929 -12.79274 -12.39923 -10.83272  -8.97798
   0.30380   2.01664   3.27026   3.41630   3.79699   3.84567   4.13982   4.20807
   4.28319   4.34493   4.47692   4.55709   4.95468   5.81796   5.87181   6.22751


              NET ATOMIC CHARGES AND DIPOLE CONTRIBUTIONS

  ATOM NO.   TYPE          CHARGE      No. of ELECS.   s-Pop       p-Pop       
    1          C          -0.041608        4.0416     1.14433     2.89728
    2          C          -0.046782        4.0468     1.11580     2.93098
    3          C          -0.140676        4.1407     1.20894     2.93173
    4          C          -0.168139        4.1681     1.20713     2.96101
    5          C          -0.126434        4.1264     1.19041     2.93602
    6          C          -0.114391        4.1144     1.19100     2.92340
    7          H           0.080816        0.9192     0.91918
    8          H           0.080815        0.9192     0.91919
    9          H           0.044343        0.9557     0.95566
   10          H           0.043676        0.9563     0.95632
   11          H           0.044378        0.9556     0.95562
   12          H           0.115126        0.8849     0.88487
   13          H           0.116051        0.8839     0.88395
   14          H           0.112827        0.8872     0.88717
 DIPOLE           X         Y         Z       TOTAL
 POINT-CHG.    -0.396    -0.460    -0.192     0.637
 HYBRID         0.006    -0.032    -0.011     0.035
 SUM           -0.390    -0.493    -0.203     0.661


          ATOMIC ORBITAL ELECTRON POPULATIONS

     Atom    s        px        py        pz   
    1  C   1.14433   0.93099   0.96280   1.00349
    2  C   1.11580   0.91766   1.00943   1.00390
    3  C   1.20894   0.95703   0.96741   1.00729
    4  C   1.20713   0.96899   0.97425   1.01776
    5  C   1.19041   0.93715   0.97846   1.02041
    6  C   1.19100   0.96093   0.95900   1.00347
    7  H   0.91918
    8  H   0.91919
    9  H   0.95566
   10  H   0.95632
   11  H   0.95562
   12  H   0.88487
   13  H   0.88395
   14  H   0.88717
 *******************************************************************************
 **                                                                           **
 **                              MOPAC v23.1.2                                **
 **                                                                           **
 *******************************************************************************
 **          Digital Object Identifier (DOI): 10.5281/zenodo.6511958          **
 **    Visit the DOI location for information on how to cite this program.    **
 *******************************************************************************

                              PM3 CALCULATION RESULTS

 *******************************************************************************
 *  CALCULATION DONE: (MAX THREADS = 1)              Tue Jun  3 16:29:03 2025  *
 *  PM3        - The PM3 Hamiltonian to be used
 *  OLDGEO     - PREVIOUS GEOMETRY TO BE USED
 *  PRECISE    - TIGHTER CRITERIA TO BE USED
 *  NOSYM      - POINT-GROUP SYMMETRY SET TO C1
 *  THREADS=1  - MULTI-THREADING NOT USED
 *  T=         - A TIME OF 172800.0 SECONDS REQUESTED
 *  DUMP=N     - RESTART FILE WRITTEN EVERY 7200.0 SECONDS REQUESTED
 *  THERMO     - THERMODYNAMIC QUANTITIES TO BE CALCULATED
 *******************************************************************************
oldgeo thermo nosym precise THREADS=1  pm3
 InChI=1S/C6H8/c1-6-4-2-3-5-6/h2-4H,5H2,1H3

   ATOM   CHEMICAL          X               Y               Z
  NUMBER   SYMBOL      (ANGSTROMS)     (ANGSTROMS)     (ANGSTROMS)

     1       C          0.29158395  *  -1.06481955  *  -0.36496215  *
     2       C         -1.96412006  *   0.20931260  *  -0.03896666  *
     3       C         -0.49668028  *   0.15676479  *   0.03153404  *
     4       C          1.71082925  *  -0.63658974  *  -0.12256183  *
     5       C          0.35578528  *   1.13017434  *   0.43786692  *
     6       C          1.72831113  *   0.63380421  *   0.34090686  *
     7       H          0.01949184  *  -1.94398587  *   0.24668130  *
     8       H          0.12125678  *  -1.33670528  *  -1.42237090  *
     9       H         -2.41286174  *  -0.56898095  *   0.59295930  *
    10       H         -2.35342641  *   1.17969126  *   0.29445396  *
    11       H         -2.31100451  *   0.04253920  *  -1.06770402  *
    12       H          2.55902931  *  -1.29100961  *  -0.30896321  *
    13       H          0.09816067  *   2.12877380  *   0.78569652  *
    14       H          2.59884066  *   1.22835892  *   0.61044543  *



          CARTESIAN COORDINATES 

    NO.       ATOM           X           Y           Z

     1         C          0.2916     -1.0648     -0.3650
     2         C         -1.9641      0.2093     -0.0390
     3         C         -0.4967      0.1568      0.0315
     4         C          1.7108     -0.6366     -0.1226
     5         C          0.3558      1.1302      0.4379
     6         C          1.7283      0.6338      0.3409
     7         H          0.0195     -1.9440      0.2467
     8         H          0.1213     -1.3367     -1.4224
     9         H         -2.4129     -0.5690      0.5930
    10         H         -2.3534      1.1797      0.2945
    11         H         -2.3110      0.0425     -1.0677
    12         H          2.5590     -1.2910     -0.3090
    13         H          0.0982      2.1288      0.7857
    14         H          2.5988      1.2284      0.6104

  H: (PM3): J. J. P. STEWART, J. COMP. CHEM. 10, 209 (1989).
  C: (PM3): J. J. P. STEWART, J. COMP. CHEM. 10, 209 (1989).

           Empirical Formula: C6 H8  =    14 atoms



      MOLECULAR POINT GROUP   :   C1  


      RHF CALCULATION, NO. OF DOUBLY OCCUPIED LEVELS = 16



          HEAT OF FORMATION =      21.541845 KCALS/MOLE


          CARTESIAN COORDINATE DERIVATIVES

   NUMBER  ATOM         X            Y            Z

     1       C      0.000243    -0.006877     0.004517
     2       C      0.006981    -0.009638     0.003045
     3       C     -0.000691    -0.004780     0.003846
     4       C      0.000351    -0.006340     0.004274
     5       C     -0.000866    -0.004756     0.000688
     6       C      0.001313    -0.006221     0.000607
     7       H      0.000103     0.005351    -0.002160
     8       H     -0.000656     0.004625    -0.004117
     9       H     -0.003775    -0.004805    -0.010224
    10       H      0.004192     0.012867    -0.001952
    11       H     -0.005340     0.002534     0.006469
    12       H     -0.000836     0.004404    -0.002693
    13       H      0.000965     0.006202    -0.001014
    14       H     -0.001984     0.007435    -0.001288



          GRADIENT NORM =   0.03141

          MOLECULAR WEIGHT =   80.13



          ROTATIONAL CONSTANTS IN CM(-1)

          A =    0.26440469   B =    0.11012016   C =    0.08008983



           PRINCIPAL MOMENTS OF INERTIA IN UNITS OF 10**(-40)*GRAM-CM**2

          A =      105.8709   B =      254.2019   C =      349.5170


          ORIENTATION OF MOLECULE IN FORCE CALCULATION

    NO.       ATOM         X         Y         Z

     1          C      -0.6576   -0.9973   -0.0001
     2          C       1.9535   -0.9973   -0.0001
     3          C       0.6690   -0.2824   -0.0001
     4          C      -1.6444    0.1352    0.0001
     5          C       0.4583    1.0574   -0.0000
     6          C      -0.9818    1.3141    0.0001
     7          H      -0.7752   -1.6421   -0.8897
     8          H      -0.7751   -1.6424    0.8893
     9          H       2.0403   -1.6429   -0.8844
    10          H       2.8050   -0.3049   -0.0038
    11          H       2.0434   -1.6371    0.8882
    12          H      -2.7198   -0.0262    0.0001
    13          H       1.2115    1.8429   -0.0001
    14          H      -1.4100    2.3144    0.0001


    FIRST DERIVATIVES WILL BE USED IN THE CALCULATION OF SECOND DERIVATIVES

          ESTIMATED TIME TO COMPLETE CALCULATION =        1.31 SECONDS

    FOR POINT-GROUP C1   THERE ARE   1 UNIQUE SYMMETRY FUNCTIONS.

 STEP:   1 TIME =     0.02 SECS, INTEGRAL =      0.02 TIME LEFT: 172799.98
 STEP:   2 TIME =     0.01 SECS, INTEGRAL =      0.03 TIME LEFT: 172799.96
 STEP:   3 TIME =     0.01 SECS, INTEGRAL =      0.04 TIME LEFT: 172799.95
 STEP:   4 TIME =     0.01 SECS, INTEGRAL =      0.05 TIME LEFT: 172799.94
 STEP:   5 TIME =     0.01 SECS, INTEGRAL =      0.06 TIME LEFT: 172799.93
 STEP:   6 TIME =     0.01 SECS, INTEGRAL =      0.07 TIME LEFT: 172799.93
 STEP:   7 TIME =     0.01 SECS, INTEGRAL =      0.08 TIME LEFT: 172799.91
 STEP:   8 TIME =     0.01 SECS, INTEGRAL =      0.09 TIME LEFT: 172799.91
 STEP:   9 TIME =     0.01 SECS, INTEGRAL =      0.09 TIME LEFT: 172799.90
 STEP:  10 TIME =     0.01 SECS, INTEGRAL =      0.10 TIME LEFT: 172799.89
 STEP:  11 TIME =     0.01 SECS, INTEGRAL =      0.11 TIME LEFT: 172799.88
 STEP:  12 TIME =     0.01 SECS, INTEGRAL =      0.12 TIME LEFT: 172799.87
 STEP:  13 TIME =     0.01 SECS, INTEGRAL =      0.13 TIME LEFT: 172799.86
 STEP:  14 TIME =     0.01 SECS, INTEGRAL =      0.14 TIME LEFT: 172799.85
 STEP:  15 TIME =     0.01 SECS, INTEGRAL =      0.15 TIME LEFT: 172799.84
 STEP:  16 TIME =     0.01 SECS, INTEGRAL =      0.16 TIME LEFT: 172799.83
 STEP:  17 TIME =     0.01 SECS, INTEGRAL =      0.17 TIME LEFT: 172799.82
 STEP:  18 TIME =     0.01 SECS, INTEGRAL =      0.18 TIME LEFT: 172799.81
 STEP:  19 TIME =     0.01 SECS, INTEGRAL =      0.19 TIME LEFT: 172799.80
 STEP:  20 TIME =     0.01 SECS, INTEGRAL =      0.20 TIME LEFT: 172799.80
 STEP:  21 TIME =     0.01 SECS, INTEGRAL =      0.20 TIME LEFT: 172799.79
 STEP:  22 TIME =     0.01 SECS, INTEGRAL =      0.21 TIME LEFT: 172799.78
 STEP:  23 TIME =     0.01 SECS, INTEGRAL =      0.22 TIME LEFT: 172799.77
 STEP:  24 TIME =     0.01 SECS, INTEGRAL =      0.23 TIME LEFT: 172799.76
 STEP:  25 TIME =     0.01 SECS, INTEGRAL =      0.24 TIME LEFT: 172799.75
 STEP:  26 TIME =     0.01 SECS, INTEGRAL =      0.25 TIME LEFT: 172799.74
 STEP:  27 TIME =     0.01 SECS, INTEGRAL =      0.26 TIME LEFT: 172799.73
 STEP:  28 TIME =     0.01 SECS, INTEGRAL =      0.27 TIME LEFT: 172799.72
 STEP:  29 TIME =     0.01 SECS, INTEGRAL =      0.28 TIME LEFT: 172799.71
 STEP:  30 TIME =     0.01 SECS, INTEGRAL =      0.29 TIME LEFT: 172799.70
 STEP:  31 TIME =     0.01 SECS, INTEGRAL =      0.30 TIME LEFT: 172799.69
 STEP:  32 TIME =     0.01 SECS, INTEGRAL =      0.31 TIME LEFT: 172799.68
 STEP:  33 TIME =     0.01 SECS, INTEGRAL =      0.32 TIME LEFT: 172799.68
 STEP:  34 TIME =     0.01 SECS, INTEGRAL =      0.32 TIME LEFT: 172799.67
 STEP:  35 TIME =     0.01 SECS, INTEGRAL =      0.33 TIME LEFT: 172799.66
 STEP:  36 TIME =     0.01 SECS, INTEGRAL =      0.34 TIME LEFT: 172799.65
 STEP:  37 TIME =     0.01 SECS, INTEGRAL =      0.35 TIME LEFT: 172799.64
 STEP:  38 TIME =     0.01 SECS, INTEGRAL =      0.36 TIME LEFT: 172799.64
 STEP:  39 TIME =     0.01 SECS, INTEGRAL =      0.37 TIME LEFT: 172799.62
 STEP:  40 TIME =     0.01 SECS, INTEGRAL =      0.38 TIME LEFT: 172799.62
 STEP:  41 TIME =     0.01 SECS, INTEGRAL =      0.38 TIME LEFT: 172799.61
 STEP:  42 TIME =     0.01 SECS, INTEGRAL =      0.39 TIME LEFT: 172799.60

(To convert to Hartree/Bohr^2, multiply by (10^(-21) x N x a0^2)/(4.184 x 627.51) =  0.0642)


           FORCE MATRIX IN MILLIDYNES/ANGSTROM


                  C  1       C  2       C  3       C  4       C  5       C  6
 ------------------------------------------------------------------------------
     C    1  14.829379
     C    2   0.487142  14.870273
     C    3   4.205854   5.535577  18.455333
     C    4   4.413516   0.049098   1.101509  17.882913
     C    5   1.203220   0.688788   9.368099   1.612842  18.205370
     C    6   1.251971   0.112473   1.609437   9.663608   5.178164  18.266745
     H    7   4.521421   0.011167   0.426000   0.415281   0.045210   0.044939
     H    8   4.521780   0.011144   0.426027   0.415313   0.045213   0.044941
     H    9   0.012259   4.700356   0.449431   0.005593   0.028223   0.015089
     H   10   0.043152   4.751606   0.472632   0.007960   0.023610   0.002174
     H   11   0.012180   4.700133   0.449182   0.005595   0.028045   0.015118
     H   12   0.402648   0.011767   0.044702   5.086160   0.102047   0.444770
     H   13   0.108225   0.049118   0.456036   0.049060   5.061824   0.419004
     H   14   0.117375   0.007064   0.050517   0.446737   0.419796   5.070384


                  H  7       H  8       H  9       H 10       H 11       H 12
 ------------------------------------------------------------------------------
     H    7   5.125070
     H    8   0.545323   5.125462
     H    9   0.003714   0.001614   5.410227
     H   10   0.001283   0.001284   0.559690   5.452883
     H   11   0.001627   0.003652   0.572187   0.559799   5.410078
     H   12   0.011133   0.011130   0.001045   0.001494   0.001055   5.486722
     H   13   0.014812   0.014813   0.006106   0.010736   0.006139   0.005468
     H   14   0.016020   0.016020   0.000910   0.000627   0.000904   0.042677


                  H 13       H 14
 ------------------------------
     H   13   5.458714
     H   14   0.009140   5.461455


          HEAT OF FORMATION =      21.541845 KCALS/MOLE

          ZERO POINT ENERGY      75.602 KCAL/MOL


           NORMAL COORDINATE ANALYSIS (Total motion = 1 Angstrom)


   Root No.       1         2         3         4         5         6         7         8

                 1 A       2 A       3 A       4 A       5 A       6 A       7 A       8 A   

                  93.2     210.5     334.9     404.2     494.8     650.6     738.0     821.4
  
           1    0.0000    0.0000   -0.0440   -0.0000    0.0000   -0.0035   -0.0000    0.0424
           2   -0.0000    0.0000   -0.0128    0.0000    0.0000    0.0540   -0.0000   -0.0495
           3    0.0186   -0.0434   -0.0000   -0.0173    0.0000   -0.0000   -0.0268   -0.0000
           4   -0.0000   -0.0000    0.0364    0.0000    0.0000    0.0853   -0.0000    0.0003
           5   -0.0000   -0.0000    0.0543   -0.0000   -0.0000   -0.0490    0.0000   -0.0176
           6   -0.0024    0.0490    0.0000   -0.0098    0.0005    0.0000    0.0056    0.0000
           7    0.0000    0.0000   -0.0221    0.0000    0.0000    0.0529   -0.0000   -0.0186
           8    0.0000    0.0000   -0.0477   -0.0000    0.0000   -0.0149    0.0000   -0.0353
           9    0.0024   -0.0410    0.0000    0.0575    0.0668   -0.0000    0.0193   -0.0000
          10    0.0000    0.0000   -0.0116   -0.0000   -0.0000   -0.0553    0.0000    0.0945
          11   -0.0000   -0.0000    0.0227   -0.0000    0.0000    0.0244   -0.0000    0.0311
          12    0.0071    0.0469    0.0000    0.0419   -0.0309    0.0000   -0.0189    0.0000
          13   -0.0000   -0.0000    0.0089   -0.0000   -0.0000   -0.0385    0.0000   -0.0779
          14    0.0000    0.0000   -0.0429    0.0000    0.0000   -0.0242    0.0000   -0.0291
          15   -0.0134   -0.0478   -0.0000    0.0119   -0.0512   -0.0000   -0.0052    0.0000
          16   -0.0000    0.0000    0.0225   -0.0000   -0.0000   -0.0486    0.0000   -0.0478
          17    0.0000   -0.0000    0.0035    0.0000    0.0000    0.0113    0.0000    0.1129
          18   -0.0121    0.0219    0.0000   -0.0528    0.0411   -0.0000   -0.0256    0.0000
          19   -0.0048   -0.0234   -0.0694    0.0231    0.0826   -0.0218    0.0262    0.0169
          20   -0.0130    0.0628   -0.0078    0.1311    0.0383    0.0633   -0.1041   -0.0557
          21    0.0287   -0.0866    0.0001   -0.1191   -0.0403   -0.0028    0.0493    0.0056
          22    0.0048    0.0234   -0.0695   -0.0231   -0.0826   -0.0218   -0.0262    0.0169
          23    0.0130   -0.0628   -0.0078   -0.1311   -0.0383    0.0634    0.1041   -0.0557
          24    0.0287   -0.0867   -0.0001   -0.1191   -0.0404    0.0029    0.0493   -0.0056
          25    0.1078    0.0627    0.1089   -0.0542   -0.0544    0.0919   -0.0371    0.0371
          26    0.2098   -0.0217    0.0666    0.0263    0.0309   -0.0557    0.0196   -0.0150
          27   -0.1454    0.0715   -0.0008   -0.0352   -0.0284    0.0043   -0.0131    0.0012
          28    0.0005    0.0003   -0.0360   -0.0002   -0.0002    0.1017   -0.0002   -0.0334
          29    0.0008   -0.0001    0.1467    0.0001    0.0001   -0.0680    0.0001    0.0240
          30    0.2630    0.0935    0.0001   -0.0433   -0.0299    0.0000   -0.0164   -0.0000
          31   -0.1084   -0.0630    0.1083    0.0544    0.0546    0.0920    0.0372    0.0368
          32   -0.2108    0.0217    0.0668   -0.0265   -0.0311   -0.0558   -0.0197   -0.0148
          33   -0.1437    0.0716    0.0007   -0.0353   -0.0284   -0.0043   -0.0131   -0.0013
          34    0.0000    0.0000   -0.0169    0.0000   -0.0000   -0.0512    0.0000    0.1085
          35   -0.0000   -0.0000    0.0583   -0.0000   -0.0000   -0.0082   -0.0000   -0.0511
          36    0.0143    0.1129    0.0000    0.1129   -0.0672    0.0001    0.2893   -0.0000
          37   -0.0000   -0.0000    0.0372   -0.0000   -0.0000   -0.0807    0.0000   -0.0224
          38    0.0000    0.0000   -0.0694    0.0000    0.0000    0.0164   -0.0000   -0.0838
          39   -0.0242   -0.0669   -0.0000    0.0105   -0.2275    0.0001    0.0856   -0.0000
          40   -0.0000    0.0000    0.0564   -0.0000   -0.0000   -0.0177    0.0000   -0.0749
          41   -0.0000   -0.0000    0.0180    0.0000   -0.0000    0.0252   -0.0000    0.1032
          42   -0.0245    0.0622    0.0000   -0.1449    0.1479    0.0000    0.1830   -0.0000


   Root No.       9        10        11        12        13        14        15        16

                 9 A      10 A      11 A      12 A      13 A      14 A      15 A      16 A   

                 869.7     889.7     942.1     958.7     982.1    1001.8    1033.8    1049.7
  
           1    0.0000    0.0000   -0.0358   -0.0000   -0.0243   -0.0000    0.0037    0.0000
           2   -0.0000    0.0000   -0.0456   -0.0000   -0.0099   -0.0000   -0.0352    0.0000
           3    0.0442    0.0377    0.0000   -0.0037    0.0001   -0.0318   -0.0000    0.0088
           4    0.0000    0.0000    0.0366   -0.0000    0.0028    0.0000    0.0008   -0.0000
           5    0.0000    0.0000    0.0212   -0.0000   -0.0378   -0.0000   -0.0124    0.0000
           6    0.0029   -0.0265   -0.0000    0.0112    0.0000   -0.0284   -0.0000    0.0275
           7   -0.0000    0.0000    0.0087   -0.0000   -0.0023    0.0000   -0.0007   -0.0000
           8    0.0000   -0.0000    0.0134    0.0000    0.0121    0.0000    0.0082    0.0000
           9   -0.0063   -0.0115   -0.0000   -0.0051   -0.0001    0.0319    0.0000   -0.0520
          10    0.0000   -0.0000    0.0167    0.0000    0.0223    0.0000   -0.0220   -0.0000
          11   -0.0000    0.0000    0.0009   -0.0000   -0.0096   -0.0000    0.0153   -0.0000
          12   -0.0014   -0.0268   -0.0000    0.0115   -0.0001    0.0523    0.0000    0.0240
          13   -0.0000   -0.0000   -0.0048    0.0000    0.0129    0.0000   -0.0138   -0.0000
          14    0.0000   -0.0000    0.0167    0.0000    0.0387    0.0000    0.0076   -0.0000
          15   -0.0423    0.0307    0.0000    0.0353    0.0000   -0.0032   -0.0000    0.0260
          16    0.0000   -0.0000    0.0031    0.0000    0.0018   -0.0000    0.0086    0.0000
          17    0.0000    0.0000    0.0052    0.0000   -0.0018   -0.0000   -0.0003   -0.0000
          18   -0.0197   -0.0155    0.0000   -0.0430    0.0000   -0.0299    0.0000   -0.0198
          19    0.0026    0.0654   -0.1094   -0.1687   -0.0867    0.0812    0.1320    0.1990
          20    0.1161    0.0829   -0.0482    0.0222   -0.0057   -0.0876   -0.0751   -0.0144
          21   -0.0447   -0.0347    0.0104    0.0028    0.0043    0.0240    0.0111   -0.0082
          22   -0.0026   -0.0653   -0.1095    0.1687   -0.0869   -0.0816    0.1320   -0.1988
          23   -0.1161   -0.0828   -0.0483   -0.0222   -0.0060    0.0876   -0.0751    0.0144
          24   -0.0447   -0.0347   -0.0105    0.0028   -0.0044    0.0240   -0.0111   -0.0082
          25   -0.0193    0.1226   -0.0901   -0.0447    0.1341    0.1109    0.0398   -0.1037
          26    0.0105   -0.0681   -0.0052    0.0250   -0.0257   -0.0628   -0.0104    0.0597
          27   -0.0075    0.0380    0.0046   -0.0122    0.0039    0.0307    0.0019   -0.0287
          28   -0.0001    0.0005    0.1772   -0.0002   -0.0952    0.0004   -0.0252   -0.0004
          29    0.0000   -0.0002   -0.1560    0.0001    0.0889   -0.0001    0.0210    0.0002
          30   -0.0105    0.0453   -0.0000   -0.0141    0.0000    0.0370    0.0000   -0.0351
          31    0.0193   -0.1233   -0.0890    0.0450    0.1334   -0.1112    0.0395    0.1041
          32   -0.0106    0.0684   -0.0058   -0.0252   -0.0253    0.0631   -0.0103   -0.0600
          33   -0.0075    0.0379   -0.0045   -0.0122   -0.0040    0.0307   -0.0019   -0.0287
          34    0.0000   -0.0000    0.0033   -0.0000    0.0162    0.0000   -0.0508   -0.0000
          35    0.0000   -0.0001    0.0882    0.0000    0.0285    0.0000    0.2148   -0.0000
          36   -0.0964    0.1134    0.0001   -0.0795    0.0002   -0.1587    0.0000   -0.0453
          37    0.0000   -0.0000   -0.0355   -0.0000   -0.0474   -0.0001   -0.0990    0.0001
          38   -0.0000   -0.0000    0.0470    0.0000    0.0991    0.0001    0.0900   -0.0001
          39    0.2816   -0.1011   -0.0001   -0.1562   -0.0000    0.0205    0.0000   -0.0676
          40    0.0000    0.0000   -0.0388   -0.0000   -0.1244   -0.0002    0.1100    0.0001
          41    0.0000    0.0000   -0.0121   -0.0000   -0.0558   -0.0001    0.0449    0.0000
          42    0.1993    0.0780   -0.0000    0.1944   -0.0001    0.0997   -0.0000    0.0480


   Root No.      17        18        19        20        21        22        23        24

                17 A      18 A      19 A      20 A      21 A      22 A      23 A      24 A   

                1078.7    1127.0    1203.9    1272.2    1350.3    1364.1    1390.1    1391.2
  
           1    0.0046    0.0207    0.0320   -0.0380    0.0610   -0.0122    0.0001    0.0124
           2    0.0034    0.0287   -0.0065    0.0235   -0.0078    0.0734    0.0000    0.0032
           3    0.0000    0.0000   -0.0000    0.0000   -0.0000    0.0000    0.0003   -0.0000
           4   -0.0113   -0.0144   -0.0068    0.0062   -0.0308   -0.0062   -0.0004   -0.0238
           5    0.0029    0.0122   -0.0080    0.0037    0.0293    0.0052   -0.0005   -0.0307
           6    0.0000    0.0000    0.0000   -0.0000   -0.0001   -0.0000   -0.0441    0.0006
           7    0.0100    0.0130    0.0156   -0.0391   -0.0350    0.0031   -0.0000   -0.0125
           8   -0.0029   -0.0212    0.0225    0.0036   -0.0106    0.0052   -0.0000   -0.0018
           9   -0.0000   -0.0000   -0.0000    0.0000    0.0000    0.0000   -0.0009    0.0000
          10    0.0148    0.0259    0.0000    0.0411   -0.0274    0.0219    0.0000   -0.0024
          11   -0.0045   -0.0024   -0.0219   -0.0328    0.0218   -0.0114   -0.0000    0.0016
          12   -0.0000   -0.0000   -0.0000   -0.0000    0.0000   -0.0000    0.0000   -0.0000
          13   -0.0164   -0.0200   -0.0234   -0.0337    0.0067   -0.0396    0.0001    0.0009
          14   -0.0091   -0.0333    0.0128    0.0122   -0.0027   -0.0052   -0.0000   -0.0010
          15    0.0000    0.0000    0.0000    0.0000   -0.0000    0.0000   -0.0003    0.0000
          16    0.0143    0.0129   -0.0168    0.0162    0.0146    0.0273   -0.0001    0.0019
          17   -0.0078   -0.0176   -0.0121   -0.0134   -0.0032   -0.0165    0.0000   -0.0012
          18   -0.0000   -0.0000    0.0000   -0.0000   -0.0000   -0.0000   -0.0001    0.0000
          19   -0.0989   -0.0234   -0.1292    0.0867   -0.0683   -0.0160    0.0014   -0.0130
          20    0.0262    0.0741    0.0270    0.1024    0.0001   -0.2325    0.0005   -0.0069
          21   -0.0026   -0.0230   -0.0021   -0.0656    0.0100    0.1972   -0.0004    0.0094
          22   -0.0988   -0.0235   -0.1292    0.0867   -0.0683   -0.0160   -0.0015   -0.0130
          23    0.0262    0.0741    0.0270    0.1024    0.0001   -0.2324   -0.0005   -0.0069
          24    0.0026    0.0230    0.0021    0.0657   -0.0100   -0.1973   -0.0004   -0.0094
          25   -0.0160   -0.0611    0.0206    0.0818    0.1295    0.0249   -0.2208    0.1053
          26    0.0090    0.0227   -0.0028   -0.0411   -0.0896   -0.0198   -0.1189    0.2624
          27   -0.0038   -0.0097   -0.0007    0.0317    0.0841    0.0177    0.0511   -0.1874
          28   -0.0313   -0.0289   -0.0370    0.0929    0.1126    0.0155    0.0021    0.1158
          29    0.0257    0.0256    0.0302   -0.0948   -0.1354   -0.0195   -0.0005   -0.1602
          30   -0.0000   -0.0001    0.0000    0.0002    0.0006    0.0003    0.4316   -0.0042
          31   -0.0160   -0.0608    0.0204    0.0817    0.1296    0.0250    0.2234    0.1012
          32    0.0091    0.0226   -0.0027   -0.0412   -0.0900   -0.0198    0.1261    0.2610
          33    0.0038    0.0097    0.0007   -0.0317   -0.0839   -0.0176    0.0543    0.1842
          34    0.0346   -0.0032   -0.0272    0.0340   -0.0229    0.0226   -0.0000   -0.0026
          35   -0.1310    0.2109    0.1622    0.0334   -0.0103    0.0037    0.0001    0.0040
          36   -0.0000    0.0000    0.0000   -0.0000   -0.0000    0.0000   -0.0002    0.0000
          37   -0.1968   -0.1159    0.1342    0.0152   -0.0347    0.0054   -0.0001   -0.0094
          38    0.1633    0.0544   -0.1383   -0.0373    0.0361   -0.0535    0.0001    0.0080
          39    0.0000    0.0000   -0.0000   -0.0000    0.0000   -0.0000    0.0007   -0.0000
          40    0.2327   -0.1391    0.1396    0.0852   -0.0469    0.0077    0.0000   -0.0036
          41    0.0854   -0.0851    0.0547    0.0136   -0.0300   -0.0289    0.0001   -0.0038
          42   -0.0000    0.0000   -0.0000   -0.0000    0.0000   -0.0000    0.0003   -0.0000


   Root No.      25        26        27        28        29        30        31        32

                25 A      26 A      27 A      28 A      29 A      30 A      31 A      32 A   

                1410.6    1469.7    1746.8    1828.6    2986.3    3053.4    3066.9    3077.5
  
           1    0.0098   -0.0613    0.0039    0.0085   -0.0000    0.0074    0.0000    0.0002
           2   -0.0362   -0.0277   -0.0111   -0.0027   -0.0000    0.0410    0.0000   -0.0004
           3   -0.0000    0.0000    0.0000    0.0000   -0.0610   -0.0000   -0.0001    0.0000
           4    0.0159   -0.0893    0.0237    0.0437   -0.0000   -0.0002   -0.0000   -0.0244
           5   -0.0198    0.0355   -0.0151   -0.0316   -0.0000   -0.0004   -0.0001   -0.0445
           6   -0.0000    0.0000   -0.0000   -0.0000    0.0000    0.0000   -0.0578    0.0001
           7    0.0100    0.1251   -0.0500   -0.0830   -0.0000    0.0005   -0.0000    0.0002
           8    0.0254    0.0423    0.0642    0.2035   -0.0000    0.0007    0.0000   -0.0004
           9   -0.0000    0.0000    0.0000    0.0000   -0.0003   -0.0000   -0.0001    0.0000
          10   -0.0301    0.0099    0.0877   -0.0144    0.0000   -0.0012   -0.0000   -0.0000
          11    0.0466    0.0157    0.1810   -0.0535   -0.0000    0.0005    0.0000    0.0000
          12    0.0000   -0.0000    0.0000   -0.0000   -0.0003   -0.0000   -0.0000   -0.0000
          13   -0.0939   -0.0071    0.0146    0.0362   -0.0000    0.0005    0.0000   -0.0007
          14    0.0205   -0.0509   -0.0330   -0.1702    0.0000   -0.0000    0.0000    0.0000
          15    0.0000   -0.0000   -0.0000   -0.0000   -0.0002   -0.0000   -0.0002   -0.0000
          16    0.1026   -0.0085   -0.1042    0.0356    0.0000   -0.0004   -0.0000    0.0001
          17   -0.0209    0.0021   -0.1672    0.0549    0.0000    0.0002   -0.0000    0.0000
          18   -0.0000    0.0000   -0.0000   -0.0000   -0.0002   -0.0000   -0.0000    0.0000
          19   -0.0074    0.0383    0.0163   -0.0409    0.0512   -0.0447    0.0002    0.0006
          20    0.0389    0.0104   -0.0139    0.0034    0.2803   -0.2439    0.0003    0.0018
          21   -0.0451   -0.0338    0.0059    0.0045    0.3707   -0.3802    0.0004    0.0029
          22   -0.0074    0.0383    0.0163   -0.0409   -0.0511   -0.0448   -0.0002    0.0006
          23    0.0388    0.0104   -0.0139    0.0034   -0.2799   -0.2445   -0.0004    0.0018
          24    0.0451    0.0338   -0.0059   -0.0045    0.3699    0.3808    0.0005   -0.0029
          25   -0.0276    0.1412   -0.0007    0.0119   -0.0002   -0.0001   -0.0260   -0.0258
          26    0.0160   -0.0158   -0.0065   -0.0155   -0.0004    0.0013    0.2771    0.1265
          27   -0.0250    0.0456   -0.0052   -0.0072   -0.0006    0.0021    0.3596    0.2101
          28   -0.0470    0.0235   -0.0061   -0.0198    0.0000    0.0034   -0.0009    0.3416
          29    0.0526   -0.0805    0.0194    0.0446    0.0000    0.0027   -0.0008    0.2810
          30    0.0002   -0.0001   -0.0000   -0.0000   -0.0000   -0.0000   -0.0292   -0.0016
          31   -0.0273    0.1403   -0.0007    0.0118    0.0002   -0.0001    0.0274   -0.0264
          32    0.0164   -0.0161   -0.0064   -0.0153    0.0004    0.0014   -0.2753    0.1240
          33    0.0251   -0.0460    0.0053    0.0073   -0.0006   -0.0023    0.3625   -0.2094
          34   -0.0012    0.0174    0.1549   -0.0314   -0.0000    0.0122    0.0000    0.0003
          35   -0.1420   -0.0382   -0.0334    0.0081   -0.0000    0.0032    0.0000    0.0000
          36   -0.0000   -0.0000   -0.0000    0.0000   -0.0009   -0.0000   -0.0001   -0.0000
          37    0.0300    0.0027    0.0134   -0.1365    0.0000   -0.0081   -0.0000    0.0037
          38   -0.1030   -0.0658   -0.0491   -0.0502    0.0000   -0.0088   -0.0000    0.0048
          39   -0.0000    0.0000   -0.0000    0.0000   -0.0006    0.0000    0.0004    0.0000
          40   -0.0816   -0.0312    0.0959   -0.0703   -0.0000    0.0045    0.0000   -0.0001
          41   -0.1047   -0.0077   -0.1202    0.0154    0.0000   -0.0111   -0.0000    0.0002
          42    0.0000    0.0000   -0.0000    0.0000   -0.0007   -0.0000    0.0000    0.0000


   Root No.      33        34        35        36

                33 A      34 A      35 A      36 A   

                3133.4    3138.7    3153.9    3166.1
  
           1   -0.0002    0.0003   -0.0003    0.0001
           2    0.0001    0.0010   -0.0020    0.0000
           3    0.0000   -0.0000    0.0000   -0.0000
           4   -0.0000    0.0001   -0.0002   -0.0226
           5   -0.0001    0.0004   -0.0000    0.0103
           6    0.0000   -0.0000    0.0000    0.0000
           7    0.0002   -0.0009    0.0014   -0.0002
           8   -0.0011    0.0037   -0.0016    0.0001
           9   -0.0000    0.0000   -0.0000    0.0000
          10   -0.0203   -0.0220   -0.0390    0.0002
          11   -0.0020   -0.0038   -0.0097    0.0000
          12    0.0000    0.0000    0.0000   -0.0000
          13    0.0128   -0.0306    0.0102    0.0004
          14    0.0149   -0.0351    0.0105    0.0002
          15   -0.0000    0.0000   -0.0000   -0.0000
          16    0.0145    0.0050   -0.0090   -0.0000
          17   -0.0359   -0.0083    0.0291   -0.0000
          18   -0.0000   -0.0000    0.0000   -0.0000
          19   -0.0006   -0.0010    0.0003   -0.0001
          20    0.0006   -0.0020    0.0066   -0.0000
          21    0.0006   -0.0034    0.0095   -0.0001
          22   -0.0006   -0.0010    0.0003   -0.0001
          23    0.0006   -0.0020    0.0066   -0.0000
          24   -0.0006    0.0034   -0.0095    0.0001
          25   -0.0002    0.0005   -0.0001    0.0074
          26    0.0011   -0.0035    0.0004   -0.1773
          27    0.0016   -0.0051    0.0006   -0.2565
          28    0.0002   -0.0000    0.0006    0.2538
          29    0.0005   -0.0006    0.0007    0.2302
          30   -0.0000   -0.0000   -0.0000   -0.0012
          31   -0.0002    0.0006   -0.0001    0.0083
          32    0.0011   -0.0034    0.0004   -0.1756
          33   -0.0016    0.0051   -0.0006    0.2576
          34    0.2446    0.2627    0.4217   -0.0016
          35    0.0347    0.0385    0.0628   -0.0002
          36   -0.0000   -0.0000   -0.0000    0.0000
          37   -0.1517    0.3585   -0.1045   -0.0044
          38   -0.1604    0.3736   -0.1075   -0.0039
          39    0.0000   -0.0000    0.0000    0.0000
          40   -0.1759   -0.0463    0.1213   -0.0001
          41    0.4095    0.1019   -0.2836    0.0002
          42    0.0000    0.0000   -0.0000    0.0000


           MASS-WEIGHTED COORDINATE ANALYSIS (NORMAL COORDINATES)


   Root No.       1         2         3         4         5         6         7         8

                 1 A       2 A       3 A       4 A       5 A       6 A       7 A       8 A   

                  93.2     210.5     334.9     404.2     494.8     650.6     738.0     821.4
  
           1    0.0001    0.0000   -0.3209   -0.0000    0.0000   -0.0205   -0.0000    0.2063
           2   -0.0000    0.0000   -0.0933    0.0001    0.0001    0.3192   -0.0001   -0.2411
           3    0.1321   -0.3323   -0.0000   -0.1306    0.0003   -0.0001   -0.2170   -0.0001
           4   -0.0000   -0.0001    0.2656    0.0001    0.0001    0.5036   -0.0001    0.0014
           5   -0.0000   -0.0000    0.3960   -0.0001   -0.0001   -0.2895    0.0001   -0.0857
           6   -0.0168    0.3752    0.0000   -0.0741    0.0037    0.0001    0.0456    0.0000
           7    0.0000    0.0000   -0.1613    0.0000    0.0001    0.3123   -0.0001   -0.0907
           8    0.0001    0.0000   -0.3476   -0.0000    0.0000   -0.0878    0.0000   -0.1717
           9    0.0174   -0.3141    0.0001    0.4337    0.4868   -0.0002    0.1562   -0.0000
          10    0.0000    0.0001   -0.0844   -0.0000   -0.0000   -0.3267    0.0001    0.4603
          11   -0.0000   -0.0000    0.1659   -0.0000    0.0000    0.1441   -0.0000    0.1514
          12    0.0508    0.3593    0.0000    0.3165   -0.2250    0.0000   -0.1524    0.0000
          13   -0.0000   -0.0000    0.0646   -0.0000   -0.0001   -0.2274    0.0000   -0.3794
          14    0.0001    0.0000   -0.3126    0.0000    0.0000   -0.1430    0.0001   -0.1416
          15   -0.0956   -0.3661   -0.0001    0.0896   -0.3735   -0.0000   -0.0419    0.0000
          16   -0.0000    0.0000    0.1637   -0.0001   -0.0001   -0.2872    0.0000   -0.2328
          17    0.0000   -0.0000    0.0255    0.0000    0.0000    0.0666    0.0000    0.5495
          18   -0.0862    0.1677    0.0000   -0.3985    0.2998   -0.0000   -0.2069    0.0001
          19   -0.0098   -0.0520   -0.1467    0.0505    0.1744   -0.0373    0.0615    0.0239
          20   -0.0269    0.1393   -0.0165    0.2866    0.0809    0.1083   -0.2438   -0.0786
          21    0.0593   -0.1922    0.0002   -0.2602   -0.0852   -0.0048    0.1154    0.0079
          22    0.0099    0.0520   -0.1468   -0.0505   -0.1744   -0.0372   -0.0615    0.0239
          23    0.0268   -0.1393   -0.0165   -0.2865   -0.0808    0.1085    0.2437   -0.0785
          24    0.0593   -0.1923   -0.0003   -0.2603   -0.0852    0.0049    0.1155   -0.0079
          25    0.2223    0.1391    0.2301   -0.1184   -0.1148    0.1572   -0.0869    0.0523
          26    0.4329   -0.0480    0.1406    0.0576    0.0652   -0.0953    0.0460   -0.0211
          27   -0.3001    0.1587   -0.0016   -0.0770   -0.0599    0.0073   -0.0308    0.0018
          28    0.0010    0.0006   -0.0762   -0.0005   -0.0004    0.1739   -0.0004   -0.0471
          29    0.0017   -0.0002    0.3099    0.0002    0.0002   -0.1164    0.0002    0.0339
          30    0.5426    0.2075    0.0002   -0.0947   -0.0631    0.0000   -0.0383   -0.0000
          31   -0.2236   -0.1398    0.2287    0.1190    0.1153    0.1574    0.0872    0.0519
          32   -0.4349    0.0482    0.1411   -0.0579   -0.0656   -0.0955   -0.0462   -0.0209
          33   -0.2964    0.1588    0.0015   -0.0771   -0.0599   -0.0073   -0.0307   -0.0018
          34    0.0000    0.0000   -0.0357    0.0000   -0.0000   -0.0876    0.0000    0.1531
          35   -0.0000   -0.0000    0.1231   -0.0000   -0.0000   -0.0141   -0.0000   -0.0721
          36    0.0295    0.2504    0.0000    0.2468   -0.1420    0.0001    0.6775   -0.0000
          37   -0.0000   -0.0000    0.0785   -0.0000   -0.0001   -0.1381    0.0001   -0.0316
          38    0.0000    0.0000   -0.1466    0.0000    0.0000    0.0281   -0.0000   -0.1182
          39   -0.0499   -0.1484   -0.0001    0.0230   -0.4803    0.0002    0.2004   -0.0000
          40   -0.0000    0.0000    0.1191   -0.0000   -0.0000   -0.0303    0.0000   -0.1057
          41   -0.0000   -0.0000    0.0380    0.0000   -0.0000    0.0432   -0.0000    0.1456
          42   -0.0505    0.1380    0.0000   -0.3168    0.3123    0.0001    0.4286   -0.0001


   Root No.       9        10        11        12        13        14        15        16

                 9 A      10 A      11 A      12 A      13 A      14 A      15 A      16 A   

                 869.7     889.7     942.1     958.7     982.1    1001.8    1033.8    1049.7
  
           1    0.0000    0.0002   -0.2870   -0.0001   -0.2130   -0.0003    0.0318    0.0001
           2   -0.0001    0.0002   -0.3658   -0.0001   -0.0864   -0.0001   -0.3025    0.0000
           3    0.3328    0.3383    0.0001   -0.0306    0.0005   -0.2604   -0.0000    0.0714
           4    0.0000    0.0000    0.2932   -0.0000    0.0241    0.0001    0.0070   -0.0001
           5    0.0000    0.0000    0.1702   -0.0001   -0.3314   -0.0004   -0.1062    0.0002
           6    0.0217   -0.2380   -0.0000    0.0932    0.0003   -0.2322   -0.0001    0.2226
           7   -0.0000    0.0001    0.0696   -0.0001   -0.0202    0.0001   -0.0060   -0.0002
           8    0.0000   -0.0002    0.1073    0.0000    0.1061    0.0001    0.0702    0.0000
           9   -0.0474   -0.1030   -0.0002   -0.0420   -0.0006    0.2610    0.0001   -0.4210
          10    0.0001   -0.0001    0.1338    0.0000    0.1956    0.0003   -0.1886   -0.0001
          11   -0.0000    0.0001    0.0069   -0.0000   -0.0843   -0.0001    0.1317   -0.0000
          12   -0.0106   -0.2409   -0.0001    0.0954   -0.0005    0.4274    0.0000    0.1943
          13   -0.0001   -0.0001   -0.0386    0.0001    0.1134    0.0001   -0.1189   -0.0000
          14    0.0000   -0.0003    0.1340    0.0001    0.3394    0.0003    0.0651   -0.0001
          15   -0.3183    0.2754    0.0002    0.2931    0.0001   -0.0258   -0.0000    0.2105
          16    0.0000   -0.0001    0.0252    0.0000    0.0154   -0.0000    0.0741    0.0000
          17    0.0000    0.0001    0.0417    0.0000   -0.0156   -0.0000   -0.0022   -0.0000
          18   -0.1485   -0.1389    0.0000   -0.3574    0.0002   -0.2441    0.0000   -0.1599
          19    0.0056    0.1701   -0.2541   -0.4060   -0.2202    0.1924    0.3284    0.4665
          20    0.2532    0.2157   -0.1119    0.0534   -0.0146   -0.2075   -0.1869   -0.0338
          21   -0.0974   -0.0902    0.0242    0.0068    0.0109    0.0568    0.0276   -0.0192
          22   -0.0057   -0.1699   -0.2543    0.4060   -0.2206   -0.1932    0.3283   -0.4660
          23   -0.2532   -0.2154   -0.1121   -0.0535   -0.0152    0.2075   -0.1869    0.0338
          24   -0.0975   -0.0902   -0.0243    0.0068   -0.0111    0.0569   -0.0276   -0.0191
          25   -0.0420    0.3189   -0.2092   -0.1076    0.3406    0.2626    0.0991   -0.2429
          26    0.0230   -0.1770   -0.0120    0.0603   -0.0652   -0.1488   -0.0260    0.1399
          27   -0.0163    0.0987    0.0106   -0.0293    0.0098    0.0727    0.0047   -0.0673
          28   -0.0001    0.0013    0.4116   -0.0005   -0.2418    0.0008   -0.0628   -0.0009
          29    0.0000   -0.0006   -0.3622    0.0003    0.2257   -0.0003    0.0522    0.0004
          30   -0.0229    0.1179   -0.0000   -0.0340    0.0001    0.0876    0.0001   -0.0822
          31    0.0422   -0.3206   -0.2067    0.1084    0.3387   -0.2633    0.0982    0.2440
          32   -0.0231    0.1778   -0.0134   -0.0606   -0.0643    0.1493   -0.0256   -0.1405
          33   -0.0163    0.0987   -0.0104   -0.0293   -0.0101    0.0726   -0.0047   -0.0672
          34    0.0000   -0.0000    0.0076   -0.0000    0.0412    0.0001   -0.1264   -0.0000
          35    0.0000   -0.0001    0.2048    0.0001    0.0723    0.0001    0.5345   -0.0001
          36   -0.2102    0.2950    0.0001   -0.1914    0.0005   -0.3759    0.0001   -0.1062
          37    0.0001   -0.0000   -0.0824   -0.0001   -0.1204   -0.0002   -0.2462    0.0001
          38   -0.0000   -0.0001    0.1092    0.0001    0.2517    0.0004    0.2239   -0.0002
          39    0.6141   -0.2630   -0.0002   -0.3760   -0.0001    0.0486    0.0001   -0.1585
          40    0.0000    0.0001   -0.0901   -0.0000   -0.3159   -0.0004    0.2738    0.0003
          41    0.0000    0.0001   -0.0281   -0.0000   -0.1418   -0.0002    0.1117    0.0001
          42    0.4345    0.2028   -0.0000    0.4679   -0.0003    0.2361   -0.0000    0.1124


   Root No.      17        18        19        20        21        22        23        24

                17 A      18 A      19 A      20 A      21 A      22 A      23 A      24 A   

                1078.7    1127.0    1203.9    1272.2    1350.3    1364.1    1390.1    1391.2
  
           1    0.0373    0.1742    0.2706   -0.3022    0.4581   -0.0771    0.0003    0.0793
           2    0.0278    0.2413   -0.0553    0.1867   -0.0587    0.4630    0.0001    0.0203
           3    0.0000    0.0000   -0.0000    0.0000   -0.0000    0.0001    0.0019   -0.0000
           4   -0.0916   -0.1206   -0.0575    0.0490   -0.2316   -0.0391   -0.0023   -0.1525
           5    0.0237    0.1026   -0.0675    0.0294    0.2200    0.0325   -0.0032   -0.1970
           6    0.0001    0.0001    0.0000   -0.0002   -0.0006   -0.0002   -0.2595    0.0039
           7    0.0807    0.1091    0.1316   -0.3107   -0.2628    0.0193   -0.0002   -0.0800
           8   -0.0237   -0.1781    0.1898    0.0283   -0.0794    0.0325   -0.0001   -0.0118
           9   -0.0000   -0.0001   -0.0000    0.0001    0.0001    0.0000   -0.0055    0.0001
          10    0.1202    0.2179    0.0002    0.3269   -0.2062    0.1384    0.0000   -0.0157
          11   -0.0362   -0.0202   -0.1848   -0.2605    0.1641   -0.0717   -0.0001    0.0103
          12   -0.0000   -0.0000   -0.0000   -0.0000    0.0000   -0.0000    0.0002   -0.0000
          13   -0.1326   -0.1680   -0.1979   -0.2679    0.0504   -0.2500    0.0005    0.0055
          14   -0.0740   -0.2794    0.1084    0.0973   -0.0204   -0.0330   -0.0003   -0.0067
          15    0.0000    0.0000    0.0000    0.0000   -0.0000    0.0000   -0.0016    0.0000
          16    0.1155    0.1087   -0.1416    0.1286    0.1097    0.1719   -0.0005    0.0122
          17   -0.0628   -0.1474   -0.1021   -0.1061   -0.0244   -0.1043    0.0001   -0.0076
          18   -0.0000   -0.0000    0.0000   -0.0000   -0.0000   -0.0000   -0.0008    0.0000
          19   -0.2318   -0.0570   -0.3163    0.1995   -0.1487   -0.0292    0.0024   -0.0242
          20    0.0613    0.1801    0.0661    0.2357    0.0002   -0.4247    0.0009   -0.0129
          21   -0.0062   -0.0559   -0.0051   -0.1511    0.0219    0.3603   -0.0007    0.0175
          22   -0.2317   -0.0571   -0.3163    0.1996   -0.1487   -0.0292   -0.0026   -0.0241
          23    0.0613    0.1801    0.0661    0.2357    0.0003   -0.4246   -0.0009   -0.0129
          24    0.0062    0.0559    0.0052    0.1512   -0.0218   -0.3604   -0.0007   -0.0175
          25   -0.0375   -0.1485    0.0505    0.1883    0.2819    0.0455   -0.3767    0.1958
          26    0.0212    0.0552   -0.0069   -0.0945   -0.1951   -0.0362   -0.2029    0.4879
          27   -0.0089   -0.0235   -0.0017    0.0731    0.1831    0.0324    0.0871   -0.3484
          28   -0.0734   -0.0703   -0.0905    0.2138    0.2453    0.0283    0.0035    0.2154
          29    0.0603    0.0623    0.0738   -0.2183   -0.2948   -0.0357   -0.0008   -0.2979
          30   -0.0001   -0.0002    0.0000    0.0005    0.0013    0.0005    0.7361   -0.0078
          31   -0.0375   -0.1479    0.0499    0.1882    0.2822    0.0457    0.3810    0.1883
          32    0.0212    0.0551   -0.0066   -0.0950   -0.1959   -0.0361    0.2150    0.4853
          33    0.0088    0.0235    0.0017   -0.0731   -0.1826   -0.0322    0.0926    0.3425
          34    0.0810   -0.0077   -0.0666    0.0784   -0.0500    0.0413   -0.0000   -0.0048
          35   -0.3070    0.5129    0.3969    0.0768   -0.0225    0.0067    0.0002    0.0075
          36   -0.0000    0.0000    0.0000   -0.0000   -0.0000    0.0000   -0.0003    0.0000
          37   -0.4613   -0.2818    0.3285    0.0349   -0.0755    0.0098   -0.0002   -0.0176
          38    0.3828    0.1323   -0.3386   -0.0860    0.0786   -0.0977    0.0002    0.0148
          39    0.0000    0.0000   -0.0000   -0.0000    0.0000   -0.0000    0.0012   -0.0000
          40    0.5455   -0.3383    0.3417    0.1961   -0.1022    0.0140    0.0001   -0.0067
          41    0.2002   -0.2071    0.1340    0.0314   -0.0653   -0.0529    0.0001   -0.0071
          42   -0.0000    0.0000   -0.0000   -0.0000    0.0000   -0.0000    0.0005   -0.0000


   Root No.      25        26        27        28        29        30        31        32

                25 A      26 A      27 A      28 A      29 A      30 A      31 A      32 A   

                1410.6    1469.7    1746.8    1828.6    2986.3    3053.4    3066.9    3077.5
  
           1    0.0549   -0.3078    0.0129    0.0279   -0.0000    0.0388    0.0000    0.0013
           2   -0.2041   -0.1393   -0.0365   -0.0088   -0.0001    0.2148    0.0000   -0.0024
           3   -0.0000    0.0000    0.0000    0.0000   -0.3036   -0.0002   -0.0007    0.0000
           4    0.0896   -0.4484    0.0779    0.1443   -0.0000   -0.0010   -0.0002   -0.1430
           5   -0.1113    0.1784   -0.0496   -0.1042   -0.0000   -0.0020   -0.0004   -0.2609
           6   -0.0001    0.0002   -0.0000   -0.0000    0.0002    0.0001   -0.2956    0.0004
           7    0.0561    0.6285   -0.1645   -0.2739   -0.0000    0.0026   -0.0000    0.0009
           8    0.1433    0.2127    0.2110    0.6718   -0.0000    0.0036    0.0000   -0.0026
           9   -0.0000    0.0000    0.0000    0.0000   -0.0014   -0.0000   -0.0005    0.0000
          10   -0.1697    0.0500    0.2885   -0.0477    0.0000   -0.0064   -0.0000   -0.0001
          11    0.2625    0.0790    0.5949   -0.1765   -0.0000    0.0027    0.0000    0.0001
          12    0.0000   -0.0000    0.0000   -0.0000   -0.0013   -0.0000   -0.0000   -0.0000
          13   -0.5289   -0.0357    0.0479    0.1194   -0.0000    0.0025    0.0000   -0.0042
          14    0.1156   -0.2558   -0.1084   -0.5619    0.0000   -0.0002    0.0000    0.0001
          15    0.0000   -0.0000   -0.0000   -0.0000   -0.0009   -0.0000   -0.0010   -0.0000
          16    0.5781   -0.0428   -0.3424    0.1175    0.0000   -0.0023   -0.0000    0.0003
          17   -0.1177    0.0107   -0.5495    0.1812    0.0000    0.0008   -0.0000    0.0000
          18   -0.0000    0.0000   -0.0000   -0.0000   -0.0010   -0.0000   -0.0002    0.0000
          19   -0.0121    0.0558    0.0155   -0.0391    0.0739   -0.0678    0.0003    0.0009
          20    0.0634    0.0151   -0.0132    0.0033    0.4043   -0.3702    0.0005    0.0031
          21   -0.0736   -0.0492    0.0056    0.0043    0.5347   -0.5771    0.0006    0.0050
          22   -0.0121    0.0558    0.0155   -0.0391   -0.0737   -0.0679   -0.0004    0.0009
          23    0.0634    0.0151   -0.0132    0.0033   -0.4037   -0.3711   -0.0006    0.0031
          24    0.0736    0.0492   -0.0057   -0.0043    0.5335    0.5780    0.0008   -0.0050
          25   -0.0451    0.2055   -0.0007    0.0114   -0.0003   -0.0001   -0.0385   -0.0438
          26    0.0261   -0.0230   -0.0062   -0.0148   -0.0006    0.0020    0.4106    0.2147
          27   -0.0408    0.0663   -0.0050   -0.0069   -0.0008    0.0032    0.5329    0.3565
          28   -0.0767    0.0342   -0.0058   -0.0190    0.0000    0.0051   -0.0014    0.5797
          29    0.0858   -0.1171    0.0185    0.0426    0.0000    0.0041   -0.0012    0.4769
          30    0.0004   -0.0001   -0.0000   -0.0000   -0.0001   -0.0000   -0.0432   -0.0027
          31   -0.0446    0.2043   -0.0007    0.0113    0.0003   -0.0001    0.0406   -0.0449
          32    0.0268   -0.0235   -0.0061   -0.0146    0.0006    0.0021   -0.4080    0.2105
          33    0.0409   -0.0669    0.0050    0.0070   -0.0008   -0.0035    0.5371   -0.3554
          34   -0.0020    0.0254    0.1475   -0.0300   -0.0000    0.0186    0.0000    0.0005
          35   -0.2317   -0.0556   -0.0318    0.0077   -0.0000    0.0049    0.0000    0.0001
          36   -0.0000   -0.0000   -0.0000    0.0000   -0.0013   -0.0000   -0.0001   -0.0000
          37    0.0490    0.0039    0.0127   -0.1305    0.0000   -0.0123   -0.0000    0.0062
          38   -0.1681   -0.0957   -0.0468   -0.0480    0.0000   -0.0134   -0.0000    0.0082
          39   -0.0000    0.0000   -0.0000    0.0000   -0.0009    0.0000    0.0006    0.0000
          40   -0.1331   -0.0454    0.0913   -0.0672   -0.0000    0.0068    0.0000   -0.0002
          41   -0.1708   -0.0111   -0.1145    0.0147    0.0000   -0.0169   -0.0000    0.0004
          42    0.0000    0.0000   -0.0000    0.0000   -0.0011   -0.0000    0.0000    0.0000


   Root No.      33        34        35        36

                33 A      34 A      35 A      36 A   

                3133.4    3138.7    3153.9    3166.1
  
           1   -0.0011    0.0016   -0.0018    0.0005
           2    0.0005    0.0053   -0.0123    0.0001
           3    0.0000   -0.0000    0.0000   -0.0000
           4   -0.0002    0.0007   -0.0011   -0.1381
           5   -0.0007    0.0021   -0.0000    0.0629
           6    0.0000   -0.0000    0.0000    0.0000
           7    0.0013   -0.0050    0.0086   -0.0010
           8   -0.0063    0.0205   -0.0095    0.0008
           9   -0.0000    0.0000   -0.0000    0.0000
          10   -0.1207   -0.1227   -0.2335    0.0010
          11   -0.0118   -0.0212   -0.0579    0.0001
          12    0.0000    0.0000    0.0000   -0.0000
          13    0.0765   -0.1705    0.0609    0.0027
          14    0.0886   -0.1954    0.0629    0.0012
          15   -0.0000    0.0000   -0.0000   -0.0000
          16    0.0864    0.0276   -0.0538   -0.0001
          17   -0.2141   -0.0461    0.1744   -0.0001
          18   -0.0000   -0.0000    0.0000   -0.0000
          19   -0.0010   -0.0015    0.0004   -0.0002
          20    0.0010   -0.0032    0.0114   -0.0001
          21    0.0010   -0.0054    0.0165   -0.0001
          22   -0.0010   -0.0015    0.0004   -0.0002
          23    0.0010   -0.0032    0.0114   -0.0001
          24   -0.0010    0.0054   -0.0165    0.0001
          25   -0.0003    0.0009   -0.0002    0.0132
          26    0.0019   -0.0056    0.0008   -0.3137
          27    0.0027   -0.0082    0.0011   -0.4539
          28    0.0004   -0.0000    0.0010    0.4491
          29    0.0008   -0.0010    0.0013    0.4073
          30   -0.0000   -0.0000   -0.0000   -0.0021
          31   -0.0003    0.0009   -0.0002    0.0147
          32    0.0019   -0.0055    0.0008   -0.3107
          33   -0.0028    0.0082   -0.0011    0.4559
          34    0.4220    0.4237    0.7311   -0.0028
          35    0.0599    0.0621    0.1089   -0.0004
          36   -0.0000   -0.0000   -0.0000    0.0000
          37   -0.2617    0.5783   -0.1811   -0.0077
          38   -0.2767    0.6027   -0.1864   -0.0069
          39    0.0000   -0.0001    0.0000    0.0000
          40   -0.3036   -0.0748    0.2103   -0.0001
          41    0.7066    0.1643   -0.4918    0.0004
          42    0.0000    0.0000   -0.0000    0.0000


          DESCRIPTION OF VIBRATIONS


 VIBRATION          1    1A           ATOM PAIR      ENERGY CONTRIBUTION    RADIAL
 FREQUENCY            93.23         C  2 -- H 11         +31.4% (636.3%)      0.0%
 TRANSITION DIPOLE   0.0196         C  2 -- H  9         +31.4% (636.2%)      0.0%
 TRAVEL (Ang.)       0.0000         C  2 -- H 10         +29.5% (616.0%)      0.0%
 REDUCED MASS        0.3083         C  1 -- C  3          +1.7% (146.5%)      0.0%
 EFFECTIVE MASS     15.8323
 FORCE CONSTANT      0.0016

 VIBRATION          2    2A           ATOM PAIR      ENERGY CONTRIBUTION    RADIAL
 FREQUENCY           210.48         C  2 -- C  3         +15.1% (228.5%)      0.0%
 TRANSITION DIPOLE   0.0294         C  1 -- C  4         +13.1% (213.3%)      0.0%
 TRAVEL (Ang.)       0.5823         C  2 -- H 10         +10.2% (188.2%)      0.0%
 REDUCED MASS        0.9449         C  2 -- H  9          +8.8% (174.2%)     66.5%
 EFFECTIVE MASS     57.9177
 FORCE CONSTANT      0.0247

 VIBRATION          3    3A           ATOM PAIR      ENERGY CONTRIBUTION    RADIAL
 FREQUENCY           334.89         C  2 -- C  3         +17.6% (224.5%)      0.0%
 TRANSITION DIPOLE   0.0597         C  3 -- C  6          +8.1% (152.7%)      0.3%
 TRAVEL (Ang.)       0.4094         C  2 -- H 11          +8.1% (152.3%)     32.4%
 REDUCED MASS        1.2014         C  2 -- H  9          +8.1% (152.3%)     33.3%
 EFFECTIVE MASS     32.9462
 FORCE CONSTANT      0.0794

 VIBRATION          4    4A           ATOM PAIR      ENERGY CONTRIBUTION    RADIAL
 FREQUENCY           404.16         C  1 -- H  7         +14.4% ( 98.2%)      4.6%
 TRANSITION DIPOLE   0.3588         C  1 -- H  8         +14.4% ( 98.2%)      4.6%
 TRAVEL (Ang.)       0.4270         C  4 -- C  6         +11.2% ( 86.5%)      0.0%
 REDUCED MASS        0.9150         C  3 -- C  6         +10.2% ( 82.5%)      0.0%
 EFFECTIVE MASS     12.9801
 FORCE CONSTANT      0.0881

 VIBRATION          5    5A           ATOM PAIR      ENERGY CONTRIBUTION    RADIAL
 FREQUENCY           494.82         C  3 -- C  5         +19.3% ( 88.7%)      0.0%
 TRANSITION DIPOLE   0.2407         C  3 -- C  6         +12.6% ( 71.9%)      0.0%
 TRAVEL (Ang.)       0.3512         C  5 -- C  6         +10.5% ( 65.5%)      0.0%
 REDUCED MASS        1.1046         C  1 -- C  3          +9.0% ( 60.8%)      0.0%
 EFFECTIVE MASS     11.0529
 FORCE CONSTANT      0.1594

 VIBRATION          6    6A           ATOM PAIR      ENERGY CONTRIBUTION    RADIAL
 FREQUENCY           650.63         C  2 -- H 10          +9.9% ( 97.8%)     15.5%
 TRANSITION DIPOLE   0.0504         C  2 -- H 11          +9.8% ( 97.3%)     13.8%
 TRAVEL (Ang.)       0.2288         C  2 -- H  9          +9.8% ( 97.3%)     13.7%
 REDUCED MASS        1.9800         C  2 -- C  3          +8.8% ( 92.4%)     91.1%
 EFFECTIVE MASS     15.8888
 FORCE CONSTANT      0.4938

 VIBRATION          7    7A           ATOM PAIR      ENERGY CONTRIBUTION    RADIAL
 FREQUENCY           738.03         C  4 -- H 12         +32.0% ( 77.0%)      0.0%
 TRANSITION DIPOLE   0.5783         C  6 -- H 14         +17.4% ( 56.8%)      0.0%
 TRAVEL (Ang.)       0.5324         C  1 -- H  8         +12.6% ( 48.3%)     10.0%
 REDUCED MASS        0.3224         C  1 -- H  7         +12.6% ( 48.3%)     10.0%
 EFFECTIVE MASS      2.5088
 FORCE CONSTANT      0.1035

 VIBRATION          8    8A           ATOM PAIR      ENERGY CONTRIBUTION    RADIAL
 FREQUENCY           821.40         C  4 -- C  6         +15.3% (113.0%)      0.0%
 TRANSITION DIPOLE   0.2144         C  5 -- C  6         +14.8% (111.0%)      0.1%
 TRAVEL (Ang.)       0.1760         C  4 -- C  5         +14.8% (111.0%)     99.4%
 REDUCED MASS        2.6507         C  3 -- C  6         +13.7% (107.0%)     67.4%
 EFFECTIVE MASS     15.9971
 FORCE CONSTANT      1.0537

 VIBRATION          9    9A           ATOM PAIR      ENERGY CONTRIBUTION    RADIAL
 FREQUENCY           869.70         C  5 -- H 13         +29.2% ( 69.7%)      0.0%
 TRANSITION DIPOLE   0.3560         C  1 -- H  7         +14.0% ( 48.3%)     15.7%
 TRAVEL (Ang.)       0.4067         C  1 -- H  8         +14.0% ( 48.3%)     15.7%
 REDUCED MASS        0.4687         C  6 -- H 14         +12.5% ( 45.6%)      0.0%
 EFFECTIVE MASS      3.3227         C  1 -- C  3         +10.2% ( 41.2%)      0.0%
 FORCE CONSTANT      0.2089

 VIBRATION         10   10A           ATOM PAIR      ENERGY CONTRIBUTION    RADIAL
 FREQUENCY           889.72         C  2 -- H 11         +12.8% ( 52.1%)      8.2%
 TRANSITION DIPOLE   0.1046         C  2 -- H  9         +12.7% ( 51.9%)      8.2%
 TRAVEL (Ang.)       0.4460         C  1 -- H  8         +11.3% ( 48.9%)     15.6%
 REDUCED MASS        0.3811         C  1 -- H  7         +11.3% ( 48.9%)     15.6%
 EFFECTIVE MASS      4.7883         C  1 -- C  4         +10.2% ( 46.5%)      0.0%
 FORCE CONSTANT      0.1777

 VIBRATION         11   11A           ATOM PAIR      ENERGY CONTRIBUTION    RADIAL
 FREQUENCY           942.12         C  2 -- H 10         +15.8% ( 68.0%)     20.0%
 TRANSITION DIPOLE   0.0365         C  1 -- C  3         +14.2% ( 64.3%)     82.6%
 TRAVEL (Ang.)       0.2917         C  1 -- C  4         +12.6% ( 60.7%)      0.0%
 REDUCED MASS        0.8411         C  1 -- H  7         +10.7% ( 55.9%)     44.2%
 EFFECTIVE MASS      6.7179         C  1 -- H  8         +10.7% ( 55.9%)     44.4%
 FORCE CONSTANT      0.4398

 VIBRATION         12   12A           ATOM PAIR      ENERGY CONTRIBUTION    RADIAL
 FREQUENCY           958.67         C  6 -- H 14         +23.3% ( 54.3%)      0.0%
 TRANSITION DIPOLE   0.0739         C  5 -- H 13         +15.1% ( 43.6%)      0.0%
 TRAVEL (Ang.)       0.4124         C  1 -- H  8         +14.9% ( 43.4%)      0.2%
 REDUCED MASS        0.4135         C  1 -- H  7         +14.9% ( 43.4%)      0.2%
 EFFECTIVE MASS      3.0337
 FORCE CONSTANT      0.2239

 VIBRATION         13   13A           ATOM PAIR      ENERGY CONTRIBUTION    RADIAL
 FREQUENCY           982.07         C  4 -- C  5         +11.9% ( 57.6%)      4.8%
 TRANSITION DIPOLE   0.0649         C  2 -- H 10         +11.0% ( 55.4%)      5.5%
 TRAVEL (Ang.)       0.3823         C  5 -- C  6         +10.0% ( 52.9%)      0.9%
 REDUCED MASS        0.4697         C  5 -- H 13          +9.6% ( 51.8%)     81.3%
 EFFECTIVE MASS      6.0886
 FORCE CONSTANT      0.2669

 VIBRATION         14   14A           ATOM PAIR      ENERGY CONTRIBUTION    RADIAL
 FREQUENCY          1001.79         C  4 -- H 12         +13.9% ( 47.9%)      0.0%
 TRANSITION DIPOLE   0.0772         C  1 -- C  4         +10.2% ( 41.1%)      0.0%
 TRAVEL (Ang.)       0.3230         C  2 -- H 11          +9.5% ( 39.6%)     10.3%
 REDUCED MASS        0.6453         C  2 -- H  9          +9.5% ( 39.5%)     10.3%
 EFFECTIVE MASS      5.2786
 FORCE CONSTANT      0.3816

 VIBRATION         15   15A           ATOM PAIR      ENERGY CONTRIBUTION    RADIAL
 FREQUENCY          1033.84         C  4 -- H 12         +19.4% ( 57.3%)      8.8%
 TRANSITION DIPOLE   0.1470         C  1 -- C  4         +14.6% ( 49.7%)     94.0%
 TRAVEL (Ang.)       0.4692         C  1 -- H  7         +12.5% ( 45.9%)     14.4%
 REDUCED MASS        0.2962         C  1 -- H  8         +12.5% ( 45.9%)     14.4%
 EFFECTIVE MASS      3.8688
 FORCE CONSTANT      0.1865

 VIBRATION         16   16A           ATOM PAIR      ENERGY CONTRIBUTION    RADIAL
 FREQUENCY          1049.71         C  1 -- H  7         +15.9% ( 45.6%)      0.8%
 TRANSITION DIPOLE   0.0926         C  1 -- H  8         +15.9% ( 45.6%)      0.8%
 TRAVEL (Ang.)       0.3365         C  2 -- C  3         +10.5% ( 37.1%)      0.0%
 REDUCED MASS        0.5672         C  2 -- H 11          +9.6% ( 35.4%)     10.7%
 EFFECTIVE MASS      4.0644
 FORCE CONSTANT      0.3682

 VIBRATION         17   17A           ATOM PAIR      ENERGY CONTRIBUTION    RADIAL
 FREQUENCY          1078.69         C  5 -- H 13         +29.2% ( 60.9%)      3.3%
 TRANSITION DIPOLE   0.0436         C  6 -- H 14         +26.2% ( 57.7%)      2.1%
 TRAVEL (Ang.)       0.4754         C  4 -- H 12          +8.3% ( 32.4%)      8.3%
 REDUCED MASS        0.2766         C  5 -- C  6          +6.0% ( 27.5%)     95.2%
 EFFECTIVE MASS      2.1088
 FORCE CONSTANT      0.1896

 VIBRATION         18   18A           ATOM PAIR      ENERGY CONTRIBUTION    RADIAL
 FREQUENCY          1127.00         C  4 -- H 12         +12.7% ( 54.4%)      6.2%
 TRANSITION DIPOLE   0.1051         C  4 -- C  5         +10.9% ( 50.4%)     96.9%
 TRAVEL (Ang.)       0.3820         C  5 -- C  6         +10.0% ( 48.1%)     66.1%
 REDUCED MASS        0.4101         C  5 -- H 13          +9.1% ( 46.1%)     26.1%
 EFFECTIVE MASS      5.5546
 FORCE CONSTANT      0.3069

 VIBRATION         19   19A           ATOM PAIR      ENERGY CONTRIBUTION    RADIAL
 FREQUENCY          1203.90         C  5 -- H 13         +17.4% ( 52.5%)      0.4%
 TRANSITION DIPOLE   0.0376         C  4 -- H 12         +12.7% ( 44.9%)      0.1%
 TRAVEL (Ang.)       0.4489         C  6 -- H 14         +10.9% ( 41.5%)      0.2%
 REDUCED MASS        0.2780         C  1 -- H  7         +10.5% ( 40.7%)      0.0%
 EFFECTIVE MASS      2.8258         C  1 -- H  8         +10.5% ( 40.7%)      0.0%
 FORCE CONSTANT      0.2374

 VIBRATION         20   20A           ATOM PAIR      ENERGY CONTRIBUTION    RADIAL
 FREQUENCY          1272.16         C  1 -- C  4         +16.0% ( 58.2%)     94.5%
 TRANSITION DIPOLE   0.1363         C  4 -- C  5         +10.5% ( 47.0%)     33.4%
 TRAVEL (Ang.)       0.2567         C  1 -- H  8          +8.1% ( 41.2%)      0.6%
 REDUCED MASS        0.8042         C  1 -- H  7          +8.1% ( 41.2%)      0.6%
 EFFECTIVE MASS      6.7509
 FORCE CONSTANT      0.7668

 VIBRATION         21   21A           ATOM PAIR      ENERGY CONTRIBUTION    RADIAL
 FREQUENCY          1350.31         C  1 -- C  3         +13.6% ( 50.0%)     79.9%
 TRANSITION DIPOLE   0.0962         C  1 -- C  4         +13.1% ( 48.9%)     74.4%
 TRAVEL (Ang.)       0.2397         C  2 -- H 10         +11.4% ( 45.7%)      0.4%
 REDUCED MASS        0.8691         C  2 -- H 11         +10.6% ( 44.1%)      4.0%
 EFFECTIVE MASS      5.8154         C  2 -- H  9         +10.6% ( 44.1%)      4.0%
 FORCE CONSTANT      0.9337

 VIBRATION         22   22A           ATOM PAIR      ENERGY CONTRIBUTION    RADIAL
 FREQUENCY          1364.07         C  1 -- H  7         +24.0% ( 61.4%)      5.4%
 TRANSITION DIPOLE   0.3357         C  1 -- H  8         +24.0% ( 61.4%)      5.4%
 TRAVEL (Ang.)       0.2407         C  1 -- C  4         +13.8% ( 46.6%)     89.3%
 REDUCED MASS        0.8534         C  1 -- C  3         +10.3% ( 40.2%)      7.3%
 EFFECTIVE MASS      4.9025
 FORCE CONSTANT      0.9355

 VIBRATION         23   23A           ATOM PAIR      ENERGY CONTRIBUTION    RADIAL
 FREQUENCY          1390.09         C  2 -- H 10         +54.6% ( 64.0%)      0.0%
 TRANSITION DIPOLE   0.0706         C  2 -- H 11         +20.5% ( 39.2%)     11.2%
 TRAVEL (Ang.)       0.3369         C  2 -- H  9         +19.6% ( 38.4%)     12.2%
 REDUCED MASS        0.4274         C  2 -- C  3          +5.2% ( 19.7%)      0.0%
 EFFECTIVE MASS      1.5767
 FORCE CONSTANT      0.4866

 VIBRATION         24   24A           ATOM PAIR      ENERGY CONTRIBUTION    RADIAL
 FREQUENCY          1391.24         C  2 -- H  9         +38.7% ( 54.7%)      1.2%
 TRANSITION DIPOLE   0.0330         C  2 -- H 11         +37.9% ( 54.1%)      1.3%
 TRAVEL (Ang.)       0.3585         C  2 -- H 10         +13.2% ( 31.9%)     33.8%
 REDUCED MASS        0.3772         C  2 -- C  3          +5.1% ( 19.8%)      1.8%
 EFFECTIVE MASS      1.6773
 FORCE CONSTANT      0.4301

 VIBRATION         25   25A           ATOM PAIR      ENERGY CONTRIBUTION    RADIAL
 FREQUENCY          1410.56         C  5 -- C  6         +25.0% ( 82.6%)     99.9%
 TRANSITION DIPOLE   0.3150         C  4 -- C  6         +11.7% ( 56.5%)      0.2%
 TRAVEL (Ang.)       0.1345         C  4 -- C  5         +10.4% ( 53.3%)     99.9%
 REDUCED MASS        2.6436         C  3 -- C  6         +10.3% ( 53.1%)     91.0%
 EFFECTIVE MASS     10.2709
 FORCE CONSTANT      3.0991

 VIBRATION         26   26A           ATOM PAIR      ENERGY CONTRIBUTION    RADIAL
 FREQUENCY          1469.71         C  2 -- C  3         +21.8% ( 76.3%)     73.6%
 TRANSITION DIPOLE   0.2522         C  1 -- C  3         +17.3% ( 68.0%)     98.2%
 TRAVEL (Ang.)       0.1198         C  3 -- C  5         +14.7% ( 62.6%)     19.6%
 REDUCED MASS        3.1947         C  3 -- C  6         +10.8% ( 53.7%)     23.8%
 EFFECTIVE MASS     10.5193
 FORCE CONSTANT      4.0658

 VIBRATION         27   27A           ATOM PAIR      ENERGY CONTRIBUTION    RADIAL
 FREQUENCY          1746.80         C  4 -- C  6         +32.6% ( 96.5%)    100.0%
 TRANSITION DIPOLE   0.4039         C  3 -- C  6         +11.4% ( 56.9%)     26.3%
 TRAVEL (Ang.)       0.0929         C  1 -- C  4         +10.2% ( 53.8%)     18.3%
 REDUCED MASS        4.4720         C  4 -- C  5         +10.2% ( 53.8%)     45.8%
 EFFECTIVE MASS     11.9488
 FORCE CONSTANT      8.0397

 VIBRATION         28   28A           ATOM PAIR      ENERGY CONTRIBUTION    RADIAL
 FREQUENCY          1828.63         C  3 -- C  5         +30.7% ( 92.2%)     97.7%
 TRANSITION DIPOLE   0.4961         C  2 -- C  3         +14.4% ( 63.2%)     71.0%
 TRAVEL (Ang.)       0.0887         C  3 -- C  6         +13.4% ( 60.9%)     98.3%
 REDUCED MASS        4.6875         C  1 -- C  3         +12.4% ( 58.5%)      0.6%
 EFFECTIVE MASS     11.8148
 FORCE CONSTANT      9.2351

 VIBRATION         29   29A           ATOM PAIR      ENERGY CONTRIBUTION    RADIAL
 FREQUENCY          2986.25         C  1 -- H  7         +49.0% ( 72.5%)     96.8%
 TRANSITION DIPOLE   0.1499         C  1 -- H  8         +48.9% ( 72.4%)     96.8%
 TRAVEL (Ang.)       0.2089         C  1 -- C  4          +1.1% ( 10.7%)      0.0%
 REDUCED MASS        0.5174         C  1 -- C  3          +1.1% ( 10.7%)      0.0%
 EFFECTIVE MASS      1.5327
 FORCE CONSTANT      2.7185

 VIBRATION         30   30A           ATOM PAIR      ENERGY CONTRIBUTION    RADIAL
 FREQUENCY          3053.37         C  1 -- H  8         +49.3% ( 69.4%)     97.3%
 TRANSITION DIPOLE   0.2588         C  1 -- H  7         +49.1% ( 69.3%)     97.3%
 TRAVEL (Ang.)       0.2138         C  1 -- C  3          +0.7% (  8.5%)     38.0%
 REDUCED MASS        0.4832         C  1 -- C  4          +0.7% (  8.5%)     36.0%
 EFFECTIVE MASS      1.2866
 FORCE CONSTANT      2.6542

 VIBRATION         31   31A           ATOM PAIR      ENERGY CONTRIBUTION    RADIAL
 FREQUENCY          3066.94         C  2 -- H 11         +49.2% ( 72.3%)     97.0%
 TRANSITION DIPOLE   0.0217         C  2 -- H  9         +48.9% ( 72.1%)     97.0%
 TRAVEL (Ang.)       0.2077         C  2 -- C  3          +1.0% ( 10.2%)      0.0%
 REDUCED MASS        0.5097         C  2 -- H 10          +0.9% (  9.9%)      0.0%
 EFFECTIVE MASS      1.5031
 FORCE CONSTANT      2.8250

 VIBRATION         32   32A           ATOM PAIR      ENERGY CONTRIBUTION    RADIAL
 FREQUENCY          3077.53         C  2 -- H 10         +60.9% ( 80.5%)     98.7%
 TRANSITION DIPOLE   0.0427         C  2 -- H  9         +19.1% ( 45.1%)     85.9%
 TRAVEL (Ang.)       0.2148         C  2 -- H 11         +18.9% ( 44.8%)     85.7%
 REDUCED MASS        0.4751         C  2 -- C  3          +1.0% ( 10.5%)      0.0%
 EFFECTIVE MASS      1.5129
 FORCE CONSTANT      2.6512

 VIBRATION         33   33A           ATOM PAIR      ENERGY CONTRIBUTION    RADIAL
 FREQUENCY          3133.36         C  6 -- H 14         +61.6% ( 80.4%)    100.0%
 TRANSITION DIPOLE   0.1957         C  4 -- H 12         +18.8% ( 44.5%)    100.0%
 TRAVEL (Ang.)       0.2197         C  5 -- H 13         +15.2% ( 39.9%)    100.0%
 REDUCED MASS        0.4460         C  5 -- C  6          +1.2% ( 11.4%)      4.3%
 EFFECTIVE MASS      1.4976
 FORCE CONSTANT      2.5801

 VIBRATION         34   34A           ATOM PAIR      ENERGY CONTRIBUTION    RADIAL
 FREQUENCY          3138.70         C  5 -- H 13         +72.7% ( 87.4%)    100.0%
 TRANSITION DIPOLE   0.5124         C  4 -- H 12         +19.0% ( 44.7%)    100.0%
 TRAVEL (Ang.)       0.1920         C  6 -- H 14          +3.4% ( 18.8%)     99.8%
 REDUCED MASS        0.5828         C  4 -- C  5          +1.5% ( 12.4%)     39.7%
 EFFECTIVE MASS      1.5375
 FORCE CONSTANT      3.3827

 VIBRATION         35   35A           ATOM PAIR      ENERGY CONTRIBUTION    RADIAL
 FREQUENCY          3153.90         C  4 -- H 12         +56.8% ( 77.5%)    100.0%
 TRANSITION DIPOLE   0.4021         C  6 -- H 14         +29.9% ( 56.2%)     99.9%
 TRAVEL (Ang.)       0.2199         C  5 -- H 13          +7.0% ( 27.3%)    100.0%
 REDUCED MASS        0.4423         C  4 -- C  6          +2.2% ( 15.3%)     97.9%
 EFFECTIVE MASS      1.6586
 FORCE CONSTANT      2.5919

 VIBRATION         36   36A           ATOM PAIR      ENERGY CONTRIBUTION    RADIAL
 FREQUENCY          3166.13         C  2 -- H 10         +37.9% ( 59.3%)     97.7%
 TRANSITION DIPOLE   0.0536         C  2 -- H  9         +30.9% ( 53.5%)     96.7%
 TRAVEL (Ang.)       0.2542         C  2 -- H 11         +30.9% ( 53.5%)     96.7%
 REDUCED MASS        0.3296         C  2 -- C  3          +0.3% (  5.5%)     99.3%
 EFFECTIVE MASS      1.1400
 FORCE CONSTANT      1.9468

      SYMMETRY NUMBER FOR POINT-GROUP C1  =  1


          SYSTEM IS A GROUND STATE



 InChI=1S/C6H8/c1-6-4-2-3-5-6/h2-4H,5H2,1H3


          MOLECULE IS NOT LINEAR

          THERE ARE 36 GENUINE VIBRATIONS IN THIS SYSTEM
          THIS THERMODYNAMICS CALCULATION IS LIMITED TO
          MOLECULES WHICH HAVE NO INTERNAL ROTATIONS




                    CALCULATED THERMODYNAMIC PROPERTIES
                                          *
   TEMP. (K)   PARTITION FUNCTION   H.O.F.    ENTHALPY  HEAT CAPACITY ENTROPY
                                   KCAL/MOL   CAL/MOLE    CAL/K/MOL  CAL/K/MOL


 298.00  VIB.     0.8404D+01                  1868.0987    15.3877    10.4991
         ROT.     0.1094D+06                   888.2803     2.9808    26.0380
         INT.     0.9195D+06                  2756.3790    18.3685    36.5371
         TRA.     0.6934D+27                  1480.4672     4.9680    39.0554
         TOT.                       21.542    4236.8461    23.3365    75.5925

 200.00  VIB.     0.3224D+01                   712.7940     8.4399     5.8900
         ROT.     0.6016D+05                   596.1613     2.9808    24.8494
         INT.     0.1939D+06                  1308.9552    11.4207    30.7394
         TRA.     0.3813D+27                   993.6021     4.9680    37.0743
         TOT.                       19.608    2302.5574    16.3887    67.8136

 210.00  VIB.     0.3529D+01                   800.3108     9.0675     6.3169
         ROT.     0.6472D+05                   625.9693     2.9808    24.9948
         INT.     0.2284D+06                  1426.2801    12.0483    31.3117
         TRA.     0.4102D+27                  1043.2822     4.9680    37.3167
         TOT.                       19.775    2469.5624    17.0163    68.6283

 220.00  VIB.     0.3870D+01                   894.2233     9.7188     6.7536
         ROT.     0.6940D+05                   655.7774     2.9808    25.1335
         INT.     0.2686D+06                  1550.0007    12.6996    31.8871
         TRA.     0.4399D+27                  1092.9623     4.9680    37.5478
         TOT.                       19.948    2642.9630    17.6676    69.4349

 230.00  VIB.     0.4250D+01                   994.7612    10.3923     7.2004
         ROT.     0.7419D+05                   685.5855     2.9808    25.2660
         INT.     0.3153D+06                  1680.3467    13.3731    32.4664
         TRA.     0.4702D+27                  1142.6424     4.9680    37.7686
         TOT.                       20.128    2822.9891    18.3411    70.2350

 240.00  VIB.     0.4676D+01                  1102.1368    11.0860     7.6573
         ROT.     0.7908D+05                   715.3935     2.9808    25.3928
         INT.     0.3697D+06                  1817.5303    14.0668    33.0501
         TRA.     0.5012D+27                  1192.3226     4.9680    37.9801
         TOT.                       20.315    3009.8528    19.0348    71.0302

 250.00  VIB.     0.5153D+01                  1216.5413    11.7977     8.1242
         ROT.     0.8407D+05                   745.2016     2.9808    25.5145
         INT.     0.4332D+06                  1961.7429    14.7785    33.6387
         TRA.     0.5328D+27                  1242.0027     4.9680    38.1829
         TOT.                       20.509    3203.7456    19.7465    71.8216

 260.00  VIB.     0.5688D+01                  1338.1432    12.5250     8.6011
         ROT.     0.8916D+05                   775.0097     2.9808    25.6314
         INT.     0.5071D+06                  2113.1528    15.5059    34.2325
         TRA.     0.5651D+27                  1291.6828     4.9680    38.3777
         TOT.                       20.710    3404.8356    20.4739    72.6102

 270.00  VIB.     0.6289D+01                  1467.0861    13.2655     9.0876
         ROT.     0.9436D+05                   804.8177     2.9808    25.7439
         INT.     0.5934D+06                  2271.9038    16.2463    34.8315
         TRA.     0.5980D+27                  1341.3629     4.9680    38.5652
         TOT.                       20.918    3613.2667    21.2143    73.3968

 280.00  VIB.     0.6965D+01                  1603.4890    14.0166     9.5836
         ROT.     0.9965D+05                   834.6258     2.9808    25.8523
         INT.     0.6940D+06                  2438.1148    16.9974    35.4359
         TRA.     0.6316D+27                  1391.0430     4.9680    38.7459
         TOT.                       21.134    3829.1578    21.9655    74.1818

 290.00  VIB.     0.7726D+01                  1747.4462    14.7759    10.0887
         ROT.     0.1050D+06                   864.4339     2.9808    25.9569
         INT.     0.8115D+06                  2611.8800    17.7568    36.0456
         TRA.     0.6657D+27                  1440.7231     4.9680    38.9202
         TOT.                       21.358    4052.6031    22.7248    74.9658

 300.00  VIB.     0.8584D+01                  1899.0274    15.5411    10.6025
         ROT.     0.1105D+06                   894.2419     2.9808    26.0580
         INT.     0.9487D+06                  2793.2693    18.5219    36.6605
         TRA.     0.7004D+27                  1490.4032     4.9680    39.0887
         TOT.                       21.589    4283.6725    23.4899    75.7491

 310.00  VIB.     0.9554D+01                  2058.2798    16.3098    11.1246
         ROT.     0.1161D+06                   924.0500     2.9808    26.1557
         INT.     0.1109D+07                  2982.3298    19.2906    37.2803
         TRA.     0.7357D+27                  1540.0833     4.9680    39.2516
         TOT.                       21.827    4522.4131    24.2586    76.5319

 320.00  VIB.     0.1065D+02                  2225.2285    17.0800    11.6546
         ROT.     0.1217D+06                   953.8580     2.9808    26.2503
         INT.     0.1297D+07                  3179.0865    20.0608    37.9049
         TRA.     0.7716D+27                  1589.7634     4.9680    39.4093
         TOT.                       22.074    4768.8499    25.0288    77.3142

 330.00  VIB.     0.1189D+02                  2399.8785    17.8498    12.1920
         ROT.     0.1275D+06                   983.6661     2.9808    26.3421
         INT.     0.1516D+07                  3383.5446    20.8306    38.5340
         TRA.     0.8081D+27                  1639.4435     4.9680    39.5622
         TOT.                       22.328    5022.9881    25.7986    78.0962

 340.00  VIB.     0.1329D+02                  2582.2164    18.6173    12.7362
         ROT.     0.1333D+06                  1013.4742     2.9808    26.4311
         INT.     0.1773D+07                  3595.6905    21.5981    39.1673
         TRA.     0.8451D+27                  1689.1236     4.9680    39.7105
         TOT.                       22.590    5284.8141    26.5661    78.8778

 350.00  VIB.     0.1489D+02                  2772.2117    19.3810    13.2869
         ROT.     0.1393D+06                  1043.2822     2.9808    26.5175
         INT.     0.2073D+07                  3815.4940    22.3618    39.8044
         TRA.     0.8827D+27                  1738.8037     4.9680    39.8545
         TOT.                       22.859    5554.2977    27.3298    79.6589

 360.00  VIB.     0.1669D+02                  2969.8193    20.1395    13.8436
         ROT.     0.1453D+06                  1073.0903     2.9808    26.6014
         INT.     0.2425D+07                  4042.9096    23.1203    40.4450
         TRA.     0.9207D+27                  1788.4838     4.9680    39.9944
         TOT.                       23.136    5831.3935    28.0883    80.4394

 370.00  VIB.     0.1875D+02                  3174.9804    20.8915    14.4056
         ROT.     0.1514D+06                  1102.8984     2.9808    26.6831
         INT.     0.2838D+07                  4277.8788    23.8723    41.0887
         TRA.     0.9594D+27                  1838.1639     4.9680    40.1306
         TOT.                       23.421    6116.0427    28.8403    81.2193

 380.00  VIB.     0.2108D+02                  3387.6246    21.6360    14.9727
         ROT.     0.1575D+06                  1132.7064     2.9808    26.7626
         INT.     0.3321D+07                  4520.3310    24.6168    41.7353
         TRA.     0.9985D+27                  1887.8440     4.9680    40.2630
         TOT.                       23.713    6408.1750    29.5848    81.9983

 390.00  VIB.     0.2374D+02                  3607.6714    22.3719    15.5442
         ROT.     0.1638D+06                  1162.5145     2.9808    26.8400
         INT.     0.3889D+07                  4770.1858    25.3527    42.3842
         TRA.     0.1038D+28                  1937.5242     4.9680    40.3921
         TOT.                       24.013    6707.7100    30.3207    82.7763

 400.00  VIB.     0.2677D+02                  3835.0316    23.0985    16.1198
         ROT.     0.1701D+06                  1192.3226     2.9808    26.9155
         INT.     0.4554D+07                  5027.3542    26.0793    43.0353
         TRA.     0.1078D+28                  1987.2043     4.9680    40.5179
         TOT.                       24.320    7014.5584    31.0474    83.5532

   *: NOTE: HEATS OF FORMATION ARE RELATIVE TO THE
            ELEMENTS IN THEIR STANDARD STATE AT 298K
              (=  Standard Enthalpy of Formation).

            Hvib:  Zero-point energy is not included.
                   frequencies of less than zero cm-1 are not included.
            Hrot = (3/2)RT
            Htra = (3/2)RT + pV = (5/2)RT

            Heat capacity is Cp, not Cv

          For more information, see: HTTP://OpenMOPAC.net/Manual/thermochemistry.html


           FORCE CONSTANT IN CARTESIAN COORDINATES (Millidynes/A)

    ATOM   CHEMICAL       X               Y               Z
   NUMBER   SYMBOL  FORCE CONSTANT  FORCE CONSTANT  FORCE CONSTANT

      1       C        7.688084        9.976074        7.816545
      2       C        9.187102        8.566003        7.943353
      3       C       11.261946       13.876141        2.700998
      4       C       12.748542       11.655512        2.310650
      5       C       10.569891       14.558151        2.177284
      6       C       10.097623       15.051950        2.190516
      7       H        0.657769        2.055961        3.562217
      8       H        0.657692        2.057369        3.561234
      9       H        0.673824        2.216212        3.741394
     10       H        3.412260        2.661281        0.653418
     11       H        0.674907        2.186905        3.769050
     12       H        5.331777        0.798154        0.331257
     13       H        2.951287        3.151309        0.343916
     14       H        1.434947        4.670959        0.348899

 **********************
 *                    *
 * JOB ENDED NORMALLY *
 *                    *
 **********************



 TOTAL JOB TIME:             2.70 SECONDS

 == MOPAC DONE ==
