 *******************************************************************************
 **                                                                           **
 **                              MOPAC v23.1.2                                **
 **                                                                           **
 *******************************************************************************
 **          Digital Object Identifier (DOI): 10.5281/zenodo.6511958          **
 **    Visit the DOI location for information on how to cite this program.    **
 *******************************************************************************

                              PM3 CALCULATION RESULTS

 *******************************************************************************
 *  CALCULATION DONE: (MAX THREADS = 1)              Tue Jun  3 16:28:29 2025  *
 *  PM3        - The PM3 Hamiltonian to be used
 *  PRECISE    - TIGHTER CRITERIA TO BE USED
 *  NOSYM      - POINT-GROUP SYMMETRY SET TO C1
 *  THREADS=1  - MULTI-THREADING NOT USED
 *  T=         - A TIME OF 172800.0 SECONDS REQUESTED
 *  DUMP=N     - RESTART FILE WRITTEN EVERY 7200.0 SECONDS REQUESTED
 *******************************************************************************
pm3  precise nosym THREADS=1
 InChI=1S/C7H8/c1-2-7-5-3-4-6-7/h2-7H,1H2

   ATOM   CHEMICAL          X               Y               Z
  NUMBER   SYMBOL      (ANGSTROMS)     (ANGSTROMS)     (ANGSTROMS)

     1       C         -0.19600000  *   0.43000000  *  -0.37320000  *
     2       C          0.80070000  *   1.18310000  *   0.45110000  *
     3       C          0.63300000  *  -0.72480000  *  -0.84090000  *
     4       C         -1.35650000  *  -0.03810000  *   0.46360000  *
     5       C          1.97100000  *   0.56660000  *   0.44110000  *
     6       C          1.86570000  *  -0.63130000  *  -0.37030000  *
     7       C         -2.46230000  *  -0.52950000  *  -0.10220000  *
     8       H         -0.53320000  *   1.05420000  *  -1.22910000  *
     9       H          0.60510000  *   2.10840000  *   0.97750000  *
    10       H          0.28650000  *  -1.52340000  *  -1.48410000  *
    11       H         -1.29500000  *  -0.00000000  *   1.54830000  *
    12       H          2.85870000  *   0.90900000  *   0.95600000  *
    13       H          2.66140000  *  -1.33750000  *  -0.56650000  *
    14       H         -3.28400000  *  -0.87210000  *   0.51840000  *
    15       H         -2.55510000  *  -0.59460000  *  -1.18220000  *



          CARTESIAN COORDINATES 

    NO.       ATOM           X           Y           Z

     1         C         -0.1960      0.4300     -0.3732
     2         C          0.8007      1.1831      0.4511
     3         C          0.6330     -0.7248     -0.8409
     4         C         -1.3565     -0.0381      0.4636
     5         C          1.9710      0.5666      0.4411
     6         C          1.8657     -0.6313     -0.3703
     7         C         -2.4623     -0.5295     -0.1022
     8         H         -0.5332      1.0542     -1.2291
     9         H          0.6051      2.1084      0.9775
    10         H          0.2865     -1.5234     -1.4841
    11         H         -1.2950     -0.0000      1.5483
    12         H          2.8587      0.9090      0.9560
    13         H          2.6614     -1.3375     -0.5665
    14         H         -3.2840     -0.8721      0.5184
    15         H         -2.5551     -0.5946     -1.1822

  H: (PM3): J. J. P. STEWART, J. COMP. CHEM. 10, 209 (1989).
  C: (PM3): J. J. P. STEWART, J. COMP. CHEM. 10, 209 (1989).

           Empirical Formula: C7 H8  =    15 atoms



      MOLECULAR POINT GROUP   :   C1  


      RHF CALCULATION, NO. OF DOUBLY OCCUPIED LEVELS = 18


          Geometry optimization using EF

          DIAGONAL MATRIX USED AS START HESSIAN

 CYCLE:     1 TIME:   0.008 TIME LEFT:  2.00D  GRAD.:   103.616 HEAT:  56.71293
 CYCLE:     2 TIME:   0.008 TIME LEFT:  2.00D  GRAD.:    74.939 HEAT:  55.48459
 CYCLE:     3 TIME:   0.004 TIME LEFT:  2.00D  GRAD.:    37.876 HEAT:  54.37696
 CYCLE:     4 TIME:   0.008 TIME LEFT:  2.00D  GRAD.:    50.088 HEAT:  54.23962
 CYCLE:     5 TIME:   0.008 TIME LEFT:  2.00D  GRAD.:    51.368 HEAT:  54.15080
 CYCLE:     6 TIME:   0.004 TIME LEFT:  2.00D  GRAD.:    36.219 HEAT:  53.75383
 CYCLE:     7 TIME:   0.004 TIME LEFT:  2.00D  GRAD.:    35.466 HEAT:  53.64462
 CYCLE:     8 TIME:   0.004 TIME LEFT:  2.00D  GRAD.:    35.189 HEAT:  53.47171
 CYCLE:     9 TIME:   0.008 TIME LEFT:  2.00D  GRAD.:    16.660 HEAT:  53.22715
 CYCLE:    10 TIME:   0.008 TIME LEFT:  2.00D  GRAD.:    14.173 HEAT:  53.18202
 CYCLE:    11 TIME:   0.004 TIME LEFT:  2.00D  GRAD.:     5.962 HEAT:  53.11172
 CYCLE:    12 TIME:   0.008 TIME LEFT:  2.00D  GRAD.:     8.013 HEAT:  53.08906
 CYCLE:    13 TIME:   0.004 TIME LEFT:  2.00D  GRAD.:    10.576 HEAT:  53.07459
 CYCLE:    14 TIME:   0.008 TIME LEFT:  2.00D  GRAD.:     7.455 HEAT:  53.05667
 CYCLE:    15 TIME:   0.008 TIME LEFT:  2.00D  GRAD.:     3.444 HEAT:  53.04473
 CYCLE:    16 TIME:   0.004 TIME LEFT:  2.00D  GRAD.:     2.884 HEAT:  53.03918
 CYCLE:    17 TIME:   0.004 TIME LEFT:  2.00D  GRAD.:     2.570 HEAT:  53.03223
 CYCLE:    18 TIME:   0.008 TIME LEFT:  2.00D  GRAD.:     4.016 HEAT:  53.02112
 CYCLE:    19 TIME:   0.004 TIME LEFT:  2.00D  GRAD.:     6.246 HEAT:  53.02049
 CYCLE:    20 TIME:   0.008 TIME LEFT:  2.00D  GRAD.:     2.689 HEAT:  53.00833
 CYCLE:    21 TIME:   0.004 TIME LEFT:  2.00D  GRAD.:     4.002 HEAT:  53.00703
 CYCLE:    22 TIME:   0.004 TIME LEFT:  2.00D  GRAD.:     2.673 HEAT:  53.00309
 CYCLE:    23 TIME:   0.004 TIME LEFT:  2.00D  GRAD.:     2.407 HEAT:  52.99878
 CYCLE:    24 TIME:   0.004 TIME LEFT:  2.00D  GRAD.:     1.881 HEAT:  52.99352
 CYCLE:    25 TIME:   0.008 TIME LEFT:  2.00D  GRAD.:     1.803 HEAT:  52.98378
 CYCLE:    26 TIME:   0.004 TIME LEFT:  2.00D  GRAD.:     1.423 HEAT:  52.97973
 CYCLE:    27 TIME:   0.004 TIME LEFT:  2.00D  GRAD.:     1.291 HEAT:  52.97561
 CYCLE:    28 TIME:   0.008 TIME LEFT:  2.00D  GRAD.:     1.309 HEAT:  52.97212
 CYCLE:    29 TIME:   0.008 TIME LEFT:  2.00D  GRAD.:     1.212 HEAT:  52.96871
 CYCLE:    30 TIME:   0.004 TIME LEFT:  2.00D  GRAD.:     0.966 HEAT:  52.96672
 CYCLE:    31 TIME:   0.004 TIME LEFT:  2.00D  GRAD.:     0.871 HEAT:  52.96487
 CYCLE:    32 TIME:   0.004 TIME LEFT:  2.00D  GRAD.:     0.802 HEAT:  52.96341
 CYCLE:    33 TIME:   0.008 TIME LEFT:  2.00D  GRAD.:     0.616 HEAT:  52.96243
 CYCLE:    34 TIME:   0.004 TIME LEFT:  2.00D  GRAD.:     0.456 HEAT:  52.96184
 CYCLE:    35 TIME:   0.008 TIME LEFT:  2.00D  GRAD.:     0.491 HEAT:  52.96138
 CYCLE:    36 TIME:   0.004 TIME LEFT:  2.00D  GRAD.:     0.625 HEAT:  52.96066
 CYCLE:    37 TIME:   0.004 TIME LEFT:  2.00D  GRAD.:     0.758 HEAT:  52.95962
 CYCLE:    38 TIME:   0.004 TIME LEFT:  2.00D  GRAD.:     0.961 HEAT:  52.95798
 CYCLE:    39 TIME:   0.008 TIME LEFT:  2.00D  GRAD.:     0.964 HEAT:  52.95662
 CYCLE:    40 TIME:   0.004 TIME LEFT:  2.00D  GRAD.:     1.667 HEAT:  52.95175
 CYCLE:    41 TIME:   0.008 TIME LEFT:  2.00D  GRAD.:     1.541 HEAT:  52.94893
 CYCLE:    42 TIME:   0.008 TIME LEFT:  2.00D  GRAD.:     2.693 HEAT:  52.93503
 CYCLE:    43 TIME:   0.004 TIME LEFT:  2.00D  GRAD.:     2.178 HEAT:  52.92903
 CYCLE:    44 TIME:   0.008 TIME LEFT:  2.00D  GRAD.:     2.517 HEAT:  52.89247
 CYCLE:    45 TIME:   0.004 TIME LEFT:  2.00D  GRAD.:     8.412 HEAT:  52.86085
 CYCLE:    46 TIME:   0.008 TIME LEFT:  2.00D  GRAD.:     4.248 HEAT:  52.83909
 CYCLE:    47 TIME:   0.008 TIME LEFT:  2.00D  GRAD.:     2.898 HEAT:  52.81526
 CYCLE:    48 TIME:   0.004 TIME LEFT:  2.00D  GRAD.:     2.586 HEAT:  52.80048
 CYCLE:    49 TIME:   0.004 TIME LEFT:  2.00D  GRAD.:     5.887 HEAT:  52.78759
 CYCLE:    50 TIME:   0.008 TIME LEFT:  2.00D  GRAD.:     4.288 HEAT:  52.76912
 CYCLE:    51 TIME:   0.004 TIME LEFT:  2.00D  GRAD.:     3.042 HEAT:  52.75093
 CYCLE:    52 TIME:   0.008 TIME LEFT:  2.00D  GRAD.:     4.322 HEAT:  52.73561
 CYCLE:    53 TIME:   0.004 TIME LEFT:  2.00D  GRAD.:     3.926 HEAT:  52.73106
 CYCLE:    54 TIME:   0.004 TIME LEFT:  2.00D  GRAD.:     3.951 HEAT:  52.72806
 CYCLE:    55 TIME:   0.008 TIME LEFT:  2.00D  GRAD.:     2.797 HEAT:  52.71867
 CYCLE:    56 TIME:   0.004 TIME LEFT:  2.00D  GRAD.:     2.281 HEAT:  52.71146
 CYCLE:    57 TIME:   0.004 TIME LEFT:  2.00D  GRAD.:     6.230 HEAT:  52.68667
 CYCLE:    58 TIME:   0.008 TIME LEFT:  2.00D  GRAD.:     2.864 HEAT:  52.67935
 CYCLE:    59 TIME:   0.004 TIME LEFT:  2.00D  GRAD.:     1.641 HEAT:  52.66969
 CYCLE:    60 TIME:   0.004 TIME LEFT:  2.00D  GRAD.:     4.626 HEAT:  52.66272
 CYCLE:    61 TIME:   0.004 TIME LEFT:  2.00D  GRAD.:     2.120 HEAT:  52.65552
 CYCLE:    62 TIME:   0.008 TIME LEFT:  2.00D  GRAD.:     1.499 HEAT:  52.64555
 CYCLE:    63 TIME:   0.004 TIME LEFT:  2.00D  GRAD.:     1.416 HEAT:  52.63923
 CYCLE:    64 TIME:   0.004 TIME LEFT:  2.00D  GRAD.:     2.032 HEAT:  52.63564
 CYCLE:    65 TIME:   0.004 TIME LEFT:  2.00D  GRAD.:     0.940 HEAT:  52.63430
 CYCLE:    66 TIME:   0.008 TIME LEFT:  2.00D  GRAD.:     0.950 HEAT:  52.63301
 CYCLE:    67 TIME:   0.004 TIME LEFT:  2.00D  GRAD.:     0.906 HEAT:  52.63127
 CYCLE:    68 TIME:   0.004 TIME LEFT:  2.00D  GRAD.:     0.796 HEAT:  52.63045
 CYCLE:    69 TIME:   0.008 TIME LEFT:  2.00D  GRAD.:     0.855 HEAT:  52.62782
 CYCLE:    70 TIME:   0.004 TIME LEFT:  2.00D  GRAD.:     0.672 HEAT:  52.62633
 CYCLE:    71 TIME:   0.004 TIME LEFT:  2.00D  GRAD.:     0.515 HEAT:  52.62438
 CYCLE:    72 TIME:   0.004 TIME LEFT:  2.00D  GRAD.:     0.809 HEAT:  52.62282
 CYCLE:    73 TIME:   0.008 TIME LEFT:  2.00D  GRAD.:     1.523 HEAT:  52.62296
 CYCLE:    74 TIME:   0.004 TIME LEFT:  2.00D  GRAD.:     0.509 HEAT:  52.62205
 CYCLE:    75 TIME:   0.008 TIME LEFT:  2.00D  GRAD.:     0.282 HEAT:  52.62192
 CYCLE:    76 TIME:   0.004 TIME LEFT:  2.00D  GRAD.:     0.483 HEAT:  52.62171
 CYCLE:    77 TIME:   0.004 TIME LEFT:  2.00D  GRAD.:     0.432 HEAT:  52.62145
 CYCLE:    78 TIME:   0.008 TIME LEFT:  2.00D  GRAD.:     0.152 HEAT:  52.62132
 CYCLE:    79 TIME:   0.004 TIME LEFT:  2.00D  GRAD.:     0.134 HEAT:  52.62130
 CYCLE:    80 TIME:   0.004 TIME LEFT:  2.00D  GRAD.:     0.095 HEAT:  52.62130
 CYCLE:    81 TIME:   0.004 TIME LEFT:  2.00D  GRAD.:     0.039 HEAT:  52.62128

     GRADIENT =  0.03897 IS LESS THAN CUTOFF =  0.05000



 -------------------------------------------------------------------------------
 pm3  precise nosym THREADS=1
 InChI=1S/C7H8/c1-2-7-5-3-4-6-7/h2-7H,1H2



     GEOMETRY OPTIMISED USING EIGENVECTOR FOLLOWING (EF).     
     SCF FIELD WAS ACHIEVED                                   


                              PM3 CALCULATION
                                                       MOPAC v23.1.2 MacOS
                                                       Tue Jun  3 16:28:29 2025




          FINAL HEAT OF FORMATION =         52.62128 KCAL/MOL =     220.16746 KJ/MOL


          COSMO AREA              =        142.75 SQUARE ANGSTROMS
          COSMO VOLUME            =        134.39 CUBIC ANGSTROMS

          GRADIENT NORM           =          0.03897          =       0.01006 PER ATOM
          IONIZATION POTENTIAL    =          9.265038 EV
          HOMO LUMO ENERGIES (EV) =         -9.265  0.271
          NO. OF FILLED LEVELS    =         18
          MOLECULAR WEIGHT        =         92.1402         POINT GROUP:  C1  

          MOLECULAR DIMENSIONS (Angstroms)

            Atom       Atom       Distance
            H    14    H    13     6.45957
            H    10    H     9     4.31959
            H     8    H    11     3.02018


          SCF CALCULATIONS        =         93

          WALL-CLOCK TIME         =      0.457 SECONDS
          COMPUTATION TIME        =      0.238 SECONDS




   ATOM   CHEMICAL          X               Y               Z
  NUMBER   SYMBOL      (ANGSTROMS)     (ANGSTROMS)     (ANGSTROMS)

     1       C         -0.18866642  *   0.22336043  *  -0.42390814  *
     2       C          0.67559225  *   1.16143829  *   0.38933407  *
     3       C          0.78836230  *  -0.86552907  *  -0.80857870  *
     4       C         -1.32825808  *  -0.31153802  *   0.37453451  *
     5       C          1.94077130  *   0.69068763  *   0.42834168  *
     6       C          2.01093751  *  -0.57009676  *  -0.31678626  *
     7       C         -2.59575982  *  -0.15932996  *   0.01014056  *
     8       H         -0.54124149  *   0.74764047  *  -1.34430442  *
     9       H          0.28088433  *   2.06487759  *   0.84830519  *
    10       H          0.49194608  *  -1.73170768  *  -1.39551956  *
    11       H         -1.05617109  *  -0.84495519  *   1.29295399  *
    12       H          2.80035071  *   1.14136564  *   0.92048080  *
    13       H          2.92766571  *  -1.14525442  *  -0.43092874  *
    14       H         -3.42201740  *  -0.55073737  *   0.59576055  *
    15       H         -2.90057308  *   0.36312767  *  -0.89279241  *

                             CARTESIAN COORDINATES

   1    C       -0.188666419     0.223360432    -0.423908137
   2    C        0.675592250     1.161438291     0.389334070
   3    C        0.788362302    -0.865529070    -0.808578705
   4    C       -1.328258084    -0.311538021     0.374534510
   5    C        1.940771298     0.690687630     0.428341676
   6    C        2.010937509    -0.570096760    -0.316786260
   7    C       -2.595759819    -0.159329958     0.010140565
   8    H       -0.541241492     0.747640472    -1.344304418
   9    H        0.280884326     2.064877591     0.848305189
  10    H        0.491946075    -1.731707683    -1.395519565
  11    H       -1.056171085    -0.844955188     1.292953994
  12    H        2.800350709     1.141365642     0.920480804
  13    H        2.927665712    -1.145254416    -0.430928740
  14    H       -3.422017396    -0.550737372     0.595760553
  15    H       -2.900573080     0.363127669    -0.892792412


           Empirical Formula: C7 H8  =    15 atoms



      MOLECULAR POINT GROUP   :   C1  


                  EIGENVALUES  
 -40.15963 -32.94084 -27.30597 -26.12544 -20.43697 -19.07482 -18.61866 -18.08839
 -15.89376 -15.43472 -13.99734 -13.46718 -13.21652 -12.71105 -12.37591 -11.09955
 -10.40753  -9.26504   0.27097   1.02065   1.99207   3.22241   3.35540   3.50521
   3.81494   3.88312   3.89399   4.08035   4.30973   4.35830   4.61833   5.36925
   5.72333   5.73564   5.84023   6.10774


              NET ATOMIC CHARGES AND DIPOLE CONTRIBUTIONS

  ATOM NO.   TYPE          CHARGE      No. of ELECS.   s-Pop       p-Pop       
    1          C          -0.006653        4.0067     1.15487     2.85178
    2          C          -0.152809        4.1528     1.20935     2.94346
    3          C          -0.152873        4.1529     1.20935     2.94352
    4          C          -0.109926        4.1099     1.18884     2.92109
    5          C          -0.119292        4.1193     1.19286     2.92643
    6          C          -0.119233        4.1192     1.19286     2.92638
    7          C          -0.164068        4.1641     1.18334     2.98073
    8          H           0.093055        0.9069     0.90695
    9          H           0.118287        0.8817     0.88171
   10          H           0.118285        0.8817     0.88172
   11          H           0.104231        0.8958     0.89577
   12          H           0.114166        0.8858     0.88583
   13          H           0.114168        0.8858     0.88583
   14          H           0.080970        0.9190     0.91903
   15          H           0.081693        0.9183     0.91831
 DIPOLE           X         Y         Z       TOTAL
 POINT-CHG.    -0.245     0.023    -0.063     0.254
 HYBRID         0.003     0.024    -0.040     0.047
 SUM           -0.242     0.048    -0.103     0.267


          ATOMIC ORBITAL ELECTRON POPULATIONS

     Atom    s        px        py        pz   
    1  C   1.15487   0.94438   0.93977   0.96764
    2  C   1.20935   0.95852   0.98893   0.99601
    3  C   1.20935   0.95640   0.98264   1.00448
    4  C   1.18884   0.93930   0.99243   0.98935
    5  C   1.19286   0.96878   0.96237   0.99528
    6  C   1.19286   0.97197   0.96671   0.98770
    7  C   1.18334   0.96073   1.01144   1.00856
    8  H   0.90695
    9  H   0.88171
   10  H   0.88172
   11  H   0.89577
   12  H   0.88583
   13  H   0.88583
   14  H   0.91903
   15  H   0.91831
 *******************************************************************************
 **                                                                           **
 **                              MOPAC v23.1.2                                **
 **                                                                           **
 *******************************************************************************
 **          Digital Object Identifier (DOI): 10.5281/zenodo.6511958          **
 **    Visit the DOI location for information on how to cite this program.    **
 *******************************************************************************

                              PM3 CALCULATION RESULTS

 *******************************************************************************
 *  CALCULATION DONE: (MAX THREADS = 1)              Tue Jun  3 16:28:29 2025  *
 *  PM3        - The PM3 Hamiltonian to be used
 *  OLDGEO     - PREVIOUS GEOMETRY TO BE USED
 *  PRECISE    - TIGHTER CRITERIA TO BE USED
 *  NOSYM      - POINT-GROUP SYMMETRY SET TO C1
 *  THREADS=1  - MULTI-THREADING NOT USED
 *  T=         - A TIME OF 172800.0 SECONDS REQUESTED
 *  DUMP=N     - RESTART FILE WRITTEN EVERY 7200.0 SECONDS REQUESTED
 *  THERMO     - THERMODYNAMIC QUANTITIES TO BE CALCULATED
 *******************************************************************************
oldgeo thermo nosym precise THREADS=1  pm3
 InChI=1S/C7H8/c1-2-7-5-3-4-6-7/h2-7H,1H2

   ATOM   CHEMICAL          X               Y               Z
  NUMBER   SYMBOL      (ANGSTROMS)     (ANGSTROMS)     (ANGSTROMS)

     1       C         -0.18866642  *   0.22336043  *  -0.42390814  *
     2       C          0.67559225  *   1.16143829  *   0.38933407  *
     3       C          0.78836230  *  -0.86552907  *  -0.80857870  *
     4       C         -1.32825808  *  -0.31153802  *   0.37453451  *
     5       C          1.94077130  *   0.69068763  *   0.42834168  *
     6       C          2.01093751  *  -0.57009676  *  -0.31678626  *
     7       C         -2.59575982  *  -0.15932996  *   0.01014056  *
     8       H         -0.54124149  *   0.74764047  *  -1.34430442  *
     9       H          0.28088433  *   2.06487759  *   0.84830519  *
    10       H          0.49194608  *  -1.73170768  *  -1.39551956  *
    11       H         -1.05617109  *  -0.84495519  *   1.29295399  *
    12       H          2.80035071  *   1.14136564  *   0.92048080  *
    13       H          2.92766571  *  -1.14525442  *  -0.43092874  *
    14       H         -3.42201740  *  -0.55073737  *   0.59576055  *
    15       H         -2.90057308  *   0.36312767  *  -0.89279241  *



          CARTESIAN COORDINATES 

    NO.       ATOM           X           Y           Z

     1         C         -0.1887      0.2234     -0.4239
     2         C          0.6756      1.1614      0.3893
     3         C          0.7884     -0.8655     -0.8086
     4         C         -1.3283     -0.3115      0.3745
     5         C          1.9408      0.6907      0.4283
     6         C          2.0109     -0.5701     -0.3168
     7         C         -2.5958     -0.1593      0.0101
     8         H         -0.5412      0.7476     -1.3443
     9         H          0.2809      2.0649      0.8483
    10         H          0.4919     -1.7317     -1.3955
    11         H         -1.0562     -0.8450      1.2930
    12         H          2.8004      1.1414      0.9205
    13         H          2.9277     -1.1453     -0.4309
    14         H         -3.4220     -0.5507      0.5958
    15         H         -2.9006      0.3631     -0.8928

  H: (PM3): J. J. P. STEWART, J. COMP. CHEM. 10, 209 (1989).
  C: (PM3): J. J. P. STEWART, J. COMP. CHEM. 10, 209 (1989).

           Empirical Formula: C7 H8  =    15 atoms



      MOLECULAR POINT GROUP   :   C1  


      RHF CALCULATION, NO. OF DOUBLY OCCUPIED LEVELS = 18



          HEAT OF FORMATION =      52.621285 KCALS/MOLE


          CARTESIAN COORDINATE DERIVATIVES

   NUMBER  ATOM         X            Y            Z

     1       C     -0.006000    -0.002619     0.002268
     2       C     -0.005494     0.004391     0.002208
     3       C      0.004352     0.007420     0.004869
     4       C     -0.019648     0.001397     0.002935
     5       C      0.001675    -0.004086     0.000159
     6       C      0.001881     0.006643     0.002807
     7       C      0.005654    -0.017181    -0.005700
     8       H     -0.000719     0.003488    -0.000401
     9       H      0.010547     0.003544     0.000318
    10       H      0.003002    -0.009788     0.000563
    11       H      0.004546     0.002904    -0.008910
    12       H     -0.005351    -0.007861    -0.001829
    13       H      0.004777     0.006470    -0.001307
    14       H      0.001727    -0.000155    -0.008873
    15       H     -0.000948     0.005434     0.010893



          GRADIENT NORM =   0.04210

          MOLECULAR WEIGHT =   92.14



          ROTATIONAL CONSTANTS IN CM(-1)

          A =    0.23218840   B =    0.06492590   C =    0.05502326



           PRINCIPAL MOMENTS OF INERTIA IN UNITS OF 10**(-40)*GRAM-CM**2

          A =      120.5605   B =      431.1493   C =      508.7440


          ORIENTATION OF MOLECULE IN FORCE CALCULATION

    NO.       ATOM         X         Y         Z

     1          C      -0.2726   -0.3371    0.3318
     2          C       1.2401   -0.3371    0.3318
     3          C      -0.5965    1.1405    0.3318
     4          C      -0.8262   -1.0256   -0.8690
     5          C       1.6920    0.9352    0.3590
     6          C       0.5496    1.8543    0.3590
     7          C      -1.6518   -2.0620   -0.7869
     8          H      -0.6437   -0.7983    1.2783
     9          H       1.8216   -1.2559    0.3132
    10          H      -1.6185    1.5116    0.3133
    11          H      -0.5077   -0.6220   -1.8373
    12          H       2.7271    1.2702    0.3790
    13          H       0.6554    2.9372    0.3791
    14          H      -2.0518   -2.5600   -1.6649
    15          H      -1.9874   -2.4870    0.1553


    FIRST DERIVATIVES WILL BE USED IN THE CALCULATION OF SECOND DERIVATIVES

          ESTIMATED TIME TO COMPLETE CALCULATION =        1.41 SECONDS

    FOR POINT-GROUP C1   THERE ARE   1 UNIQUE SYMMETRY FUNCTIONS.

 STEP:   1 TIME =     0.02 SECS, INTEGRAL =      0.02 TIME LEFT: 172799.98
 STEP:   2 TIME =     0.01 SECS, INTEGRAL =      0.03 TIME LEFT: 172799.96
 STEP:   3 TIME =     0.01 SECS, INTEGRAL =      0.04 TIME LEFT: 172799.96
 STEP:   4 TIME =     0.01 SECS, INTEGRAL =      0.05 TIME LEFT: 172799.95
 STEP:   5 TIME =     0.01 SECS, INTEGRAL =      0.06 TIME LEFT: 172799.93
 STEP:   6 TIME =     0.01 SECS, INTEGRAL =      0.07 TIME LEFT: 172799.92
 STEP:   7 TIME =     0.01 SECS, INTEGRAL =      0.08 TIME LEFT: 172799.91
 STEP:   8 TIME =     0.01 SECS, INTEGRAL =      0.09 TIME LEFT: 172799.90
 STEP:   9 TIME =     0.01 SECS, INTEGRAL =      0.10 TIME LEFT: 172799.89
 STEP:  10 TIME =     0.01 SECS, INTEGRAL =      0.11 TIME LEFT: 172799.88
 STEP:  11 TIME =     0.01 SECS, INTEGRAL =      0.12 TIME LEFT: 172799.88
 STEP:  12 TIME =     0.01 SECS, INTEGRAL =      0.13 TIME LEFT: 172799.86
 STEP:  13 TIME =     0.01 SECS, INTEGRAL =      0.14 TIME LEFT: 172799.85
 STEP:  14 TIME =     0.01 SECS, INTEGRAL =      0.15 TIME LEFT: 172799.84
 STEP:  15 TIME =     0.02 SECS, INTEGRAL =      0.17 TIME LEFT: 172799.82
 STEP:  16 TIME =     0.01 SECS, INTEGRAL =      0.18 TIME LEFT: 172799.81
 STEP:  17 TIME =     0.01 SECS, INTEGRAL =      0.19 TIME LEFT: 172799.80
 STEP:  18 TIME =     0.02 SECS, INTEGRAL =      0.21 TIME LEFT: 172799.79
 STEP:  19 TIME =     0.01 SECS, INTEGRAL =      0.22 TIME LEFT: 172799.77
 STEP:  20 TIME =     0.01 SECS, INTEGRAL =      0.23 TIME LEFT: 172799.76
 STEP:  21 TIME =     0.01 SECS, INTEGRAL =      0.24 TIME LEFT: 172799.75
 STEP:  22 TIME =     0.01 SECS, INTEGRAL =      0.25 TIME LEFT: 172799.74
 STEP:  23 TIME =     0.01 SECS, INTEGRAL =      0.26 TIME LEFT: 172799.73
 STEP:  24 TIME =     0.01 SECS, INTEGRAL =      0.27 TIME LEFT: 172799.72
 STEP:  25 TIME =     0.01 SECS, INTEGRAL =      0.29 TIME LEFT: 172799.71
 STEP:  26 TIME =     0.01 SECS, INTEGRAL =      0.30 TIME LEFT: 172799.70
 STEP:  27 TIME =     0.01 SECS, INTEGRAL =      0.31 TIME LEFT: 172799.68
 STEP:  28 TIME =     0.01 SECS, INTEGRAL =      0.32 TIME LEFT: 172799.67
 STEP:  29 TIME =     0.01 SECS, INTEGRAL =      0.33 TIME LEFT: 172799.66
 STEP:  30 TIME =     0.01 SECS, INTEGRAL =      0.34 TIME LEFT: 172799.65
 STEP:  31 TIME =     0.01 SECS, INTEGRAL =      0.35 TIME LEFT: 172799.64
 STEP:  32 TIME =     0.01 SECS, INTEGRAL =      0.36 TIME LEFT: 172799.63
 STEP:  33 TIME =     0.01 SECS, INTEGRAL =      0.38 TIME LEFT: 172799.62
 STEP:  34 TIME =     0.01 SECS, INTEGRAL =      0.38 TIME LEFT: 172799.61
 STEP:  35 TIME =     0.01 SECS, INTEGRAL =      0.39 TIME LEFT: 172799.60
 STEP:  36 TIME =     0.01 SECS, INTEGRAL =      0.41 TIME LEFT: 172799.59
 STEP:  37 TIME =     0.01 SECS, INTEGRAL =      0.42 TIME LEFT: 172799.57
 STEP:  38 TIME =     0.01 SECS, INTEGRAL =      0.43 TIME LEFT: 172799.56
 STEP:  39 TIME =     0.01 SECS, INTEGRAL =      0.44 TIME LEFT: 172799.55
 STEP:  40 TIME =     0.01 SECS, INTEGRAL =      0.45 TIME LEFT: 172799.54
 STEP:  41 TIME =     0.01 SECS, INTEGRAL =      0.46 TIME LEFT: 172799.53
 STEP:  42 TIME =     0.01 SECS, INTEGRAL =      0.47 TIME LEFT: 172799.52
 STEP:  43 TIME =     0.01 SECS, INTEGRAL =      0.48 TIME LEFT: 172799.51
 STEP:  44 TIME =     0.01 SECS, INTEGRAL =      0.49 TIME LEFT: 172799.50
 STEP:  45 TIME =     0.01 SECS, INTEGRAL =      0.50 TIME LEFT: 172799.49

(To convert to Hartree/Bohr^2, multiply by (10^(-21) x N x a0^2)/(4.184 x 627.51) =  0.0642)


           FORCE MATRIX IN MILLIDYNES/ANGSTROM


                  C  1       C  2       C  3       C  4       C  5       C  6
 ------------------------------------------------------------------------------
     C    1  15.218164
     C    2   4.073192  17.850972
     C    3   4.072734   1.091735  17.850524
     C    4   4.833957   0.649728   0.649324  18.197092
     C    5   1.201549   9.774312   1.573900   0.057124  18.282911
     C    6   1.201372   1.574366   9.774367   0.057071   5.115496  18.281628
     C    7   0.838277   0.036093   0.036289  11.080428   0.010370   0.010377
     H    8   4.226849   0.387200   0.387185   0.462139   0.052422   0.052385
     H    9   0.402847   5.089026   0.043104   0.012109   0.443046   0.102702
     H   10   0.403059   0.042935   5.089016   0.011959   0.102553   0.443024
     H   11   0.434015   0.012301   0.012517   4.814078   0.005703   0.005739
     H   12   0.116802   0.445861   0.049650   0.017898   5.068917   0.420317
     H   13   0.116816   0.049948   0.446116   0.017766   0.420545   5.068222
     H   14   0.140097   0.018731   0.018637   0.458443   0.003927   0.003925
     H   15   0.099344   0.011583   0.011465   0.489972   0.003410   0.003404


                  C  7       H  8       H  9       H 10       H 11       H 12
 ------------------------------------------------------------------------------
     C    7  18.030055
     H    8   0.044782   4.704799
     H    9   0.003092   0.010818   5.484890
     H   10   0.003080   0.010838   0.010440   5.484871
     H   11   0.451976   0.037727   0.003390   0.003381   5.176749
     H   12   0.002305   0.015122   0.043123   0.005435   0.000829   5.458762
     H   13   0.002325   0.015199   0.005531   0.043118   0.000827   0.009720
     H   14   5.106205   0.002507   0.000811   0.000797   0.080848   0.001092
     H   15   5.068630   0.029234   0.001048   0.001026   0.120149   0.000678


                  H 13       H 14       H 15
 ------------------------------------------
     H   13   5.458176
     H   14   0.001094   5.493043
     H   15   0.000677   0.424269   5.464698


          HEAT OF FORMATION =      52.621285 KCALS/MOLE

          ZERO POINT ENERGY      78.601 KCAL/MOL


           NORMAL COORDINATE ANALYSIS (Total motion = 1 Angstrom)


   Root No.       1         2         3         4         5         6         7         8

                 1 A       2 A       3 A       4 A       5 A       6 A       7 A       8 A   

                  31.9     147.2     285.2     398.8     489.8     493.4     642.5     739.0
  
           1   -0.0292   -0.0081   -0.0283    0.0035   -0.0000    0.0048    0.0071    0.0185
           2    0.0234   -0.0100    0.0227    0.0047   -0.0004   -0.0039   -0.0058    0.0230
           3    0.0000    0.0538   -0.0001    0.0251   -0.0473    0.0015   -0.0001   -0.0186
           4   -0.0288   -0.0073   -0.0287    0.0110    0.0047    0.0043    0.0222    0.0165
           5   -0.0132   -0.0099   -0.0032    0.0232    0.0209   -0.0012    0.0011   -0.0203
           6   -0.0024    0.0385   -0.0201   -0.0148    0.0527    0.0387    0.0092   -0.0152
           7    0.0066   -0.0081   -0.0031    0.0203    0.0195    0.0008    0.0039   -0.0234
           8    0.0309   -0.0092    0.0287    0.0162    0.0089   -0.0045   -0.0219    0.0118
           9    0.0024    0.0384    0.0202   -0.0149    0.0493   -0.0419   -0.0091   -0.0151
          10   -0.0419    0.0184    0.0341   -0.0322   -0.0239    0.0038   -0.0571    0.0035
          11    0.0334    0.0228   -0.0271   -0.0406   -0.0302   -0.0014    0.0455    0.0043
          12    0.0001    0.0207   -0.0002    0.0640   -0.0415    0.0013    0.0000    0.0254
          13    0.0018   -0.0067   -0.0047    0.0165    0.0150    0.0002    0.0119   -0.0081
          14   -0.0242   -0.0086   -0.0126    0.0222    0.0209    0.0027    0.0068   -0.0152
          15   -0.0016   -0.0498   -0.0289    0.0079   -0.0146   -0.0499   -0.0086   -0.0146
          16    0.0239   -0.0069    0.0113    0.0183    0.0170   -0.0038   -0.0040   -0.0131
          17    0.0033   -0.0084    0.0072    0.0210    0.0190   -0.0020   -0.0130   -0.0111
          18    0.0016   -0.0499    0.0289    0.0082   -0.0102    0.0506    0.0086   -0.0146
          19    0.0621    0.0164    0.0120   -0.0379   -0.0266   -0.0030    0.0035    0.0046
          20   -0.0493    0.0205   -0.0095   -0.0474   -0.0329    0.0042   -0.0027    0.0057
          21   -0.0000   -0.0419    0.0003   -0.0572   -0.0097    0.0003    0.0000    0.0052
          22   -0.0387   -0.0209   -0.0421    0.0316   -0.0234   -0.0344    0.0288    0.0476
          23    0.0312   -0.0258    0.0336    0.0400   -0.0258    0.0291   -0.0231    0.0591
          24    0.0001    0.0387   -0.0002    0.0517   -0.0667    0.0021    0.0000    0.0111
          25   -0.0511   -0.0080   -0.0482    0.0177    0.0141    0.0084    0.0342    0.0029
          26   -0.0273   -0.0112   -0.0151    0.0282    0.0241    0.0002    0.0077   -0.0325
          27   -0.0049    0.0784   -0.0492   -0.0489    0.1887    0.0960    0.0725    0.1441
          28    0.0156   -0.0092    0.0043    0.0238    0.0206    0.0002    0.0000   -0.0323
          29    0.0557   -0.0102    0.0502    0.0241    0.0185   -0.0095   -0.0350   -0.0040
          30    0.0049    0.0781    0.0492   -0.0488    0.1803   -0.1077   -0.0716    0.1439
          31   -0.1372    0.0449    0.1362   -0.0184   -0.0480   -0.0361    0.0053   -0.0015
          32    0.1093    0.0553   -0.1087   -0.0241   -0.0562    0.0318   -0.0042   -0.0020
          33    0.0004    0.0424   -0.0007    0.0723   -0.0594    0.0020   -0.0002    0.0199
          34    0.0099   -0.0061    0.0026    0.0178    0.0169    0.0004    0.0055   -0.0175
          35   -0.0491   -0.0072   -0.0328    0.0190    0.0157    0.0097    0.0285    0.0032
          36   -0.0031   -0.1056   -0.0715    0.0103   -0.0104   -0.1795   -0.0233    0.1543
          37    0.0501   -0.0057    0.0326    0.0152    0.0111   -0.0102   -0.0266    0.0070
          38    0.0007   -0.0075    0.0044    0.0215    0.0196   -0.0038   -0.0113   -0.0164
          39    0.0030   -0.1057    0.0716    0.0113    0.0050    0.1796    0.0237    0.1541
          40    0.0581    0.0436    0.0972    0.0309   -0.0482   -0.0635    0.2672    0.0384
          41   -0.0464    0.0541   -0.0778    0.0380   -0.0539    0.0535   -0.2132    0.0485
          42    0.0001   -0.0734    0.0002   -0.1395    0.0112   -0.0001   -0.0007   -0.0352
          43    0.1578   -0.0120   -0.0934   -0.1107   -0.0096    0.0490   -0.1662   -0.0273
          44   -0.1254   -0.0144    0.0749   -0.1378   -0.0170   -0.0380    0.1327   -0.0341
          45   -0.0003   -0.0681    0.0008   -0.1262    0.0043   -0.0002    0.0007   -0.0259


   Root No.       9        10        11        12        13        14        15        16

                 9 A      10 A      11 A      12 A      13 A      14 A      15 A      16 A   

                 805.2     821.5     824.1     925.9     931.4     956.9     973.8    1007.6
  
           1   -0.0033    0.0409   -0.0314   -0.0029   -0.0015   -0.0021    0.0054   -0.0228
           2    0.0027   -0.0334   -0.0387   -0.0036    0.0011   -0.0027   -0.0044   -0.0284
           3   -0.0000    0.0003    0.0372   -0.0275   -0.0005    0.0055   -0.0000    0.0150
           4    0.0064    0.0015   -0.0394   -0.0317    0.0082   -0.0088   -0.0164    0.0187
           5    0.0060   -0.0627    0.0315    0.0143   -0.0061    0.0047    0.0094   -0.0031
           6    0.0341    0.0099   -0.0195   -0.0044    0.0009   -0.0343   -0.0166   -0.0153
           7   -0.0046    0.0622    0.0388    0.0207    0.0083    0.0063   -0.0127   -0.0071
           8   -0.0075    0.0114   -0.0319   -0.0279   -0.0076   -0.0075    0.0140    0.0176
           9   -0.0341   -0.0102   -0.0194   -0.0044   -0.0013   -0.0342    0.0168   -0.0154
          10   -0.0042   -0.0025    0.0020    0.0069   -0.0475   -0.0002    0.0023    0.0018
          11    0.0033    0.0021    0.0025    0.0078    0.0381   -0.0005   -0.0018    0.0024
          12    0.0000   -0.0001   -0.0070    0.0062    0.0003    0.0071   -0.0000   -0.0089
          13    0.0145   -0.1037    0.0092    0.0041   -0.0038    0.0007   -0.0009   -0.0156
          14    0.0042   -0.0197    0.0197    0.0044   -0.0001    0.0005   -0.0034    0.0048
          15    0.0253    0.0054   -0.0174    0.0061    0.0072    0.0265    0.0448    0.0049
          16   -0.0011   -0.0027    0.0173    0.0035   -0.0007    0.0004    0.0032    0.0080
          17   -0.0151    0.1057    0.0124    0.0049    0.0039    0.0008    0.0016   -0.0142
          18   -0.0253   -0.0057   -0.0174    0.0062   -0.0067    0.0264   -0.0449    0.0051
          19   -0.0011   -0.0003    0.0031    0.0115   -0.0126    0.0002    0.0033    0.0026
          20    0.0009    0.0003    0.0039    0.0140    0.0105    0.0002   -0.0026    0.0032
          21    0.0000   -0.0000   -0.0046    0.0419    0.0007   -0.0123    0.0001    0.0176
          22   -0.0515    0.0114   -0.0385   -0.0388   -0.0034    0.0376    0.1911   -0.0854
          23    0.0416   -0.0097   -0.0475   -0.0480    0.0022    0.0462   -0.1539   -0.1066
          24   -0.0000    0.0003    0.0301   -0.0614   -0.0007    0.0451   -0.0001   -0.0495
          25    0.0028    0.0880   -0.0279   -0.0629    0.0244   -0.0182   -0.0334    0.1532
          26    0.0094   -0.0080    0.0383   -0.0056    0.0043   -0.0052   -0.0037    0.0816
          27   -0.2336   -0.0629    0.0486    0.0256   -0.0028    0.1637    0.0814    0.0455
          28   -0.0087    0.0273    0.0431    0.0081    0.0012   -0.0012   -0.0035    0.0467
          29   -0.0047   -0.0846   -0.0185   -0.0623   -0.0269   -0.0185    0.0335    0.1669
          30    0.2338    0.0637    0.0484    0.0255    0.0053    0.1634   -0.0820    0.0458
          31   -0.0235   -0.0288    0.0349   -0.0371    0.3451    0.0273   -0.0011   -0.0031
          32    0.0187    0.0237    0.0427   -0.0401   -0.2761    0.0356    0.0008   -0.0038
          33    0.0001    0.0004    0.0215   -0.0292   -0.0016    0.0312   -0.0001   -0.0126
          34    0.0120   -0.0915    0.0234    0.0231   -0.0068    0.0093    0.0163   -0.0435
          35    0.0217   -0.0600   -0.0359   -0.0536    0.0121   -0.0172   -0.0441    0.0947
          36   -0.1204   -0.0390    0.1796   -0.0441   -0.0344   -0.1344   -0.1869   -0.0124
          37   -0.0187    0.0384   -0.0405   -0.0574   -0.0153   -0.0187    0.0468    0.1024
          38   -0.0163    0.1024    0.0144    0.0111    0.0045    0.0054   -0.0066   -0.0223
          39    0.1205    0.0418    0.1793   -0.0448    0.0310   -0.1340    0.1876   -0.0127
          40    0.0230    0.0438   -0.0299    0.1239    0.0107   -0.0312   -0.0124    0.0361
          41   -0.0182   -0.0356   -0.0366    0.1563   -0.0043   -0.0388    0.0101    0.0455
          42   -0.0001    0.0003    0.0355   -0.0927   -0.0016    0.0258   -0.0000   -0.0223
          43   -0.0158   -0.0343    0.0395   -0.1034    0.2340    0.0367   -0.0155   -0.0356
          44    0.0126    0.0282    0.0484   -0.1250   -0.1898    0.0472    0.0120   -0.0447
          45    0.0000    0.0005    0.0301   -0.0666   -0.0019    0.0230   -0.0000   -0.0184


   Root No.      17        18        19        20        21        22        23        24

                17 A      18 A      19 A      20 A      21 A      22 A      23 A      24 A   

                1016.8    1028.0    1082.5    1089.7    1123.2    1164.0    1202.3    1204.9
  
           1    0.0118   -0.0008    0.0037   -0.0011   -0.0013    0.0043    0.0161    0.0354
           2   -0.0094    0.0006   -0.0030   -0.0012   -0.0016    0.0049    0.0206   -0.0283
           3   -0.0001    0.0001    0.0000    0.0052   -0.0274   -0.0665   -0.0195   -0.0000
           4   -0.0196    0.0019   -0.0093   -0.0073   -0.0348   -0.0113   -0.0237    0.0143
           5    0.0122   -0.0006    0.0191    0.0054    0.0110    0.0039    0.0075    0.0155
           6    0.0288   -0.0152   -0.0039   -0.0029    0.0140    0.0088   -0.0002   -0.0026
           7   -0.0161    0.0010   -0.0203    0.0077    0.0183    0.0061    0.0126   -0.0119
           8    0.0164   -0.0017    0.0046   -0.0062   -0.0316   -0.0101   -0.0213   -0.0176
           9   -0.0288    0.0151    0.0038   -0.0030    0.0140    0.0088   -0.0003    0.0026
          10    0.0063    0.0323   -0.0024    0.0000   -0.0014   -0.0038    0.0063   -0.0081
          11   -0.0050   -0.0257    0.0019   -0.0000   -0.0019   -0.0048    0.0076    0.0065
          12   -0.0000   -0.0001   -0.0000   -0.0022   -0.0065    0.0459    0.0651    0.0003
          13    0.0006    0.0007    0.0037   -0.0031   -0.0324   -0.0095   -0.0211   -0.0098
          14   -0.0012    0.0004    0.0001    0.0081    0.0078    0.0025    0.0025    0.0219
          15   -0.0266    0.0125    0.0019    0.0009   -0.0027   -0.0023   -0.0005    0.0013
          16    0.0013   -0.0002    0.0010    0.0085    0.0146    0.0044    0.0073   -0.0235
          17   -0.0004   -0.0008   -0.0037   -0.0012   -0.0300   -0.0088   -0.0201    0.0048
          18    0.0266   -0.0124   -0.0018    0.0010   -0.0027   -0.0023   -0.0005   -0.0013
          19   -0.0168   -0.0489    0.0017   -0.0004    0.0039   -0.0060    0.0120    0.0026
          20    0.0134    0.0390   -0.0014   -0.0005    0.0050   -0.0076    0.0153   -0.0019
          21    0.0001    0.0002    0.0000    0.0010    0.0048    0.0010   -0.0346   -0.0002
          22    0.2067   -0.0870   -0.0704   -0.0159    0.1746   -0.0799   -0.0685   -0.0946
          23   -0.1660    0.0692    0.0565   -0.0222    0.2173   -0.0984   -0.0869    0.0756
          24    0.0001   -0.0003   -0.0000   -0.0099    0.1493   -0.1507   -0.1025   -0.0003
          25   -0.0322   -0.0003    0.1638   -0.1629    0.0803    0.0151    0.0311   -0.1640
          26    0.0059   -0.0028    0.1303   -0.0928    0.0880    0.0224    0.0447   -0.0984
          27   -0.0709    0.0373    0.0093    0.0051   -0.0235   -0.0237   -0.0000    0.0006
          28   -0.0129    0.0027   -0.0939   -0.0518    0.0689    0.0190    0.0361    0.0615
          29    0.0294    0.0008   -0.1942   -0.1710    0.0977    0.0210    0.0373    0.1820
          30    0.0708   -0.0369   -0.0091    0.0055   -0.0237   -0.0238   -0.0000   -0.0005
          31   -0.0077   -0.0932    0.0027   -0.0012    0.0149    0.2268   -0.1515    0.0144
          32    0.0063    0.0744   -0.0020   -0.0015    0.0190    0.2831   -0.1899   -0.0143
          33    0.0001    0.0004    0.0000   -0.0031    0.0057    0.2402   -0.0645   -0.0009
          34    0.0210   -0.0019    0.0645   -0.0853   -0.0526   -0.0132   -0.0263    0.0453
          35   -0.0720    0.0114   -0.1869    0.2648    0.0636    0.0117    0.0122   -0.1501
          36    0.0814   -0.0363   -0.0048    0.0021   -0.0033   -0.0065   -0.0019   -0.0020
          37    0.0747   -0.0116    0.2058    0.2691    0.0727    0.0148    0.0155    0.1559
          38   -0.0051   -0.0006   -0.0240   -0.0258   -0.0377   -0.0105   -0.0229   -0.0122
          39   -0.0814    0.0362    0.0049    0.0019   -0.0033   -0.0065   -0.0019    0.0020
          40    0.0742    0.1958   -0.0048    0.0002    0.0314   -0.0174   -0.0360    0.0010
          41   -0.0590   -0.1560    0.0039    0.0002    0.0392   -0.0218   -0.0453   -0.0009
          42   -0.0003   -0.0007   -0.0000    0.0001   -0.0261    0.0183    0.0246    0.0000
          43    0.0635    0.1630   -0.0067   -0.0035    0.0043    0.0245    0.0857   -0.0081
          44   -0.0507   -0.1298    0.0053   -0.0046    0.0051    0.0309    0.1075    0.0075
          45   -0.0002   -0.0005    0.0000   -0.0018    0.0020    0.0327    0.0331    0.0002


   Root No.      25        26        27        28        29        30        31        32

                25 A      26 A      27 A      28 A      29 A      30 A      31 A      32 A   

                1308.7    1313.1    1386.2    1421.1    1728.9    1787.8    1860.8    2888.9
  
           1   -0.0321    0.1035   -0.0376    0.0470   -0.0112   -0.0003   -0.0202    0.0242
           2   -0.0392   -0.0835   -0.0471    0.0585   -0.0140    0.0002   -0.0253    0.0301
           3   -0.0208    0.0001   -0.0429    0.0344   -0.0026   -0.0000   -0.0248   -0.0604
           4    0.0163   -0.0805   -0.0068   -0.0444    0.0511   -0.0560   -0.0023    0.0011
           5   -0.0062    0.0135   -0.0109   -0.0058    0.1304   -0.1140   -0.0042    0.0002
           6    0.0038   -0.0037    0.0047   -0.0044    0.0037   -0.0029   -0.0013   -0.0002
           7   -0.0093   -0.0305   -0.0093    0.0038    0.1165    0.0993   -0.0037   -0.0000
           8    0.0141    0.0759   -0.0087   -0.0445    0.0779    0.0791   -0.0032    0.0011
           9    0.0038    0.0037    0.0047   -0.0044    0.0037    0.0029   -0.0013   -0.0002
          10   -0.0174   -0.0123    0.0117   -0.0064    0.0027    0.0026    0.1439   -0.0005
          11   -0.0221    0.0096    0.0144   -0.0078    0.0033   -0.0019    0.1806   -0.0006
          12    0.0151   -0.0000    0.0370   -0.0272    0.0001    0.0000    0.0279    0.0015
          13    0.0249    0.0211    0.0597    0.0452   -0.0309    0.0421    0.0027   -0.0002
          14   -0.0042   -0.0195   -0.0294   -0.0442   -0.1265    0.1288    0.0039   -0.0006
          15   -0.0003    0.0010   -0.0004    0.0004   -0.0026    0.0029   -0.0000   -0.0002
          16   -0.0096    0.0237   -0.0414   -0.0528   -0.1169   -0.1168    0.0033   -0.0005
          17    0.0235   -0.0165    0.0520    0.0347   -0.0573   -0.0687    0.0035   -0.0003
          18   -0.0003   -0.0010   -0.0004    0.0005   -0.0026   -0.0029   -0.0000   -0.0002
          19   -0.0015    0.0037    0.0215   -0.0164   -0.0028   -0.0002   -0.1240   -0.0000
          20   -0.0019   -0.0029    0.0270   -0.0207   -0.0035    0.0001   -0.1558   -0.0000
          21   -0.0021    0.0000   -0.0067    0.0036    0.0006    0.0000    0.0088   -0.0005
          22    0.0183   -0.1129    0.0456   -0.0309    0.0037    0.0266    0.0247   -0.2907
          23    0.0218    0.0907    0.0570   -0.0385    0.0046   -0.0214    0.0310   -0.3612
          24    0.0309    0.0001    0.0425   -0.0435    0.0047    0.0000    0.0189    0.7392
          25   -0.0062   -0.0100    0.0462    0.0839   -0.0901    0.0744    0.0017   -0.0012
          26   -0.0228    0.0584    0.0196    0.0762    0.0697   -0.0578   -0.0032    0.0043
          27   -0.0067    0.0050   -0.0078    0.0083   -0.0011    0.0002   -0.0005   -0.0009
          28   -0.0206   -0.0595    0.0090    0.0563    0.0875    0.0725   -0.0036    0.0045
          29   -0.0111   -0.0035    0.0493    0.0982   -0.0730   -0.0602    0.0011   -0.0002
          30   -0.0067   -0.0050   -0.0078    0.0083   -0.0011   -0.0002   -0.0005   -0.0009
          31   -0.0230    0.0244   -0.0311    0.0254    0.0004   -0.0006   -0.0010    0.0095
          32   -0.0286   -0.0207   -0.0390    0.0318    0.0006    0.0005   -0.0008    0.0119
          33    0.0129   -0.0005    0.0025   -0.0022   -0.0023   -0.0000   -0.1382   -0.0189
          34    0.0218   -0.0319    0.0318    0.0055   -0.0875    0.1171    0.0049   -0.0044
          35    0.0148    0.1449    0.0745    0.0818   -0.0332   -0.0356    0.0029   -0.0017
          36   -0.0018    0.0019   -0.0030    0.0048   -0.0014    0.0000   -0.0005   -0.0010
          37    0.0106   -0.1484    0.0654    0.0785   -0.0138    0.0598    0.0018   -0.0007
          38    0.0245    0.0001    0.0470    0.0229   -0.0926   -0.1068    0.0054   -0.0046
          39   -0.0018   -0.0019   -0.0030    0.0048   -0.0014   -0.0000   -0.0005   -0.0010
          40    0.1585    0.0111   -0.0774    0.0376    0.0004   -0.0010   -0.0223   -0.0009
          41    0.1997   -0.0065   -0.0976    0.0474    0.0005    0.0008   -0.0270   -0.0011
          42   -0.1734   -0.0012    0.1051   -0.0588   -0.0036   -0.0000   -0.1458   -0.0015
          43    0.1838   -0.0142   -0.0630    0.0288   -0.0003    0.0013   -0.0014   -0.0026
          44    0.2299    0.0137   -0.0789    0.0361   -0.0004   -0.0010   -0.0022   -0.0032
          45    0.1555    0.0010   -0.0797    0.0433    0.0037    0.0001    0.1567    0.0027


   Root No.      33        34        35        36        37        38        39

                33 A      34 A      35 A      36 A      37 A      38 A      39 A   

                3048.3    3132.0    3134.6    3134.7    3146.8    3147.8    3157.0
  
           1    0.0006   -0.0002    0.0001    0.0003    0.0004   -0.0000   -0.0007
           2    0.0008    0.0002    0.0001    0.0003    0.0004    0.0000   -0.0008
           3   -0.0017    0.0000    0.0003    0.0001   -0.0002    0.0000    0.0002
           4   -0.0001   -0.0072   -0.0027    0.0082   -0.0003   -0.0124    0.0110
           5   -0.0000    0.0102    0.0040   -0.0122    0.0004    0.0243   -0.0218
           6   -0.0002    0.0002    0.0001   -0.0002    0.0000    0.0005   -0.0004
           7   -0.0000   -0.0121    0.0044   -0.0133    0.0004   -0.0266   -0.0235
           8   -0.0001    0.0051   -0.0018    0.0053   -0.0002    0.0070    0.0061
           9   -0.0002   -0.0002    0.0001   -0.0002    0.0000   -0.0005   -0.0004
          10    0.0228   -0.0001   -0.0015   -0.0003    0.0055   -0.0001    0.0001
          11    0.0289    0.0000   -0.0018   -0.0003    0.0070    0.0000    0.0001
          12   -0.0597   -0.0000   -0.0010   -0.0002   -0.0051    0.0000   -0.0000
          13   -0.0000    0.0246    0.0065   -0.0186   -0.0002   -0.0133    0.0184
          14   -0.0000    0.0086    0.0021   -0.0061   -0.0001   -0.0070    0.0078
          15   -0.0000    0.0005    0.0001   -0.0004   -0.0000   -0.0003    0.0004
          16   -0.0000   -0.0032    0.0007   -0.0018   -0.0001    0.0040    0.0036
          17   -0.0000   -0.0268    0.0065   -0.0188   -0.0002    0.0145    0.0194
          18   -0.0000   -0.0005    0.0001   -0.0003   -0.0000    0.0003    0.0004
          19   -0.0008   -0.0000    0.0106    0.0020   -0.0283   -0.0000   -0.0002
          20   -0.0010   -0.0000    0.0135    0.0025   -0.0354    0.0000   -0.0003
          21    0.0056    0.0000   -0.0454   -0.0088   -0.0317    0.0000   -0.0000
          22   -0.0047   -0.0006    0.0015    0.0003   -0.0009   -0.0009    0.0013
          23   -0.0059    0.0005    0.0019    0.0004   -0.0011    0.0008    0.0016
          24    0.0206    0.0000   -0.0010   -0.0000    0.0035   -0.0000   -0.0032
          25    0.0001    0.0829    0.0319   -0.0963    0.0028    0.1618   -0.1350
          26   -0.0001   -0.1283   -0.0499    0.1504   -0.0044   -0.2546    0.2129
          27   -0.0001   -0.0026   -0.0010    0.0030   -0.0002   -0.0052    0.0043
          28   -0.0001    0.1495   -0.0536    0.1622   -0.0045    0.2854    0.2360
          29    0.0001   -0.0558    0.0198   -0.0599    0.0017   -0.1042   -0.0859
          30   -0.0001    0.0027   -0.0009    0.0029   -0.0001    0.0052    0.0043
          31   -0.2317    0.0000   -0.0051   -0.0010   -0.0197   -0.0000   -0.0002
          32   -0.2938   -0.0000   -0.0064   -0.0013   -0.0249    0.0000   -0.0003
          33    0.7145    0.0000    0.0095    0.0020    0.0553   -0.0000    0.0005
          34   -0.0001   -0.2839   -0.0748    0.2156    0.0020    0.1461   -0.1886
          35   -0.0000   -0.0920   -0.0237    0.0681    0.0007    0.0483   -0.0606
          36    0.0001   -0.0055   -0.0014    0.0041    0.0000    0.0029   -0.0036
          37    0.0000    0.0300   -0.0068    0.0195    0.0002   -0.0159   -0.0187
          38   -0.0001    0.3075   -0.0748    0.2166    0.0019   -0.1531   -0.1954
          39    0.0001    0.0057   -0.0014    0.0039    0.0000   -0.0029   -0.0036
          40   -0.0283    0.0000    0.0518    0.0104    0.2414   -0.0000    0.0015
          41   -0.0353   -0.0001    0.0645    0.0130    0.3005   -0.0001    0.0018
          42   -0.0708   -0.0000    0.0958    0.0194    0.5468   -0.0002    0.0035
          43   -0.0036    0.0001   -0.1585   -0.0304    0.0470   -0.0000    0.0011
          44   -0.0046    0.0001   -0.2008   -0.0385    0.0597   -0.0001    0.0013
          45    0.0062   -0.0002    0.4458    0.0853   -0.1651    0.0001   -0.0032


           MASS-WEIGHTED COORDINATE ANALYSIS (NORMAL COORDINATES)


   Root No.       1         2         3         4         5         6         7         8

                 1 A       2 A       3 A       4 A       5 A       6 A       7 A       8 A   

                  31.9     147.2     285.2     398.8     489.8     493.4     642.5     739.0
  
           1   -0.1994   -0.0567   -0.2301    0.0218   -0.0002    0.0373    0.0478    0.1583
           2    0.1600   -0.0702    0.1845    0.0295   -0.0024   -0.0296   -0.0390    0.1967
           3    0.0001    0.3775   -0.0006    0.1575   -0.3137    0.0114   -0.0007   -0.1591
           4   -0.1970   -0.0512   -0.2337    0.0690    0.0312    0.0332    0.1493    0.1411
           5   -0.0904   -0.0696   -0.0264    0.1461    0.1386   -0.0095    0.0072   -0.1737
           6   -0.0166    0.2705   -0.1638   -0.0932    0.3494    0.2974    0.0615   -0.1298
           7    0.0454   -0.0570   -0.0252    0.1275    0.1294    0.0064    0.0260   -0.1999
           8    0.2113   -0.0646    0.2331    0.1016    0.0588   -0.0349   -0.1474    0.1009
           9    0.0164    0.2695    0.1639   -0.0936    0.3271   -0.3220   -0.0612   -0.1294
          10   -0.2863    0.1296    0.2772   -0.2027   -0.1587    0.0294   -0.3837    0.0301
          11    0.2286    0.1600   -0.2205   -0.2553   -0.2001   -0.0109    0.3058    0.0365
          12    0.0008    0.1454   -0.0020    0.4021   -0.2751    0.0098    0.0001    0.2170
          13    0.0124   -0.0471   -0.0383    0.1036    0.0991    0.0013    0.0800   -0.0691
          14   -0.1652   -0.0602   -0.1029    0.1394    0.1388    0.0211    0.0455   -0.1297
          15   -0.0113   -0.3500   -0.2349    0.0496   -0.0965   -0.3835   -0.0581   -0.1248
          16    0.1635   -0.0486    0.0915    0.1148    0.1127   -0.0290   -0.0267   -0.1119
          17    0.0225   -0.0589    0.0583    0.1321    0.1263   -0.0155   -0.0871   -0.0949
          18    0.0107   -0.3504    0.2349    0.0516   -0.0679    0.3895    0.0578   -0.1246
          19    0.4244    0.1154    0.0977   -0.2380   -0.1765   -0.0230    0.0237    0.0390
          20   -0.3373    0.1440   -0.0775   -0.2981   -0.2183    0.0322   -0.0185    0.0485
          21   -0.0003   -0.2944    0.0023   -0.3592   -0.0640    0.0025    0.0000    0.0447
          22   -0.0767   -0.0425   -0.0991    0.0575   -0.0450   -0.0767    0.0561    0.1178
          23    0.0618   -0.0526    0.0791    0.0728   -0.0496    0.0648   -0.0450    0.1464
          24    0.0001    0.0787   -0.0004    0.0942   -0.1281    0.0046    0.0000    0.0274
          25   -0.1013   -0.0164   -0.1135    0.0322    0.0271    0.0187    0.0667    0.0072
          26   -0.0541   -0.0228   -0.0355    0.0513    0.0463    0.0006    0.0149   -0.0804
          27   -0.0098    0.1594   -0.1158   -0.0890    0.3625    0.2138    0.1412    0.3567
          28    0.0309   -0.0187    0.0101    0.0433    0.0396    0.0004    0.0000   -0.0799
          29    0.1103   -0.0207    0.1183    0.0438    0.0355   -0.0212   -0.0682   -0.0099
          30    0.0098    0.1588    0.1159   -0.0889    0.3464   -0.2398   -0.1394    0.3562
          31   -0.2715    0.0914    0.3207   -0.0335   -0.0923   -0.0803    0.0104   -0.0037
          32    0.2163    0.1125   -0.2561   -0.0438   -0.1079    0.0709   -0.0082   -0.0051
          33    0.0008    0.0862   -0.0016    0.1317   -0.1141    0.0044   -0.0004    0.0492
          34    0.0196   -0.0123    0.0060    0.0323    0.0324    0.0010    0.0107   -0.0433
          35   -0.0972   -0.0147   -0.0774    0.0345    0.0302    0.0217    0.0554    0.0080
          36   -0.0061   -0.2148   -0.1685    0.0188   -0.0199   -0.4000   -0.0453    0.3819
          37    0.0991   -0.0116    0.0768    0.0276    0.0213   -0.0227   -0.0518    0.0172
          38    0.0014   -0.0152    0.0103    0.0392    0.0377   -0.0085   -0.0221   -0.0405
          39    0.0059   -0.2150    0.1685    0.0206    0.0095    0.4002    0.0462    0.3815
          40    0.1149    0.0886    0.2289    0.0563   -0.0925   -0.1414    0.5201    0.0951
          41   -0.0919    0.1101   -0.1832    0.0691   -0.1036    0.1192   -0.4150    0.1199
          42    0.0002   -0.1494    0.0005   -0.2540    0.0215   -0.0001   -0.0014   -0.0871
          43    0.3125   -0.0244   -0.2201   -0.2016   -0.0184    0.1091   -0.3235   -0.0677
          44   -0.2483   -0.0293    0.1764   -0.2509   -0.0327   -0.0847    0.2584   -0.0844
          45   -0.0005   -0.1385    0.0019   -0.2298    0.0082   -0.0005    0.0013   -0.0640


   Root No.       9        10        11        12        13        14        15        16

                 9 A      10 A      11 A      12 A      13 A      14 A      15 A      16 A   

                 805.2     821.5     824.1     925.9     931.4     956.9     973.8    1007.6
  
           1   -0.0254    0.2094   -0.2265   -0.0237   -0.0086   -0.0186    0.0403   -0.1971
           2    0.0208   -0.1710   -0.2791   -0.0292    0.0066   -0.0233   -0.0328   -0.2454
           3   -0.0003    0.0015    0.2684   -0.2253   -0.0032    0.0483   -0.0000    0.1299
           4    0.0498    0.0079   -0.2846   -0.2598    0.0483   -0.0764   -0.1219    0.1617
           5    0.0468   -0.3209    0.2276    0.1169   -0.0359    0.0406    0.0702   -0.0268
           6    0.2649    0.0507   -0.1406   -0.0364    0.0053   -0.2992   -0.1238   -0.1320
           7   -0.0354    0.3184    0.2799    0.1695    0.0493    0.0552   -0.0945   -0.0612
           8   -0.0585    0.0583   -0.2300   -0.2283   -0.0449   -0.0651    0.1040    0.1521
           9   -0.2649   -0.0523   -0.1403   -0.0361   -0.0077   -0.2987    0.1247   -0.1331
          10   -0.0324   -0.0129    0.0146    0.0567   -0.2803   -0.0017    0.0170    0.0157
          11    0.0260    0.0105    0.0182    0.0641    0.2247   -0.0047   -0.0135    0.0203
          12    0.0002   -0.0004   -0.0504    0.0512    0.0016    0.0620   -0.0004   -0.0766
          13    0.1125   -0.5308    0.0665    0.0338   -0.0225    0.0061   -0.0066   -0.1343
          14    0.0330   -0.1010    0.1423    0.0364   -0.0004    0.0045   -0.0253    0.0411
          15    0.1970    0.0275   -0.1258    0.0498    0.0427    0.2307    0.3334    0.0427
          16   -0.0083   -0.0138    0.1250    0.0285   -0.0039    0.0032    0.0235    0.0687
          17   -0.1172    0.5412    0.0894    0.0406    0.0230    0.0067    0.0118   -0.1222
          18   -0.1971   -0.0289   -0.1255    0.0509   -0.0396    0.2298   -0.3342    0.0437
          19   -0.0082   -0.0015    0.0226    0.0944   -0.0744    0.0017    0.0247    0.0228
          20    0.0068    0.0016    0.0284    0.1145    0.0618    0.0013   -0.0197    0.0279
          21    0.0000   -0.0002   -0.0330    0.3437    0.0043   -0.1074    0.0005    0.1520
          22   -0.1161    0.0169   -0.0806   -0.0921   -0.0057    0.0951    0.4117   -0.2136
          23    0.0937   -0.0144   -0.0994   -0.1141    0.0037    0.1167   -0.3316   -0.2667
          24   -0.0000    0.0004    0.0630   -0.1459   -0.0013    0.1138   -0.0001   -0.1238
          25    0.0063    0.1305   -0.0583   -0.1492    0.0417   -0.0459   -0.0720    0.3832
          26    0.0213   -0.0118    0.0801   -0.0132    0.0074   -0.0131   -0.0080    0.2041
          27   -0.5262   -0.0933    0.1016    0.0608   -0.0048    0.4135    0.1755    0.1138
          28   -0.0195    0.0406    0.0902    0.0192    0.0020   -0.0029   -0.0075    0.1169
          29   -0.0107   -0.1255   -0.0386   -0.1480   -0.0460   -0.0468    0.0722    0.4174
          30    0.5267    0.0944    0.1011    0.0605    0.0091    0.4129   -0.1767    0.1146
          31   -0.0530   -0.0426    0.0731   -0.0882    0.5902    0.0690   -0.0024   -0.0077
          32    0.0422    0.0352    0.0893   -0.0952   -0.4722    0.0899    0.0017   -0.0094
          33    0.0002    0.0005    0.0449   -0.0693   -0.0028    0.0788   -0.0002   -0.0315
          34    0.0269   -0.1357    0.0489    0.0550   -0.0117    0.0235    0.0351   -0.1089
          35    0.0489   -0.0889   -0.0751   -0.1272    0.0206   -0.0435   -0.0949    0.2369
          36   -0.2713   -0.0578    0.3756   -0.1048   -0.0588   -0.3396   -0.4028   -0.0310
          37   -0.0421    0.0569   -0.0848   -0.1363   -0.0261   -0.0472    0.1008    0.2561
          38   -0.0368    0.1519    0.0300    0.0265    0.0077    0.0136   -0.0141   -0.0558
          39    0.2715    0.0620    0.3751   -0.1063    0.0530   -0.3386    0.4042   -0.0319
          40    0.0518    0.0650   -0.0626    0.2941    0.0183   -0.0789   -0.0266    0.0902
          41   -0.0411   -0.0528   -0.0765    0.3710   -0.0073   -0.0981    0.0218    0.1139
          42   -0.0003    0.0004    0.0743   -0.2201   -0.0027    0.0651   -0.0001   -0.0559
          43   -0.0357   -0.0509    0.0827   -0.2454    0.4002    0.0926   -0.0334   -0.0892
          44    0.0284    0.0419    0.1012   -0.2967   -0.3246    0.1193    0.0259   -0.1117
          45    0.0001    0.0007    0.0631   -0.1581   -0.0032    0.0580   -0.0001   -0.0460


   Root No.      17        18        19        20        21        22        23        24

                17 A      18 A      19 A      20 A      21 A      22 A      23 A      24 A   

                1016.8    1028.0    1082.5    1089.7    1123.2    1164.0    1202.3    1204.9
  
           1    0.0957   -0.0059    0.0294   -0.0080   -0.0097    0.0260    0.1168    0.2816
           2   -0.0764    0.0046   -0.0237   -0.0089   -0.0121    0.0297    0.1494   -0.2253
           3   -0.0004    0.0005    0.0002    0.0378   -0.2013   -0.4041   -0.1418   -0.0000
           4   -0.1590    0.0139   -0.0728   -0.0531   -0.2556   -0.0685   -0.1720    0.1138
           5    0.0994   -0.0045    0.1505    0.0398    0.0812    0.0238    0.0544    0.1231
           6    0.2339   -0.1134   -0.0303   -0.0209    0.1028    0.0533   -0.0017   -0.0206
           7   -0.1305    0.0074   -0.1600    0.0564    0.1345    0.0369    0.0913   -0.0947
           8    0.1329   -0.0126    0.0363   -0.0455   -0.2324   -0.0613   -0.1550   -0.1397
           9   -0.2337    0.1123    0.0298   -0.0219    0.1030    0.0535   -0.0019    0.0204
          10    0.0514    0.2408   -0.0190    0.0000   -0.0100   -0.0233    0.0460   -0.0645
          11   -0.0407   -0.1914    0.0151   -0.0003   -0.0138   -0.0291    0.0553    0.0521
          12   -0.0001   -0.0004   -0.0001   -0.0160   -0.0481    0.2789    0.4731    0.0025
          13    0.0052    0.0053    0.0291   -0.0229   -0.2383   -0.0579   -0.1532   -0.0780
          14   -0.0094    0.0026    0.0010    0.0595    0.0574    0.0152    0.0183    0.1741
          15   -0.2158    0.0928    0.0146    0.0066   -0.0196   -0.0141   -0.0038    0.0105
          16    0.0103   -0.0015    0.0076    0.0622    0.1071    0.0266    0.0531   -0.1867
          17   -0.0029   -0.0058   -0.0293   -0.0085   -0.2205   -0.0535   -0.1460    0.0378
          18    0.2158   -0.0926   -0.0144    0.0071   -0.0197   -0.0143   -0.0037   -0.0105
          19   -0.1367   -0.3648    0.0134   -0.0031    0.0285   -0.0366    0.0875    0.0209
          20    0.1089    0.2904   -0.0106   -0.0036    0.0364   -0.0465    0.1110   -0.0149
          21    0.0007    0.0013    0.0001    0.0072    0.0352    0.0058   -0.2511   -0.0016
          22    0.4859   -0.1877   -0.1604   -0.0337    0.3719   -0.1406   -0.1442   -0.2181
          23   -0.3903    0.1495    0.1287   -0.0469    0.4629   -0.1732   -0.1830    0.1743
          24    0.0002   -0.0007   -0.0001   -0.0211    0.3180   -0.2653   -0.2157   -0.0007
          25   -0.0758   -0.0006    0.3733   -0.3449    0.1711    0.0265    0.0654   -0.3781
          26    0.0140   -0.0061    0.2969   -0.1966    0.1875    0.0394    0.0940   -0.2269
          27   -0.1666    0.0806    0.0212    0.0109   -0.0501   -0.0417   -0.0001    0.0013
          28   -0.0302    0.0058   -0.2140   -0.1097    0.1468    0.0334    0.0761    0.1418
          29    0.0692    0.0018   -0.4424   -0.3620    0.2082    0.0370    0.0786    0.4196
          30    0.1665   -0.0798   -0.0208    0.0116   -0.0504   -0.0418   -0.0001   -0.0012
          31   -0.0182   -0.2013    0.0061   -0.0026    0.0316    0.3992   -0.3189    0.0332
          32    0.0149    0.1607   -0.0046   -0.0032    0.0404    0.4983   -0.3996   -0.0329
          33    0.0002    0.0009    0.0000   -0.0067    0.0121    0.4229   -0.1358   -0.0022
          34    0.0494   -0.0040    0.1469   -0.1806   -0.1119   -0.0232   -0.0554    0.1043
          35   -0.1693    0.0247   -0.4259    0.5606    0.1355    0.0207    0.0258   -0.3461
          36    0.1913   -0.0783   -0.0110    0.0045   -0.0069   -0.0115   -0.0040   -0.0046
          37    0.1757   -0.0251    0.4689    0.5698    0.1550    0.0261    0.0326    0.3594
          38   -0.0119   -0.0014   -0.0546   -0.0545   -0.0802   -0.0184   -0.0482   -0.0281
          39   -0.1913    0.0781    0.0111    0.0041   -0.0070   -0.0114   -0.0040    0.0045
          40    0.1743    0.4227   -0.0109    0.0004    0.0670   -0.0306   -0.0757    0.0023
          41   -0.1387   -0.3367    0.0089    0.0003    0.0836   -0.0383   -0.0952   -0.0022
          42   -0.0007   -0.0016   -0.0000    0.0002   -0.0556    0.0322    0.0518    0.0001
          43    0.1494    0.3518   -0.0152   -0.0074    0.0092    0.0432    0.1805   -0.0187
          44   -0.1191   -0.2803    0.0120   -0.0097    0.0109    0.0545    0.2262    0.0173
          45   -0.0005   -0.0011    0.0000   -0.0038    0.0044    0.0576    0.0697    0.0004


   Root No.      25        26        27        28        29        30        31        32

                25 A      26 A      27 A      28 A      29 A      30 A      31 A      32 A   

                1308.7    1313.1    1386.2    1421.1    1728.9    1787.8    1860.8    2888.9
  
           1   -0.2086    0.5230   -0.2451    0.2968   -0.0404   -0.0011   -0.0636    0.0921
           2   -0.2545   -0.4218   -0.3068    0.3689   -0.0502    0.0008   -0.0795    0.1145
           3   -0.1348    0.0004   -0.2793    0.2173   -0.0095   -0.0000   -0.0779   -0.2298
           4    0.1057   -0.4065   -0.0442   -0.2798    0.1838   -0.2071   -0.0074    0.0040
           5   -0.0402    0.0683   -0.0707   -0.0369    0.4694   -0.4215   -0.0132    0.0008
           6    0.0247   -0.0185    0.0304   -0.0279    0.0133   -0.0108   -0.0039   -0.0006
           7   -0.0606   -0.1542   -0.0603    0.0238    0.4191    0.3673   -0.0117   -0.0001
           8    0.0916    0.3837   -0.0567   -0.2808    0.2802    0.2924   -0.0102    0.0041
           9    0.0246    0.0184    0.0306   -0.0278    0.0134    0.0108   -0.0041   -0.0006
          10   -0.1133   -0.0623    0.0759   -0.0403    0.0095    0.0095    0.4521   -0.0018
          11   -0.1434    0.0484    0.0937   -0.0493    0.0120   -0.0072    0.5674   -0.0023
          12    0.0979   -0.0001    0.2411   -0.1715    0.0002    0.0001    0.0875    0.0056
          13    0.1616    0.1064    0.3887    0.2853   -0.1112    0.1556    0.0084   -0.0009
          14   -0.0273   -0.0984   -0.1912   -0.2787   -0.4551    0.4764    0.0122   -0.0021
          15   -0.0019    0.0050   -0.0029    0.0028   -0.0094    0.0107   -0.0001   -0.0008
          16   -0.0621    0.1198   -0.2694   -0.3330   -0.4207   -0.4320    0.0105   -0.0019
          17    0.1527   -0.0831    0.3384    0.2189   -0.2062   -0.2539    0.0109   -0.0013
          18   -0.0018   -0.0050   -0.0029    0.0028   -0.0094   -0.0107   -0.0001   -0.0008
          19   -0.0100    0.0186    0.1399   -0.1037   -0.0101   -0.0008   -0.3895   -0.0001
          20   -0.0123   -0.0147    0.1759   -0.1305   -0.0127    0.0003   -0.4895   -0.0001
          21   -0.0138    0.0000   -0.0435    0.0227    0.0021    0.0000    0.0277   -0.0020
          22    0.0345   -0.1652    0.0860   -0.0565    0.0038    0.0285    0.0225   -0.3204
          23    0.0410    0.1327    0.1076   -0.0704    0.0048   -0.0229    0.0282   -0.3980
          24    0.0582    0.0001    0.0802   -0.0795    0.0049    0.0000    0.0172    0.8146
          25   -0.0117   -0.0146    0.0872    0.1534   -0.0940    0.0797    0.0016   -0.0013
          26   -0.0429    0.0854    0.0370    0.1392    0.0727   -0.0619   -0.0029    0.0048
          27   -0.0126    0.0074   -0.0147    0.0152   -0.0011    0.0002   -0.0005   -0.0010
          28   -0.0388   -0.0872    0.0170    0.1029    0.0912    0.0777   -0.0033    0.0049
          29   -0.0208   -0.0050    0.0929    0.1795   -0.0762   -0.0645    0.0010   -0.0003
          30   -0.0125   -0.0073   -0.0147    0.0152   -0.0011   -0.0002   -0.0005   -0.0010
          31   -0.0433    0.0358   -0.0586    0.0464    0.0005   -0.0007   -0.0009    0.0104
          32   -0.0539   -0.0303   -0.0735    0.0581    0.0006    0.0005   -0.0008    0.0132
          33    0.0244   -0.0007    0.0047   -0.0039   -0.0024   -0.0000   -0.1258   -0.0209
          34    0.0410   -0.0467    0.0600    0.0101   -0.0912    0.1255    0.0044   -0.0048
          35    0.0278    0.2121    0.1405    0.1496   -0.0346   -0.0381    0.0026   -0.0019
          36   -0.0034    0.0028   -0.0057    0.0088   -0.0015    0.0001   -0.0004   -0.0011
          37    0.0199   -0.2172    0.1233    0.1435   -0.0144    0.0640    0.0016   -0.0008
          38    0.0461    0.0002    0.0886    0.0418   -0.0965   -0.1144    0.0050   -0.0051
          39   -0.0034   -0.0028   -0.0057    0.0089   -0.0015   -0.0001   -0.0004   -0.0011
          40    0.2983    0.0163   -0.1459    0.0687    0.0004   -0.0011   -0.0203   -0.0010
          41    0.3758   -0.0096   -0.1841    0.0867    0.0005    0.0009   -0.0246   -0.0013
          42   -0.3263   -0.0018    0.1982   -0.1075   -0.0038   -0.0001   -0.1327   -0.0017
          43    0.3459   -0.0208   -0.1189    0.0527   -0.0003    0.0014   -0.0013   -0.0028
          44    0.4327    0.0200   -0.1488    0.0660   -0.0004   -0.0011   -0.0020   -0.0035
          45    0.2926    0.0015   -0.1502    0.0791    0.0038    0.0001    0.1426    0.0030


   Root No.      33        34        35        36        37        38        39

                33 A      34 A      35 A      36 A      37 A      38 A      39 A   

                3048.3    3132.0    3134.6    3134.7    3146.8    3147.8    3157.0
  
           1    0.0026   -0.0013    0.0004    0.0022    0.0017   -0.0002   -0.0049
           2    0.0032    0.0011    0.0006    0.0027    0.0021    0.0001   -0.0060
           3   -0.0070    0.0000    0.0017    0.0005   -0.0010    0.0000    0.0016
           4   -0.0004   -0.0494   -0.0166    0.0661   -0.0013   -0.0851    0.0795
           5   -0.0001    0.0702    0.0242   -0.0980    0.0021    0.1662   -0.1573
           6   -0.0006    0.0014    0.0005   -0.0019    0.0001    0.0034   -0.0032
           7   -0.0001   -0.0826    0.0263   -0.1064    0.0021   -0.1819   -0.1701
           8   -0.0004    0.0347   -0.0106    0.0421   -0.0008    0.0479    0.0438
           9   -0.0007   -0.0014    0.0005   -0.0019    0.0000   -0.0034   -0.0031
          10    0.0930   -0.0003   -0.0089   -0.0022    0.0265   -0.0004    0.0006
          11    0.1178    0.0003   -0.0111   -0.0028    0.0333    0.0003    0.0008
          12   -0.2434   -0.0000   -0.0061   -0.0019   -0.0243    0.0000   -0.0001
          13   -0.0001    0.1682    0.0389   -0.1494   -0.0010   -0.0912    0.1327
          14   -0.0001    0.0587    0.0128   -0.0485   -0.0005   -0.0480    0.0561
          15   -0.0001    0.0033    0.0008   -0.0028   -0.0000   -0.0021    0.0028
          16   -0.0001   -0.0220    0.0040   -0.0148   -0.0003    0.0275    0.0262
          17   -0.0001   -0.1832    0.0390   -0.1503   -0.0010    0.0995    0.1404
          18   -0.0001   -0.0034    0.0007   -0.0027   -0.0000    0.0021    0.0027
          19   -0.0032   -0.0001    0.0637    0.0159   -0.1352   -0.0000   -0.0018
          20   -0.0041   -0.0000    0.0811    0.0202   -0.1691    0.0001   -0.0023
          21    0.0226    0.0001   -0.2736   -0.0704   -0.1513    0.0000   -0.0001
          22   -0.0056   -0.0012    0.0027    0.0007   -0.0013   -0.0019    0.0027
          23   -0.0069    0.0010    0.0034    0.0009   -0.0016    0.0015    0.0033
          24    0.0243    0.0000   -0.0018   -0.0001    0.0049   -0.0000   -0.0066
          25    0.0001    0.1645    0.0557   -0.2237    0.0039    0.3211   -0.2827
          26   -0.0001   -0.2546   -0.0870    0.3492   -0.0061   -0.5051    0.4458
          27   -0.0001   -0.0051   -0.0017    0.0070   -0.0002   -0.0102    0.0091
          28   -0.0002    0.2967   -0.0936    0.3766   -0.0062    0.5663    0.4942
          29    0.0001   -0.1108    0.0345   -0.1390    0.0023   -0.2068   -0.1799
          30   -0.0001    0.0053   -0.0016    0.0068   -0.0002    0.0103    0.0090
          31   -0.2736    0.0001   -0.0088   -0.0024   -0.0272   -0.0001   -0.0004
          32   -0.3470   -0.0001   -0.0112   -0.0030   -0.0345    0.0001   -0.0005
          33    0.8437    0.0000    0.0166    0.0047    0.0766   -0.0000    0.0010
          34   -0.0001   -0.5632   -0.1305    0.5007    0.0028    0.2898   -0.3949
          35   -0.0000   -0.1824   -0.0413    0.1581    0.0009    0.0959   -0.1269
          36    0.0001   -0.0108   -0.0025    0.0095    0.0000    0.0057   -0.0076
          37    0.0000    0.0596   -0.0118    0.0454    0.0003   -0.0316   -0.0391
          38   -0.0001    0.6102   -0.1304    0.5029    0.0026   -0.3037   -0.4092
          39    0.0001    0.0112   -0.0024    0.0092    0.0000   -0.0057   -0.0076
          40   -0.0335    0.0001    0.0903    0.0242    0.3339   -0.0000    0.0031
          41   -0.0416   -0.0001    0.1125    0.0301    0.4157   -0.0003    0.0039
          42   -0.0836   -0.0001    0.1670    0.0451    0.7565   -0.0003    0.0073
          43   -0.0043    0.0002   -0.2765   -0.0705    0.0651   -0.0000    0.0022
          44   -0.0054    0.0002   -0.3502   -0.0893    0.0826   -0.0001    0.0028
          45    0.0073   -0.0004    0.7776    0.1981   -0.2284    0.0002   -0.0066


          DESCRIPTION OF VIBRATIONS


 VIBRATION          1    1A           ATOM PAIR      ENERGY CONTRIBUTION    RADIAL
 FREQUENCY            31.89         C  4 -- C  7         +14.1% (999.0%)      0.0%
 TRANSITION DIPOLE   0.0027         C  2 -- C  6          +8.4% (999.0%)      0.0%
 TRAVEL (Ang.)       0.0000         C  3 -- C  5          +8.3% (999.0%)      0.0%
 REDUCED MASS        1.4178         C  1 -- C  2          +7.5% (979.6%)      0.0%
 EFFECTIVE MASS   1319.4480
 FORCE CONSTANT      0.0008

 VIBRATION          2    2A           ATOM PAIR      ENERGY CONTRIBUTION    RADIAL
 FREQUENCY           147.22         C  1 -- C  4         +11.8% (319.3%)      0.1%
 TRANSITION DIPOLE   0.1016         C  4 -- C  7         +10.8% (304.8%)      0.0%
 TRAVEL (Ang.)       0.6584         C  7 -- H 14          +9.8% (290.8%)     36.9%
 REDUCED MASS        1.0566         C  1 -- C  2          +9.6% (287.5%)      0.3%
 EFFECTIVE MASS    106.3042
 FORCE CONSTANT      0.0135

 VIBRATION          3    3A           ATOM PAIR      ENERGY CONTRIBUTION    RADIAL
 FREQUENCY           285.23         C  1 -- C  4         +11.9% (142.8%)      0.0%
 TRANSITION DIPOLE   0.0560         C  3 -- C  5          +8.5% (120.9%)      0.1%
 TRAVEL (Ang.)       0.6283         C  2 -- C  6          +8.5% (120.9%)      0.1%
 REDUCED MASS        0.5989         C  1 -- C  2          +8.3% (119.5%)      0.0%
 EFFECTIVE MASS     19.8647
 FORCE CONSTANT      0.0287

 VIBRATION          4    4A           ATOM PAIR      ENERGY CONTRIBUTION    RADIAL
 FREQUENCY           398.85         C  4 -- C  7         +19.3% (193.3%)      0.0%
 TRANSITION DIPOLE   0.0643         C  7 -- H 15         +17.0% (181.3%)     33.6%
 TRAVEL (Ang.)       0.3013         C  1 -- C  4         +14.5% (167.8%)      0.2%
 REDUCED MASS        1.8625         C  7 -- H 14         +11.8% (151.0%)     56.3%
 EFFECTIVE MASS     30.3055
 FORCE CONSTANT      0.1746

 VIBRATION          5    5A           ATOM PAIR      ENERGY CONTRIBUTION    RADIAL
 FREQUENCY           489.82         C  1 -- C  2         +10.1% (100.0%)      0.2%
 TRANSITION DIPOLE   0.1456         C  1 -- C  3          +9.7% ( 98.4%)      0.2%
 TRAVEL (Ang.)       0.3825         C  4 -- H 11          +9.6% ( 97.7%)     20.4%
 REDUCED MASS        0.9409         C  1 -- C  4          +9.5% ( 97.4%)     21.6%
 EFFECTIVE MASS     15.5426
 FORCE CONSTANT      0.1330

 VIBRATION          6    6A           ATOM PAIR      ENERGY CONTRIBUTION    RADIAL
 FREQUENCY           493.40         C  5 -- C  6         +17.1% ( 76.1%)      0.0%
 TRANSITION DIPOLE   0.0695         C  3 -- C  6         +15.1% ( 71.5%)      0.0%
 TRAVEL (Ang.)       0.4058         C  2 -- C  5         +13.8% ( 68.4%)      0.0%
 REDUCED MASS        0.8298         C  3 -- C  5         +11.1% ( 61.3%)      1.7%
 EFFECTIVE MASS     10.8389         C  2 -- C  6         +10.6% ( 60.0%)      1.6%
 FORCE CONSTANT      0.1190

 VIBRATION          7    7A           ATOM PAIR      ENERGY CONTRIBUTION    RADIAL
 FREQUENCY           642.48         C  7 -- H 14         +24.5% ( 76.2%)      0.0%
 TRANSITION DIPOLE   0.1568         C  7 -- H 15         +10.9% ( 50.7%)      0.0%
 TRAVEL (Ang.)       0.3333         C  1 -- C  4          +9.9% ( 48.5%)      0.0%
 REDUCED MASS        0.9446         C  4 -- C  7          +9.1% ( 46.4%)      0.0%
 EFFECTIVE MASS      5.0421
 FORCE CONSTANT      0.2297

 VIBRATION          8    8A           ATOM PAIR      ENERGY CONTRIBUTION    RADIAL
 FREQUENCY           738.95         C  1 -- C  2          +9.3% ( 59.6%)      0.2%
 TRANSITION DIPOLE   0.7254         C  1 -- C  3          +9.3% ( 59.6%)      0.2%
 TRAVEL (Ang.)       0.5121         C  1 -- C  4          +9.0% ( 58.7%)     17.9%
 REDUCED MASS        0.3480         C  2 -- H  9          +7.9% ( 55.0%)      9.6%
 EFFECTIVE MASS      6.6477
 FORCE CONSTANT      0.1120

 VIBRATION          9    9A           ATOM PAIR      ENERGY CONTRIBUTION    RADIAL
 FREQUENCY           805.16         C  3 -- H 10         +23.0% ( 64.5%)      0.0%
 TRANSITION DIPOLE   0.0156         C  2 -- H  9         +23.0% ( 64.4%)      0.0%
 TRAVEL (Ang.)       0.4764         C  6 -- H 13          +9.3% ( 41.0%)      3.2%
 REDUCED MASS        0.3690         C  5 -- H 12          +9.3% ( 41.0%)      3.2%
 EFFECTIVE MASS      3.1431
 FORCE CONSTANT      0.1409

 VIBRATION         10   10A           ATOM PAIR      ENERGY CONTRIBUTION    RADIAL
 FREQUENCY           821.53         C  5 -- C  6         +17.2% (119.7%)      0.0%
 TRANSITION DIPOLE   0.1813         C  3 -- C  5         +14.9% (111.4%)     91.6%
 TRAVEL (Ang.)       0.1847         C  2 -- C  6         +14.9% (111.3%)     91.4%
 REDUCED MASS        2.4068         C  3 -- C  6          +9.9% ( 90.7%)      0.2%
 EFFECTIVE MASS     15.4560
 FORCE CONSTANT      0.9571

 VIBRATION         11   11A           ATOM PAIR      ENERGY CONTRIBUTION    RADIAL
 FREQUENCY           824.08         C  1 -- C  2         +14.1% ( 80.7%)      0.8%
 TRANSITION DIPOLE   0.6301         C  1 -- C  3         +14.1% ( 80.5%)      0.9%
 TRAVEL (Ang.)       0.2697         C  1 -- C  4          +8.7% ( 63.4%)      0.4%
 REDUCED MASS        1.1250         C  2 -- C  6          +8.5% ( 62.7%)     34.7%
 EFFECTIVE MASS      9.9403
 FORCE CONSTANT      0.4501

 VIBRATION         12   12A           ATOM PAIR      ENERGY CONTRIBUTION    RADIAL
 FREQUENCY           925.87         C  7 -- H 14         +18.8% ( 73.1%)     16.5%
 TRANSITION DIPOLE   0.1480         C  7 -- H 15         +18.5% ( 72.5%)      5.3%
 TRAVEL (Ang.)       0.3659         C  4 -- C  7          +7.2% ( 45.2%)      2.2%
 REDUCED MASS        0.5440         C  1 -- C  2          +7.1% ( 45.0%)     49.4%
 EFFECTIVE MASS      6.5224
 FORCE CONSTANT      0.2747

 VIBRATION         13   13A           ATOM PAIR      ENERGY CONTRIBUTION    RADIAL
 FREQUENCY           931.40         C  4 -- H 11         +62.1% ( 80.4%)      0.0%
 TRANSITION DIPOLE   0.4331         C  7 -- H 15         +20.6% ( 46.3%)      0.0%
 TRAVEL (Ang.)       0.3469         C  1 -- C  4          +4.9% ( 22.6%)      0.0%
 REDUCED MASS        0.6017         C  4 -- C  7          +4.2% ( 20.9%)      0.0%
 EFFECTIVE MASS      2.1314
 FORCE CONSTANT      0.3076

 VIBRATION         14   14A           ATOM PAIR      ENERGY CONTRIBUTION    RADIAL
 FREQUENCY           956.93         C  2 -- H  9         +16.6% ( 47.5%)      0.5%
 TRANSITION DIPOLE   0.1715         C  3 -- H 10         +16.5% ( 47.4%)      0.5%
 TRAVEL (Ang.)       0.4276         C  5 -- H 12         +10.9% ( 38.5%)      0.0%
 REDUCED MASS        0.3854         C  6 -- H 13         +10.8% ( 38.4%)      0.0%
 EFFECTIVE MASS      3.7054
 FORCE CONSTANT      0.2079

 VIBRATION         15   15A           ATOM PAIR      ENERGY CONTRIBUTION    RADIAL
 FREQUENCY           973.79         C  1 -- H  8         +19.7% ( 52.8%)      0.0%
 TRANSITION DIPOLE   0.0544         C  6 -- H 13         +16.8% ( 48.8%)      0.0%
 TRAVEL (Ang.)       0.3824         C  5 -- H 12         +16.7% ( 48.6%)      0.0%
 REDUCED MASS        0.4737         C  5 -- C  6          +7.8% ( 33.4%)      0.0%
 EFFECTIVE MASS      3.8887
 FORCE CONSTANT      0.2646

 VIBRATION         16   16A           ATOM PAIR      ENERGY CONTRIBUTION    RADIAL
 FREQUENCY          1007.58         C  1 -- C  3         +11.4% ( 48.2%)     52.5%
 TRANSITION DIPOLE   0.1340         C  1 -- C  2         +11.4% ( 48.2%)     52.5%
 TRAVEL (Ang.)       0.4451         C  2 -- H  9         +11.4% ( 48.0%)      4.0%
 REDUCED MASS        0.3378         C  3 -- H 10         +11.4% ( 48.0%)      4.0%
 EFFECTIVE MASS      5.1299         C  1 -- H  8         +10.7% ( 46.6%)     61.9%
 FORCE CONSTANT      0.2020

 VIBRATION         17   17A           ATOM PAIR      ENERGY CONTRIBUTION    RADIAL
[...]
 TRAVEL (Ang.)       0.3498         C  3 -- C  5          +8.3% ( 40.9%)     66.8%
 REDUCED MASS        0.4907         C  2 -- C  6          +8.2% ( 40.8%)     66.7%
 EFFECTIVE MASS      5.1040
 FORCE CONSTANT      0.3647

 VIBRATION         22   22A           ATOM PAIR      ENERGY CONTRIBUTION    RADIAL
 FREQUENCY          1163.98         C  4 -- H 11         +36.8% ( 74.5%)      7.5%
 TRANSITION DIPOLE   0.1272         C  1 -- C  4         +19.6% ( 54.4%)     53.9%
 TRAVEL (Ang.)       0.2752         C  1 -- H  8         +11.4% ( 41.5%)     74.8%
 REDUCED MASS        0.7652         C  1 -- C  2         +10.4% ( 39.6%)      4.1%
 EFFECTIVE MASS      4.3497         C  1 -- C  3         +10.4% ( 39.6%)      3.8%
 FORCE CONSTANT      0.6108

 VIBRATION         23   23A           ATOM PAIR      ENERGY CONTRIBUTION    RADIAL
 FREQUENCY          1202.29         C  4 -- H 11         +22.1% ( 66.1%)      9.8%
 TRANSITION DIPOLE   0.0374         C  4 -- C  7         +15.8% ( 55.9%)      2.5%
 TRAVEL (Ang.)       0.2514         C  1 -- C  4         +13.7% ( 52.1%)     46.2%
 REDUCED MASS        0.8873         C  1 -- H  8          +6.4% ( 35.5%)     14.2%
 EFFECTIVE MASS      6.7565
 FORCE CONSTANT      0.7557

 VIBRATION         24   24A           ATOM PAIR      ENERGY CONTRIBUTION    RADIAL
 FREQUENCY          1204.92         C  3 -- H 10         +14.2% ( 47.0%)      0.3%
 TRANSITION DIPOLE   0.0198         C  2 -- H  9         +14.0% ( 46.8%)      0.3%
 TRAVEL (Ang.)       0.3875         C  1 -- H  8         +11.9% ( 43.2%)      0.0%
 REDUCED MASS        0.3727         C  5 -- H 12         +11.1% ( 41.7%)      0.1%
 EFFECTIVE MASS      2.9508         C  6 -- H 13         +11.1% ( 41.6%)      0.1%
 FORCE CONSTANT      0.3188

 VIBRATION         25   25A           ATOM PAIR      ENERGY CONTRIBUTION    RADIAL
 FREQUENCY          1308.73         C  7 -- H 15         +20.2% ( 53.0%)      0.1%
 TRANSITION DIPOLE   0.1378         C  7 -- H 14         +16.7% ( 48.2%)      0.4%
 TRAVEL (Ang.)       0.3193         C  1 -- C  4         +10.5% ( 38.3%)     99.4%
 REDUCED MASS        0.5055         C  1 -- C  2          +9.4% ( 36.1%)     58.1%
 EFFECTIVE MASS      3.8713
 FORCE CONSTANT      0.5101

 VIBRATION         26   26A           ATOM PAIR      ENERGY CONTRIBUTION    RADIAL
 FREQUENCY          1313.14         C  1 -- C  3         +20.4% ( 73.9%)     78.4%
 TRANSITION DIPOLE   0.0733         C  1 -- C  2         +20.3% ( 73.8%)     78.2%
 TRAVEL (Ang.)       0.1273         C  1 -- H  8         +12.9% ( 58.9%)      0.0%
 REDUCED MASS        3.1664         C  1 -- C  4         +10.6% ( 53.3%)      0.0%
 EFFECTIVE MASS     10.3081
 FORCE CONSTANT      3.2169

 VIBRATION         27   27A           ATOM PAIR      ENERGY CONTRIBUTION    RADIAL
 FREQUENCY          1386.16         C  5 -- C  6         +16.4% ( 64.6%)    100.0%
 TRANSITION DIPOLE   0.2856         C  1 -- C  4         +12.0% ( 55.3%)     97.9%
 TRAVEL (Ang.)       0.1742         C  1 -- H  8          +8.2% ( 45.6%)      0.1%
 REDUCED MASS        1.6032         C  1 -- C  3          +6.7% ( 41.4%)     21.7%
 EFFECTIVE MASS      9.5153
 FORCE CONSTANT      1.8149

 VIBRATION         28   28A           ATOM PAIR      ENERGY CONTRIBUTION    RADIAL
 FREQUENCY          1421.05         C  5 -- C  6         +12.5% ( 57.1%)    100.0%
 TRANSITION DIPOLE   0.1813         C  1 -- C  2         +11.1% ( 53.9%)     59.7%
 TRAVEL (Ang.)       0.1683         C  1 -- C  3         +11.1% ( 53.9%)     59.6%
 REDUCED MASS        1.6753         C  1 -- C  4         +10.2% ( 51.6%)     90.7%
 EFFECTIVE MASS      9.8020
 FORCE CONSTANT      1.9933

 VIBRATION         29   29A           ATOM PAIR      ENERGY CONTRIBUTION    RADIAL
 FREQUENCY          1728.88         C  3 -- C  6         +18.2% ( 72.7%)     99.9%
 TRANSITION DIPOLE   0.3152         C  2 -- C  5         +18.2% ( 72.7%)     99.9%
 TRAVEL (Ang.)       0.1199         C  3 -- C  5         +10.7% ( 55.7%)     26.0%
 REDUCED MASS        2.7133         C  2 -- C  6         +10.7% ( 55.7%)     26.1%
 EFFECTIVE MASS     12.0266
 FORCE CONSTANT      4.7783

 VIBRATION         30   30A           ATOM PAIR      ENERGY CONTRIBUTION    RADIAL
 FREQUENCY          1787.82         C  2 -- C  5         +17.9% ( 70.1%)     99.8%
 TRANSITION DIPOLE   0.3200         C  3 -- C  6         +17.9% ( 70.1%)     99.8%
 TRAVEL (Ang.)       0.1185         C  5 -- C  6         +12.2% ( 57.8%)      0.0%
 REDUCED MASS        2.6865         C  2 -- C  6         +10.9% ( 54.7%)     65.7%
 EFFECTIVE MASS     11.7996         C  3 -- C  5         +10.9% ( 54.7%)     65.7%
 FORCE CONSTANT      5.0592

 VIBRATION         31   31A           ATOM PAIR      ENERGY CONTRIBUTION    RADIAL
 FREQUENCY          1860.83         C  4 -- C  7         +45.1% ( 99.2%)     98.9%
 TRANSITION DIPOLE   0.2916         C  1 -- C  4         +16.8% ( 60.5%)     54.6%
 TRAVEL (Ang.)       0.0829         C  4 -- H 11         +15.4% ( 57.9%)      4.0%
 REDUCED MASS        5.2762         C  7 -- H 15         +10.9% ( 48.8%)     11.1%
 EFFECTIVE MASS     11.8044         C  7 -- H 14         +10.7% ( 48.4%)     12.7%
 FORCE CONSTANT     10.7643

 VIBRATION         32   32A           ATOM PAIR      ENERGY CONTRIBUTION    RADIAL
 FREQUENCY          2888.90         C  1 -- H  8         +96.8% (100.0%)    100.0%
 TRANSITION DIPOLE   0.1992         C  1 -- C  4          +1.1% ( 10.5%)     13.0%
 TRAVEL (Ang.)       0.1586         C  1 -- C  3          +1.0% ( 10.4%)     10.6%
 REDUCED MASS        0.9282         C  1 -- C  2          +1.0% ( 10.4%)     10.6%
 EFFECTIVE MASS      1.4419
 FORCE CONSTANT      4.5642

 VIBRATION         33   33A           ATOM PAIR      ENERGY CONTRIBUTION    RADIAL
 FREQUENCY          3048.26         C  4 -- H 11         +96.2% ( 99.4%)    100.0%
 TRANSITION DIPOLE   0.2667         C  4 -- C  7          +1.4% ( 12.1%)     31.0%
 TRAVEL (Ang.)       0.1560         C  1 -- C  4          +1.3% ( 11.7%)     14.0%
 REDUCED MASS        0.9096         C  7 -- H 14          +1.0% ( 10.3%)     95.9%
 EFFECTIVE MASS      1.5025
 FORCE CONSTANT      4.9795

 VIBRATION         34   34A           ATOM PAIR      ENERGY CONTRIBUTION    RADIAL
 FREQUENCY          3132.00         C  6 -- H 13         +39.2% ( 64.2%)    100.0%
 TRANSITION DIPOLE   0.0672         C  5 -- H 12         +36.5% ( 62.0%)    100.0%
 TRAVEL (Ang.)       0.2625         C  3 -- H 10         +10.4% ( 33.0%)    100.0%
 REDUCED MASS        0.3125         C  2 -- H  9          +9.5% ( 31.6%)    100.0%
 EFFECTIVE MASS      1.4925
 FORCE CONSTANT      1.8061

 VIBRATION         35   35A           ATOM PAIR      ENERGY CONTRIBUTION    RADIAL
 FREQUENCY          3134.64         C  7 -- H 15         +85.3% ( 94.1%)     99.8%
 TRANSITION DIPOLE   0.3006         C  7 -- H 14          +7.2% ( 27.4%)     73.9%
 TRAVEL (Ang.)       0.1703         C  5 -- H 12          +2.0% ( 14.3%)    100.0%
 REDUCED MASS        0.7421         C  6 -- H 13          +1.8% ( 13.7%)    100.0%
 EFFECTIVE MASS      1.5379
 FORCE CONSTANT      4.2963

 VIBRATION         36   36A           ATOM PAIR      ENERGY CONTRIBUTION    RADIAL
 FREQUENCY          3134.69         C  5 -- H 12         +28.8% ( 54.9%)    100.0%
 TRANSITION DIPOLE   0.4741         C  6 -- H 13         +26.6% ( 52.8%)    100.0%
 TRAVEL (Ang.)       0.3132         C  2 -- H  9         +17.9% ( 43.3%)    100.0%
 REDUCED MASS        0.2193         C  3 -- H 10         +16.8% ( 41.9%)    100.0%
 EFFECTIVE MASS      1.4791
 FORCE CONSTANT      1.2699

 VIBRATION         37   37A           ATOM PAIR      ENERGY CONTRIBUTION    RADIAL
 FREQUENCY          3146.79         C  7 -- H 14         +90.8% ( 95.9%)     99.6%
 TRANSITION DIPOLE   0.2765         C  7 -- H 15          +6.7% ( 26.0%)     47.1%
 TRAVEL (Ang.)       0.1634         C  4 -- C  7          +1.6% ( 12.8%)     75.5%
 REDUCED MASS        0.8023         C  4 -- H 11          +0.9% (  9.5%)     95.2%
 EFFECTIVE MASS      1.4634
 FORCE CONSTANT      4.6808

 VIBRATION         38   38A           ATOM PAIR      ENERGY CONTRIBUTION    RADIAL
 FREQUENCY          3147.78         C  3 -- H 10         +37.7% ( 63.1%)    100.0%
 TRANSITION DIPOLE   0.5925         C  2 -- H  9         +37.2% ( 62.7%)    100.0%
 TRAVEL (Ang.)       0.2618         C  6 -- H 13          +9.8% ( 32.1%)     99.8%
 REDUCED MASS        0.3126         C  5 -- H 12          +9.8% ( 32.1%)     99.8%
 EFFECTIVE MASS      1.5884
 FORCE CONSTANT      1.8249

 VIBRATION         39   39A           ATOM PAIR      ENERGY CONTRIBUTION    RADIAL
 FREQUENCY          3157.03         C  2 -- H  9         +29.0% ( 55.4%)     99.9%
 TRANSITION DIPOLE   0.1674         C  3 -- H 10         +28.8% ( 55.2%)     99.9%
 TRAVEL (Ang.)       0.2938         C  5 -- H 12         +18.0% ( 43.6%)    100.0%
 REDUCED MASS        0.2474         C  6 -- H 13         +17.6% ( 43.2%)    100.0%
 EFFECTIVE MASS      1.6959
 FORCE CONSTANT      1.4527

      SYMMETRY NUMBER FOR POINT-GROUP C1  =  1


          SYSTEM IS A GROUND STATE



 InChI=1S/C7H8/c1-2-7-5-3-4-6-7/h2-7H,1H2


          MOLECULE IS NOT LINEAR

          THERE ARE 39 GENUINE VIBRATIONS IN THIS SYSTEM
          THIS THERMODYNAMICS CALCULATION IS LIMITED TO
          MOLECULES WHICH HAVE NO INTERNAL ROTATIONS




                    CALCULATED THERMODYNAMIC PROPERTIES
                                          *
   TEMP. (K)   PARTITION FUNCTION   H.O.F.    ENTHALPY  HEAT CAPACITY ENTROPY
                                   KCAL/MOL   CAL/MOLE    CAL/K/MOL  CAL/K/MOL


 298.00  VIB.     0.3295D+02                  2282.4714    18.0454    14.6046
         ROT.     0.1834D+06                   888.2803     2.9808    27.0651
         INT.     0.6045D+07                  3170.7517    21.0263    41.6697
         TRA.     0.8551D+27                  1480.4672     4.9680    39.4718
         TOT.                       52.621    4651.2189    25.9943    81.1414

 200.00  VIB.     0.9947D+01                   922.8153     9.9599     9.1792
         ROT.     0.1009D+06                   596.1613     2.9808    25.8764
         INT.     0.1003D+07                  1518.9766    12.9407    35.0556
         TRA.     0.4701D+27                   993.6021     4.9680    37.4906
         TOT.                       50.483    2512.5787    17.9087    72.5462

 210.00  VIB.     0.1118D+02                  1026.0717    10.6963     9.6829
         ROT.     0.1085D+06                   625.9693     2.9808    26.0218
         INT.     0.1213D+07                  1652.0410    13.6771    35.7047
         TRA.     0.5058D+27                  1043.2822     4.9680    37.7330
         TOT.                       50.665    2695.3233    18.6451    73.4377

 220.00  VIB.     0.1257D+02                  1136.8347    11.4608    10.1980
         ROT.     0.1164D+06                   655.7774     2.9808    26.1605
         INT.     0.1463D+07                  1792.6121    14.4416    36.3585
         TRA.     0.5424D+27                  1092.9623     4.9680    37.9641
         TOT.                       50.856    2885.5744    19.4096    74.3226

 230.00  VIB.     0.1416D+02                  1255.3712    12.2505    10.7248
         ROT.     0.1244D+06                   685.5855     2.9808    26.2930
         INT.     0.1761D+07                  1940.9566    15.2313    37.0178
         TRA.     0.5798D+27                  1142.6424     4.9680    38.1850
         TOT.                       51.054    3083.5991    20.1993    75.2027

 240.00  VIB.     0.1596D+02                  1381.9191    13.0625    11.2632
         ROT.     0.1326D+06                   715.3935     2.9808    26.4199
         INT.     0.2117D+07                  2097.3127    16.0433    37.6831
         TRA.     0.6180D+27                  1192.3226     4.9680    38.3964
         TOT.                       51.260    3289.6352    21.0113    76.0795

 250.00  VIB.     0.1803D+02                  1516.6852    13.8936    11.8133
         ROT.     0.1410D+06                   745.2016     2.9808    26.5415
         INT.     0.2541D+07                  2261.8868    16.8744    38.3548
         TRA.     0.6570D+27                  1242.0027     4.9680    38.5992
         TOT.                       51.474    3503.8894    21.8424    76.9540

 260.00  VIB.     0.2038D+02                  1659.8432    14.7404    12.3746
         ROT.     0.1495D+06                   775.0097     2.9808    26.6585
         INT.     0.3047D+07                  2434.8528    17.7212    39.0331
         TRA.     0.6968D+27                  1291.6828     4.9680    38.7941
         TOT.                       51.697    3726.5356    22.6892    77.8271

 270.00  VIB.     0.2308D+02                  1811.5341    15.5996    12.9470
         ROT.     0.1582D+06                   804.8177     2.9808    26.7709
         INT.     0.3651D+07                  2616.3518    18.5804    39.7180
         TRA.     0.7374D+27                  1341.3629     4.9680    38.9816
         TOT.                       51.928    3957.7147    23.5484    78.6995

 280.00  VIB.     0.2617D+02                  1971.8667    16.4682    13.5300
         ROT.     0.1671D+06                   834.6258     2.9808    26.8794
         INT.     0.4373D+07                  2806.4925    19.4490    40.4094
         TRA.     0.7788D+27                  1391.0430     4.9680    39.1622
         TOT.                       52.168    4197.5355    24.4170    79.5716

 290.00  VIB.     0.2973D+02                  2140.9186    17.3430    14.1231
         ROT.     0.1761D+06                   864.4339     2.9808    26.9840
         INT.     0.5235D+07                  3005.3525    20.3238    41.1071
         TRA.     0.8209D+27                  1440.7231     4.9680    39.3366
         TOT.                       52.416    4446.0755    25.2918    80.4437

 300.00  VIB.     0.3382D+02                  2318.7381    18.2212    14.7259
         ROT.     0.1853D+06                   894.2419     2.9808    27.0850
         INT.     0.6266D+07                  3212.9800    21.2020    41.8109
         TRA.     0.8637D+27                  1490.4032     4.9680    39.5050
         TOT.                       52.673    4703.3832    26.1701    81.3159

 310.00  VIB.     0.3853D+02                  2505.3460    19.1003    15.3377
         ROT.     0.1946D+06                   924.0500     2.9808    27.1827
         INT.     0.7499D+07                  3429.3959    22.0811    42.5204
         TRA.     0.9072D+27                  1540.0833     4.9680    39.6679
         TOT.                       52.940    4969.4792    27.0491    82.1883

 320.00  VIB.     0.4396D+02                  2700.7381    19.9777    15.9580
         ROT.     0.2041D+06                   953.8580     2.9808    27.2774
         INT.     0.8974D+07                  3654.5962    22.9585    43.2354
         TRA.     0.9515D+27                  1589.7634     4.9680    39.8256
         TOT.                       53.214    5244.3596    27.9265    83.0610

 330.00  VIB.     0.5024D+02                  2904.8876    20.8514    16.5861
         ROT.     0.2138D+06                   983.6661     2.9808    27.3691
         INT.     0.1074D+08                  3888.5537    23.8322    43.9552
         TRA.     0.9964D+27                  1639.4435     4.9680    39.9785
         TOT.                       53.498    5527.9972    28.8002    83.9337

 340.00  VIB.     0.5750D+02                  3117.7471    21.7194    17.2215
         ROT.     0.2236D+06                  1013.4742     2.9808    27.4581
         INT.     0.1285D+08                  4131.2212    24.7002    44.6796
         TRA.     0.1042D+28                  1689.1236     4.9680    40.1268
         TOT.                       53.790    5820.3448    29.6682    84.8064

 350.00  VIB.     0.6590D+02                  3339.2511    22.5801    17.8635
         ROT.     0.2335D+06                  1043.2822     2.9808    27.5445
         INT.     0.1539D+08                  4382.5334    25.5609    45.4080
         TRA.     0.1088D+28                  1738.8037     4.9680    40.2708
         TOT.                       54.091    6121.3371    30.5289    85.6788

 360.00  VIB.     0.7565D+02                  3569.3188    23.4319    18.5116
         ROT.     0.2436D+06                  1073.0903     2.9808    27.6285
         INT.     0.1843D+08                  4642.4091    26.4127    46.1401
         TRA.     0.1135D+28                  1788.4838     4.9680    40.4108
         TOT.                       54.401    6430.8929    31.3807    86.5508

 370.00  VIB.     0.8695D+02                  3807.8552    24.2736    19.1651
         ROT.     0.2538D+06                  1102.8984     2.9808    27.7101
         INT.     0.2207D+08                  4910.7536    27.2544    46.8752
         TRA.     0.1183D+28                  1838.1639     4.9680    40.5469
         TOT.                       54.719    6748.9175    32.2225    87.4221

 380.00  VIB.     0.1001D+03                  4054.7543    25.1042    19.8235
         ROT.     0.2642D+06                  1132.7064     2.9808    27.7896
         INT.     0.2644D+08                  5187.4607    28.0850    47.6131
         TRA.     0.1231D+28                  1887.8440     4.9680    40.6794
         TOT.                       55.045    7075.3048    33.0531    88.2925

 390.00  VIB.     0.1153D+03                  4309.9000    25.9228    20.4862
         ROT.     0.2746D+06                  1162.5145     2.9808    27.8671
         INT.     0.3168D+08                  5472.4145    28.9036    48.3533
         TRA.     0.1280D+28                  1937.5242     4.9680    40.8084
         TOT.                       55.380    7409.9386    33.8716    89.1617

 400.00  VIB.     0.1331D+03                  4573.1684    26.7287    21.1527
         ROT.     0.2853D+06                  1192.3226     2.9808    27.9425
         INT.     0.3797D+08                  5765.4909    29.7095    49.0952
         TRA.     0.1330D+28                  1987.2043     4.9680    40.9342
         TOT.                       55.723    7752.6952    34.6775    90.0294

   *: NOTE: HEATS OF FORMATION ARE RELATIVE TO THE
            ELEMENTS IN THEIR STANDARD STATE AT 298K
              (=  Standard Enthalpy of Formation).

            Hvib:  Zero-point energy is not included.
                   frequencies of less than zero cm-1 are not included.
            Hrot = (3/2)RT
            Htra = (3/2)RT + pV = (5/2)RT

            Heat capacity is Cp, not Cv

          For more information, see: HTTP://OpenMOPAC.net/Manual/thermochemistry.html


           FORCE CONSTANT IN CARTESIAN COORDINATES (Millidynes/A)

    ATOM   CHEMICAL       X               Y               Z
   NUMBER   SYMBOL  FORCE CONSTANT  FORCE CONSTANT  FORCE CONSTANT

      1       C        8.509076        9.116630        8.480965
      2       C        9.082311       15.171967        2.395717
      3       C       14.915764        9.336682        2.396287
      4       C        7.550510       10.480212        9.105062
      5       C       12.417945       12.732723        2.203020
      6       C       11.652631       13.494838        2.203718
      7       C        7.193927       10.229269        9.031028
      8       H        1.064406        1.322961        3.516309
      9       H        2.061547        4.061411        0.334431
     10       H        4.868387        1.254528        0.334507
     11       H        0.868605        1.176702        4.170477
     12       H        4.960672        1.140225        0.349922
     13       H        0.741963        5.357690        0.350021
     14       H        1.107924        1.535193        3.827979
     15       H        0.925769        1.275920        4.257197

 **********************
 *                    *
 * JOB ENDED NORMALLY *
 *                    *
 **********************



 TOTAL JOB TIME:             1.52 SECONDS

 == MOPAC DONE ==
