 *******************************************************************************
 **                                                                           **
 **                              MOPAC v23.1.2                                **
 **                                                                           **
 *******************************************************************************
 **          Digital Object Identifier (DOI): 10.5281/zenodo.6511958          **
 **    Visit the DOI location for information on how to cite this program.    **
 *******************************************************************************

                              PM3 CALCULATION RESULTS

 *******************************************************************************
 *  CALCULATION DONE: (MAX THREADS = 1)              Tue Jun  3 16:31:27 2025  *
 *  PM3        - The PM3 Hamiltonian to be used
 *  PRECISE    - TIGHTER CRITERIA TO BE USED
 *  NOSYM      - POINT-GROUP SYMMETRY SET TO C1
 *  THREADS=1  - MULTI-THREADING NOT USED
 *  T=         - A TIME OF 172800.0 SECONDS REQUESTED
 *  DUMP=N     - RESTART FILE WRITTEN EVERY 7200.0 SECONDS REQUESTED
 *******************************************************************************
pm3  precise nosym THREADS=1
 InChI=1S/C10H12/c1-2-6-10-8-4-3-7-9(10)5-1/h1-5,10H,6-8H2

   ATOM   CHEMICAL          X               Y               Z
  NUMBER   SYMBOL      (ANGSTROMS)     (ANGSTROMS)     (ANGSTROMS)

     1       C          0.19950000  *  -0.53020000  *  -0.48440000  *
     2       C         -0.97590000  *  -1.49430000  *  -0.25200000  *
     3       C          1.52760000  *  -1.16400000  *  -0.01690000  *
     4       C         -1.46790000  *   1.27940000  *   0.46490000  *
     5       C         -0.05390000  *   0.79670000  *   0.21980000  *
     6       C         -2.27740000  *  -0.82700000  *  -0.59670000  *
     7       C         -2.50000000  *   0.45260000  *  -0.26350000  *
     8       C          2.63180000  *  -0.14230000  *   0.01350000  *
     9       C          0.98460000  *   1.57550000  *   0.56510000  *
    10       C          2.37230000  *   1.12560000  *   0.34590000  *
    11       H          0.27940000  *  -0.32420000  *  -1.57560000  *
    12       H         -1.01140000  *  -1.79910000  *   0.81700000  *
    13       H         -0.85110000  *  -2.40720000  *  -0.87330000  *
    14       H          1.41300000  *  -1.57600000  *   1.00950000  *
    15       H          1.81090000  *  -1.99570000  *  -0.69720000  *
    16       H         -1.56580000  *   2.33210000  *   0.12210000  *
    17       H         -1.68040000  *   1.24480000  *   1.55440000  *
    18       H         -3.03630000  *  -1.38130000  *  -1.14050000  *
    19       H         -3.45460000  *   0.90630000  *  -0.51210000  *
    20       H          3.65430000  *  -0.45570000  *  -0.15560000  *
    21       H          0.81640000  *   2.55090000  *   1.00540000  *
    22       H          3.18470000  *   1.83310000  *   0.45030000  *



          CARTESIAN COORDINATES 

    NO.       ATOM           X           Y           Z

     1         C          0.1995     -0.5302     -0.4844
     2         C         -0.9759     -1.4943     -0.2520
     3         C          1.5276     -1.1640     -0.0169
     4         C         -1.4679      1.2794      0.4649
     5         C         -0.0539      0.7967      0.2198
     6         C         -2.2774     -0.8270     -0.5967
     7         C         -2.5000      0.4526     -0.2635
     8         C          2.6318     -0.1423      0.0135
     9         C          0.9846      1.5755      0.5651
    10         C          2.3723      1.1256      0.3459
    11         H          0.2794     -0.3242     -1.5756
    12         H         -1.0114     -1.7991      0.8170
    13         H         -0.8511     -2.4072     -0.8733
    14         H          1.4130     -1.5760      1.0095
    15         H          1.8109     -1.9957     -0.6972
    16         H         -1.5658      2.3321      0.1221
    17         H         -1.6804      1.2448      1.5544
    18         H         -3.0363     -1.3813     -1.1405
    19         H         -3.4546      0.9063     -0.5121
    20         H          3.6543     -0.4557     -0.1556
    21         H          0.8164      2.5509      1.0054
    22         H          3.1847      1.8331      0.4503

  H: (PM3): J. J. P. STEWART, J. COMP. CHEM. 10, 209 (1989).
  C: (PM3): J. J. P. STEWART, J. COMP. CHEM. 10, 209 (1989).

           Empirical Formula: C10 H12  =    22 atoms



      MOLECULAR POINT GROUP   :   C1  


      RHF CALCULATION, NO. OF DOUBLY OCCUPIED LEVELS = 26


          Geometry optimization using EF

          DIAGONAL MATRIX USED AS START HESSIAN

 CYCLE:     1 TIME:   0.008 TIME LEFT:  2.00D  GRAD.:    70.708 HEAT:  33.29405
 CYCLE:     2 TIME:   0.016 TIME LEFT:  2.00D  GRAD.:    39.836 HEAT:  31.96493
 CYCLE:     3 TIME:   0.008 TIME LEFT:  2.00D  GRAD.:    65.330 HEAT:  31.94700
 CYCLE:     4 TIME:   0.008 TIME LEFT:  2.00D  GRAD.:    48.091 HEAT:  31.67303
 CYCLE:     5 TIME:   0.008 TIME LEFT:  2.00D  GRAD.:    44.485 HEAT:  31.50472
 CYCLE:     6 TIME:   0.012 TIME LEFT:  2.00D  GRAD.:    20.151 HEAT:  31.01502
 CYCLE:     7 TIME:   0.012 TIME LEFT:  2.00D  GRAD.:    23.317 HEAT:  30.94226
 CYCLE:     8 TIME:   0.008 TIME LEFT:  2.00D  GRAD.:    19.648 HEAT:  30.86915
 CYCLE:     9 TIME:   0.008 TIME LEFT:  2.00D  GRAD.:    13.391 HEAT:  30.76476
 CYCLE:    10 TIME:   0.012 TIME LEFT:  2.00D  GRAD.:    12.880 HEAT:  30.72202
 CYCLE:    11 TIME:   0.004 TIME LEFT:  2.00D  GRAD.:    11.039 HEAT:  30.67070
 CYCLE:    12 TIME:   0.008 TIME LEFT:  2.00D  GRAD.:    10.222 HEAT:  30.62608
 CYCLE:    13 TIME:   0.008 TIME LEFT:  2.00D  GRAD.:    16.716 HEAT:  30.61094
 CYCLE:    14 TIME:   0.008 TIME LEFT:  2.00D  GRAD.:     7.836 HEAT:  30.54625
 CYCLE:    15 TIME:   0.012 TIME LEFT:  2.00D  GRAD.:    10.502 HEAT:  30.54463
 CYCLE:    16 TIME:   0.004 TIME LEFT:  2.00D  GRAD.:     7.425 HEAT:  30.51967
 CYCLE:    17 TIME:   0.012 TIME LEFT:  2.00D  GRAD.:     4.977 HEAT:  30.50561
 CYCLE:    18 TIME:   0.008 TIME LEFT:  2.00D  GRAD.:     3.783 HEAT:  30.49619
 CYCLE:    19 TIME:   0.008 TIME LEFT:  2.00D  GRAD.:     6.324 HEAT:  30.49132
 CYCLE:    20 TIME:   0.008 TIME LEFT:  2.00D  GRAD.:     3.879 HEAT:  30.47583
 CYCLE:    21 TIME:   0.008 TIME LEFT:  2.00D  GRAD.:     5.809 HEAT:  30.46491
 CYCLE:    22 TIME:   0.008 TIME LEFT:  2.00D  GRAD.:     3.816 HEAT:  30.44591
 CYCLE:    23 TIME:   0.004 TIME LEFT:  2.00D  GRAD.:     5.821 HEAT:  30.44179
 CYCLE:    24 TIME:   0.012 TIME LEFT:  2.00D  GRAD.:     3.821 HEAT:  30.43047
 CYCLE:    25 TIME:   0.004 TIME LEFT:  2.00D  GRAD.:     3.513 HEAT:  30.42135
 CYCLE:    26 TIME:   0.008 TIME LEFT:  2.00D  GRAD.:     3.559 HEAT:  30.41038
 CYCLE:    27 TIME:   0.008 TIME LEFT:  2.00D  GRAD.:     2.909 HEAT:  30.39165
 CYCLE:    28 TIME:   0.008 TIME LEFT:  2.00D  GRAD.:     4.893 HEAT:  30.38239
 CYCLE:    29 TIME:   0.008 TIME LEFT:  2.00D  GRAD.:     3.473 HEAT:  30.37374
 CYCLE:    30 TIME:   0.008 TIME LEFT:  2.00D  GRAD.:     3.369 HEAT:  30.36582
 CYCLE:    31 TIME:   0.004 TIME LEFT:  2.00D  GRAD.:     2.831 HEAT:  30.35320
 CYCLE:    32 TIME:   0.008 TIME LEFT:  2.00D  GRAD.:     2.423 HEAT:  30.33733
 CYCLE:    33 TIME:   0.008 TIME LEFT:  2.00D  GRAD.:     2.078 HEAT:  30.32801
 CYCLE:    34 TIME:   0.008 TIME LEFT:  2.00D  GRAD.:     2.288 HEAT:  30.31635
 CYCLE:    35 TIME:   0.008 TIME LEFT:  2.00D  GRAD.:     2.531 HEAT:  30.30125
 CYCLE:    36 TIME:   0.008 TIME LEFT:  2.00D  GRAD.:     2.032 HEAT:  30.28909
 CYCLE:    37 TIME:   0.008 TIME LEFT:  2.00D  GRAD.:     1.980 HEAT:  30.28002
 CYCLE:    38 TIME:   0.008 TIME LEFT:  2.00D  GRAD.:     2.610 HEAT:  30.27064
 CYCLE:    39 TIME:   0.008 TIME LEFT:  2.00D  GRAD.:     2.848 HEAT:  30.25748
 CYCLE:    40 TIME:   0.008 TIME LEFT:  2.00D  GRAD.:     2.411 HEAT:  30.24124
 CYCLE:    41 TIME:   0.008 TIME LEFT:  2.00D  GRAD.:     2.990 HEAT:  30.22897
 CYCLE:    42 TIME:   0.008 TIME LEFT:  2.00D  GRAD.:     2.297 HEAT:  30.21779
 CYCLE:    43 TIME:   0.008 TIME LEFT:  2.00D  GRAD.:     2.496 HEAT:  30.20401
 CYCLE:    44 TIME:   0.008 TIME LEFT:  2.00D  GRAD.:     2.565 HEAT:  30.18813
 CYCLE:    45 TIME:   0.008 TIME LEFT:  2.00D  GRAD.:     2.645 HEAT:  30.17555
 CYCLE:    46 TIME:   0.004 TIME LEFT:  2.00D  GRAD.:     2.590 HEAT:  30.16368
 CYCLE:    47 TIME:   0.012 TIME LEFT:  2.00D  GRAD.:     3.115 HEAT:  30.15796
 CYCLE:    48 TIME:   0.004 TIME LEFT:  2.00D  GRAD.:     1.727 HEAT:  30.15073
 CYCLE:    49 TIME:   0.008 TIME LEFT:  2.00D  GRAD.:     1.357 HEAT:  30.14584
 CYCLE:    50 TIME:   0.008 TIME LEFT:  2.00D  GRAD.:     1.053 HEAT:  30.14214
 CYCLE:    51 TIME:   0.008 TIME LEFT:  2.00D  GRAD.:     0.606 HEAT:  30.14090
 CYCLE:    52 TIME:   0.008 TIME LEFT:  2.00D  GRAD.:     0.541 HEAT:  30.14034
 CYCLE:    53 TIME:   0.008 TIME LEFT:  2.00D  GRAD.:     0.523 HEAT:  30.13963
 CYCLE:    54 TIME:   0.008 TIME LEFT:  2.00D  GRAD.:     0.568 HEAT:  30.13879
 CYCLE:    55 TIME:   0.004 TIME LEFT:  2.00D  GRAD.:     0.592 HEAT:  30.13788
 CYCLE:    56 TIME:   0.008 TIME LEFT:  2.00D  GRAD.:     0.685 HEAT:  30.13709
 CYCLE:    57 TIME:   0.008 TIME LEFT:  2.00D  GRAD.:     0.677 HEAT:  30.13623
 CYCLE:    58 TIME:   0.008 TIME LEFT:  2.00D  GRAD.:     0.738 HEAT:  30.13513
 CYCLE:    59 TIME:   0.008 TIME LEFT:  2.00D  GRAD.:     0.783 HEAT:  30.13402
 CYCLE:    60 TIME:   0.008 TIME LEFT:  2.00D  GRAD.:     0.951 HEAT:  30.13233
 CYCLE:    61 TIME:   0.008 TIME LEFT:  2.00D  GRAD.:     0.790 HEAT:  30.13107
 CYCLE:    62 TIME:   0.008 TIME LEFT:  2.00D  GRAD.:     0.608 HEAT:  30.12975
 CYCLE:    63 TIME:   0.004 TIME LEFT:  2.00D  GRAD.:     0.580 HEAT:  30.12921
 CYCLE:    64 TIME:   0.012 TIME LEFT:  2.00D  GRAD.:     0.529 HEAT:  30.12873
 CYCLE:    65 TIME:   0.004 TIME LEFT:  2.00D  GRAD.:     0.489 HEAT:  30.12816
 CYCLE:    66 TIME:   0.008 TIME LEFT:  2.00D  GRAD.:     0.333 HEAT:  30.12786
 CYCLE:    67 TIME:   0.008 TIME LEFT:  2.00D  GRAD.:     0.295 HEAT:  30.12764
 CYCLE:    68 TIME:   0.008 TIME LEFT:  2.00D  GRAD.:     0.258 HEAT:  30.12751
 CYCLE:    69 TIME:   0.008 TIME LEFT:  2.00D  GRAD.:     0.232 HEAT:  30.12741
 CYCLE:    70 TIME:   0.008 TIME LEFT:  2.00D  GRAD.:     0.185 HEAT:  30.12730
 CYCLE:    71 TIME:   0.008 TIME LEFT:  2.00D  GRAD.:     0.154 HEAT:  30.12721
 CYCLE:    72 TIME:   0.008 TIME LEFT:  2.00D  GRAD.:     0.129 HEAT:  30.12719
 CYCLE:    73 TIME:   0.004 TIME LEFT:  2.00D  GRAD.:     0.094 HEAT:  30.12716
 CYCLE:    74 TIME:   0.008 TIME LEFT:  2.00D  GRAD.:     0.091 HEAT:  30.12715
 CYCLE:    75 TIME:   0.008 TIME LEFT:  2.00D  GRAD.:     0.087 HEAT:  30.12713
 CYCLE:    76 TIME:   0.008 TIME LEFT:  2.00D  GRAD.:     0.089 HEAT:  30.12715
 CYCLE:    77 TIME:   0.008 TIME LEFT:  2.00D  GRAD.:     0.061 HEAT:  30.12711
 CYCLE:    78 TIME:   0.004 TIME LEFT:  2.00D  GRAD.:     0.053 HEAT:  30.12711
 CYCLE:    79 TIME:   0.008 TIME LEFT:  2.00D  GRAD.:     0.157 HEAT:  30.12712
 CYCLE:    80 TIME:   0.008 TIME LEFT:  2.00D  GRAD.:     0.048 HEAT:  30.12709

     GRADIENT =  0.04847 IS LESS THAN CUTOFF =  0.05000



 -------------------------------------------------------------------------------
 pm3  precise nosym THREADS=1
 InChI=1S/C10H12/c1-2-6-10-8-4-3-7-9(10)5-1/h1-5,10H,6-8H2



     GEOMETRY OPTIMISED USING EIGENVECTOR FOLLOWING (EF).     
     SCF FIELD WAS ACHIEVED                                   


                              PM3 CALCULATION
                                                       MOPAC v23.1.2 MacOS
                                                       Tue Jun  3 16:31:27 2025




          FINAL HEAT OF FORMATION =         30.12709 KCAL/MOL =     126.05176 KJ/MOL


          COSMO AREA              =        173.80 SQUARE ANGSTROMS
          COSMO VOLUME            =        177.58 CUBIC ANGSTROMS

          GRADIENT NORM           =          0.04847          =       0.01033 PER ATOM
          IONIZATION POTENTIAL    =          8.726407 EV
          HOMO LUMO ENERGIES (EV) =         -8.726  0.256
          NO. OF FILLED LEVELS    =         26
          MOLECULAR WEIGHT        =        132.2048         POINT GROUP:  C1  

          MOLECULAR DIMENSIONS (Angstroms)

            Atom       Atom       Distance
            H    20    H    19     7.28592
            H    21    H    13     5.48339
            H    11    H    12     2.92820


          SCF CALCULATIONS        =         88

          WALL-CLOCK TIME         =      0.637 SECONDS
          COMPUTATION TIME        =      0.413 SECONDS




   ATOM   CHEMICAL          X               Y               Z
  NUMBER   SYMBOL      (ANGSTROMS)     (ANGSTROMS)     (ANGSTROMS)

     1       C          0.18246402  *  -0.48867802  *  -0.53542477  *
     2       C         -0.94152394  *  -1.48813337  *  -0.25233634  *
     3       C          1.52965636  *  -1.13452853  *  -0.19205775  *
     4       C         -1.43833285  *   1.35811116  *   0.23542627  *
     5       C         -0.04630120  *   0.81974926  *   0.15905929  *
     6       C         -2.28681839  *  -0.88091963  *  -0.40574864  *
     7       C         -2.50559942  *   0.41455757  *  -0.18205080  *
     8       C          2.61163472  *  -0.16393673  *   0.11083594  *
     9       C          0.98046860  *   1.54798487  *   0.63397590  *
    10       C          2.34761163  *   1.08444504  *   0.51530794  *
    11       H          0.17112254  *  -0.24488046  *  -1.62807527  *
    12       H         -0.85830790  *  -1.89103117  *   0.77855714  *
    13       H         -0.83511158  *  -2.35979472  *  -0.92754936  *
    14       H          1.43196431  *  -1.80112490  *   0.69144158  *
    15       H          1.83841614  *  -1.79303933  *  -1.02781247  *
    16       H         -1.50064450  *   2.27139243  *  -0.39189963  *
    17       H         -1.65047481  *   1.68743600  *   1.27394608  *
    18       H         -3.10272201  *  -1.55192471  *  -0.69458515  *
    19       H         -3.50840090  *   0.84361675  *  -0.28768500  *
    20       H          3.63997308  *  -0.53024408  *   0.02507069  *
    21       H          0.81258747  *   2.52019155  *   1.11031429  *
    22       H          3.14638325  *   1.78896155  *   0.76754695  *

                             CARTESIAN COORDINATES

   1    C        0.182464020    -0.488678019    -0.535424766
   2    C       -0.941523938    -1.488133375    -0.252336340
   3    C        1.529656363    -1.134528528    -0.192057752
   4    C       -1.438332852     1.358111156     0.235426265
   5    C       -0.046301199     0.819749265     0.159059290
   6    C       -2.286818392    -0.880919631    -0.405748639
   7    C       -2.505599422     0.414557566    -0.182050804
   8    C        2.611634724    -0.163936734     0.110835937
   9    C        0.980468596     1.547984872     0.633975903
  10    C        2.347611634     1.084445037     0.515307938
  11    H        0.171122537    -0.244880460    -1.628075270
  12    H       -0.858307897    -1.891031168     0.778557135
  13    H       -0.835111579    -2.359794717    -0.927549357
  14    H        1.431964311    -1.801124900     0.691441585
  15    H        1.838416140    -1.793039331    -1.027812469
  16    H       -1.500644497     2.271392430    -0.391899630
  17    H       -1.650474813     1.687435997     1.273946078
  18    H       -3.102722015    -1.551924711    -0.694585148
  19    H       -3.508400904     0.843616754    -0.287685000
  20    H        3.639973079    -0.530244082     0.025070694
  21    H        0.812587468     2.520191553     1.110314287
  22    H        3.146383252     1.788961547     0.767546953


           Empirical Formula: C10 H12  =    22 atoms



      MOLECULAR POINT GROUP   :   C1  


                  EIGENVALUES  
 -41.66572 -35.58652 -32.53368 -28.92584 -27.41350 -23.07540 -21.95909 -20.79744
 -17.82010 -17.43938 -16.99477 -16.49207 -15.48135 -14.96493 -14.68183 -14.08495
 -14.02303 -13.71985 -13.08685 -12.91542 -12.63589 -11.72997 -11.53661 -11.19960
  -9.76754  -8.72641   0.25587   1.06195   2.07370   3.19026   3.28060   3.36439
   3.52319   3.64884   3.72316   3.82379   3.89358   4.02818   4.09628   4.19672
   4.36786   4.43016   4.50760   4.65152   4.81759   4.90741   5.10735   5.41235
   5.66327   5.84687   6.11596   6.27913


              NET ATOMIC CHARGES AND DIPOLE CONTRIBUTIONS

  ATOM NO.   TYPE          CHARGE      No. of ELECS.   s-Pop       p-Pop       
    1          C          -0.025099        4.0251     1.16071     2.86439
    2          C          -0.057932        4.0579     1.14914     2.90879
    3          C          -0.059081        4.0591     1.14937     2.90972
    4          C          -0.015617        4.0156     1.13197     2.88364
    5          C          -0.097933        4.0979     1.20117     2.89676
    6          C          -0.146946        4.1469     1.19292     2.95402
    7          C          -0.148497        4.1485     1.19307     2.95542
    8          C          -0.141689        4.1417     1.19549     2.94620
    9          C          -0.129534        4.1295     1.17770     2.95184
   10          C          -0.105684        4.1057     1.17687     2.92881
   11          H           0.070957        0.9290     0.92904
   12          H           0.062372        0.9376     0.93763
   13          H           0.053156        0.9468     0.94684
   14          H           0.058774        0.9412     0.94123
   15          H           0.053922        0.9461     0.94608
   16          H           0.061674        0.9383     0.93833
   17          H           0.064604        0.9354     0.93540
   18          H           0.099711        0.9003     0.90029
   19          H           0.098663        0.9013     0.90134
   20          H           0.099178        0.9008     0.90082
   21          H           0.103906        0.8961     0.89609
   22          H           0.101094        0.8989     0.89891
 DIPOLE           X         Y         Z       TOTAL
 POINT-CHG.    -0.212    -0.267    -0.099     0.355
 HYBRID        -0.020     0.027     0.017     0.037
 SUM           -0.232    -0.240    -0.082     0.344


          ATOMIC ORBITAL ELECTRON POPULATIONS

     Atom    s        px        py        pz   
    1  C   1.16071   0.94109   0.92763   0.99567
    2  C   1.14914   0.92909   0.96696   1.01274
    3  C   1.14937   0.93557   0.96676   1.00739
    4  C   1.13197   0.91146   0.96765   1.00454
    5  C   1.20117   0.95236   0.96231   0.98210
    6  C   1.19292   0.97624   0.96384   1.01394
    7  C   1.19307   0.98321   0.95942   1.01279
    8  C   1.19549   0.98110   0.96243   1.00267
    9  C   1.17770   0.93560   0.99001   1.02623
   10  C   1.17687   0.95696   0.96568   1.00618
   11  H   0.92904
   12  H   0.93763
   13  H   0.94684
   14  H   0.94123
   15  H   0.94608
   16  H   0.93833
   17  H   0.93540
   18  H   0.90029
   19  H   0.90134
   20  H   0.90082
   21  H   0.89609
   22  H   0.89891
 *******************************************************************************
 **                                                                           **
 **                              MOPAC v23.1.2                                **
 **                                                                           **
 *******************************************************************************
 **          Digital Object Identifier (DOI): 10.5281/zenodo.6511958          **
 **    Visit the DOI location for information on how to cite this program.    **
 *******************************************************************************

                              PM3 CALCULATION RESULTS

 *******************************************************************************
 *  CALCULATION DONE: (MAX THREADS = 1)              Tue Jun  3 16:31:27 2025  *
 *  PM3        - The PM3 Hamiltonian to be used
 *  OLDGEO     - PREVIOUS GEOMETRY TO BE USED
 *  PRECISE    - TIGHTER CRITERIA TO BE USED
 *  NOSYM      - POINT-GROUP SYMMETRY SET TO C1
 *  THREADS=1  - MULTI-THREADING NOT USED
 *  T=         - A TIME OF 172800.0 SECONDS REQUESTED
 *  DUMP=N     - RESTART FILE WRITTEN EVERY 7200.0 SECONDS REQUESTED
 *  THERMO     - THERMODYNAMIC QUANTITIES TO BE CALCULATED
 *******************************************************************************
oldgeo thermo nosym precise THREADS=1  pm3
 InChI=1S/C10H12/c1-2-6-10-8-4-3-7-9(10)5-1/h1-5,10H,6-8H2

   ATOM   CHEMICAL          X               Y               Z
  NUMBER   SYMBOL      (ANGSTROMS)     (ANGSTROMS)     (ANGSTROMS)

     1       C          0.18246402  *  -0.48867802  *  -0.53542477  *
     2       C         -0.94152394  *  -1.48813337  *  -0.25233634  *
     3       C          1.52965636  *  -1.13452853  *  -0.19205775  *
     4       C         -1.43833285  *   1.35811116  *   0.23542627  *
     5       C         -0.04630120  *   0.81974926  *   0.15905929  *
     6       C         -2.28681839  *  -0.88091963  *  -0.40574864  *
     7       C         -2.50559942  *   0.41455757  *  -0.18205080  *
     8       C          2.61163472  *  -0.16393673  *   0.11083594  *
     9       C          0.98046860  *   1.54798487  *   0.63397590  *
    10       C          2.34761163  *   1.08444504  *   0.51530794  *
    11       H          0.17112254  *  -0.24488046  *  -1.62807527  *
    12       H         -0.85830790  *  -1.89103117  *   0.77855714  *
    13       H         -0.83511158  *  -2.35979472  *  -0.92754936  *
    14       H          1.43196431  *  -1.80112490  *   0.69144158  *
    15       H          1.83841614  *  -1.79303933  *  -1.02781247  *
    16       H         -1.50064450  *   2.27139243  *  -0.39189963  *
    17       H         -1.65047481  *   1.68743600  *   1.27394608  *
    18       H         -3.10272201  *  -1.55192471  *  -0.69458515  *
    19       H         -3.50840090  *   0.84361675  *  -0.28768500  *
    20       H          3.63997308  *  -0.53024408  *   0.02507069  *
    21       H          0.81258747  *   2.52019155  *   1.11031429  *
    22       H          3.14638325  *   1.78896155  *   0.76754695  *



          CARTESIAN COORDINATES 

    NO.       ATOM           X           Y           Z

     1         C          0.1825     -0.4887     -0.5354
     2         C         -0.9415     -1.4881     -0.2523
     3         C          1.5297     -1.1345     -0.1921
     4         C         -1.4383      1.3581      0.2354
     5         C         -0.0463      0.8197      0.1591
     6         C         -2.2868     -0.8809     -0.4057
     7         C         -2.5056      0.4146     -0.1821
     8         C          2.6116     -0.1639      0.1108
     9         C          0.9805      1.5480      0.6340
    10         C          2.3476      1.0844      0.5153
    11         H          0.1711     -0.2449     -1.6281
    12         H         -0.8583     -1.8910      0.7786
    13         H         -0.8351     -2.3598     -0.9275
    14         H          1.4320     -1.8011      0.6914
    15         H          1.8384     -1.7930     -1.0278
    16         H         -1.5006      2.2714     -0.3919
    17         H         -1.6505      1.6874      1.2739
    18         H         -3.1027     -1.5519     -0.6946
    19         H         -3.5084      0.8436     -0.2877
    20         H          3.6400     -0.5302      0.0251
    21         H          0.8126      2.5202      1.1103
    22         H          3.1464      1.7890      0.7675

  H: (PM3): J. J. P. STEWART, J. COMP. CHEM. 10, 209 (1989).
  C: (PM3): J. J. P. STEWART, J. COMP. CHEM. 10, 209 (1989).

           Empirical Formula: C10 H12  =    22 atoms



      MOLECULAR POINT GROUP   :   C1  


      RHF CALCULATION, NO. OF DOUBLY OCCUPIED LEVELS = 26



          HEAT OF FORMATION =      30.127095 KCALS/MOLE


          CARTESIAN COORDINATE DERIVATIVES

   NUMBER  ATOM         X            Y            Z

     1       C      0.004405    -0.000434    -0.001484
     2       C      0.007579    -0.011723     0.001867
     3       C     -0.006717     0.001896     0.006794
     4       C     -0.000605    -0.011577     0.004711
     5       C     -0.004027    -0.001017     0.001463
     6       C      0.005111    -0.000996     0.002905
     7       C     -0.007610    -0.002351     0.006784
     8       C      0.009616     0.001451    -0.001925
     9       C     -0.006010    -0.000733    -0.000009
    10       C      0.003901    -0.003677     0.000912
    11       H     -0.002747     0.005154    -0.005461
    12       H     -0.000185     0.002318    -0.008561
    13       H      0.002471    -0.008738     0.004911
    14       H     -0.008322     0.001796    -0.010392
    15       H     -0.001568     0.011226     0.002575
    16       H      0.006615     0.013661    -0.000924
    17       H      0.000262     0.008070    -0.009501
    18       H      0.007663    -0.000254     0.002261
    19       H     -0.012863     0.007702    -0.001827
    20       H     -0.006357     0.003384    -0.000166
    21       H      0.006529    -0.013036     0.005553
    22       H      0.002858    -0.002119    -0.000486



          GRADIENT NORM =   0.04850

          MOLECULAR WEIGHT =  132.20



          ROTATIONAL CONSTANTS IN CM(-1)

          A =    0.09148324   B =    0.03853968   C =    0.02803560



           PRINCIPAL MOMENTS OF INERTIA IN UNITS OF 10**(-40)*GRAM-CM**2

          A =      305.9878   B =      726.3359   C =      998.4716


          ORIENTATION OF MOLECULE IN FORCE CALCULATION

    NO.       ATOM         X         Y         Z

     1          C       0.1698    0.3246   -0.7166
     2          C       1.7003    0.3246   -0.7166
     3          C      -0.3343    1.7723   -0.7166
     4          C       0.2966   -1.7805    0.7612
     5          C      -0.3882   -0.5015    0.4026
     6          C       2.2633   -1.0385   -0.5525
     7          C       1.6194   -1.9912    0.1212
     8          C      -1.7067    1.9402   -0.1755
     9          C      -1.5300   -0.1559    1.0247
    10          C      -2.2533    1.0432    0.6543
    11          H      -0.1832   -0.1767   -1.6533
    12          H       2.0929    0.9631    0.1021
    13          H       2.0664    0.7799   -1.6577
    14          H       0.3361    2.4218   -0.1140
    15          H      -0.2856    2.1722   -1.7487
    16          H      -0.3700   -2.6269    0.4953
    17          H       0.4295   -1.8323    1.8620
    18          H       3.2473   -1.2243   -0.9959
    19          H       2.0561   -2.9887    0.2436
    20          H      -2.2386    2.8550   -0.4570
    21          H      -1.9535   -0.7803    1.8191
    22          H      -3.2533    1.1838    1.0764


    FIRST DERIVATIVES WILL BE USED IN THE CALCULATION OF SECOND DERIVATIVES

          ESTIMATED TIME TO COMPLETE CALCULATION =        2.06 SECONDS

    FOR POINT-GROUP C1   THERE ARE   1 UNIQUE SYMMETRY FUNCTIONS.

 STEP:   1 TIME =     0.02 SECS, INTEGRAL =      0.02 TIME LEFT: 172799.97
 STEP:   2 TIME =     0.02 SECS, INTEGRAL =      0.04 TIME LEFT: 172799.95
 STEP:   3 TIME =     0.02 SECS, INTEGRAL =      0.06 TIME LEFT: 172799.93
 STEP:   4 TIME =     0.02 SECS, INTEGRAL =      0.08 TIME LEFT: 172799.91
 STEP:   5 TIME =     0.02 SECS, INTEGRAL =      0.11 TIME LEFT: 172799.89
 STEP:   6 TIME =     0.02 SECS, INTEGRAL =      0.13 TIME LEFT: 172799.86
 STEP:   7 TIME =     0.02 SECS, INTEGRAL =      0.15 TIME LEFT: 172799.84
 STEP:   8 TIME =     0.02 SECS, INTEGRAL =      0.17 TIME LEFT: 172799.82
 STEP:   9 TIME =     0.02 SECS, INTEGRAL =      0.20 TIME LEFT: 172799.80
 STEP:  10 TIME =     0.02 SECS, INTEGRAL =      0.21 TIME LEFT: 172799.78
 STEP:  11 TIME =     0.02 SECS, INTEGRAL =      0.23 TIME LEFT: 172799.76
 STEP:  12 TIME =     0.02 SECS, INTEGRAL =      0.25 TIME LEFT: 172799.74
 STEP:  13 TIME =     0.02 SECS, INTEGRAL =      0.28 TIME LEFT: 172799.71
 STEP:  14 TIME =     0.02 SECS, INTEGRAL =      0.30 TIME LEFT: 172799.69
 STEP:  15 TIME =     0.02 SECS, INTEGRAL =      0.32 TIME LEFT: 172799.67
 STEP:  16 TIME =     0.02 SECS, INTEGRAL =      0.34 TIME LEFT: 172799.65
 STEP:  17 TIME =     0.02 SECS, INTEGRAL =      0.37 TIME LEFT: 172799.62
 STEP:  18 TIME =     0.02 SECS, INTEGRAL =      0.39 TIME LEFT: 172799.61
 STEP:  19 TIME =     0.02 SECS, INTEGRAL =      0.41 TIME LEFT: 172799.59
 STEP:  20 TIME =     0.02 SECS, INTEGRAL =      0.43 TIME LEFT: 172799.57
 STEP:  21 TIME =     0.02 SECS, INTEGRAL =      0.45 TIME LEFT: 172799.55
 STEP:  22 TIME =     0.02 SECS, INTEGRAL =      0.47 TIME LEFT: 172799.52
 STEP:  23 TIME =     0.02 SECS, INTEGRAL =      0.49 TIME LEFT: 172799.50
 STEP:  24 TIME =     0.02 SECS, INTEGRAL =      0.51 TIME LEFT: 172799.48
 STEP:  25 TIME =     0.02 SECS, INTEGRAL =      0.54 TIME LEFT: 172799.46
 STEP:  26 TIME =     0.02 SECS, INTEGRAL =      0.56 TIME LEFT: 172799.43
 STEP:  27 TIME =     0.02 SECS, INTEGRAL =      0.58 TIME LEFT: 172799.41
 STEP:  28 TIME =     0.02 SECS, INTEGRAL =      0.60 TIME LEFT: 172799.39
 STEP:  29 TIME =     0.02 SECS, INTEGRAL =      0.62 TIME LEFT: 172799.37
 STEP:  30 TIME =     0.02 SECS, INTEGRAL =      0.64 TIME LEFT: 172799.35
 STEP:  31 TIME =     0.02 SECS, INTEGRAL =      0.67 TIME LEFT: 172799.32
 STEP:  32 TIME =     0.02 SECS, INTEGRAL =      0.69 TIME LEFT: 172799.30
 STEP:  33 TIME =     0.02 SECS, INTEGRAL =      0.71 TIME LEFT: 172799.29
 STEP:  34 TIME =     0.02 SECS, INTEGRAL =      0.73 TIME LEFT: 172799.27
 STEP:  35 TIME =     0.02 SECS, INTEGRAL =      0.75 TIME LEFT: 172799.24
 STEP:  36 TIME =     0.02 SECS, INTEGRAL =      0.77 TIME LEFT: 172799.22
 STEP:  37 TIME =     0.02 SECS, INTEGRAL =      0.80 TIME LEFT: 172799.20
 STEP:  38 TIME =     0.02 SECS, INTEGRAL =      0.82 TIME LEFT: 172799.17
 STEP:  39 TIME =     0.02 SECS, INTEGRAL =      0.84 TIME LEFT: 172799.15
 STEP:  40 TIME =     0.02 SECS, INTEGRAL =      0.86 TIME LEFT: 172799.13
 STEP:  41 TIME =     0.02 SECS, INTEGRAL =      0.88 TIME LEFT: 172799.11
 STEP:  42 TIME =     0.02 SECS, INTEGRAL =      0.91 TIME LEFT: 172799.09
 STEP:  43 TIME =     0.02 SECS, INTEGRAL =      0.93 TIME LEFT: 172799.06
 STEP:  44 TIME =     0.02 SECS, INTEGRAL =      0.95 TIME LEFT: 172799.04
 STEP:  45 TIME =     0.02 SECS, INTEGRAL =      0.98 TIME LEFT: 172799.02
 STEP:  46 TIME =     0.02 SECS, INTEGRAL =      1.00 TIME LEFT: 172798.99
 STEP:  47 TIME =     0.02 SECS, INTEGRAL =      1.02 TIME LEFT: 172798.97
 STEP:  48 TIME =     0.02 SECS, INTEGRAL =      1.04 TIME LEFT: 172798.95
 STEP:  49 TIME =     0.02 SECS, INTEGRAL =      1.06 TIME LEFT: 172798.93
 STEP:  50 TIME =     0.02 SECS, INTEGRAL =      1.09 TIME LEFT: 172798.91
 STEP:  51 TIME =     0.02 SECS, INTEGRAL =      1.11 TIME LEFT: 172798.89
 STEP:  52 TIME =     0.02 SECS, INTEGRAL =      1.13 TIME LEFT: 172798.86
 STEP:  53 TIME =     0.02 SECS, INTEGRAL =      1.15 TIME LEFT: 172798.84
 STEP:  54 TIME =     0.02 SECS, INTEGRAL =      1.18 TIME LEFT: 172798.82
 STEP:  55 TIME =     0.02 SECS, INTEGRAL =      1.20 TIME LEFT: 172798.79
 STEP:  56 TIME =     0.02 SECS, INTEGRAL =      1.22 TIME LEFT: 172798.77
 STEP:  57 TIME =     0.02 SECS, INTEGRAL =      1.25 TIME LEFT: 172798.75
 STEP:  58 TIME =     0.02 SECS, INTEGRAL =      1.27 TIME LEFT: 172798.72
 STEP:  59 TIME =     0.02 SECS, INTEGRAL =      1.29 TIME LEFT: 172798.70
 STEP:  60 TIME =     0.02 SECS, INTEGRAL =      1.32 TIME LEFT: 172798.68
 STEP:  61 TIME =     0.02 SECS, INTEGRAL =      1.34 TIME LEFT: 172798.65
 STEP:  62 TIME =     0.02 SECS, INTEGRAL =      1.36 TIME LEFT: 172798.63
 STEP:  63 TIME =     0.02 SECS, INTEGRAL =      1.39 TIME LEFT: 172798.61
 STEP:  64 TIME =     0.02 SECS, INTEGRAL =      1.41 TIME LEFT: 172798.58
 STEP:  65 TIME =     0.02 SECS, INTEGRAL =      1.43 TIME LEFT: 172798.56
 STEP:  66 TIME =     0.02 SECS, INTEGRAL =      1.46 TIME LEFT: 172798.54

(To convert to Hartree/Bohr^2, multiply by (10^(-21) x N x a0^2)/(4.184 x 627.51) =  0.0642)


           FORCE MATRIX IN MILLIDYNES/ANGSTROM


                  C  1       C  2       C  3       C  4       C  5       C  6
 ------------------------------------------------------------------------------
     C    1  14.558780
     C    2   3.828069  14.759077
     C    3   3.796117   0.662533  14.656325
     C    4   0.546297   0.105138   0.045462  15.057025
     C    5   4.517460   0.661666   0.614031   4.681702  18.215646
     C    6   0.675625   5.084746   0.052266   0.853533   0.054039  18.278957
     C    7   0.058349   0.877897   0.004773   5.065304   0.677579  10.742802
     C    8   0.626308   0.049388   5.037188   0.018445   0.156742   0.010592
     C    9   0.808190   0.050897   0.118114   0.852890   9.854460   0.002670
     C   10   0.106675   0.011745   0.873494   0.132774   1.127852   0.003013
     H   11   4.149584   0.429252   0.422610   0.014123   0.383474   0.014212
     H   12   0.452997   4.381177   0.045583   0.014578   0.009693   0.406665
     H   13   0.431413   4.467263   0.025446   0.007373   0.050637   0.438556
     H   14   0.451103   0.070733   4.340885   0.004655   0.010753   0.003224
     H   15   0.431230   0.018342   4.459736   0.007940   0.047735   0.001336
     H   16   0.022089   0.011024   0.003930   4.384912   0.412267   0.041957
     H   17   0.030021   0.013781   0.005074   4.376998   0.431446   0.033738
     H   18   0.038994   0.428472   0.007365   0.125578   0.004012   4.843511
     H   19   0.006714   0.124129   0.001509   0.423493   0.045483   0.445845
     H   20   0.043303   0.008257   0.426884   0.009753   0.012516   0.001917
     H   21   0.112628   0.014134   0.005369   0.073643   0.458072   0.001845
     H   22   0.004711   0.000773   0.122384   0.008839   0.047307   0.000446


                  C  7       C  8       C  9       C 10       H 11       H 12
 ------------------------------------------------------------------------------
     C    7  18.311321
     C    8   0.001812  18.054979
     C    9   0.054671   1.160812  18.400643
     C   10   0.011144  10.301525   5.688189  18.435354
     H   11   0.005626   0.012243   0.034451   0.016119   4.589937
     H   12   0.027403   0.002463   0.002079   0.001604   0.043595   4.979928
     H   13   0.048208   0.001035   0.008719   0.001925   0.034208   0.564592
     H   14   0.000833   0.403269   0.018415   0.035025   0.042381   0.024834
     H   15   0.000990   0.435602   0.009873   0.047220   0.034574   0.001249
     H   16   0.425268   0.002379   0.037938   0.014636   0.001892   0.001447
     H   17   0.412535   0.001942   0.045496   0.012253   0.001506   0.001977
     H   18   0.445234   0.001558   0.001639   0.000599   0.001478   0.014918
     H   19   4.822572   0.000636   0.008237   0.001647   0.000596   0.016974
     H   20   0.000826   4.848932   0.124308   0.445254   0.004047   0.000397
     H   21   0.002153   0.047073   4.829087   0.433925   0.015437   0.000449
     H   22   0.001650   0.445624   0.432807   4.863473   0.000770   0.000224


                  H 13       H 14       H 15       H 16       H 17       H 18
 ------------------------------------------------------------------------------
     H   13   5.060828
     H   14   0.003805   4.944963
     H   15   0.006681   0.573725   5.048780
     H   16   0.000883   0.000544   0.000242   4.962367
     H   17   0.000614   0.000583   0.001320   0.565389   4.961565
     H   18   0.035972   0.000550   0.000286   0.015464   0.017432   5.216448
     H   19   0.011613   0.000160   0.000158   0.034817   0.023952   0.069287
     H   20   0.000437   0.018345   0.035595   0.001217   0.001016   0.000530
     H   21   0.002282   0.000788   0.000787   0.010069   0.016933   0.000408
     H   22   0.000175   0.017292   0.013467   0.000787   0.000853   0.000201


                  H 19       H 20       H 21       H 22
 ------------------------------------------------------
     H   19   5.198304
     H   20   0.000314   5.225620
     H   21   0.000913   0.007399   5.204569
     H   22   0.000442   0.065314   0.031574   5.229490


          HEAT OF FORMATION =      30.127095 KCALS/MOLE

          ZERO POINT ENERGY     118.719 KCAL/MOL


           NORMAL COORDINATE ANALYSIS (Total motion = 1 Angstrom)


   Root No.       1         2         3         4         5         6         7         8

                 1 A       2 A       3 A       4 A       5 A       6 A       7 A       8 A   

                  41.3     106.9     169.5     329.7     350.9     360.4     415.9     457.0
  
           1    0.0045    0.0096   -0.0034    0.0214   -0.0203    0.0054    0.0188   -0.0056
           2    0.0092   -0.0004   -0.0064    0.0158   -0.0268    0.0166    0.0010   -0.0136
           3    0.0125    0.0084   -0.0106    0.0432    0.0227   -0.0056    0.0147    0.0041
           4    0.0040    0.0100   -0.0032    0.0205   -0.0253    0.0042    0.0215    0.0076
           5   -0.0067    0.0141   -0.0005    0.0022    0.0085   -0.0082    0.0017   -0.0451
           6   -0.0086    0.0567    0.0001   -0.0180    0.0088    0.0143   -0.0052    0.0094
           7    0.0166   -0.0132   -0.0065   -0.0071    0.0207   -0.0101   -0.0008   -0.0299
           8    0.0128   -0.0091   -0.0064    0.0039   -0.0173    0.0144   -0.0126   -0.0137
           9    0.0375   -0.0319   -0.0239   -0.0169    0.0020   -0.0049    0.0073    0.0146
          10    0.0231    0.0079    0.0143   -0.0076    0.0101   -0.0027   -0.0032    0.0314
          11    0.0245    0.0047    0.0136   -0.0047   -0.0183    0.0019    0.0075    0.0178
          12    0.0405    0.0078    0.0242   -0.0046   -0.0024   -0.0048   -0.0025   -0.0290
          13    0.0048    0.0032   -0.0123    0.0185   -0.0152    0.0114   -0.0127   -0.0135
          14    0.0062    0.0032   -0.0124    0.0217   -0.0196    0.0103    0.0011    0.0120
          15    0.0108    0.0076   -0.0202    0.0446    0.0313   -0.0070   -0.0018    0.0074
          16   -0.0130   -0.0061    0.0010    0.0023   -0.0029   -0.0199    0.0079    0.0624
          17   -0.0170   -0.0021    0.0014   -0.0049    0.0192   -0.0280   -0.0054   -0.0302
          18   -0.0348   -0.0134    0.0005   -0.0040   -0.0297   -0.0398   -0.0173   -0.0021
          19   -0.0069   -0.0160    0.0073   -0.0092    0.0228    0.0211    0.0040    0.0422
          20   -0.0052   -0.0134    0.0058   -0.0011    0.0212    0.0048    0.0135   -0.0249
          21   -0.0120   -0.0378    0.0127   -0.0094   -0.0020    0.0459    0.0062   -0.0166
          22   -0.0036   -0.0056    0.0264    0.0009    0.0250   -0.0090   -0.0195   -0.0334
          23   -0.0030   -0.0070    0.0257   -0.0002    0.0129    0.0024   -0.0236    0.0324
          24   -0.0074   -0.0140    0.0475    0.0069   -0.0122    0.0078   -0.0328    0.0122
          25   -0.0130    0.0054   -0.0314   -0.0171   -0.0222    0.0103   -0.0307   -0.0180
          26   -0.0072    0.0059   -0.0318   -0.0100    0.0030   -0.0001   -0.0142    0.0370
          27   -0.0137    0.0091   -0.0448   -0.0023    0.0081   -0.0046   -0.0214   -0.0035
          28   -0.0196    0.0049    0.0035   -0.0120    0.0057   -0.0040    0.0114   -0.0479
          29   -0.0163    0.0041    0.0047   -0.0106    0.0169   -0.0094    0.0334    0.0295
          30   -0.0320    0.0049    0.0092   -0.0126   -0.0203   -0.0019    0.0503   -0.0016
          31   -0.0129    0.0442    0.0071    0.0041   -0.0293    0.0123    0.0263   -0.0038
          32    0.0235   -0.0207   -0.0110   -0.0183   -0.0393    0.0226   -0.0067   -0.0139
          33    0.0112    0.0062   -0.0122    0.0655    0.0328   -0.0113    0.0148    0.0041
          34    0.0226   -0.0208   -0.0121    0.0717   -0.0338   -0.0018    0.0414   -0.0002
          35   -0.0225   -0.0379   -0.0017    0.0297   -0.0113   -0.0743   -0.0039   -0.0534
          36   -0.0053    0.1115    0.0054   -0.0654    0.0293    0.0693   -0.0110    0.0193
          37   -0.0038    0.0394    0.0016   -0.0187   -0.0447    0.0329    0.0072    0.0051
          38    0.0021    0.0755    0.0044   -0.0427    0.0514    0.0520    0.0029   -0.0317
          39   -0.0073    0.0983    0.0045   -0.0558    0.0220    0.0558   -0.0104    0.0157
          40   -0.0016   -0.0118    0.0327    0.0014    0.0299   -0.0077   -0.0437   -0.0220
          41   -0.0109    0.0231    0.0153    0.0589   -0.0272    0.0258   -0.0185   -0.0196
          42    0.0830   -0.0684   -0.0909   -0.0877    0.0037   -0.0212    0.0629    0.0108
          43    0.0574   -0.0389   -0.0728   -0.0596    0.0451   -0.0323    0.0569   -0.0352
          44    0.0440   -0.0444   -0.0420   -0.0611   -0.0300    0.0081    0.0100   -0.0165
          45    0.0515   -0.0470   -0.0413   -0.0455   -0.0019   -0.0086    0.0196    0.0137
          46    0.0113   -0.0082    0.0240   -0.0226    0.0341    0.0130    0.0099    0.0308
          47    0.0093    0.0036   -0.0128    0.0242   -0.0217    0.0147   -0.0018    0.0194
          48    0.1192    0.0528    0.0854   -0.0616   -0.0534   -0.0896   -0.0061   -0.0305
          49    0.0779    0.0512    0.0395   -0.0231   -0.0099   -0.0811   -0.0114    0.0440
          50    0.0836    0.0281    0.0759   -0.0701   -0.0643   -0.0464    0.0114    0.0118
          51    0.0368    0.0037    0.0245   -0.0065   -0.0031    0.0015   -0.0013   -0.0312
          52   -0.0337   -0.0215   -0.0034    0.0025   -0.0152   -0.0550   -0.0031    0.0805
          53   -0.0348   -0.0057   -0.0004   -0.0179    0.0315   -0.0532   -0.0243    0.0009
          54   -0.0730   -0.0454   -0.0084    0.0010   -0.0615   -0.1063   -0.0336    0.0256
          55   -0.0226   -0.0419    0.0084   -0.0166    0.0489    0.0434    0.0043    0.0184
          56   -0.0141   -0.0307    0.0069   -0.0057    0.0334    0.0220    0.0155   -0.0325
          57   -0.0291   -0.0890    0.0168   -0.0180    0.0057    0.1069    0.0236    0.0064
          58   -0.0042   -0.0108    0.0623    0.0053    0.0445   -0.0159   -0.0314   -0.0022
          59   -0.0067   -0.0113    0.0695    0.0084    0.0227    0.0019   -0.0454    0.0522
          60   -0.0178   -0.0187    0.1205    0.0246   -0.0171    0.0191   -0.0811    0.0174
          61   -0.0198    0.0068   -0.0533   -0.0521   -0.0506    0.0194   -0.0746   -0.0094
          62   -0.0087    0.0086   -0.0570   -0.0379    0.0221   -0.0045   -0.0681    0.0530
          63   -0.0187    0.0119   -0.0762   -0.0431    0.0073   -0.0031   -0.0870    0.0137
          64   -0.0353    0.0107    0.0183   -0.0193    0.0002   -0.0074    0.0580   -0.0509
          65   -0.0331    0.0116    0.0283   -0.0130    0.0356   -0.0250    0.0996    0.0168
          66   -0.0639    0.0163    0.0367   -0.0287   -0.0392   -0.0046    0.1387   -0.0042


   Root No.       9        10        11        12        13        14        15        16

                 9 A      10 A      11 A      12 A      13 A      14 A      15 A      16 A   

                 476.9     553.2     587.1     722.3     744.0     757.8     799.0     822.3
  
           1   -0.0213   -0.0249   -0.0137    0.0044   -0.0061    0.0082   -0.0023    0.0022
           2    0.0285    0.0208   -0.0158   -0.0030   -0.0003    0.0097   -0.0104   -0.0012
           3    0.0219   -0.0003   -0.0321    0.0033    0.0038    0.0108    0.0233   -0.0249
           4   -0.0312   -0.0278   -0.0201    0.0000    0.0125   -0.0016   -0.0088    0.0263
           5   -0.0086   -0.0297   -0.0023   -0.0039   -0.0149    0.0138    0.0006    0.0190
           6    0.0065    0.0089    0.0010   -0.0134   -0.0042    0.0044    0.0223   -0.0072
           7   -0.0162    0.0279   -0.0036   -0.0018   -0.0184    0.0023   -0.0166   -0.0140
           8    0.0445    0.0350   -0.0173   -0.0038    0.0139   -0.0086   -0.0295    0.0076
           9   -0.0063   -0.0201   -0.0014    0.0070   -0.0131   -0.0089    0.0120   -0.0287
          10    0.0250    0.0064    0.0069   -0.0158   -0.0137    0.0060   -0.0053    0.0034
          11   -0.0358    0.0404    0.0149   -0.0129   -0.0005    0.0018    0.0339   -0.0137
          12    0.0073   -0.0264    0.0063   -0.0049    0.0153   -0.0195   -0.0337   -0.0063
          13    0.0210   -0.0219    0.0468    0.0125   -0.0061   -0.0010    0.0013   -0.0146
          14   -0.0226    0.0267    0.0402    0.0016   -0.0116    0.0083    0.0065    0.0035
          15    0.0065    0.0060    0.0330    0.0089    0.0080    0.0009   -0.0125    0.0167
          16   -0.0150    0.0194   -0.0077   -0.0011    0.0358   -0.0309   -0.0074   -0.0089
          17   -0.0055   -0.0109    0.0039   -0.0021   -0.0074    0.0004   -0.0023   -0.0023
          18    0.0164    0.0028    0.0123   -0.0182   -0.0106   -0.0018    0.0014    0.0046
          19    0.0221    0.0089   -0.0053   -0.0162   -0.0196    0.0086   -0.0036    0.0110
          20   -0.0406   -0.0054   -0.0091    0.0102    0.0330   -0.0260    0.0011   -0.0188
          21    0.0015   -0.0048   -0.0041   -0.0120   -0.0051   -0.0024    0.0052    0.0027
          22   -0.0236    0.0269   -0.0002   -0.0030   -0.0182    0.0043   -0.0083   -0.0006
          23    0.0299   -0.0335   -0.0007    0.0065    0.0188   -0.0194    0.0274    0.0172
          24   -0.0258   -0.0060    0.0013    0.0034   -0.0160   -0.0107   -0.0033    0.0071
          25    0.0121   -0.0258    0.0053    0.0093   -0.0014   -0.0047    0.0172   -0.0185
          26   -0.0086   -0.0301   -0.0046    0.0046   -0.0217    0.0038   -0.0101   -0.0095
          27   -0.0222    0.0317   -0.0234   -0.0029    0.0131    0.0026    0.0057    0.0364
          28    0.0326    0.0158    0.0015    0.0043    0.0282   -0.0180    0.0408    0.0090
          29    0.0153   -0.0183   -0.0020    0.0023   -0.0189   -0.0079   -0.0077    0.0053
          30   -0.0043    0.0083    0.0010    0.0022   -0.0247   -0.0116   -0.0113    0.0042
          31   -0.0515   -0.0600   -0.0355   -0.0111   -0.0104    0.0247    0.0209    0.0511
          32    0.0437    0.0294   -0.0437   -0.0103    0.0038   -0.0030   -0.0480   -0.0309
          33    0.0244    0.0084   -0.0073    0.0131    0.0045    0.0105    0.0326   -0.0251
          34   -0.0135   -0.0409   -0.0726   -0.0154    0.0037    0.0346    0.0359    0.0201
          35    0.0053   -0.0468   -0.0127   -0.0739   -0.0414    0.0170    0.0455    0.0254
          36   -0.0129    0.0297    0.0358    0.0511    0.0205   -0.0156   -0.0361   -0.0095
          37   -0.0374   -0.0186    0.0173    0.0228    0.0145   -0.0135   -0.0666    0.0610
          38   -0.0345   -0.0111    0.0216    0.0703    0.0164   -0.0050   -0.0485    0.0047
          39   -0.0090    0.0223    0.0285    0.0334    0.0133   -0.0106   -0.0254   -0.0013
          40   -0.0305    0.0327   -0.0103    0.0076   -0.0521   -0.0320   -0.0169   -0.0236
          41    0.0595    0.0466   -0.0709    0.0048   -0.0147   -0.0122   -0.0417   -0.0657
          42   -0.0079   -0.0387    0.0671   -0.0141    0.0567    0.0359    0.0257    0.0642
          43    0.0031    0.0125    0.0426   -0.0183    0.0484    0.0447    0.0161    0.0394
          44    0.0241    0.0290    0.0432   -0.0215    0.0533    0.0125   -0.0515    0.1037
          45   -0.0134   -0.0240    0.0260   -0.0009    0.0071    0.0017    0.0065    0.0132
          46    0.0201   -0.0024   -0.0313   -0.0314   -0.0043   -0.0105   -0.0174    0.0085
          47   -0.0390    0.0446    0.0660   -0.0243   -0.0028    0.0022    0.0328   -0.0276
          48    0.0328   -0.0161   -0.0653    0.0758   -0.0061    0.0266    0.0052    0.0285
          49    0.0423    0.0190   -0.0187    0.0506   -0.0212    0.0429    0.0029    0.0369
          50   -0.0184    0.0503   -0.0633    0.0349   -0.0286    0.0384    0.0969    0.0042
          51    0.0062   -0.0271    0.0044   -0.0086    0.0153   -0.0217   -0.0313   -0.0091
          52   -0.0050    0.0427   -0.0018    0.0786    0.0463   -0.0021   -0.0300   -0.0212
          53    0.0317    0.0250    0.0176    0.0417   -0.0325    0.0389   -0.0083   -0.0233
          54    0.0218    0.0409    0.0205    0.1407    0.0234    0.0458   -0.0444   -0.0153
          55    0.0440   -0.0069   -0.0234    0.0649   -0.0473    0.0709   -0.0180    0.0385
          56   -0.0321   -0.0067   -0.0199    0.0641    0.0201    0.0129    0.0016   -0.0053
          57   -0.0098    0.0372   -0.0313    0.1402   -0.0083    0.0924    0.0549    0.0207
          58   -0.0571   -0.0126    0.0239   -0.0204    0.0135    0.0849   -0.0164   -0.0259
          59    0.0086   -0.0621    0.0239   -0.0154    0.0841    0.0678    0.0204    0.0033
          60   -0.0309   -0.0260    0.0369   -0.0345    0.1362    0.1199   -0.0080    0.0076
          61   -0.0290   -0.0330   -0.0285   -0.0246    0.0160    0.0386   -0.0108   -0.0879
          62   -0.0210   -0.0512   -0.0584   -0.0307    0.0294    0.0425   -0.0457   -0.0423
          63   -0.0539    0.0104   -0.0836   -0.0487    0.0630    0.0558   -0.0377   -0.0252
          64    0.0477    0.0085    0.0207   -0.0141    0.0759    0.0374    0.0181   -0.0419
          65    0.0137    0.0112    0.0121   -0.0322    0.0274    0.0763   -0.0670   -0.0307
          66    0.0335   -0.0185    0.0412   -0.0302    0.0736    0.0917   -0.0475   -0.1028


   Root No.      17        18        19        20        21        22        23        24

                17 A      18 A      19 A      20 A      21 A      22 A      23 A      24 A   

                 872.2     910.2     928.8     952.6     984.4    1015.5    1033.7    1040.9
  
           1    0.0039   -0.0005    0.0048   -0.0036    0.0018   -0.0042   -0.0035    0.0043
           2   -0.0029    0.0010    0.0078   -0.0069   -0.0044   -0.0090    0.0018   -0.0291
           3   -0.0031    0.0043    0.0090   -0.0235    0.0010    0.0160   -0.0009   -0.0126
           4    0.0093   -0.0130   -0.0045    0.0034   -0.0017    0.0091    0.0053    0.0059
           5    0.0117   -0.0124   -0.0018   -0.0003   -0.0011    0.0132   -0.0201    0.0063
           6   -0.0055    0.0379   -0.0067    0.0214    0.0045   -0.0138    0.0090    0.0077
           7   -0.0064   -0.0002   -0.0023    0.0040    0.0016    0.0113    0.0073    0.0340
           8   -0.0079    0.0097   -0.0079    0.0041    0.0055    0.0124   -0.0013    0.0301
           9    0.0094   -0.0320    0.0002    0.0217   -0.0098   -0.0162   -0.0057    0.0122
          10    0.0241   -0.0004    0.0112    0.0067   -0.0069    0.0140    0.0242   -0.0074
          11    0.0268   -0.0034    0.0115    0.0024   -0.0042    0.0155    0.0041   -0.0009
          12    0.0200    0.0199    0.0149    0.0140   -0.0073    0.0080   -0.0213   -0.0032
          13   -0.0103    0.0045   -0.0134   -0.0062   -0.0003   -0.0112    0.0032   -0.0018
          14   -0.0046   -0.0028   -0.0106   -0.0033    0.0039   -0.0172   -0.0026    0.0057
          15   -0.0029   -0.0059   -0.0188    0.0009    0.0011   -0.0146    0.0058    0.0058
          16   -0.0243    0.0081   -0.0142    0.0025   -0.0096    0.0047   -0.0319   -0.0070
          17   -0.0043   -0.0046   -0.0024   -0.0017   -0.0029    0.0000    0.0077   -0.0027
          18   -0.0079   -0.0192   -0.0111   -0.0046   -0.0149    0.0161    0.0065   -0.0139
          19   -0.0035   -0.0103    0.0057   -0.0097    0.0123   -0.0123   -0.0212    0.0104
          20   -0.0184    0.0125   -0.0031   -0.0000    0.0045   -0.0148    0.0326   -0.0038
          21   -0.0102   -0.0159    0.0059   -0.0185    0.0181   -0.0179    0.0077    0.0074
          22   -0.0015    0.0084   -0.0018   -0.0045    0.0053   -0.0035   -0.0089   -0.0380
          23    0.0201   -0.0085   -0.0115    0.0019    0.0147    0.0074    0.0072    0.0020
          24    0.0044    0.0123   -0.0124   -0.0063    0.0214    0.0126   -0.0007   -0.0260
          25   -0.0220    0.0058    0.0156    0.0066    0.0055    0.0130    0.0015   -0.0090
          26   -0.0275    0.0080    0.0170    0.0081    0.0066    0.0138   -0.0040   -0.0057
          27   -0.0084   -0.0195    0.0200    0.0235    0.0081    0.0031   -0.0004   -0.0040
          28    0.0198   -0.0095    0.0017   -0.0018   -0.0133   -0.0165   -0.0100    0.0010
          29    0.0031    0.0055    0.0035   -0.0087   -0.0170   -0.0086    0.0032    0.0060
          30   -0.0010    0.0182    0.0052   -0.0195   -0.0234   -0.0039    0.0040    0.0187
          31    0.0428    0.0503    0.0151    0.0413    0.0484   -0.0681   -0.0326    0.0289
          32    0.0017   -0.0247    0.0301    0.0487   -0.0594   -0.0768    0.0113   -0.1190
          33   -0.0203   -0.0019   -0.0081   -0.0698    0.0128    0.0775    0.0055    0.0275
          34    0.0290    0.0589    0.0245    0.0021    0.0546   -0.0385    0.0264   -0.0166
          35   -0.0064    0.0464   -0.0402    0.0684   -0.0247    0.0106   -0.0403    0.0495
          36   -0.0006   -0.0457    0.0096   -0.0332   -0.0047    0.0126    0.0134   -0.0148
          37    0.0211   -0.0924   -0.0100    0.0065   -0.0391    0.0137    0.0994   -0.0062
          38    0.0162   -0.0894    0.0222   -0.0768    0.0068    0.0585   -0.1098   -0.0086
          39    0.0007   -0.0325    0.0026   -0.0159   -0.0070    0.0109    0.0050   -0.0054
          40    0.0086   -0.0212   -0.0308    0.0473    0.0406    0.0138    0.0292    0.1417
          41   -0.0099   -0.0381    0.0128    0.0192   -0.0466   -0.0037   -0.0167    0.0041
          42   -0.0062    0.0463    0.0096   -0.0449    0.0040    0.0003   -0.0132   -0.0788
          43   -0.0204    0.0614    0.0147   -0.0830    0.0013    0.0910    0.0431    0.0029
          44   -0.0207    0.0806   -0.0209   -0.0117    0.0441   -0.0046   -0.0189   -0.0084
          45    0.0040   -0.0004   -0.0043    0.0105    0.0061   -0.0190   -0.0115   -0.0046
          46    0.0128    0.0045    0.0455    0.0103    0.0117    0.0368    0.1319   -0.0212
          47    0.0718    0.0029    0.0047    0.0111   -0.0271    0.0164   -0.0718    0.0044
          48   -0.1013   -0.0171   -0.0531   -0.0258    0.0207   -0.0545   -0.0436    0.0158
          49   -0.0358   -0.0182   -0.0674    0.0056   -0.0249   -0.0392    0.1164   -0.0188
          50   -0.0771   -0.0474   -0.0097   -0.0512    0.0467   -0.0076   -0.0265    0.0262
          51    0.0200    0.0198    0.0222    0.0111   -0.0024    0.0123   -0.0351   -0.0005
          52    0.0427    0.0343    0.0470   -0.0030    0.0357   -0.0253   -0.0252    0.0199
          53    0.0393    0.0383    0.0516   -0.0041    0.0465   -0.0598   -0.0708    0.0353
          54    0.1227    0.0204    0.1021   -0.0165    0.0646   -0.0239    0.0582    0.0291
          55    0.0079    0.0278   -0.0345    0.0446   -0.0337    0.0022   -0.0057   -0.0003
          56   -0.0091    0.0382   -0.0312    0.0361   -0.0291    0.0039    0.0346   -0.0130
          57    0.0271    0.0548   -0.0813    0.0830   -0.0949    0.0909   -0.0363   -0.0311
          58   -0.0469   -0.0118    0.0588   -0.0036   -0.0691   -0.0452    0.0051   -0.0442
          59   -0.0321   -0.0230    0.0512    0.0033   -0.0587   -0.0232    0.0133    0.0440
          60   -0.0796    0.0049    0.0771   -0.0050   -0.0759   -0.0054   -0.0077    0.1222
          61    0.0538    0.0378   -0.0687   -0.0800   -0.0165   -0.0046    0.0270    0.0248
          62    0.0732    0.0067   -0.0732   -0.0517   -0.0175   -0.0354   -0.0180   -0.0004
          63    0.1116   -0.0040   -0.0959   -0.0692   -0.0224   -0.0450    0.0021    0.0195
          64    0.0136   -0.0445   -0.0276    0.0442    0.0541    0.0105   -0.0096   -0.0190
          65    0.0016   -0.0506   -0.0291    0.0587    0.0528   -0.0288   -0.0251   -0.1089
          66   -0.0154   -0.0452   -0.0538    0.0669    0.1139    0.0691    0.0163    0.0142


   Root No.      25        26        27        28        29        30        31        32

                25 A      26 A      27 A      28 A      29 A      30 A      31 A      32 A   

                1052.0    1066.2    1068.7    1081.1    1096.2    1110.5    1132.8    1159.8
  
           1   -0.0126    0.0087   -0.0087    0.0315    0.0034   -0.0074   -0.0122    0.0027
           2    0.0013    0.0046   -0.0018   -0.0177   -0.0008   -0.0023   -0.0242    0.0027
           3   -0.0026   -0.0031   -0.0014    0.0043   -0.0063   -0.0042   -0.0279    0.0172
           4    0.0135   -0.0005    0.0032   -0.0209   -0.0131    0.0014    0.0133   -0.0028
           5    0.0220   -0.0111    0.0162   -0.0141    0.0076    0.0062    0.0049   -0.0017
           6    0.0156    0.0012    0.0048   -0.0119   -0.0046    0.0004    0.0139   -0.0046
           7   -0.0076    0.0071    0.0054   -0.0005    0.0045    0.0078    0.0017   -0.0011
           8   -0.0020   -0.0078   -0.0001    0.0157    0.0038   -0.0094    0.0123   -0.0095
           9    0.0033   -0.0056   -0.0056    0.0043    0.0017   -0.0072    0.0124   -0.0035
          10   -0.0015   -0.0126    0.0018    0.0046    0.0037    0.0006    0.0002    0.0012
          11   -0.0032   -0.0054   -0.0020    0.0067   -0.0054    0.0022   -0.0016   -0.0008
          12   -0.0055    0.0100   -0.0048   -0.0082   -0.0025   -0.0072   -0.0007   -0.0002
          13    0.0077   -0.0010   -0.0046   -0.0032    0.0100    0.0053    0.0040    0.0062
          14   -0.0006    0.0120   -0.0097   -0.0065    0.0106   -0.0023    0.0086   -0.0004
          15    0.0062   -0.0018   -0.0049    0.0035    0.0088    0.0190   -0.0016   -0.0035
          16    0.0029   -0.0006    0.0035   -0.0080    0.0097    0.0011   -0.0039    0.0001
          17   -0.0201    0.0054   -0.0117   -0.0002   -0.0084   -0.0003    0.0016    0.0003
          18   -0.0278   -0.0067   -0.0140   -0.0008    0.0044    0.0022    0.0031   -0.0009
          19    0.0029    0.0091    0.0071   -0.0040   -0.0104   -0.0005   -0.0004   -0.0009
          20   -0.0010   -0.0032    0.0053    0.0066   -0.0044   -0.0032   -0.0001    0.0009
          21    0.0061   -0.0071    0.0219    0.0049   -0.0022   -0.0010   -0.0001   -0.0002
          22    0.0102   -0.0081   -0.0021    0.0083   -0.0066   -0.0013    0.0037   -0.0061
          23   -0.0076    0.0196    0.0070   -0.0049    0.0108   -0.0048   -0.0016   -0.0011
          24    0.0021    0.0078    0.0036    0.0093   -0.0039    0.0069    0.0050    0.0012
          25    0.0005   -0.0044    0.0040   -0.0010   -0.0024   -0.0051   -0.0013    0.0038
          26    0.0010   -0.0113   -0.0013    0.0115   -0.0171    0.0138    0.0000    0.0017
          27   -0.0061    0.0119    0.0049   -0.0045    0.0087   -0.0124    0.0000   -0.0019
          28    0.0023   -0.0086   -0.0107    0.0070   -0.0116    0.0073    0.0024   -0.0003
          29    0.0012   -0.0035    0.0001   -0.0036    0.0055   -0.0067   -0.0003    0.0020
          30   -0.0007   -0.0005    0.0012   -0.0036    0.0030    0.0033   -0.0008   -0.0006
          31   -0.1126   -0.0067   -0.0082    0.1515    0.1044    0.0071   -0.0740    0.0147
          32   -0.0026    0.0474    0.0548   -0.0746    0.0223    0.1416   -0.0532    0.0816
          33    0.0392   -0.0211   -0.0325   -0.0110   -0.0585   -0.0879    0.0095   -0.0298
          34   -0.1027   -0.0573   -0.0151   -0.1485   -0.0153    0.0414    0.1313   -0.0464
          35    0.1475    0.0245    0.0558    0.0415    0.0152   -0.0084   -0.0442    0.0184
          36   -0.0254    0.0008   -0.0168    0.0063   -0.0093   -0.0072   -0.0076    0.0024
          37    0.0580    0.0783   -0.0322    0.0293   -0.1063   -0.0314   -0.0721    0.0190
          38   -0.0428   -0.0694    0.0305   -0.0224    0.0823    0.0291    0.0230   -0.0016
          39    0.0019    0.0036   -0.0032    0.0035   -0.0067   -0.0026   -0.0104    0.0039
          40   -0.0356   -0.0421   -0.0129   -0.1254    0.0005    0.0096   -0.1143    0.0956
          41    0.0181    0.0378    0.0212    0.1153    0.0222   -0.0060    0.1279   -0.0918
          42    0.0130    0.0001   -0.0072    0.0340   -0.0127   -0.0127    0.0109   -0.0204
          43   -0.0211    0.1328    0.0794    0.0060    0.0361    0.0732    0.0504    0.0547
          44    0.0030   -0.0995   -0.0471   -0.0063   -0.0287   -0.0462   -0.0806   -0.0346
          45    0.0048   -0.0364   -0.0219   -0.0020   -0.0108   -0.0197   -0.0209   -0.0097
          46    0.0617   -0.0262   -0.1215    0.0166    0.1135    0.0356    0.0068   -0.0019
          47   -0.0564    0.0006    0.0875    0.0007   -0.0907   -0.0261   -0.0067    0.0014
          48    0.0036    0.0238    0.0187   -0.0163   -0.0090   -0.0036    0.0009   -0.0000
          49   -0.0655   -0.0723    0.1530    0.0546   -0.0305   -0.0279   -0.0053   -0.0055
          50    0.0641    0.0280   -0.1025   -0.0152    0.0282    0.0437    0.0075    0.0046
          51    0.0059    0.0194   -0.0276   -0.0161    0.0041   -0.0020    0.0000    0.0011
          52    0.0487    0.0059    0.0228   -0.0070    0.0027   -0.0010   -0.0041    0.0003
          53   -0.0417    0.0753   -0.0380    0.0126   -0.0437   -0.0093   -0.0443    0.0052
          54    0.0823   -0.0257    0.0412   -0.0013    0.0069    0.0022    0.0225   -0.0023
          55   -0.0571    0.0749   -0.0814   -0.0320   -0.0657   -0.0319    0.0543   -0.0153
          56   -0.0282    0.0233   -0.0368   -0.0056   -0.0241   -0.0147    0.0200   -0.0042
          57    0.0097   -0.0370    0.0041    0.0037    0.0494    0.0213   -0.0342    0.0098
          58    0.0169    0.0060    0.0145   -0.0611    0.0537   -0.0710   -0.0585   -0.1871
          59   -0.0081    0.0132    0.0084   -0.0361    0.0354   -0.0351   -0.0260   -0.0656
          60   -0.0120   -0.0401   -0.0234    0.0402   -0.0434    0.0490    0.0437    0.1381
          61   -0.0081    0.0359    0.0204   -0.0561    0.0752   -0.1270    0.0027    0.0594
          62    0.0274   -0.0437   -0.0418    0.0522   -0.0668    0.1226   -0.0058   -0.0439
          63    0.0095    0.0096   -0.0180   -0.0025    0.0124    0.0079   -0.0030   -0.0097
          64   -0.0016    0.0002   -0.0056    0.0080   -0.0141    0.0135   -0.0071   -0.0220
          65    0.0290   -0.0270   -0.0160    0.0138    0.0215   -0.1103    0.0853    0.2024
          66   -0.0205    0.0299    0.0197   -0.0071   -0.0077    0.0554   -0.0523   -0.1185


   Root No.      33        34        35        36        37        38        39        40

                33 A      34 A      35 A      36 A      37 A      38 A      39 A      40 A   

                1162.5    1183.9    1196.0    1216.8    1274.4    1336.8    1361.8    1371.7
  
           1    0.0047    0.0193   -0.0268   -0.0375   -0.0322   -0.0080   -0.0201   -0.0018
           2   -0.0044    0.0082    0.0469   -0.0047   -0.0133    0.0333    0.0074    0.0017
           3   -0.0135   -0.0037   -0.0105    0.0107    0.0124   -0.0145    0.0042   -0.0085
           4    0.0066    0.0033   -0.0119   -0.0007    0.0244    0.0010    0.0140    0.0442
           5    0.0021   -0.0020    0.0100    0.0127   -0.0021   -0.0030   -0.0159   -0.0151
           6    0.0008    0.0022   -0.0022   -0.0069   -0.0063    0.0013   -0.0003    0.0012
           7    0.0017    0.0026   -0.0083   -0.0023   -0.0159    0.0186    0.0156   -0.0269
           8    0.0028   -0.0165   -0.0058   -0.0013    0.0174   -0.0137   -0.0033    0.0305
           9    0.0015    0.0011    0.0161    0.0057    0.0027   -0.0010   -0.0045    0.0062
          10   -0.0022   -0.0114   -0.0044   -0.0045   -0.0131    0.0134    0.0253    0.0188
          11   -0.0005   -0.0007   -0.0102   -0.0017    0.0163   -0.0220    0.0189   -0.0133
          12   -0.0007    0.0096    0.0110    0.0015   -0.0020    0.0052   -0.0255   -0.0043
          13    0.0029   -0.0179   -0.0021   -0.0133    0.0025    0.0086    0.0099   -0.0077
          14   -0.0076    0.0286    0.0201    0.0032   -0.0081   -0.0148   -0.0076    0.0004
          15    0.0033   -0.0111   -0.0176    0.0154    0.0077    0.0031   -0.0023    0.0072
          16   -0.0003    0.0019    0.0150    0.0053    0.0031    0.0056   -0.0064   -0.0168
          17    0.0049   -0.0102   -0.0064    0.0037   -0.0235   -0.0144   -0.0074    0.0131
          18   -0.0002    0.0010   -0.0024   -0.0025    0.0047    0.0026    0.0055    0.0021
          19   -0.0026   -0.0023    0.0033    0.0109   -0.0192   -0.0194   -0.0145    0.0012
          20   -0.0018   -0.0074   -0.0025   -0.0054   -0.0040    0.0084    0.0079    0.0068
          21    0.0023    0.0048   -0.0015   -0.0043    0.0126    0.0066    0.0053   -0.0027
          22   -0.0026    0.0059    0.0005    0.0234    0.0017    0.0106    0.0047    0.0138
          23    0.0020    0.0031   -0.0101   -0.0070   -0.0105    0.0075    0.0051   -0.0124
          24    0.0011   -0.0022    0.0031   -0.0072    0.0036   -0.0094   -0.0056   -0.0003
          25    0.0016   -0.0123    0.0006   -0.0094    0.0083    0.0004    0.0074   -0.0114
          26   -0.0034    0.0108    0.0033    0.0208    0.0066   -0.0145   -0.0137    0.0139
          27    0.0016    0.0007   -0.0024   -0.0117   -0.0123    0.0112    0.0051   -0.0025
          28   -0.0032    0.0131    0.0096    0.0082    0.0050   -0.0175   -0.0141    0.0080
          29    0.0012   -0.0015   -0.0093    0.0068   -0.0077    0.0210    0.0128   -0.0008
          30    0.0008   -0.0081    0.0017   -0.0089    0.0036   -0.0043   -0.0004   -0.0035
          31   -0.0705   -0.0800    0.0935    0.0878    0.0514    0.0141    0.0265    0.0022
          32   -0.0220    0.0179   -0.1483    0.0014    0.0092   -0.0435   -0.0122   -0.0039
          33    0.0247    0.0282    0.0477   -0.0397   -0.0303    0.0182   -0.0028   -0.0061
          34    0.0774   -0.0414    0.0209    0.0543   -0.0077   -0.0014   -0.0026   -0.1102
          35   -0.0402    0.0373   -0.0136   -0.0275    0.0536    0.0265    0.0494   -0.0393
          36   -0.0005   -0.0054   -0.0004   -0.0029   -0.0306   -0.0183   -0.0376    0.0814
          37    0.0607   -0.0714    0.0441    0.1080    0.0197   -0.0153    0.0023   -0.1323
          38   -0.0357    0.0495   -0.0242   -0.0386    0.0660    0.0330    0.0625   -0.0465
          39    0.0021   -0.0029    0.0030    0.0105    0.0207    0.0100    0.0284   -0.0720
          40   -0.0217   -0.0169    0.0533   -0.0460    0.0286   -0.0407   -0.0349    0.0286
          41    0.0264   -0.0142   -0.0448    0.0268   -0.0032   -0.0167   -0.0085   -0.0884
          42    0.0001    0.0185   -0.0087    0.0213   -0.0213    0.0589    0.0491    0.0604
          43    0.0066   -0.0371    0.0812   -0.0379    0.0425   -0.0644   -0.0571    0.0002
          44   -0.0101   -0.0010   -0.1230   -0.0059   -0.0042   -0.0503   -0.0242   -0.1181
          45   -0.0034    0.0067   -0.0239    0.0041   -0.0046   -0.0139   -0.0115   -0.0427
          46    0.0449    0.0844    0.0289    0.0003    0.0459   -0.0285   -0.0191   -0.0300
          47   -0.0402   -0.0746   -0.0440   -0.0101   -0.0072    0.0645   -0.0307    0.0200
          48   -0.0000    0.0023    0.0263    0.0128   -0.0588   -0.1230    0.1798    0.0106
          49    0.0318    0.0832    0.0289   -0.0196    0.0682    0.0425   -0.1203   -0.0331
          50   -0.0288   -0.0928   -0.0751    0.0034    0.0219    0.1357   -0.1388    0.0195
          51   -0.0049   -0.0058    0.0055    0.0045   -0.0155   -0.0008    0.0004    0.0042
          52    0.0035    0.0057    0.0120    0.0036    0.0101    0.0074   -0.0053   -0.0152
          53    0.2516    0.0463   -0.0321   -0.0281    0.1248    0.0455    0.0429    0.0238
          54   -0.0973   -0.0147   -0.0005    0.0048   -0.0454   -0.0193   -0.0111    0.0039
          55   -0.2009    0.0459   -0.0140   -0.0266    0.0982    0.0139    0.0168   -0.0388
          56   -0.0741    0.0086   -0.0098   -0.0196    0.0387    0.0214    0.0211   -0.0065
          57    0.1283   -0.0284    0.0124    0.0208   -0.0664   -0.0137   -0.0161    0.0250
          58   -0.0024   -0.0631    0.0154   -0.0510    0.0559   -0.0674   -0.0324    0.0279
          59    0.0022   -0.0252   -0.0036   -0.0355    0.0098   -0.0205   -0.0076   -0.0079
          60   -0.0001    0.0405    0.0028    0.0466   -0.0314    0.0463    0.0208   -0.0071
          61   -0.0005    0.0425   -0.0788    0.1458    0.0082   -0.0060   -0.0219    0.0322
          62   -0.0015   -0.0307    0.0714   -0.1043    0.0067   -0.0117    0.0080   -0.0219
          63    0.0021   -0.0034    0.0073   -0.0285   -0.0145    0.0126    0.0077   -0.0079
          64   -0.0062    0.0225    0.0069    0.0188    0.0012   -0.0130   -0.0131    0.0120
          65    0.0281   -0.0687    0.0181   -0.0853    0.0284   -0.0387   -0.0123   -0.0253
          66   -0.0147    0.0344   -0.0153    0.0432   -0.0199    0.0317    0.0146    0.0107


   Root No.      41        42        43        44        45        46        47        48

                41 A      42 A      43 A      44 A      45 A      46 A      47 A      48 A   

                1386.2    1393.3    1421.8    1457.2    1476.4    1849.8    1866.9    1885.4
  
           1    0.0184   -0.0158    0.0451    0.0066   -0.0043    0.0039   -0.0146    0.0053
           2   -0.0199   -0.0066    0.0049    0.0325   -0.0541    0.0001   -0.0047    0.0052
           3    0.0037    0.0112   -0.0251   -0.0233    0.0386   -0.0043    0.0139   -0.0063
           4   -0.0261    0.0064   -0.0401   -0.0079   -0.0217    0.0001    0.0006    0.0047
           5   -0.0026    0.0423    0.0374    0.0141    0.0429    0.0033   -0.0082   -0.0272
           6    0.0018   -0.0064    0.0001   -0.0002   -0.0084   -0.0015    0.0034    0.0071
           7    0.0095    0.0288   -0.0413    0.0483   -0.0018    0.0234    0.0139   -0.0048
           8    0.0391   -0.0010    0.0160   -0.0203    0.0133    0.0031    0.0012   -0.0005
           9   -0.0125   -0.0114    0.0141   -0.0147   -0.0033   -0.0130   -0.0086    0.0025
          10   -0.0153   -0.0247    0.0089    0.0274    0.0768    0.0066   -0.0091    0.0314
          11    0.0064    0.0218    0.0210   -0.0036   -0.0642   -0.0081    0.0147   -0.0022
          12    0.0053    0.0023   -0.0176   -0.0150   -0.0065    0.0004   -0.0018   -0.0154
          13   -0.0012    0.0108    0.0024   -0.0274   -0.0079   -0.0795    0.1404   -0.0449
          14    0.0014   -0.0066   -0.0366   -0.0242    0.0779    0.0313   -0.0455    0.0121
          15   -0.0002   -0.0035    0.0230    0.0382   -0.0512    0.0394   -0.0752    0.0253
          16    0.0030    0.0116    0.0185    0.0059    0.0159   -0.0012    0.0164    0.0724
          17    0.0043   -0.0111   -0.0317   -0.0196   -0.0385   -0.0043    0.0383    0.1608
          18   -0.0025   -0.0028    0.0025    0.0042    0.0050    0.0021   -0.0221   -0.0945
          19    0.0091    0.0000   -0.0219   -0.0173   -0.0474    0.0027   -0.0276   -0.1201
          20   -0.0045   -0.0122   -0.0004    0.0055    0.0161    0.0015   -0.0265   -0.1230
          21   -0.0033    0.0048    0.0121    0.0076    0.0182   -0.0018    0.0234    0.1067
          22   -0.0063   -0.0073    0.0251   -0.0509   -0.0016   -0.1031   -0.0465    0.0116
          23   -0.0016    0.0084   -0.0091    0.0032   -0.0009   -0.1160   -0.0450    0.0109
          24    0.0029   -0.0021   -0.0068    0.0238    0.0009    0.1218    0.0512   -0.0126
          25    0.0017    0.0148   -0.0068   -0.0212   -0.0132    0.0856   -0.1287    0.0373
          26    0.0012   -0.0162    0.0009    0.0509    0.0031   -0.0651    0.0522   -0.0140
          27   -0.0023    0.0011    0.0052   -0.0223    0.0075   -0.0179    0.0590   -0.0178
          28    0.0011   -0.0125   -0.0056    0.0357    0.0079    0.0430    0.0372   -0.0093
          29   -0.0076    0.0039    0.0181   -0.0493   -0.0089    0.1626    0.0425   -0.0102
          30    0.0045    0.0045   -0.0085    0.0120    0.0010   -0.1218   -0.0460    0.0113
          31   -0.0255    0.0211   -0.0475   -0.0015   -0.0064   -0.0008    0.0082   -0.0018
          32    0.0327    0.0163   -0.0063   -0.0188    0.0547    0.0078   -0.0077    0.0003
          33   -0.0078   -0.0152    0.0166    0.0077   -0.0210   -0.0029    0.0019    0.0010
          34    0.0722   -0.0611    0.0379   -0.0028    0.0238   -0.0006    0.0023    0.0053
          35    0.0406   -0.1109   -0.0411   -0.0100   -0.0408   -0.0000   -0.0000   -0.0025
          36   -0.0672    0.1246    0.0205    0.0135    0.0299    0.0010   -0.0018   -0.0061
          37    0.0793   -0.0492    0.0163   -0.0200    0.0610    0.0019    0.0032    0.0145
          38    0.0478   -0.1389   -0.0478   -0.0100   -0.0504    0.0014   -0.0096   -0.0341
          39    0.0583   -0.0993   -0.0172   -0.0156   -0.0173   -0.0031    0.0051    0.0040
          40   -0.0136   -0.0394    0.0565   -0.0317    0.0011    0.0081    0.0005   -0.0006
          41   -0.1352   -0.0122   -0.0362    0.0126   -0.0070   -0.0038    0.0006   -0.0008
          42    0.1677    0.0645   -0.0325    0.0323    0.0120   -0.0000    0.0037   -0.0014
          43   -0.1101   -0.0768    0.0682   -0.0410   -0.0159    0.0372    0.0071   -0.0008
          44   -0.1627   -0.0187   -0.0353   -0.0051    0.0128   -0.0080    0.0069   -0.0028
          45   -0.0779   -0.0171   -0.0030   -0.0108   -0.0016   -0.0138   -0.0057    0.0016
          46    0.0171    0.0376   -0.0043   -0.0280   -0.0543   -0.0091    0.0204    0.0209
          47   -0.0099   -0.0280    0.0032    0.0229    0.0368    0.0049   -0.0099    0.0001
          48   -0.0182    0.0009    0.0503    0.0285    0.0074    0.0045   -0.0088   -0.0084
          49    0.0258    0.0326   -0.0414   -0.0487   -0.0474   -0.0126    0.0227    0.0060
          50    0.0006   -0.0338   -0.0274    0.0121    0.0296    0.0076   -0.0155   -0.0014
          51   -0.0017   -0.0066   -0.0081   -0.0019    0.0117    0.0029   -0.0054   -0.0082
          52    0.0010    0.0143    0.0189    0.0067    0.0195   -0.0014    0.0216    0.0967
          53   -0.0345    0.0096    0.0166    0.0245    0.0651    0.0020   -0.0142   -0.0586
          54    0.0096   -0.0105   -0.0190   -0.0126   -0.0318    0.0003   -0.0066   -0.0308
          55    0.0016    0.0403    0.0603    0.0203    0.0003   -0.0007    0.0166    0.0801
          56   -0.0080    0.0009    0.0294    0.0197    0.0343   -0.0001   -0.0166   -0.0869
          57    0.0005   -0.0219   -0.0449   -0.0184   -0.0095    0.0006   -0.0026   -0.0103
          58    0.0314   -0.0158   -0.0096    0.0487    0.0180    0.0850    0.0439   -0.0111
          59    0.0137    0.0071   -0.0226    0.0390    0.0063   -0.0779   -0.0260    0.0060
          60   -0.0223    0.0039    0.0200   -0.0478   -0.0135    0.0104   -0.0049    0.0013
          61   -0.0055   -0.0312    0.0324    0.0828   -0.0423    0.0221    0.0113   -0.0009
          62    0.0078    0.0206   -0.0333   -0.0304    0.0279    0.0005   -0.0848    0.0240
          63   -0.0012    0.0060    0.0019   -0.0353    0.0102   -0.0185    0.0566   -0.0185
          64   -0.0010   -0.0157    0.0010    0.0252    0.0093    0.0907    0.0572   -0.0144
          65    0.0147    0.0169   -0.0417    0.0733   -0.0092   -0.0350   -0.0495    0.0135
          66   -0.0077   -0.0026    0.0269   -0.0628    0.0024   -0.0215    0.0015   -0.0012


   Root No.      49        50        51        52        53        54        55        56

                49 A      50 A      51 A      52 A      53 A      54 A      55 A      56 A   

                2849.5    2927.8    2931.0    2942.1    3006.2    3018.5    3022.7    3048.1
  
           1   -0.0199   -0.0001   -0.0012   -0.0010    0.0001   -0.0002    0.0008    0.0001
           2   -0.0285   -0.0002   -0.0019   -0.0012   -0.0003    0.0006   -0.0000   -0.0001
           3   -0.0527   -0.0002   -0.0032   -0.0023    0.0002   -0.0003   -0.0001   -0.0000
           4   -0.0005    0.0000   -0.0003   -0.0038   -0.0002    0.0028    0.0194   -0.0012
           5    0.0007    0.0000   -0.0013   -0.0096   -0.0001    0.0042    0.0278   -0.0014
           6    0.0043    0.0002   -0.0045   -0.0524    0.0002   -0.0023   -0.0105    0.0012
           7    0.0022    0.0005   -0.0218    0.0018    0.0000    0.0154   -0.0022    0.0000
           8    0.0002    0.0003   -0.0128    0.0008    0.0001    0.0258   -0.0040    0.0000
           9    0.0048    0.0010   -0.0461    0.0046   -0.0001   -0.0204    0.0026   -0.0000
          10    0.0001   -0.0269   -0.0005    0.0000    0.0162   -0.0001    0.0002   -0.0010
          11    0.0001   -0.0265   -0.0005    0.0000    0.0269   -0.0000    0.0002   -0.0019
          12    0.0002   -0.0458   -0.0008   -0.0000   -0.0249    0.0000   -0.0002    0.0012
          13    0.0009    0.0001   -0.0000   -0.0003   -0.0005    0.0001   -0.0003   -0.0003
          14    0.0005   -0.0001   -0.0002   -0.0000    0.0006   -0.0003    0.0000    0.0001
          15   -0.0010   -0.0001    0.0000    0.0001   -0.0001    0.0001    0.0001    0.0001
          16   -0.0000   -0.0001   -0.0001   -0.0010   -0.0001   -0.0006   -0.0042   -0.0258
          17    0.0000   -0.0001    0.0000   -0.0003   -0.0001    0.0001    0.0009    0.0057
          18   -0.0001   -0.0002    0.0000    0.0006    0.0001    0.0003    0.0018    0.0113
          19   -0.0000   -0.0001    0.0000    0.0001    0.0022   -0.0000    0.0001    0.0153
          20    0.0000    0.0005    0.0000   -0.0000   -0.0042    0.0000   -0.0002   -0.0361
          21   -0.0000   -0.0002   -0.0000   -0.0003    0.0004   -0.0000    0.0000    0.0047
          22   -0.0000    0.0000   -0.0003    0.0000   -0.0000    0.0023   -0.0004   -0.0000
          23    0.0001    0.0000   -0.0006    0.0001    0.0000   -0.0036    0.0006    0.0001
          24   -0.0001   -0.0000    0.0004   -0.0000    0.0000    0.0009   -0.0002   -0.0000
          25   -0.0007   -0.0001    0.0001    0.0000    0.0000   -0.0001    0.0000   -0.0001
          26    0.0002    0.0001   -0.0000   -0.0000   -0.0001    0.0001   -0.0000   -0.0002
          27    0.0000   -0.0001    0.0000   -0.0000    0.0001   -0.0000    0.0000    0.0003
          28    0.0001   -0.0000   -0.0001    0.0000    0.0000   -0.0001    0.0000    0.0002
          29   -0.0001   -0.0000    0.0002   -0.0000    0.0000   -0.0001    0.0000   -0.0000
          30    0.0002   -0.0000   -0.0003    0.0000   -0.0000    0.0001   -0.0000   -0.0001
          31    0.2452    0.0007    0.0125    0.0142   -0.0001    0.0018    0.0008   -0.0001
          32    0.3461    0.0007    0.0232    0.0136   -0.0002    0.0034    0.0008   -0.0001
          33    0.6429    0.0018    0.0362    0.0254   -0.0001    0.0039    0.0003   -0.0001
          34   -0.0095   -0.0003    0.0173    0.1680    0.0004   -0.0147   -0.1060    0.0038
          35   -0.0222   -0.0003    0.0236    0.2676    0.0008   -0.0220   -0.1720    0.0073
          36   -0.0287   -0.0008    0.0323    0.3444    0.0013   -0.0353   -0.2603    0.0116
          37    0.0060    0.0005   -0.0097   -0.1195    0.0015   -0.0222   -0.1344    0.0084
          38    0.0120    0.0004   -0.0116   -0.1478    0.0017   -0.0255   -0.1601    0.0137
          39   -0.0256   -0.0011    0.0216    0.2862   -0.0040    0.0615    0.3846   -0.0272
          40   -0.0274   -0.0064    0.2855   -0.0256   -0.0008   -0.1799    0.0297   -0.0004
          41   -0.0219   -0.0063    0.2816   -0.0224   -0.0007   -0.1687    0.0260   -0.0003
          42   -0.0239   -0.0059    0.2604   -0.0219   -0.0008   -0.1918    0.0300   -0.0003
          43    0.0034    0.0005   -0.0210    0.0024    0.0000   -0.0019    0.0005   -0.0000
          44    0.0093    0.0027   -0.1231    0.0133   -0.0006   -0.1465    0.0205   -0.0002
          45   -0.0341   -0.0066    0.2925   -0.0337    0.0017    0.4339   -0.0618    0.0006
          46   -0.0016    0.2724    0.0048   -0.0005   -0.2640    0.0005   -0.0018    0.0206
          47   -0.0022    0.3461    0.0061   -0.0008   -0.3289    0.0007   -0.0022    0.0215
          48   -0.0006    0.1026    0.0018   -0.0004   -0.1362    0.0003   -0.0009    0.0082
          49   -0.0003    0.0515    0.0009    0.0000    0.0718   -0.0001    0.0006   -0.0025
          50    0.0002   -0.0259   -0.0004   -0.0001    0.0046   -0.0000    0.0000   -0.0015
          51   -0.0026    0.4518    0.0083    0.0013    0.4351   -0.0008    0.0035   -0.0248
          52   -0.0011   -0.0004    0.0007    0.0106   -0.0029    0.0067    0.0478    0.3131
          53    0.0001   -0.0002   -0.0000   -0.0008   -0.0001   -0.0009   -0.0068   -0.0632
[...]
 TRANSITION DIPOLE   0.1406         C  2 -- C  6         +10.2% ( 49.1%)     90.0%
 TRAVEL (Ang.)       0.2017         C  1 -- C  5          +8.9% ( 45.9%)     95.2%
 REDUCED MASS        1.1658         C  1 -- C  3          +8.5% ( 44.8%)     16.6%
 EFFECTIVE MASS      9.6970
 FORCE CONSTANT      1.3886

 VIBRATION         44   44A           ATOM PAIR      ENERGY CONTRIBUTION    RADIAL
 FREQUENCY          1457.18         C  9 -- C 10         +15.1% ( 59.3%)     99.8%
 TRANSITION DIPOLE   0.2191         C  3 -- C  8         +11.1% ( 51.0%)     98.9%
 TRAVEL (Ang.)       0.1884         C  8 -- C 10          +8.6% ( 44.7%)      0.5%
 REDUCED MASS        1.3039         C  5 -- C  9          +8.2% ( 43.6%)      2.1%
 EFFECTIVE MASS     10.5281
 FORCE CONSTANT      1.6313

 VIBRATION         45   45A           ATOM PAIR      ENERGY CONTRIBUTION    RADIAL
 FREQUENCY          1476.44         C  4 -- C  5         +19.0% ( 68.3%)     99.8%
 TRANSITION DIPOLE   0.0412         C  4 -- C  7         +13.2% ( 57.0%)     78.3%
 TRAVEL (Ang.)       0.1409         C  1 -- C  5         +13.2% ( 56.9%)     75.2%
 REDUCED MASS        2.3009         C  4 -- H 16          +8.4% ( 45.4%)      0.1%
 EFFECTIVE MASS     11.0378
 FORCE CONSTANT      2.9552

 VIBRATION         46   46A           ATOM PAIR      ENERGY CONTRIBUTION    RADIAL
 FREQUENCY          1849.79         C  8 -- C 10         +35.3% ( 88.4%)     99.7%
 TRANSITION DIPOLE   0.3060         C  9 -- C 10         +16.0% ( 59.5%)     86.7%
 TRAVEL (Ang.)       0.0973         C 10 -- H 22         +11.1% ( 49.4%)      3.3%
 REDUCED MASS        3.8491         C  3 -- C  8         +10.9% ( 49.2%)     48.1%
 EFFECTIVE MASS     11.9283         C  8 -- H 20         +10.0% ( 47.1%)      5.5%
 FORCE CONSTANT      7.7597

 VIBRATION         47   47A           ATOM PAIR      ENERGY CONTRIBUTION    RADIAL
 FREQUENCY          1866.88         C  5 -- C  9         +33.2% ( 84.8%)     99.6%
 TRANSITION DIPOLE   0.4939         C  1 -- C  5         +11.8% ( 50.5%)     30.8%
 TRAVEL (Ang.)       0.1035         C  4 -- C  5         +11.7% ( 50.3%)     33.5%
 REDUCED MASS        3.3719         C  9 -- C 10         +11.2% ( 49.2%)     10.6%
 EFFECTIVE MASS     11.8264
 FORCE CONSTANT      6.9240

 VIBRATION         48   48A           ATOM PAIR      ENERGY CONTRIBUTION    RADIAL
 FREQUENCY          1885.44         C  6 -- C  7         +41.4% ( 94.8%)    100.0%
 TRANSITION DIPOLE   0.2634         C  4 -- C  7         +13.7% ( 54.5%)     55.4%
 TRAVEL (Ang.)       0.0867         C  2 -- C  6         +13.1% ( 53.2%)     49.8%
 REDUCED MASS        4.7532         C  7 -- H 19         +12.4% ( 51.9%)      4.6%
 EFFECTIVE MASS     11.8753         C  6 -- H 18         +12.0% ( 51.1%)      4.8%
 FORCE CONSTANT      9.9554

 VIBRATION         49   49A           ATOM PAIR      ENERGY CONTRIBUTION    RADIAL
 FREQUENCY          2849.47         C  1 -- H 11         +96.1% ( 99.6%)    100.0%
 TRANSITION DIPOLE   0.0689         C  1 -- C  3          +1.0% ( 10.2%)      8.6%
 TRAVEL (Ang.)       0.1610         C  1 -- C  2          +1.0% ( 10.1%)      8.4%
 REDUCED MASS        0.9131         C  1 -- C  5          +1.0% ( 10.0%)      5.6%
 EFFECTIVE MASS      1.4386
 FORCE CONSTANT      4.3683

 VIBRATION         50   50A           ATOM PAIR      ENERGY CONTRIBUTION    RADIAL
 FREQUENCY          2927.79         C  4 -- H 17         +49.2% ( 72.8%)     96.5%
 TRANSITION DIPOLE   0.0540         C  4 -- H 16         +48.6% ( 72.3%)     96.5%
 TRAVEL (Ang.)       0.2110         C  4 -- C  7          +1.1% ( 10.8%)      0.0%
 REDUCED MASS        0.5173         C  4 -- C  5          +1.1% ( 10.8%)      0.0%
 EFFECTIVE MASS      1.5360
 FORCE CONSTANT      2.6128

 VIBRATION         51   51A           ATOM PAIR      ENERGY CONTRIBUTION    RADIAL
 FREQUENCY          2931.04         C  3 -- H 14         +65.4% ( 83.8%)     98.0%
 TRANSITION DIPOLE   0.0368         C  3 -- H 15         +31.1% ( 57.7%)     93.7%
 TRAVEL (Ang.)       0.2024         C  3 -- C  8          +1.1% ( 10.8%)      0.1%
 REDUCED MASS        0.5615         C  1 -- C  3          +1.1% ( 10.7%)      0.5%
 EFFECTIVE MASS      1.5265
 FORCE CONSTANT      2.8424

 VIBRATION         52   52A           ATOM PAIR      ENERGY CONTRIBUTION    RADIAL
 FREQUENCY          2942.07         C  2 -- H 12         +61.6% ( 81.3%)     97.7%
 TRANSITION DIPOLE   0.0363         C  2 -- H 13         +35.1% ( 61.4%)     94.6%
 TRAVEL (Ang.)       0.2059         C  2 -- C  6          +1.1% ( 10.9%)      0.1%
 REDUCED MASS        0.5406         C  1 -- C  2          +1.1% ( 10.8%)      0.3%
 EFFECTIVE MASS      1.5335
 FORCE CONSTANT      2.7572

 VIBRATION         53   53A           ATOM PAIR      ENERGY CONTRIBUTION    RADIAL
 FREQUENCY          3006.16         C  4 -- H 16         +49.2% ( 69.2%)     97.8%
 TRANSITION DIPOLE   0.1056         C  4 -- H 17         +48.7% ( 68.8%)     97.8%
 TRAVEL (Ang.)       0.2168         C  7 -- H 19          +0.8% (  8.7%)     99.9%
 REDUCED MASS        0.4770         C  4 -- C  7          +0.7% (  8.0%)     20.0%
 EFFECTIVE MASS      1.2788
 FORCE CONSTANT      2.5399

 VIBRATION         54   54A           ATOM PAIR      ENERGY CONTRIBUTION    RADIAL
 FREQUENCY          3018.50         C  3 -- H 15         +66.2% ( 80.4%)     99.3%
 TRANSITION DIPOLE   0.0730         C  3 -- H 14         +29.4% ( 53.5%)     94.2%
 TRAVEL (Ang.)       0.2086         C  2 -- H 13          +1.6% ( 12.3%)     99.3%
 REDUCED MASS        0.5134         C  8 -- H 20          +0.8% (  9.0%)     99.9%
 EFFECTIVE MASS      1.2894
 FORCE CONSTANT      2.7559

 VIBRATION         55   55A           ATOM PAIR      ENERGY CONTRIBUTION    RADIAL
 FREQUENCY          3022.68         C  2 -- H 13         +61.8% ( 77.6%)     98.9%
 TRANSITION DIPOLE   0.0602         C  2 -- H 12         +33.8% ( 57.4%)     95.3%
 TRAVEL (Ang.)       0.2139         C  3 -- H 15          +1.4% ( 11.5%)     99.0%
 REDUCED MASS        0.4877         C  6 -- H 18          +1.0% (  9.8%)     99.9%
 EFFECTIVE MASS      1.2845
 FORCE CONSTANT      2.6251

 VIBRATION         56   56A           ATOM PAIR      ENERGY CONTRIBUTION    RADIAL
 FREQUENCY          3048.15         C  7 -- H 19         +62.2% ( 80.0%)    100.0%
 TRANSITION DIPOLE   0.3001         C  6 -- H 18         +34.7% ( 59.8%)    100.0%
 TRAVEL (Ang.)       0.2115         C  6 -- C  7          +1.1% ( 10.6%)      1.3%
 REDUCED MASS        0.4948         C  4 -- C  7          +0.8% (  9.3%)     22.0%
 EFFECTIVE MASS      1.4573
 FORCE CONSTANT      2.7084

 VIBRATION         57   57A           ATOM PAIR      ENERGY CONTRIBUTION    RADIAL
 FREQUENCY          3053.39         C  9 -- H 21         +39.4% ( 63.8%)    100.0%
 TRANSITION DIPOLE   0.0909         C 10 -- H 22         +36.3% ( 61.3%)    100.0%
 TRAVEL (Ang.)       0.2599         C  8 -- H 20         +21.4% ( 47.1%)    100.0%
 REDUCED MASS        0.3271         C  9 -- C 10          +1.1% ( 10.6%)      0.0%
 EFFECTIVE MASS      1.4913
 FORCE CONSTANT      1.7965

 VIBRATION         58   58A           ATOM PAIR      ENERGY CONTRIBUTION    RADIAL
 FREQUENCY          3058.88         C  9 -- H 21         +51.0% ( 72.5%)    100.0%
 TRANSITION DIPOLE   0.3975         C  8 -- H 20         +38.8% ( 63.2%)    100.0%
 TRAVEL (Ang.)       0.2319         C 10 -- H 22          +7.0% ( 26.9%)     99.7%
 REDUCED MASS        0.4099         C  9 -- C 10          +0.9% (  9.6%)     49.5%
 EFFECTIVE MASS      1.4959
 FORCE CONSTANT      2.2599

 VIBRATION         59   59A           ATOM PAIR      ENERGY CONTRIBUTION    RADIAL
 FREQUENCY          3069.26         C  6 -- H 18         +61.3% ( 79.5%)     99.9%
 TRANSITION DIPOLE   0.3036         C  7 -- H 19         +34.1% ( 59.3%)     99.9%
 TRAVEL (Ang.)       0.2109         C  6 -- C  7          +2.0% ( 14.4%)     96.8%
 REDUCED MASS        0.4938         C  2 -- C  6          +1.0% ( 10.2%)     17.2%
 EFFECTIVE MASS      1.5889
 FORCE CONSTANT      2.7409

 VIBRATION         60   60A           ATOM PAIR      ENERGY CONTRIBUTION    RADIAL
 FREQUENCY          3076.70         C 10 -- H 22         +53.6% ( 74.3%)     99.9%
 TRANSITION DIPOLE   0.3760         C  8 -- H 20         +35.9% ( 60.8%)     99.9%
 TRAVEL (Ang.)       0.2279         C  9 -- H 21          +6.5% ( 25.9%)    100.0%
 REDUCED MASS        0.4221         C  8 -- C 10          +1.9% ( 14.1%)     98.1%
 EFFECTIVE MASS      1.5988
 FORCE CONSTANT      2.3539

      SYMMETRY NUMBER FOR POINT-GROUP C1  =  1


          SYSTEM IS A GROUND STATE



 InChI=1S/C10H12/c1-2-6-10-8-4-3-7-9(10)5-1/h1-5,10H,6-8H2


          MOLECULE IS NOT LINEAR

          THERE ARE 60 GENUINE VIBRATIONS IN THIS SYSTEM
          THIS THERMODYNAMICS CALCULATION IS LIMITED TO
          MOLECULES WHICH HAVE NO INTERNAL ROTATIONS




                    CALCULATED THERMODYNAMIC PROPERTIES
                                          *
   TEMP. (K)   PARTITION FUNCTION   H.O.F.    ENTHALPY  HEAT CAPACITY ENTROPY
                                   KCAL/MOL   CAL/MOLE    CAL/K/MOL  CAL/K/MOL


 298.00  VIB.     0.9881D+02                  3486.8165    27.8799    20.8284
         ROT.     0.5314D+06                   888.2803     2.9808    29.1787
         INT.     0.5251D+08                  4375.0968    30.8608    50.0071
         TRA.     0.1470D+28                  1480.4672     4.9680    40.5480
         TOT.                       30.127    5855.5640    35.8288    90.5551

 200.00  VIB.     0.1613D+02                  1371.6442    15.6383    12.3836
         ROT.     0.2922D+06                   596.1613     2.9808    27.9900
         INT.     0.4712D+07                  1967.8054    18.6191    40.3736
         TRA.     0.8080D+27                   993.6021     4.9680    38.5668
         TOT.                       27.233    2961.4076    23.5871    78.9405

 210.00  VIB.     0.1919D+02                  1533.6600    16.7709    13.1739
         ROT.     0.3144D+06                   625.9693     2.9808    28.1355
         INT.     0.6032D+07                  2159.6293    19.7517    41.3093
         TRA.     0.8694D+27                  1043.2822     4.9680    38.8092
         TOT.                       27.474    3202.9116    24.7197    80.1186

 220.00  VIB.     0.2289D+02                  1707.1774    17.9382    13.9809
         ROT.     0.3371D+06                   655.7774     2.9808    28.2741
         INT.     0.7714D+07                  2362.9548    20.9190    42.2550
         TRA.     0.9322D+27                  1092.9623     4.9680    39.0403
         TOT.                       27.727    3455.9171    25.8870    81.2953

 230.00  VIB.     0.2737D+02                  1892.5319    19.1378    14.8046
         ROT.     0.3603D+06                   685.5855     2.9808    28.4066
         INT.     0.9860D+07                  2578.1173    22.1186    43.2112
         TRA.     0.9965D+27                  1142.6424     4.9680    39.2612
         TOT.                       27.992    3720.7598    27.0866    82.4724

 240.00  VIB.     0.3281D+02                  2090.0311    20.3666    15.6450
         ROT.     0.3841D+06                   715.3935     2.9808    28.5335
         INT.     0.1260D+08                  2805.4246    23.3474    44.1785
         TRA.     0.1062D+28                  1192.3226     4.9680    39.4726
         TOT.                       28.269    3997.7472    28.3154    83.6511

 250.00  VIB.     0.3943D+02                  2299.9501    21.6212    16.5017
         ROT.     0.4083D+06                   745.2016     2.9808    28.6552
         INT.     0.1610D+08                  3045.1517    24.6020    45.1569
         TRA.     0.1129D+28                  1242.0027     4.9680    39.6754
         TOT.                       28.559    4287.1544    29.5700    84.8323

 260.00  VIB.     0.4751D+02                  2522.5278    22.8977    17.3745
         ROT.     0.4331D+06                   775.0097     2.9808    28.7721
         INT.     0.2058D+08                  3297.5374    25.8785    46.1466
         TRA.     0.1198D+28                  1291.6828     4.9680    39.8703
         TOT.                       28.861    4589.2202    30.8465    86.0169

 270.00  VIB.     0.5740D+02                  2757.9644    24.1923    18.2629
         ROT.     0.4583D+06                   804.8177     2.9808    28.8846
         INT.     0.2631D+08                  3562.7821    27.1731    47.1475
         TRA.     0.1267D+28                  1341.3629     4.9680    40.0578
         TOT.                       29.176    4904.1450    32.1411    87.2053

 280.00  VIB.     0.6953D+02                  3006.4209    25.5010    19.1664
         ROT.     0.4840D+06                   834.6258     2.9808    28.9930
         INT.     0.3365D+08                  3841.0467    28.4818    48.1593
         TRA.     0.1338D+28                  1391.0430     4.9680    40.2384
         TOT.                       29.504    5232.0897    33.4498    88.3978

 290.00  VIB.     0.8443D+02                  3268.0190    26.8200    20.0842
         ROT.     0.5102D+06                   864.4339     2.9808    29.0976
         INT.     0.4307D+08                  4132.4528    29.8008    49.1818
         TRA.     0.1411D+28                  1440.7231     4.9680    40.4128
         TOT.                       29.845    5573.1759    34.7688    89.5946

 300.00  VIB.     0.1028D+03                  3542.8418    28.1454    21.0158
         ROT.     0.5368D+06                   894.2419     2.9808    29.1986
         INT.     0.5518D+08                  4437.0837    31.1262    50.2144
         TRA.     0.1484D+28                  1490.4032     4.9680    40.5812
         TOT.                       30.199    5927.4869    36.0942    90.7956

 310.00  VIB.     0.1255D+03                  3830.9359    29.4736    21.9603
         ROT.     0.5638D+06                   924.0500     2.9808    29.2964
         INT.     0.7075D+08                  4754.9859    32.4544    51.2567
         TRA.     0.1559D+28                  1540.0833     4.9680    40.7441
         TOT.                       30.567    6295.0692    37.4225    92.0008

 320.00  VIB.     0.1535D+03                  4132.3129    30.8014    22.9170
         ROT.     0.5913D+06                   953.8580     2.9808    29.3910
         INT.     0.9079D+08                  5086.1710    33.7822    52.3080
         TRA.     0.1635D+28                  1589.7634     4.9680    40.9018
         TOT.                       30.947    6675.9344    38.7502    93.2099

 330.00  VIB.     0.1883D+03                  4446.9525    32.1257    23.8851
         ROT.     0.6193D+06                   983.6661     2.9808    29.4827
         INT.     0.1166D+09                  5430.6186    35.1065    53.3679
         TRA.     0.1713D+28                  1639.4435     4.9680    41.0547
         TOT.                       31.342    7070.0621    40.0745    94.4226

 340.00  VIB.     0.2316D+03                  4774.8048    33.4435    24.8638
         ROT.     0.6476D+06                  1013.4742     2.9808    29.5717
         INT.     0.1500D+09                  5788.2790    36.4243    54.4355
         TRA.     0.1791D+28                  1689.1236     4.9680    41.2030
         TOT.                       31.749    7477.4026    41.3923    95.6385

 350.00  VIB.     0.2854D+03                  5115.7933    34.7525    25.8521
         ROT.     0.6764D+06                  1043.2822     2.9808    29.6581
         INT.     0.1931D+09                  6159.0755    37.7333    55.5102
         TRA.     0.1871D+28                  1738.8037     4.9680    41.3470
         TOT.                       32.169    7897.8792    42.7013    96.8573

 360.00  VIB.     0.3526D+03                  5469.8176    36.0504    26.8493
         ROT.     0.7056D+06                  1073.0903     2.9808    29.7421
         INT.     0.2488D+09                  6542.9079    39.0312    56.5914
         TRA.     0.1951D+28                  1788.4838     4.9680    41.4870
         TOT.                       32.603    8331.3918    43.9992    98.0784

 370.00  VIB.     0.4365D+03                  5836.7567    37.3351    27.8546
         ROT.     0.7352D+06                  1102.8984     2.9808    29.8238
         INT.     0.3209D+09                  6939.6551    40.3159    57.6784
         TRA.     0.2033D+28                  1838.1639     4.9680    41.6231
         TOT.                       33.049    8777.8190    45.2840    99.3015

 380.00  VIB.     0.5415D+03                  6216.4711    38.6052    28.8672
         ROT.     0.7652D+06                  1132.7064     2.9808    29.9033
         INT.     0.4143D+09                  7349.1775    41.5860    58.7705
         TRA.     0.2116D+28                  1887.8440     4.9680    41.7556
         TOT.                       33.509    9237.0216    46.5540   100.5260

 390.00  VIB.     0.6731D+03                  6608.8057    39.8590    29.8862
         ROT.     0.7956D+06                  1162.5145     2.9808    29.9807
         INT.     0.5356D+09                  7771.3202    42.8398    59.8669
         TRA.     0.2200D+28                  1937.5242     4.9680    41.8846
         TOT.                       33.980    9708.8444    47.8078   101.7516

 400.00  VIB.     0.8385D+03                  7013.5924    41.0954    30.9110
         ROT.     0.8264D+06                  1192.3226     2.9808    30.0562
         INT.     0.6929D+09                  8205.9150    44.0762    60.9672
         TRA.     0.2285D+28                  1987.2043     4.9680    42.0104
         TOT.                       34.465   10193.1192    49.0442   102.9776

   *: NOTE: HEATS OF FORMATION ARE RELATIVE TO THE
            ELEMENTS IN THEIR STANDARD STATE AT 298K
              (=  Standard Enthalpy of Formation).

            Hvib:  Zero-point energy is not included.
                   frequencies of less than zero cm-1 are not included.
            Hrot = (3/2)RT
            Htra = (3/2)RT + pV = (5/2)RT

            Heat capacity is Cp, not Cv

          For more information, see: HTTP://OpenMOPAC.net/Manual/thermochemistry.html


           FORCE CONSTANT IN CARTESIAN COORDINATES (Millidynes/A)

    ATOM   CHEMICAL       X               Y               Z
   NUMBER   SYMBOL  FORCE CONSTANT  FORCE CONSTANT  FORCE CONSTANT

      1       C        8.417146        8.551048        8.212705
      2       C        8.116570        9.215886        8.148844
      3       C        8.911756        8.013047        8.383556
      4       C        9.249094        8.599317        8.113772
      5       C       11.740800        8.417247        7.468255
      6       C        9.755915       11.727669        5.870681
      7       C        9.360765       12.079233        5.905419
      8       C        9.191132       10.717085        7.126486
      9       C       11.358184        8.804736        7.535740
     10       C       10.004510       10.482880        7.192305
     11       H        1.060364        1.451379        3.322174
     12       H        1.198402        1.956830        3.068548
     13       H        1.170710        1.327242        3.862249
     14       H        2.145764        2.081879        1.980475
     15       H        0.662589        1.215707        4.454765
     16       H        2.195865        3.065810        0.912707
     17       H        0.729195        0.651083        4.793773
     18       H        4.220043        0.859431        1.179729
     19       H        1.396294        4.335297        0.518231
     20       H        1.752563        3.722397        0.790082
     21       H        1.315481        2.065656        2.866969
     22       H        4.372527        0.732181        1.161114

 **********************
 *                    *
 * JOB ENDED NORMALLY *
 *                    *
 **********************



 TOTAL JOB TIME:             2.88 SECONDS

 == MOPAC DONE ==
