 *******************************************************************************
 **                                                                           **
 **                              MOPAC v23.1.2                                **
 **                                                                           **
 *******************************************************************************
 **          Digital Object Identifier (DOI): 10.5281/zenodo.6511958          **
 **    Visit the DOI location for information on how to cite this program.    **
 *******************************************************************************

                              PM3 CALCULATION RESULTS

 *******************************************************************************
 *  CALCULATION DONE: (MAX THREADS = 1)              Tue Jun  3 16:31:29 2025  *
 *  PM3        - The PM3 Hamiltonian to be used
 *  PRECISE    - TIGHTER CRITERIA TO BE USED
 *  NOSYM      - POINT-GROUP SYMMETRY SET TO C1
 *  THREADS=1  - MULTI-THREADING NOT USED
 *  T=         - A TIME OF 172800.0 SECONDS REQUESTED
 *  DUMP=N     - RESTART FILE WRITTEN EVERY 7200.0 SECONDS REQUESTED
 *******************************************************************************
pm3  precise nosym THREADS=1
 InChI=1S/C10H12/c1-2-6-10-8-4-3-7-9(10)5-1/h1-3,7-9H,4-6H2

   ATOM   CHEMICAL          X               Y               Z
  NUMBER   SYMBOL      (ANGSTROMS)     (ANGSTROMS)     (ANGSTROMS)

     1       C         -0.02470000  *   0.77710000  *   0.30230000  *
     2       C         -1.29720000  *   1.32950000  *  -0.35850000  *
     3       C         -1.19570000  *  -1.56300000  *  -0.05200000  *
     4       C          2.54250000  *  -0.54860000  *   0.21680000  *
     5       C          0.06430000  *  -0.73100000  *   0.08950000  *
     6       C          1.20020000  *   1.48440000  *  -0.23900000  *
     7       C          1.26820000  *  -1.33480000  *   0.03940000  *
     8       C         -2.50310000  *   0.55610000  *   0.09620000  *
     9       C         -2.45110000  *  -0.77630000  *   0.23790000  *
    10       C          2.38970000  *   0.86570000  *  -0.27940000  *
    11       H         -0.07320000  *   0.96850000  *   1.39680000  *
    12       H         -1.42940000  *   2.40260000  *  -0.10030000  *
    13       H         -1.21640000  *   1.24120000  *  -1.46440000  *
    14       H         -1.25400000  *  -1.96390000  *  -1.08610000  *
    15       H         -1.15250000  *  -2.41980000  *   0.65450000  *
    16       H          3.36700000  *  -1.04820000  *  -0.33410000  *
    17       H          2.80180000  *  -0.52430000  *   1.29610000  *
    18       H         -3.42030000  *   1.08630000  *   0.33410000  *
    19       H         -3.34220000  *  -1.31030000  *   0.55340000  *
    20       H          1.12970000  *   2.51840000  *  -0.56500000  *
    21       H          1.33440000  *  -2.41080000  *  -0.09710000  *
    22       H          3.26220000  *   1.40120000  *  -0.64100000  *



          CARTESIAN COORDINATES 

    NO.       ATOM           X           Y           Z

     1         C         -0.0247      0.7771      0.3023
     2         C         -1.2972      1.3295     -0.3585
     3         C         -1.1957     -1.5630     -0.0520
     4         C          2.5425     -0.5486      0.2168
     5         C          0.0643     -0.7310      0.0895
     6         C          1.2002      1.4844     -0.2390
     7         C          1.2682     -1.3348      0.0394
     8         C         -2.5031      0.5561      0.0962
     9         C         -2.4511     -0.7763      0.2379
    10         C          2.3897      0.8657     -0.2794
    11         H         -0.0732      0.9685      1.3968
    12         H         -1.4294      2.4026     -0.1003
    13         H         -1.2164      1.2412     -1.4644
    14         H         -1.2540     -1.9639     -1.0861
    15         H         -1.1525     -2.4198      0.6545
    16         H          3.3670     -1.0482     -0.3341
    17         H          2.8018     -0.5243      1.2961
    18         H         -3.4203      1.0863      0.3341
    19         H         -3.3422     -1.3103      0.5534
    20         H          1.1297      2.5184     -0.5650
    21         H          1.3344     -2.4108     -0.0971
    22         H          3.2622      1.4012     -0.6410

  H: (PM3): J. J. P. STEWART, J. COMP. CHEM. 10, 209 (1989).
  C: (PM3): J. J. P. STEWART, J. COMP. CHEM. 10, 209 (1989).

           Empirical Formula: C10 H12  =    22 atoms



      MOLECULAR POINT GROUP   :   C1  


      RHF CALCULATION, NO. OF DOUBLY OCCUPIED LEVELS = 26


          Geometry optimization using EF

          DIAGONAL MATRIX USED AS START HESSIAN

 CYCLE:     1 TIME:   0.008 TIME LEFT:  2.00D  GRAD.:    70.911 HEAT:  33.86691
 CYCLE:     2 TIME:   0.016 TIME LEFT:  2.00D  GRAD.:    44.555 HEAT:  32.50285
 CYCLE:     3 TIME:   0.008 TIME LEFT:  2.00D  GRAD.:    58.712 HEAT:  32.23572
 CYCLE:     4 TIME:   0.008 TIME LEFT:  2.00D  GRAD.:    56.206 HEAT:  32.11929
 CYCLE:     5 TIME:   0.012 TIME LEFT:  2.00D  GRAD.:    30.979 HEAT:  31.62387
 CYCLE:     6 TIME:   0.008 TIME LEFT:  2.00D  GRAD.:    36.277 HEAT:  31.61714
 CYCLE:     7 TIME:   0.008 TIME LEFT:  2.00D  GRAD.:    31.090 HEAT:  31.48121
 CYCLE:     8 TIME:   0.008 TIME LEFT:  2.00D  GRAD.:    30.963 HEAT:  31.39857
 CYCLE:     9 TIME:   0.004 TIME LEFT:  2.00D  GRAD.:    27.510 HEAT:  31.31329
 CYCLE:    10 TIME:   0.012 TIME LEFT:  2.00D  GRAD.:    13.277 HEAT:  31.12756
 CYCLE:    11 TIME:   0.012 TIME LEFT:  2.00D  GRAD.:     9.342 HEAT:  31.07891
 CYCLE:    12 TIME:   0.008 TIME LEFT:  2.00D  GRAD.:    17.089 HEAT:  31.07815
 CYCLE:    13 TIME:   0.008 TIME LEFT:  2.00D  GRAD.:    10.885 HEAT:  31.01434
 CYCLE:    14 TIME:   0.008 TIME LEFT:  2.00D  GRAD.:    11.609 HEAT:  30.99991
 CYCLE:    15 TIME:   0.008 TIME LEFT:  2.00D  GRAD.:     5.942 HEAT:  30.96012
 CYCLE:    16 TIME:   0.008 TIME LEFT:  2.00D  GRAD.:    12.508 HEAT:  30.95654
 CYCLE:    17 TIME:   0.012 TIME LEFT:  2.00D  GRAD.:     8.829 HEAT:  30.93230
 CYCLE:    18 TIME:   0.008 TIME LEFT:  2.00D  GRAD.:     7.681 HEAT:  30.91676
 CYCLE:    19 TIME:   0.008 TIME LEFT:  2.00D  GRAD.:     4.781 HEAT:  30.90107
 CYCLE:    20 TIME:   0.008 TIME LEFT:  2.00D  GRAD.:     7.272 HEAT:  30.89371
 CYCLE:    21 TIME:   0.008 TIME LEFT:  2.00D  GRAD.:     5.091 HEAT:  30.87517
 CYCLE:    22 TIME:   0.008 TIME LEFT:  2.00D  GRAD.:     6.688 HEAT:  30.85717
 CYCLE:    23 TIME:   0.004 TIME LEFT:  2.00D  GRAD.:     4.979 HEAT:  30.82864
 CYCLE:    24 TIME:   0.008 TIME LEFT:  2.00D  GRAD.:     5.717 HEAT:  30.81002
 CYCLE:    25 TIME:   0.008 TIME LEFT:  2.00D  GRAD.:     4.631 HEAT:  30.79306
 CYCLE:    26 TIME:   0.008 TIME LEFT:  2.00D  GRAD.:     5.031 HEAT:  30.77189
 CYCLE:    27 TIME:   0.008 TIME LEFT:  2.00D  GRAD.:     4.704 HEAT:  30.74453
 CYCLE:    28 TIME:   0.008 TIME LEFT:  2.00D  GRAD.:     7.135 HEAT:  30.70771
 CYCLE:    29 TIME:   0.008 TIME LEFT:  2.00D  GRAD.:     8.089 HEAT:  30.69543
 CYCLE:    30 TIME:   0.008 TIME LEFT:  2.00D  GRAD.:     5.200 HEAT:  30.67003
 CYCLE:    31 TIME:   0.008 TIME LEFT:  2.00D  GRAD.:     6.616 HEAT:  30.65130
 CYCLE:    32 TIME:   0.004 TIME LEFT:  2.00D  GRAD.:     4.425 HEAT:  30.61617
 CYCLE:    33 TIME:   0.008 TIME LEFT:  2.00D  GRAD.:     6.063 HEAT:  30.57381
 CYCLE:    34 TIME:   0.008 TIME LEFT:  2.00D  GRAD.:     5.752 HEAT:  30.54801
 CYCLE:    35 TIME:   0.008 TIME LEFT:  2.00D  GRAD.:     5.397 HEAT:  30.51797
 CYCLE:    36 TIME:   0.008 TIME LEFT:  2.00D  GRAD.:     8.025 HEAT:  30.46464
 CYCLE:    37 TIME:   0.008 TIME LEFT:  2.00D  GRAD.:     6.487 HEAT:  30.41977
 CYCLE:    38 TIME:   0.008 TIME LEFT:  2.00D  GRAD.:     5.166 HEAT:  30.37793
 CYCLE:    39 TIME:   0.008 TIME LEFT:  2.00D  GRAD.:     7.723 HEAT:  30.31337
 CYCLE:    40 TIME:   0.008 TIME LEFT:  2.00D  GRAD.:     8.384 HEAT:  30.26067
 CYCLE:    41 TIME:   0.008 TIME LEFT:  2.00D  GRAD.:     7.829 HEAT:  30.15583
 CYCLE:    42 TIME:   0.004 TIME LEFT:  2.00D  GRAD.:     9.897 HEAT:  30.09211
 CYCLE:    43 TIME:   0.008 TIME LEFT:  2.00D  GRAD.:     7.307 HEAT:  30.01483
 CYCLE:    44 TIME:   0.008 TIME LEFT:  2.00D  GRAD.:     8.939 HEAT:  29.93387
 CYCLE:    45 TIME:   0.008 TIME LEFT:  2.00D  GRAD.:    10.363 HEAT:  29.80608
 CYCLE:    46 TIME:   0.008 TIME LEFT:  2.00D  GRAD.:     9.700 HEAT:  29.72012
 CYCLE:    47 TIME:   0.008 TIME LEFT:  2.00D  GRAD.:    11.212 HEAT:  29.64988
 CYCLE:    48 TIME:   0.004 TIME LEFT:  2.00D  GRAD.:     6.661 HEAT:  29.58133
 CYCLE:    49 TIME:   0.008 TIME LEFT:  2.00D  GRAD.:     4.326 HEAT:  29.54757
 CYCLE:    50 TIME:   0.008 TIME LEFT:  2.00D  GRAD.:     4.184 HEAT:  29.52674
 CYCLE:    51 TIME:   0.008 TIME LEFT:  2.00D  GRAD.:     4.128 HEAT:  29.51173
 CYCLE:    52 TIME:   0.008 TIME LEFT:  2.00D  GRAD.:     3.221 HEAT:  29.49254
 CYCLE:    53 TIME:   0.004 TIME LEFT:  2.00D  GRAD.:     3.597 HEAT:  29.47086
 CYCLE:    54 TIME:   0.008 TIME LEFT:  2.00D  GRAD.:     3.031 HEAT:  29.45539
 CYCLE:    55 TIME:   0.008 TIME LEFT:  2.00D  GRAD.:     3.449 HEAT:  29.43698
 CYCLE:    56 TIME:   0.008 TIME LEFT:  2.00D  GRAD.:     3.390 HEAT:  29.41840
 CYCLE:    57 TIME:   0.008 TIME LEFT:  2.00D  GRAD.:     4.015 HEAT:  29.40231
 CYCLE:    58 TIME:   0.008 TIME LEFT:  2.00D  GRAD.:     4.050 HEAT:  29.38543
 CYCLE:    59 TIME:   0.008 TIME LEFT:  2.00D  GRAD.:     2.793 HEAT:  29.37155
 CYCLE:    60 TIME:   0.008 TIME LEFT:  2.00D  GRAD.:     2.440 HEAT:  29.36100
 CYCLE:    61 TIME:   0.004 TIME LEFT:  2.00D  GRAD.:     2.047 HEAT:  29.35299
 CYCLE:    62 TIME:   0.012 TIME LEFT:  2.00D  GRAD.:     1.701 HEAT:  29.34785
 CYCLE:    63 TIME:   0.004 TIME LEFT:  2.00D  GRAD.:     1.325 HEAT:  29.34481
 CYCLE:    64 TIME:   0.008 TIME LEFT:  2.00D  GRAD.:     0.920 HEAT:  29.34323
 CYCLE:    65 TIME:   0.008 TIME LEFT:  2.00D  GRAD.:     0.654 HEAT:  29.34205
 CYCLE:    66 TIME:   0.008 TIME LEFT:  2.00D  GRAD.:     0.574 HEAT:  29.34146
 CYCLE:    67 TIME:   0.008 TIME LEFT:  2.00D  GRAD.:     0.468 HEAT:  29.34110
 CYCLE:    68 TIME:   0.008 TIME LEFT:  2.00D  GRAD.:     0.277 HEAT:  29.34089
 CYCLE:    69 TIME:   0.008 TIME LEFT:  2.00D  GRAD.:     0.260 HEAT:  29.34075
 CYCLE:    70 TIME:   0.004 TIME LEFT:  2.00D  GRAD.:     0.250 HEAT:  29.34064
 CYCLE:    71 TIME:   0.008 TIME LEFT:  2.00D  GRAD.:     0.224 HEAT:  29.34053
 CYCLE:    72 TIME:   0.008 TIME LEFT:  2.00D  GRAD.:     0.181 HEAT:  29.34045
 CYCLE:    73 TIME:   0.008 TIME LEFT:  2.00D  GRAD.:     0.125 HEAT:  29.34042
 CYCLE:    74 TIME:   0.008 TIME LEFT:  2.00D  GRAD.:     0.088 HEAT:  29.34039
 CYCLE:    75 TIME:   0.008 TIME LEFT:  2.00D  GRAD.:     0.114 HEAT:  29.34039
 CYCLE:    76 TIME:   0.004 TIME LEFT:  2.00D  GRAD.:     0.060 HEAT:  29.34038
 CYCLE:    77 TIME:   0.008 TIME LEFT:  2.00D  GRAD.:     0.042 HEAT:  29.34037

     GRADIENT =  0.04178 IS LESS THAN CUTOFF =  0.05000



 -------------------------------------------------------------------------------
 pm3  precise nosym THREADS=1
 InChI=1S/C10H12/c1-2-6-10-8-4-3-7-9(10)5-1/h1-3,7-9H,4-6H2



     GEOMETRY OPTIMISED USING EIGENVECTOR FOLLOWING (EF).     
     SCF FIELD WAS ACHIEVED                                   


                              PM3 CALCULATION
                                                       MOPAC v23.1.2 MacOS
                                                       Tue Jun  3 16:31:30 2025




          FINAL HEAT OF FORMATION =         29.34037 KCAL/MOL =     122.76010 KJ/MOL


          COSMO AREA              =        172.69 SQUARE ANGSTROMS
          COSMO VOLUME            =        175.71 CUBIC ANGSTROMS

          GRADIENT NORM           =          0.04178          =       0.00891 PER ATOM
          IONIZATION POTENTIAL    =          9.150439 EV
          HOMO LUMO ENERGIES (EV) =         -9.150  1.020
          NO. OF FILLED LEVELS    =         26
          MOLECULAR WEIGHT        =        132.2048         POINT GROUP:  C1  

          MOLECULAR DIMENSIONS (Angstroms)

            Atom       Atom       Distance
            H    22    H    19     7.20881
            H    21    H    12     5.43150
            H    11    H    13     3.03186


          SCF CALCULATIONS        =         86

          WALL-CLOCK TIME         =      0.609 SECONDS
          COMPUTATION TIME        =      0.397 SECONDS




   ATOM   CHEMICAL          X               Y               Z
  NUMBER   SYMBOL      (ANGSTROMS)     (ANGSTROMS)     (ANGSTROMS)

     1       C         -0.06508851  *   0.75869801  *   0.44866668  *
     2       C         -1.19983222  *   1.31023076  *  -0.42177319  *
     3       C         -1.18908782  *  -1.51162180  *   0.47294109  *
     4       C          2.48121998  *  -0.56783947  *  -0.28633638  *
     5       C          0.06028578  *  -0.72132444  *   0.25202516  *
     6       C          1.19728703  *   1.50304854  *   0.16485353  *
     7       C          1.21328919  *  -1.31205117  *  -0.08027633  *
     8       C         -2.43061248  *   0.48299884  *  -0.33478797  *
     9       C         -2.42301460  *  -0.78896979  *   0.06552970  *
    10       C          2.34298154  *   0.90512109  *  -0.15943337  *
    11       H         -0.31712336  *   0.92617555  *   1.52672597  *
    12       H         -1.42387424  *   2.35334690  *  -0.12301589  *
    13       H         -0.88302720  *   1.35924250  *  -1.48319011  *
    14       H         -1.14077616  *  -2.47749529  *  -0.06998458  *
    15       H         -1.26354013  *  -1.76913108  *   1.54992887  *
    16       H          2.88696671  *  -0.81058019  *  -1.28988308  *
    17       H          3.23557425  *  -0.92680526  *   0.44401154  *
    18       H         -3.36430434  *   0.97042350  *  -0.63658426  *
    19       H         -3.35208353  *  -1.36823605  *   0.11244247  *
    20       H          1.13165061  *   2.59453693  *   0.24273950  *
    21       H          1.26812643  *  -2.39942438  *  -0.21313566  *
    22       H          3.24909153  *   1.49164104  *  -0.34861743  *

                             CARTESIAN COORDINATES

   1    C       -0.065088505     0.758698012     0.448666681
   2    C       -1.199832221     1.310230762    -0.421773188
   3    C       -1.189087825    -1.511621802     0.472941093
   4    C        2.481219980    -0.567839472    -0.286336380
   5    C        0.060285781    -0.721324437     0.252025155
   6    C        1.197287030     1.503048544     0.164853525
   7    C        1.213289187    -1.312051170    -0.080276328
   8    C       -2.430612480     0.482998842    -0.334787972
   9    C       -2.423014598    -0.788969785     0.065529704
  10    C        2.342981542     0.905121093    -0.159433370
  11    H       -0.317123360     0.926175547     1.526725966
  12    H       -1.423874235     2.353346904    -0.123015885
  13    H       -0.883027202     1.359242504    -1.483190110
  14    H       -1.140776155    -2.477495293    -0.069984578
  15    H       -1.263540131    -1.769131084     1.549928866
  16    H        2.886966706    -0.810580191    -1.289883083
  17    H        3.235574246    -0.926805262     0.444011535
  18    H       -3.364304336     0.970423500    -0.636584256
  19    H       -3.352083534    -1.368236051     0.112442475
  20    H        1.131650613     2.594536931     0.242739499
  21    H        1.268126431    -2.399424385    -0.213135664
  22    H        3.249091532     1.491641037    -0.348617427


           Empirical Formula: C10 H12  =    22 atoms



      MOLECULAR POINT GROUP   :   C1  


                  EIGENVALUES  
 -41.54486 -35.66570 -32.25918 -29.06361 -27.63177 -22.97487 -22.10314 -20.60565
 -17.91812 -17.31688 -16.89930 -16.14916 -15.23048 -14.99277 -14.67237 -14.47835
 -14.10958 -13.73555 -13.26684 -13.08493 -12.73448 -11.77462 -11.47430 -10.26538
  -9.63148  -9.15044   1.01980   1.11334   1.13963   3.24503   3.35757   3.42002
   3.50464   3.65709   3.76536   3.82750   3.93929   4.08785   4.18290   4.37272
   4.39742   4.47918   4.54755   4.62977   4.73980   4.91142   5.34751   5.41721
   5.66797   5.84272   6.09931   6.27466


              NET ATOMIC CHARGES AND DIPOLE CONTRIBUTIONS

  ATOM NO.   TYPE          CHARGE      No. of ELECS.   s-Pop       p-Pop       
    1          C           0.009747        3.9903     1.14686     2.84339
    2          C          -0.053009        4.0530     1.14810     2.90491
    3          C          -0.013174        4.0132     1.13263     2.88054
    4          C          -0.017252        4.0173     1.13050     2.88675
    5          C          -0.115744        4.1157     1.19675     2.91899
    6          C          -0.147312        4.1473     1.19478     2.95253
    7          C          -0.151620        4.1516     1.19128     2.96034
    8          C          -0.145534        4.1455     1.19331     2.95222
    9          C          -0.149052        4.1491     1.19353     2.95553
   10          C          -0.141708        4.1417     1.19266     2.94905
   11          H           0.073844        0.9262     0.92616
   12          H           0.053282        0.9467     0.94672
   13          H           0.063573        0.9364     0.93643
   14          H           0.059408        0.9406     0.94059
   15          H           0.061318        0.9387     0.93868
   16          H           0.059796        0.9402     0.94020
   17          H           0.059987        0.9400     0.94001
   18          H           0.097670        0.9023     0.90233
   19          H           0.097442        0.9026     0.90256
   20          H           0.099944        0.9001     0.90006
   21          H           0.100946        0.8991     0.89905
   22          H           0.097449        0.9026     0.90255
 DIPOLE           X         Y         Z       TOTAL
 POINT-CHG.     0.096    -0.038     0.075     0.127
 HYBRID        -0.013    -0.018    -0.019     0.029
 SUM            0.083    -0.056     0.056     0.115


          ATOMIC ORBITAL ELECTRON POPULATIONS

     Atom    s        px        py        pz   
    1  C   1.14686   0.93535   0.91723   0.99081
    2  C   1.14810   0.93331   0.97397   0.99763
    3  C   1.13263   0.91379   0.96545   1.00130
    4  C   1.13050   0.95524   0.92818   1.00333
    5  C   1.19675   0.95422   0.95880   1.00597
    6  C   1.19478   0.95308   0.98591   1.01354
    7  C   1.19128   0.95034   0.98572   1.02429
    8  C   1.19331   0.98012   0.96102   1.01109
    9  C   1.19353   0.97783   0.96310   1.01459
   10  C   1.19266   0.97535   0.96583   1.00786
   11  H   0.92616
   12  H   0.94672
   13  H   0.93643
   14  H   0.94059
   15  H   0.93868
   16  H   0.94020
   17  H   0.94001
   18  H   0.90233
   19  H   0.90256
   20  H   0.90006
   21  H   0.89905
   22  H   0.90255
 *******************************************************************************
 **                                                                           **
 **                              MOPAC v23.1.2                                **
 **                                                                           **
 *******************************************************************************
 **          Digital Object Identifier (DOI): 10.5281/zenodo.6511958          **
 **    Visit the DOI location for information on how to cite this program.    **
 *******************************************************************************

                              PM3 CALCULATION RESULTS

 *******************************************************************************
 *  CALCULATION DONE: (MAX THREADS = 1)              Tue Jun  3 16:31:30 2025  *
 *  PM3        - The PM3 Hamiltonian to be used
 *  OLDGEO     - PREVIOUS GEOMETRY TO BE USED
 *  PRECISE    - TIGHTER CRITERIA TO BE USED
 *  NOSYM      - POINT-GROUP SYMMETRY SET TO C1
 *  THREADS=1  - MULTI-THREADING NOT USED
 *  T=         - A TIME OF 172800.0 SECONDS REQUESTED
 *  DUMP=N     - RESTART FILE WRITTEN EVERY 7200.0 SECONDS REQUESTED
 *  THERMO     - THERMODYNAMIC QUANTITIES TO BE CALCULATED
 *******************************************************************************
oldgeo thermo nosym precise THREADS=1  pm3
 InChI=1S/C10H12/c1-2-6-10-8-4-3-7-9(10)5-1/h1-3,7-9H,4-6H2

   ATOM   CHEMICAL          X               Y               Z
  NUMBER   SYMBOL      (ANGSTROMS)     (ANGSTROMS)     (ANGSTROMS)

     1       C         -0.06508851  *   0.75869801  *   0.44866668  *
     2       C         -1.19983222  *   1.31023076  *  -0.42177319  *
     3       C         -1.18908782  *  -1.51162180  *   0.47294109  *
     4       C          2.48121998  *  -0.56783947  *  -0.28633638  *
     5       C          0.06028578  *  -0.72132444  *   0.25202516  *
     6       C          1.19728703  *   1.50304854  *   0.16485353  *
     7       C          1.21328919  *  -1.31205117  *  -0.08027633  *
     8       C         -2.43061248  *   0.48299884  *  -0.33478797  *
     9       C         -2.42301460  *  -0.78896979  *   0.06552970  *
    10       C          2.34298154  *   0.90512109  *  -0.15943337  *
    11       H         -0.31712336  *   0.92617555  *   1.52672597  *
    12       H         -1.42387424  *   2.35334690  *  -0.12301589  *
    13       H         -0.88302720  *   1.35924250  *  -1.48319011  *
    14       H         -1.14077616  *  -2.47749529  *  -0.06998458  *
    15       H         -1.26354013  *  -1.76913108  *   1.54992887  *
    16       H          2.88696671  *  -0.81058019  *  -1.28988308  *
    17       H          3.23557425  *  -0.92680526  *   0.44401154  *
    18       H         -3.36430434  *   0.97042350  *  -0.63658426  *
    19       H         -3.35208353  *  -1.36823605  *   0.11244247  *
    20       H          1.13165061  *   2.59453693  *   0.24273950  *
    21       H          1.26812643  *  -2.39942438  *  -0.21313566  *
    22       H          3.24909153  *   1.49164104  *  -0.34861743  *



          CARTESIAN COORDINATES 

    NO.       ATOM           X           Y           Z

     1         C         -0.0651      0.7587      0.4487
     2         C         -1.1998      1.3102     -0.4218
     3         C         -1.1891     -1.5116      0.4729
     4         C          2.4812     -0.5678     -0.2863
     5         C          0.0603     -0.7213      0.2520
     6         C          1.1973      1.5030      0.1649
     7         C          1.2133     -1.3121     -0.0803
     8         C         -2.4306      0.4830     -0.3348
     9         C         -2.4230     -0.7890      0.0655
    10         C          2.3430      0.9051     -0.1594
    11         H         -0.3171      0.9262      1.5267
    12         H         -1.4239      2.3533     -0.1230
    13         H         -0.8830      1.3592     -1.4832
    14         H         -1.1408     -2.4775     -0.0700
    15         H         -1.2635     -1.7691      1.5499
    16         H          2.8870     -0.8106     -1.2899
    17         H          3.2356     -0.9268      0.4440
    18         H         -3.3643      0.9704     -0.6366
    19         H         -3.3521     -1.3682      0.1124
    20         H          1.1317      2.5945      0.2427
    21         H          1.2681     -2.3994     -0.2131
    22         H          3.2491      1.4916     -0.3486

  H: (PM3): J. J. P. STEWART, J. COMP. CHEM. 10, 209 (1989).
  C: (PM3): J. J. P. STEWART, J. COMP. CHEM. 10, 209 (1989).

           Empirical Formula: C10 H12  =    22 atoms



      MOLECULAR POINT GROUP   :   C1  


      RHF CALCULATION, NO. OF DOUBLY OCCUPIED LEVELS = 26



          HEAT OF FORMATION =      29.340368 KCALS/MOLE


          CARTESIAN COORDINATE DERIVATIVES

   NUMBER  ATOM         X            Y            Z

     1       C      0.005482    -0.001186    -0.000231
     2       C      0.005203     0.002517     0.000108
     3       C      0.001531    -0.003543     0.008727
     4       C     -0.007904    -0.000181     0.000403
     5       C      0.002658    -0.001031    -0.002283
     6       C      0.000537    -0.003378     0.004621
     7       C      0.004951     0.003659     0.002005
     8       C     -0.002571     0.002423    -0.002886
     9       C     -0.009443    -0.007837     0.002504
    10       C     -0.016566     0.010896    -0.008887
    11       H      0.009256    -0.002982     0.002213
    12       H      0.013034     0.001056     0.002777
    13       H     -0.003413     0.002169    -0.002338
    14       H      0.000542     0.002013    -0.004948
    15       H     -0.005928    -0.004486    -0.009227
    16       H      0.005056    -0.006329     0.000116
    17       H      0.004544     0.002650    -0.004415
    18       H      0.005048    -0.002318     0.003933
    19       H     -0.001447     0.002538     0.002991
    20       H     -0.004484     0.003233     0.001236
    21       H     -0.003570     0.001924    -0.001826
    22       H     -0.002518    -0.001805     0.005406



          GRADIENT NORM =   0.04115

          MOLECULAR WEIGHT =  132.20



          ROTATIONAL CONSTANTS IN CM(-1)

          A =    0.08955682   B =    0.03892013   C =    0.02891367



           PRINCIPAL MOMENTS OF INERTIA IN UNITS OF 10**(-40)*GRAM-CM**2

          A =      312.5697   B =      719.2359   C =      968.1495


          ORIENTATION OF MOLECULE IN FORCE CALCULATION

    NO.       ATOM         X         Y         Z

     1          C       0.0690   -0.6429    0.5897
     2          C       1.6018   -0.6429    0.5897
     3          C       0.0704    1.8905    0.5897
     4          C      -1.8760   -0.5898   -1.6459
     5          C      -0.4447    0.6262   -0.0189
     6          C      -0.4366   -1.8725   -0.0891
     7          C      -1.3221    0.6413   -1.0282
     8          C       2.1659    0.6450    1.0691
     9          C       1.4752    1.7857    1.0653
    10          C      -1.3157   -1.8476   -1.0900
    11          H      -0.2964   -0.6706    1.6478
    12          H       1.9733   -1.4756    1.2190
    13          H       1.9876   -0.8378   -0.4313
    14          H      -0.0046    2.7295   -0.1318
    15          H      -0.5788    2.1650    1.4471
    16          H      -1.6938   -0.5620   -2.7398
    17          H      -2.9784   -0.5952   -1.5190
    18          H       3.2039    0.6190    1.4189
    19          H       1.9280    2.7172    1.4234
    20          H      -0.0395   -2.8209    0.2909
    21          H      -1.6786    1.5904   -1.4469
    22          H      -1.6681   -2.7768   -1.5518


    FIRST DERIVATIVES WILL BE USED IN THE CALCULATION OF SECOND DERIVATIVES

          ESTIMATED TIME TO COMPLETE CALCULATION =        2.06 SECONDS

    FOR POINT-GROUP C1   THERE ARE   1 UNIQUE SYMMETRY FUNCTIONS.

 STEP:   1 TIME =     0.02 SECS, INTEGRAL =      0.02 TIME LEFT: 172799.97
 STEP:   2 TIME =     0.02 SECS, INTEGRAL =      0.04 TIME LEFT: 172799.95
 STEP:   3 TIME =     0.02 SECS, INTEGRAL =      0.06 TIME LEFT: 172799.93
 STEP:   4 TIME =     0.02 SECS, INTEGRAL =      0.08 TIME LEFT: 172799.91
 STEP:   5 TIME =     0.02 SECS, INTEGRAL =      0.11 TIME LEFT: 172799.89
 STEP:   6 TIME =     0.02 SECS, INTEGRAL =      0.12 TIME LEFT: 172799.87
 STEP:   7 TIME =     0.02 SECS, INTEGRAL =      0.14 TIME LEFT: 172799.85
 STEP:   8 TIME =     0.02 SECS, INTEGRAL =      0.16 TIME LEFT: 172799.83
 STEP:   9 TIME =     0.02 SECS, INTEGRAL =      0.19 TIME LEFT: 172799.80
 STEP:  10 TIME =     0.02 SECS, INTEGRAL =      0.21 TIME LEFT: 172799.78
 STEP:  11 TIME =     0.02 SECS, INTEGRAL =      0.23 TIME LEFT: 172799.76
 STEP:  12 TIME =     0.02 SECS, INTEGRAL =      0.26 TIME LEFT: 172799.73
 STEP:  13 TIME =     0.02 SECS, INTEGRAL =      0.28 TIME LEFT: 172799.71
 STEP:  14 TIME =     0.02 SECS, INTEGRAL =      0.30 TIME LEFT: 172799.69
 STEP:  15 TIME =     0.02 SECS, INTEGRAL =      0.33 TIME LEFT: 172799.66
 STEP:  16 TIME =     0.02 SECS, INTEGRAL =      0.35 TIME LEFT: 172799.64
 STEP:  17 TIME =     0.02 SECS, INTEGRAL =      0.37 TIME LEFT: 172799.62
 STEP:  18 TIME =     0.02 SECS, INTEGRAL =      0.39 TIME LEFT: 172799.60
 STEP:  19 TIME =     0.02 SECS, INTEGRAL =      0.42 TIME LEFT: 172799.57
 STEP:  20 TIME =     0.02 SECS, INTEGRAL =      0.44 TIME LEFT: 172799.55
 STEP:  21 TIME =     0.02 SECS, INTEGRAL =      0.46 TIME LEFT: 172799.54
 STEP:  22 TIME =     0.02 SECS, INTEGRAL =      0.48 TIME LEFT: 172799.51
 STEP:  23 TIME =     0.02 SECS, INTEGRAL =      0.50 TIME LEFT: 172799.49
 STEP:  24 TIME =     0.02 SECS, INTEGRAL =      0.53 TIME LEFT: 172799.46
 STEP:  25 TIME =     0.02 SECS, INTEGRAL =      0.55 TIME LEFT: 172799.44
 STEP:  26 TIME =     0.02 SECS, INTEGRAL =      0.57 TIME LEFT: 172799.42
 STEP:  27 TIME =     0.02 SECS, INTEGRAL =      0.59 TIME LEFT: 172799.40
 STEP:  28 TIME =     0.02 SECS, INTEGRAL =      0.61 TIME LEFT: 172799.38
 STEP:  29 TIME =     0.02 SECS, INTEGRAL =      0.63 TIME LEFT: 172799.36
 STEP:  30 TIME =     0.02 SECS, INTEGRAL =      0.66 TIME LEFT: 172799.34
 STEP:  31 TIME =     0.02 SECS, INTEGRAL =      0.68 TIME LEFT: 172799.31
 STEP:  32 TIME =     0.02 SECS, INTEGRAL =      0.70 TIME LEFT: 172799.29
 STEP:  33 TIME =     0.02 SECS, INTEGRAL =      0.73 TIME LEFT: 172799.27
 STEP:  34 TIME =     0.02 SECS, INTEGRAL =      0.75 TIME LEFT: 172799.25
 STEP:  35 TIME =     0.02 SECS, INTEGRAL =      0.77 TIME LEFT: 172799.23
 STEP:  36 TIME =     0.02 SECS, INTEGRAL =      0.79 TIME LEFT: 172799.21
 STEP:  37 TIME =     0.02 SECS, INTEGRAL =      0.80 TIME LEFT: 172799.19
 STEP:  38 TIME =     0.02 SECS, INTEGRAL =      0.83 TIME LEFT: 172799.16
 STEP:  39 TIME =     0.02 SECS, INTEGRAL =      0.85 TIME LEFT: 172799.14
 STEP:  40 TIME =     0.02 SECS, INTEGRAL =      0.87 TIME LEFT: 172799.12
 STEP:  41 TIME =     0.02 SECS, INTEGRAL =      0.89 TIME LEFT: 172799.10
 STEP:  42 TIME =     0.02 SECS, INTEGRAL =      0.92 TIME LEFT: 172799.07
 STEP:  43 TIME =     0.02 SECS, INTEGRAL =      0.94 TIME LEFT: 172799.05
 STEP:  44 TIME =     0.02 SECS, INTEGRAL =      0.96 TIME LEFT: 172799.03
 STEP:  45 TIME =     0.02 SECS, INTEGRAL =      0.98 TIME LEFT: 172799.01
 STEP:  46 TIME =     0.02 SECS, INTEGRAL =      1.00 TIME LEFT: 172798.99
 STEP:  47 TIME =     0.02 SECS, INTEGRAL =      1.02 TIME LEFT: 172798.97
 STEP:  48 TIME =     0.02 SECS, INTEGRAL =      1.04 TIME LEFT: 172798.95
 STEP:  49 TIME =     0.02 SECS, INTEGRAL =      1.06 TIME LEFT: 172798.93
 STEP:  50 TIME =     0.02 SECS, INTEGRAL =      1.09 TIME LEFT: 172798.91
 STEP:  51 TIME =     0.02 SECS, INTEGRAL =      1.11 TIME LEFT: 172798.88
 STEP:  52 TIME =     0.02 SECS, INTEGRAL =      1.13 TIME LEFT: 172798.86
 STEP:  53 TIME =     0.02 SECS, INTEGRAL =      1.15 TIME LEFT: 172798.84
 STEP:  54 TIME =     0.02 SECS, INTEGRAL =      1.18 TIME LEFT: 172798.82
 STEP:  55 TIME =     0.02 SECS, INTEGRAL =      1.20 TIME LEFT: 172798.79
 STEP:  56 TIME =     0.02 SECS, INTEGRAL =      1.22 TIME LEFT: 172798.77
 STEP:  57 TIME =     0.02 SECS, INTEGRAL =      1.25 TIME LEFT: 172798.75
 STEP:  58 TIME =     0.02 SECS, INTEGRAL =      1.27 TIME LEFT: 172798.72
 STEP:  59 TIME =     0.02 SECS, INTEGRAL =      1.29 TIME LEFT: 172798.70
 STEP:  60 TIME =     0.02 SECS, INTEGRAL =      1.31 TIME LEFT: 172798.68
 STEP:  61 TIME =     0.02 SECS, INTEGRAL =      1.34 TIME LEFT: 172798.66
 STEP:  62 TIME =     0.02 SECS, INTEGRAL =      1.36 TIME LEFT: 172798.63
 STEP:  63 TIME =     0.02 SECS, INTEGRAL =      1.38 TIME LEFT: 172798.61
 STEP:  64 TIME =     0.02 SECS, INTEGRAL =      1.41 TIME LEFT: 172798.59
 STEP:  65 TIME =     0.02 SECS, INTEGRAL =      1.43 TIME LEFT: 172798.57
 STEP:  66 TIME =     0.02 SECS, INTEGRAL =      1.45 TIME LEFT: 172798.55

(To convert to Hartree/Bohr^2, multiply by (10^(-21) x N x a0^2)/(4.184 x 627.51) =  0.0642)


           FORCE MATRIX IN MILLIDYNES/ANGSTROM


                  C  1       C  2       C  3       C  4       C  5       C  6
 ------------------------------------------------------------------------------
     C    1  15.111271
     C    2   3.751515  14.665349
     C    3   0.601855   0.102627  15.042956
     C    4   0.191409   0.015411   0.134033  15.156941
     C    5   4.573777   0.693241   4.704094   0.828571  18.639274
     C    6   4.782853   0.701140   0.049479   0.850713   0.696049  18.327976
     C    7   0.785857   0.041595   0.819776   5.055741  10.411802   0.055971
     C    8   0.674940   5.025209   0.837976   0.002481   0.064442   0.053512
     C    9   0.063509   0.848763   4.978232   0.016001   0.716636   0.004266
     C   10   0.817281   0.041627   0.002854   5.056495   0.053030  10.766422
     H   11   4.130725   0.438608   0.021841   0.012693   0.404851   0.396500
     H   12   0.434829   4.454533   0.008785   0.002088   0.049680   0.026470
     H   13   0.450981   4.425393   0.014615   0.001320   0.009008   0.032038
     H   14   0.039928   0.010924   4.413526   0.005091   0.448115   0.007988
     H   15   0.012895   0.013828   4.372629   0.018268   0.414793   0.001725
     H   16   0.014341   0.002147   0.017771   4.391503   0.036934   0.038938
     H   17   0.013724   0.003158   0.018819   4.376455   0.033621   0.036977
     H   18   0.041054   0.426331   0.124491   0.000396   0.003554   0.008517
     H   19   0.004640   0.125171   0.424493   0.002605   0.044949   0.001465
     H   20   0.428469   0.027621   0.007558   0.127029   0.044784   4.806049
     H   21   0.116395   0.017003   0.079345   0.423964   0.458495   0.003625
     H   22   0.125248   0.017190   0.001134   0.425024   0.003832   0.444290


                  C  7       C  8       C  9       C 10       H 11       H 12
 ------------------------------------------------------------------------------
     C    7  18.320845
     C    8   0.002785  18.215483
     C    9   0.047927  10.699057  18.216447
     C   10   0.737424   0.008852   0.001435  18.301043
     H   11   0.033123   0.011937   0.006473   0.035163   4.578076
     H   12   0.007604   0.434175   0.044661   0.001850   0.033475   5.054352
     H   13   0.002217   0.410710   0.028754   0.003344   0.043921   0.565693
     H   14   0.054166   0.039792   0.422169   0.000915   0.001700   0.000428
     H   15   0.026502   0.034322   0.423377   0.001365   0.003528   0.001007
     H   16   0.418831   0.000313   0.002590   0.421375   0.002505   0.000312
     H   17   0.419769   0.000471   0.001668   0.421741   0.002289   0.000570
     H   18   0.001022   4.826060   0.444425   0.001849   0.001406   0.035937
     H   19   0.006998   0.444812   4.819347   0.000541   0.000485   0.013377
     H   20   0.003606   0.002039   0.001606   0.445406   0.024839   0.015816
     H   21   4.785951   0.001824   0.006397   0.046499   0.015128   0.002824
     H   22   0.046562   0.002879   0.000490   4.820570   0.016002   0.000450


                  H 13       H 14       H 15       H 16       H 17       H 18
 ------------------------------------------------------------------------------
     H   13   5.023171
     H   14   0.001262   5.002741
     H   15   0.001847   0.561096   4.952499
     H   16   0.000485   0.000507   0.002180   4.974440
     H   17   0.000431   0.001131   0.003196   0.565404   4.962240
     H   18   0.016620   0.015919   0.017548   0.000158   0.000238   5.200119
     H   19   0.017677   0.033361   0.023302   0.000711   0.000239   0.069975
     H   20   0.003399   0.001430   0.000365   0.016307   0.017123   0.000578
     H   21   0.000713   0.030136   0.010106   0.030161   0.026090   0.000349
     H   22   0.000710   0.000213   0.000352   0.029636   0.025857   0.000642


                  H 19       H 20       H 21       H 22
 ------------------------------------------------------
     H   19   5.195914
     H   20   0.000394   5.185485
     H   21   0.001387   0.000807   5.171317
     H   22   0.000223   0.071086   0.006665   5.197327


          HEAT OF FORMATION =      29.340368 KCALS/MOLE

          ZERO POINT ENERGY     118.731 KCAL/MOL


           NORMAL COORDINATE ANALYSIS (Total motion = 1 Angstrom)


   Root No.       1         2         3         4         5         6         7         8

                 1 A       2 A       3 A       4 A       5 A       6 A       7 A       8 A   

                  60.9     106.1     214.4     258.1     348.7     361.9     425.3     462.5
  
           1    0.0081   -0.0113    0.0093   -0.0260   -0.0002   -0.0039   -0.0268    0.0196
           2    0.0008   -0.0051   -0.0029    0.0073   -0.0369    0.0080    0.0083    0.0063
           3   -0.0157    0.0082   -0.0133    0.0268    0.0223   -0.0071   -0.0054    0.0027
           4    0.0077   -0.0110    0.0098   -0.0250    0.0015   -0.0056   -0.0322    0.0119
           5    0.0031   -0.0144    0.0037    0.0020    0.0118    0.0115    0.0083   -0.0438
           6    0.0108    0.0556    0.0074   -0.0247   -0.0046   -0.0111   -0.0035   -0.0106
           7    0.0213   -0.0027   -0.0173    0.0027   -0.0011    0.0038    0.0132   -0.0383
           8    0.0076   -0.0025   -0.0137    0.0074    0.0007   -0.0073    0.0209    0.0141
           9   -0.0420    0.0065    0.0279    0.0028   -0.0176    0.0149    0.0141   -0.0157
          10   -0.0418   -0.0123   -0.0226   -0.0055    0.0043   -0.0019    0.0133    0.0181
          11   -0.0040    0.0066    0.0014   -0.0056    0.0196   -0.0084   -0.0170    0.0226
          12    0.0293    0.0079    0.0152    0.0201    0.0004   -0.0012    0.0074    0.0192
          13    0.0094   -0.0034    0.0206   -0.0098    0.0008   -0.0027   -0.0175   -0.0061
          14    0.0004   -0.0023   -0.0033    0.0075   -0.0275    0.0069    0.0238    0.0046
          15   -0.0177    0.0074   -0.0234    0.0117    0.0399   -0.0109    0.0184    0.0037
          16    0.0223    0.0146    0.0019   -0.0025   -0.0081    0.0010    0.0379    0.0464
          17    0.0010    0.0002   -0.0020    0.0022   -0.0194    0.0022   -0.0047    0.0074
          18   -0.0271   -0.0230   -0.0085    0.0185   -0.0157    0.0021   -0.0352    0.0056
          19   -0.0149   -0.0064    0.0463    0.0250    0.0354   -0.0116    0.0091    0.0083
          20   -0.0030    0.0027    0.0010    0.0007   -0.0059   -0.0000   -0.0020    0.0287
          21    0.0029    0.0099   -0.0452   -0.0182    0.0115   -0.0036   -0.0055   -0.0045
          22   -0.0051    0.0037    0.0012   -0.0066   -0.0149   -0.0067   -0.0021   -0.0390
          23   -0.0040    0.0037    0.0124   -0.0120    0.0171   -0.0126   -0.0079   -0.0346
          24    0.0440   -0.0134   -0.0021   -0.0135    0.0112    0.0550   -0.0084   -0.0009
          25   -0.0011    0.0129   -0.0100    0.0019   -0.0021    0.0273    0.0163   -0.0407
          26   -0.0019    0.0087    0.0058   -0.0068    0.0245    0.0078    0.0024   -0.0337
          27    0.0201   -0.0395    0.0096    0.0041   -0.0232   -0.0431    0.0098   -0.0361
          28   -0.0015    0.0178   -0.0284    0.0446   -0.0204    0.0033   -0.0225    0.0154
          29   -0.0017    0.0053   -0.0005   -0.0018    0.0063   -0.0057   -0.0267    0.0285
          30   -0.0063   -0.0257    0.0176   -0.0220   -0.0064    0.0004    0.0203    0.0371
          31   -0.0089   -0.0450   -0.0018   -0.0085    0.0136   -0.0017   -0.0509    0.0298
          32   -0.0046   -0.0165   -0.0002    0.0113   -0.0763    0.0127   -0.0303    0.0104
          33   -0.0215   -0.0038   -0.0167    0.0313    0.0248   -0.0061   -0.0154    0.0065
          34   -0.0021   -0.0391    0.0041   -0.0032    0.0449    0.0036   -0.0376    0.0043
          35   -0.0076    0.0210    0.0150   -0.0170    0.0013   -0.0396    0.0016   -0.0494
          36    0.0025    0.1197    0.0258   -0.0634   -0.0455   -0.0859   -0.0087   -0.0125
          37    0.0262    0.0171    0.0251   -0.0658   -0.0189   -0.0138   -0.0417    0.0186
          38    0.0219   -0.0851   -0.0105    0.0306    0.0619    0.1005    0.0070   -0.0434
          39    0.0143    0.0794    0.0161   -0.0462   -0.0223   -0.0322   -0.0077   -0.0084
          40    0.0717   -0.0390   -0.0599    0.0149   -0.0024   -0.0827    0.0315   -0.0387
          41   -0.0176    0.0061    0.0232    0.0026   -0.0364    0.0344    0.0138    0.0119
          42   -0.0769    0.0204    0.0761   -0.0041   -0.0623    0.0748    0.0038   -0.0192
          43   -0.0079    0.0219   -0.0184    0.0040    0.0021    0.0558    0.0231   -0.0311
          44    0.0560   -0.0230   -0.0883    0.0219    0.0487   -0.0879    0.0477    0.0253
          45   -0.0796    0.0319    0.0516   -0.0011   -0.0311    0.0819    0.0125   -0.0137
          46   -0.1056   -0.0468   -0.0965   -0.1087    0.0064    0.0006    0.0674    0.0321
          47    0.0011    0.0247   -0.0388   -0.0007    0.0225   -0.0091   -0.0435   -0.0032
          48    0.0189    0.0028    0.0025    0.0040    0.0007   -0.0009    0.0148    0.0207
          49   -0.0345   -0.0083   -0.0147    0.0057    0.0041   -0.0021    0.0081    0.0172
          50   -0.0119   -0.0073    0.0433   -0.0194    0.0507   -0.0169    0.0104    0.0290
          51    0.0933    0.0423    0.0906    0.1240   -0.0009   -0.0041   -0.0453    0.0082
          52   -0.0204    0.0143    0.0068   -0.0051   -0.0230   -0.0325    0.0044   -0.0537
          53   -0.0106    0.0123    0.0236   -0.0270    0.0175   -0.0374   -0.0319   -0.0109
          54    0.0888   -0.0437   -0.0176   -0.0196    0.0353    0.1286   -0.0291    0.0447
          55   -0.0133    0.0321   -0.0166    0.0087   -0.0007    0.0498    0.0345   -0.0187
          56   -0.0052    0.0200    0.0103   -0.0148    0.0338    0.0230   -0.0073   -0.0401
          57    0.0445   -0.0933    0.0060    0.0158   -0.0496   -0.1113    0.0117   -0.0465
          58    0.0519    0.0341    0.0103    0.0034   -0.0121    0.0036    0.1183    0.0793
          59    0.0032   -0.0007   -0.0025    0.0062   -0.0321    0.0061    0.0105    0.0077
          60   -0.0524   -0.0456   -0.0186    0.0225   -0.0437    0.0093   -0.0805   -0.0278
          61   -0.0178   -0.0053    0.0871    0.0651    0.0864   -0.0254    0.0274    0.0152
          62   -0.0041    0.0049    0.0016   -0.0034    0.0065   -0.0042   -0.0140    0.0305
          63    0.0028    0.0138   -0.0784   -0.0614   -0.0053   -0.0008   -0.0478   -0.0063
          64    0.0081    0.0415   -0.0534    0.1034   -0.0412    0.0081   -0.0522   -0.0041
          65   -0.0015    0.0090   -0.0006   -0.0004    0.0174   -0.0086   -0.0287    0.0305
          66   -0.0139   -0.0512    0.0370   -0.0692   -0.0132    0.0026    0.0477    0.0483


   Root No.       9        10        11        12        13        14        15        16

                 9 A      10 A      11 A      12 A      13 A      14 A      15 A      16 A   

                 497.2     564.0     620.1     711.4     745.4     760.9     817.5     825.3
  
           1   -0.0007    0.0272   -0.0019   -0.0004    0.0035   -0.0118   -0.0025    0.0030
           2   -0.0154    0.0188    0.0057   -0.0033   -0.0039    0.0122   -0.0215    0.0026
           3   -0.0427   -0.0089    0.0398   -0.0002    0.0023    0.0134    0.0175   -0.0017
           4   -0.0121    0.0331   -0.0121    0.0041   -0.0172   -0.0054    0.0143   -0.0015
           5   -0.0159   -0.0223   -0.0147   -0.0021   -0.0032    0.0164   -0.0082   -0.0032
           6   -0.0106   -0.0027   -0.0018   -0.0154   -0.0050    0.0081    0.0249    0.0056
           7    0.0021   -0.0129    0.0030    0.0133    0.0118   -0.0109   -0.0062    0.0057
           8    0.0399    0.0437    0.0113   -0.0023   -0.0052   -0.0055    0.0515   -0.0001
           9    0.0057    0.0175   -0.0059   -0.0098    0.0040   -0.0199   -0.0054   -0.0151
          10    0.0300   -0.0117   -0.0197   -0.0080    0.0016    0.0294   -0.0174   -0.0151
          11    0.0010   -0.0241   -0.0076    0.0005   -0.0007    0.0026   -0.0009   -0.0005
          12    0.0341   -0.0189   -0.0101    0.0020   -0.0325    0.0139   -0.0206    0.0224
          13    0.0461   -0.0168    0.0594   -0.0145   -0.0030    0.0093   -0.0020    0.0038
          14    0.0230    0.0243   -0.0051   -0.0028   -0.0094    0.0013    0.0181    0.0016
          15   -0.0118    0.0407   -0.0213    0.0089    0.0052    0.0024   -0.0079   -0.0008
          16   -0.0203   -0.0232    0.0007   -0.0020    0.0295   -0.0030    0.0070    0.0128
          17   -0.0418    0.0393    0.0345   -0.0049    0.0043    0.0186   -0.0432    0.0091
          18    0.0040   -0.0139   -0.0080    0.0064   -0.0063   -0.0189    0.0051   -0.0138
          19    0.0111    0.0180    0.0118   -0.0047   -0.0017    0.0098   -0.0112   -0.0136
          20    0.0141   -0.0389   -0.0373    0.0011   -0.0139    0.0027    0.0012   -0.0015
          21    0.0253    0.0055    0.0215   -0.0011   -0.0003    0.0128   -0.0116    0.0171
          22   -0.0432   -0.0032   -0.0261   -0.0063   -0.0243    0.0345    0.0228   -0.0070
          23    0.0012   -0.0109   -0.0043    0.0057   -0.0022    0.0021    0.0001   -0.0027
          24   -0.0084    0.0076   -0.0136   -0.0143   -0.0101   -0.0057   -0.0029    0.0025
          25   -0.0030   -0.0028   -0.0038    0.0119    0.0135   -0.0149   -0.0003   -0.0053
          26    0.0269   -0.0080    0.0111    0.0158    0.0197   -0.0280   -0.0104   -0.0017
          27    0.0014   -0.0096    0.0055   -0.0064    0.0064   -0.0228   -0.0061    0.0054
          28    0.0035   -0.0140   -0.0098    0.0010    0.0194   -0.0073    0.0041    0.0147
          29   -0.0337   -0.0197    0.0080    0.0044    0.0248   -0.0229    0.0131   -0.0004
          30   -0.0144   -0.0246   -0.0004    0.0040    0.0050   -0.0160    0.0039   -0.0139
          31   -0.0183    0.0651   -0.0145    0.0264   -0.0123   -0.0425   -0.0280   -0.0090
          32    0.0021   -0.0072    0.0253   -0.0074   -0.0222   -0.0013   -0.0403   -0.0202
          33   -0.0474    0.0045    0.0347    0.0091   -0.0028    0.0022    0.0060   -0.0063
          34   -0.0233    0.0066    0.0273   -0.0207   -0.0170   -0.0039    0.0787    0.0042
          35    0.0029   -0.0163   -0.0217    0.0440    0.0080    0.0089   -0.0336   -0.0177
          36    0.0219    0.0226   -0.0356    0.0638    0.0112   -0.0048   -0.0501   -0.0178
          37    0.0240    0.0666   -0.0624    0.0298   -0.0201   -0.0461   -0.0443   -0.0061
          38   -0.0377   -0.0456    0.0066   -0.0934   -0.0255    0.0140    0.0637    0.0240
          39    0.0075    0.0155   -0.0261    0.0140   -0.0022   -0.0067   -0.0125   -0.0022
          40   -0.0187   -0.0007   -0.0374   -0.0478    0.0013   -0.0471   -0.0360   -0.0242
          41    0.0513    0.0277    0.0403    0.0197   -0.0135    0.0149    0.0962    0.0293
          42    0.0215   -0.0029    0.0341    0.0246   -0.0036    0.0083    0.0501    0.0235
          43   -0.0053    0.0139   -0.0158    0.0512    0.0211    0.0036    0.0278   -0.0034
          44    0.0102    0.0930   -0.0642   -0.0523   -0.0021   -0.0462    0.0166   -0.0638
          45    0.0099    0.0215    0.0051    0.0369    0.0095    0.0060    0.0338   -0.0002
          46    0.0058   -0.0549    0.0353    0.0285   -0.1087   -0.0176   -0.0292    0.0800
          47    0.0284   -0.0118    0.0047   -0.0039   -0.0006    0.0305   -0.0167    0.0433
          48    0.0315   -0.0251   -0.0020    0.0070   -0.0488    0.0086   -0.0238    0.0377
          49    0.0328   -0.0082   -0.0253   -0.0116    0.0108    0.0355   -0.0186   -0.0236
          50   -0.0026   -0.0090    0.0071   -0.0023   -0.0265    0.0159   -0.0198   -0.0406
          51    0.0631    0.0215   -0.0685   -0.0362    0.0710    0.0728   -0.0229   -0.0715
          52   -0.0480   -0.0129   -0.0262   -0.0604   -0.0335    0.0038    0.0245    0.0152
          53   -0.0107    0.0056   -0.0115   -0.0332   -0.0375    0.0044    0.0259    0.0124
          54    0.0068    0.0396   -0.0141    0.1443    0.0145    0.0841   -0.0037   -0.0627
          55    0.0258    0.0268    0.0054   -0.0413    0.0192   -0.0870   -0.0062   -0.0005
          56    0.0098   -0.0178   -0.0041   -0.0173    0.0062   -0.0394   -0.0435    0.0001
          57    0.0088   -0.0193    0.0320    0.1472    0.0334    0.0976    0.0897   -0.0059
          58   -0.0615   -0.0523    0.0670    0.0236   -0.0807   -0.0291   -0.0268   -0.1066
          59   -0.0365    0.0418    0.0347   -0.0050   -0.0081    0.0264   -0.0659    0.0038
          60    0.0592    0.0247   -0.0756   -0.0206    0.0783    0.0269   -0.0151    0.0975
          61   -0.0504    0.0333   -0.0217    0.0500   -0.0448   -0.0347   -0.0242    0.1568
          62    0.0055   -0.0467   -0.0298    0.0012   -0.0062    0.0020   -0.0046   -0.0041
          63    0.0584   -0.0265    0.0669   -0.0473    0.0543    0.0491   -0.0151   -0.1338
          64   -0.0228   -0.0084    0.0507    0.0408   -0.1287   -0.0880   -0.0208   -0.0555
          65   -0.0138   -0.0387   -0.0058    0.0070    0.0051   -0.0224    0.0233   -0.0054
          66   -0.0337    0.0100   -0.0183   -0.0318    0.1580    0.0454   -0.0002    0.0502


   Root No.      17        18        19        20        21        22        23        24

                17 A      18 A      19 A      20 A      21 A      22 A      23 A      24 A   

                 867.0     909.3     934.0     957.1     992.9    1014.9    1018.0    1026.9
  
           1    0.0041   -0.0028    0.0071    0.0022    0.0016    0.0052   -0.0035   -0.0093
           2   -0.0040   -0.0029    0.0031    0.0057   -0.0025   -0.0112    0.0125   -0.0027
           3    0.0268    0.0157   -0.0223   -0.0224   -0.0073   -0.0035   -0.0082   -0.0191
           4    0.0260    0.0105   -0.0051   -0.0014    0.0009   -0.0074    0.0057    0.0091
           5   -0.0338   -0.0142   -0.0076   -0.0091   -0.0036    0.0062   -0.0278   -0.0011
           6    0.0128    0.0099    0.0200    0.0170    0.0064    0.0012    0.0038    0.0049
           7    0.0198   -0.0105    0.0040   -0.0042    0.0038   -0.0086   -0.0066    0.0234
           8   -0.0102   -0.0095   -0.0110   -0.0087    0.0019    0.0016    0.0008   -0.0083
           9   -0.0152    0.0380    0.0011    0.0164   -0.0099    0.0057   -0.0135   -0.0074
          10    0.0263   -0.0148   -0.0057    0.0126    0.0197    0.0237    0.0032   -0.0079
          11   -0.0051   -0.0045   -0.0004    0.0024   -0.0008   -0.0149    0.0026   -0.0024
          12    0.0024    0.0138    0.0086   -0.0180   -0.0145    0.0253    0.0152    0.0086
          13   -0.0227    0.0090   -0.0089    0.0102   -0.0012    0.0035   -0.0178   -0.0035
          14    0.0006    0.0004   -0.0035   -0.0010    0.0028    0.0034    0.0019    0.0066
          15   -0.0032   -0.0165    0.0107   -0.0028    0.0030   -0.0074    0.0109    0.0086
          16   -0.0136    0.0063    0.0082   -0.0132    0.0116   -0.0188   -0.0002   -0.0163
          17    0.0201    0.0055    0.0119   -0.0026    0.0083    0.0201   -0.0109    0.0074
          18   -0.0074   -0.0113   -0.0054    0.0165   -0.0101   -0.0025   -0.0006    0.0152
          19   -0.0208   -0.0033    0.0152   -0.0169   -0.0130   -0.0037    0.0086    0.0147
          20    0.0364    0.0183   -0.0039   -0.0076   -0.0026   -0.0112   -0.0230   -0.0076
          21   -0.0148   -0.0147   -0.0082    0.0247    0.0142   -0.0053   -0.0049   -0.0044
          22   -0.0267    0.0042   -0.0126   -0.0011    0.0066    0.0029    0.0198   -0.0079
          23    0.0035    0.0078   -0.0018    0.0025    0.0035   -0.0028    0.0091    0.0057
          24   -0.0019   -0.0227   -0.0012   -0.0090   -0.0175    0.0013   -0.0058   -0.0166
          25    0.0077    0.0067    0.0059    0.0040   -0.0052    0.0084    0.0094   -0.0236
          26    0.0253    0.0104    0.0085    0.0066   -0.0029    0.0021    0.0185   -0.0154
          27    0.0136   -0.0072   -0.0163   -0.0154    0.0182   -0.0059    0.0230    0.0129
          28   -0.0109    0.0033   -0.0049    0.0012   -0.0219    0.0014    0.0065    0.0155
          29   -0.0276   -0.0099    0.0040    0.0035    0.0044    0.0390    0.0136    0.0125
          30   -0.0105   -0.0093    0.0102    0.0036    0.0242    0.0013   -0.0070   -0.0054
          31    0.0427   -0.0346   -0.0337   -0.0458   -0.0634    0.0175   -0.0259   -0.1080
          32   -0.0180    0.0044   -0.0108    0.0592   -0.0683   -0.1224    0.1176   -0.0647
          33    0.0389    0.0037   -0.0361   -0.0375   -0.0318   -0.0021   -0.0138   -0.0559
          34    0.0961    0.0641    0.0011    0.0008    0.0282   -0.0195   -0.0370    0.0603
          35   -0.0442   -0.0153   -0.0524   -0.0522   -0.0043    0.0039   -0.0910    0.0185
          36   -0.0429   -0.0251   -0.0450   -0.0437   -0.0120    0.0061   -0.0539   -0.0031
          37   -0.0073   -0.0545    0.0027   -0.0032   -0.0415    0.0214   -0.0381   -0.0021
          38    0.0182   -0.0029    0.0815    0.0669   -0.0004    0.0170   -0.0242    0.0262
          39   -0.0110   -0.0179    0.0042    0.0004   -0.0112    0.0102   -0.0150   -0.0048
          40   -0.0148    0.0811   -0.0170    0.0265    0.0024   -0.0002   -0.0728    0.0206
          41    0.0124   -0.0613   -0.0343   -0.0373    0.0267   -0.0088   -0.0094    0.0068
          42    0.0170   -0.0348   -0.0236   -0.0213    0.0198   -0.0077   -0.0183    0.0122
          43    0.0337   -0.0481    0.0436   -0.0221   -0.0320   -0.0431   -0.0377    0.1199
          44   -0.0638    0.0966    0.0184    0.0346   -0.0519    0.0057   -0.0425    0.0021
          45    0.0132   -0.0273    0.0214   -0.0120   -0.0194   -0.0222   -0.0222    0.0624
          46   -0.0265    0.0477    0.0253   -0.0514   -0.0475    0.0437    0.0323    0.0258
          47   -0.0188   -0.0170   -0.0360    0.0504   -0.0326   -0.0669    0.0016    0.0092
          48   -0.0050    0.0229    0.0125   -0.0265   -0.0253    0.0278    0.0195    0.0142
          49    0.0332   -0.0209   -0.0085    0.0187    0.0270    0.0264    0.0013   -0.0110
          50   -0.0217   -0.0209    0.0398   -0.0334    0.0194   -0.1207    0.0503   -0.0362
          51    0.0650   -0.0504   -0.0191    0.0425    0.0572    0.0396    0.0003   -0.0238
          52   -0.0032   -0.0537    0.0097   -0.0090   -0.0257    0.0065    0.0039   -0.0307
          53    0.0386   -0.0085    0.0072    0.0052   -0.0110   -0.0413   -0.0095    0.0791
          54   -0.0691    0.1477   -0.0680    0.0135    0.0773   -0.0104    0.0411    0.0530
          55    0.0063    0.0080   -0.0457   -0.0314    0.0299    0.0080   -0.0106   -0.0096
          56    0.0212    0.0112   -0.0186   -0.0069    0.0174   -0.0118    0.0542    0.0125
          57    0.0278   -0.0093    0.1194    0.0651   -0.0794    0.0296   -0.0415   -0.0763
          58    0.0385   -0.0563   -0.0541    0.0973   -0.0601   -0.0513   -0.0023    0.0566
          59    0.0248    0.0014    0.0156    0.0134    0.0046   -0.0325   -0.0200    0.0206
          60   -0.0496    0.0440    0.0691   -0.0589    0.0556   -0.1062   -0.0239   -0.0279
          61   -0.0369   -0.0222   -0.0462    0.1165    0.0371   -0.0617   -0.0469   -0.0276
          62    0.0231    0.0121   -0.0024   -0.0022   -0.0052   -0.0635   -0.0437   -0.0108
          63   -0.0332   -0.0137    0.0479   -0.0757   -0.0337   -0.0723   -0.0040    0.0261
          64   -0.0343   -0.0119    0.0850   -0.0188    0.1143   -0.0271   -0.0661   -0.0250
          65   -0.0332   -0.0153   -0.0001    0.0002    0.0033    0.0572    0.0492   -0.0011
          66    0.0174    0.0123   -0.0485    0.0265   -0.0763   -0.0140   -0.0235    0.0551


   Root No.      25        26        27        28        29        30        31        32

                25 A      26 A      27 A      28 A      29 A      30 A      31 A      32 A   

                1037.1    1046.0    1063.7    1072.3    1080.9    1101.3    1102.5    1152.2
  
           1   -0.0044    0.0163   -0.0073   -0.0144    0.0036   -0.0059   -0.0346    0.0098
           2    0.0058    0.0062   -0.0030    0.0075    0.0006   -0.0005   -0.0034   -0.0121
           3    0.0126    0.0034   -0.0017    0.0045   -0.0050    0.0005    0.0277    0.0013
           4    0.0060   -0.0113    0.0052    0.0111    0.0109    0.0122    0.0239   -0.0010
           5    0.0005    0.0219   -0.0004   -0.0058    0.0109    0.0065   -0.0035    0.0032
           6   -0.0119    0.0273   -0.0061   -0.0080    0.0016   -0.0058   -0.0194   -0.0034
           7    0.0100    0.0106    0.0033    0.0155   -0.0114   -0.0020   -0.0055    0.0004
           8   -0.0084   -0.0049   -0.0017   -0.0093    0.0009    0.0046    0.0028    0.0017
           9    0.0098   -0.0025    0.0048    0.0076   -0.0009   -0.0056    0.0028   -0.0010
          10    0.0144    0.0047   -0.0008    0.0002    0.0036   -0.0019    0.0050    0.0026
          11   -0.0032    0.0006   -0.0015    0.0011    0.0067   -0.0080    0.0039   -0.0014
          12    0.0016    0.0061    0.0017    0.0007    0.0065   -0.0001   -0.0004    0.0048
          13    0.0067   -0.0088    0.0031   -0.0139   -0.0096   -0.0040    0.0066   -0.0080
          14    0.0045   -0.0002    0.0050    0.0167   -0.0035   -0.0125   -0.0048   -0.0003
          15   -0.0096   -0.0008   -0.0012    0.0089   -0.0031    0.0161   -0.0122    0.0013
          16    0.0097    0.0019   -0.0092    0.0068   -0.0022   -0.0033    0.0079   -0.0030
          17   -0.0079   -0.0085    0.0022   -0.0092    0.0025    0.0014    0.0021    0.0064
          18   -0.0139   -0.0036    0.0076   -0.0012    0.0063   -0.0083   -0.0031   -0.0026
          19   -0.0104   -0.0023   -0.0164    0.0113   -0.0023    0.0095   -0.0080    0.0005
          20   -0.0122   -0.0106   -0.0036   -0.0173   -0.0141    0.0154   -0.0057    0.0024
          21    0.0066   -0.0020    0.0169   -0.0057   -0.0063    0.0047   -0.0009   -0.0027
          22   -0.0097   -0.0185   -0.0030   -0.0110   -0.0097   -0.0047    0.0005   -0.0000
          23    0.0016   -0.0052   -0.0005    0.0011   -0.0113   -0.0047   -0.0009    0.0013
          24    0.0143   -0.0348    0.0068    0.0076    0.0064    0.0005   -0.0087    0.0012
          25   -0.0106   -0.0104    0.0017    0.0013    0.0134    0.0038    0.0043   -0.0009
          26   -0.0056   -0.0154   -0.0001    0.0017   -0.0001   -0.0023    0.0025    0.0001
          27   -0.0073    0.0056   -0.0117   -0.0242    0.0002   -0.0009    0.0064   -0.0014
          28   -0.0116   -0.0017    0.0234   -0.0053    0.0011   -0.0034   -0.0028    0.0033
          29    0.0111   -0.0004    0.0051    0.0044   -0.0012    0.0060   -0.0015   -0.0009
          30    0.0043   -0.0068   -0.0178    0.0066   -0.0010   -0.0025    0.0042    0.0033
          31   -0.0189    0.1176   -0.0367   -0.0225   -0.0754   -0.1110   -0.1109   -0.0605
          32    0.1101    0.0987   -0.0399   -0.0045    0.0022    0.1488   -0.0268    0.0833
          33    0.0092    0.0421   -0.0133    0.0006   -0.0336   -0.0328    0.0008   -0.0216
          34    0.0340    0.0130    0.0182    0.0133    0.1420    0.0378   -0.0790   -0.0155
          35    0.0378    0.0183    0.0170    0.0027    0.1000    0.0377   -0.0403    0.0028
          36    0.0198    0.0064    0.0087    0.0014    0.0400    0.0176   -0.0068    0.0035
          37   -0.0401    0.0654    0.0127    0.0340   -0.0501    0.0399    0.2411    0.0000
          38   -0.0586    0.1384   -0.0103   -0.0097   -0.0182    0.0194    0.0787   -0.0016
          39   -0.0176    0.0351   -0.0012    0.0017   -0.0162    0.0028    0.0489   -0.0021
          40    0.0182    0.0565    0.0611    0.1809   -0.0474   -0.0172   -0.0546    0.0281
          41   -0.0288    0.0247    0.0211    0.0659   -0.0215    0.0127   -0.0293    0.0212
          42   -0.0141    0.0299    0.0258    0.0807   -0.0227    0.0055   -0.0298    0.0192
          43    0.1122    0.0236   -0.0533   -0.1252   -0.0349   -0.0481    0.0190   -0.0007
          44    0.0662   -0.0241   -0.0306   -0.1050   -0.0012   -0.0350    0.0338   -0.0045
          45    0.0630    0.0125   -0.0293   -0.0699   -0.0183   -0.0276    0.0114    0.0002
          46   -0.0050    0.0107    0.0047    0.0011    0.0128    0.0021   -0.0033    0.0155
          47   -0.0260   -0.0070   -0.2398    0.0982    0.0898   -0.1311    0.0510    0.1026
          48   -0.0023    0.0067   -0.0035    0.0028    0.0100   -0.0020   -0.0007    0.0115
          49    0.0173    0.0046   -0.0016   -0.0003    0.0034   -0.0014    0.0061    0.0049
          50    0.0062    0.0570    0.2473   -0.0322    0.0618   -0.1304    0.0464    0.0812
          51    0.0326    0.0093    0.0043   -0.0010    0.0078   -0.0065    0.0129    0.0137
          52    0.0062   -0.0498    0.0037   -0.0048    0.0034   -0.0007   -0.0032    0.0013
          53    0.0774   -0.0505    0.0310    0.0910   -0.0622   -0.0031    0.0205   -0.0142
          54   -0.0304    0.0531   -0.0110   -0.0074   -0.0306   -0.0082    0.0065   -0.0040
          55   -0.0418    0.0722   -0.0119   -0.0380    0.0927    0.0679    0.0540   -0.0052
          56    0.0071   -0.0471   -0.0046    0.0018   -0.0527   -0.0411   -0.0235    0.0025
          57    0.0011   -0.0214    0.0179    0.0276    0.0319    0.0159    0.0104   -0.0016
          58   -0.0638   -0.0226    0.0154   -0.0044    0.0369   -0.0311   -0.0044   -0.1380
          59   -0.0348   -0.0251    0.0046   -0.0065    0.0274   -0.0162    0.0124   -0.1152
          60   -0.0084   -0.0220   -0.0117    0.0172    0.0278   -0.0278    0.0364   -0.1683
          61   -0.0025   -0.0150    0.0180   -0.0356   -0.0322    0.0586   -0.0276   -0.0301
          62   -0.0396   -0.0204   -0.0090   -0.0243   -0.0376    0.0654   -0.0286   -0.0215
          63   -0.0615   -0.0131   -0.0235    0.0201   -0.0362    0.0804   -0.0382   -0.0332
          64   -0.0172   -0.0438   -0.0306   -0.0165   -0.0196   -0.0022   -0.0027    0.1562
          65    0.0489    0.0315   -0.0056    0.0300    0.0151    0.0033    0.0056   -0.1409
          66   -0.0695   -0.0408    0.0456   -0.0360   -0.0161   -0.0010   -0.0087    0.1725


   Root No.      33        34        35        36        37        38        39        40

                33 A      34 A      35 A      36 A      37 A      38 A      39 A      40 A   

                1163.5    1180.6    1210.0    1226.1    1277.0    1333.5    1362.5    1374.1
  
           1    0.0021    0.0198    0.0307   -0.0318    0.0300    0.0206   -0.0158   -0.0135
           2    0.0015    0.0015    0.0321    0.0199   -0.0180    0.0127    0.0217   -0.0315
           3   -0.0089    0.0078    0.0161   -0.0109    0.0039    0.0184   -0.0039   -0.0103
           4   -0.0070    0.0056    0.0079   -0.0001   -0.0288    0.0148    0.0264    0.0037
           5    0.0034    0.0028    0.0132   -0.0115   -0.0031    0.0136    0.0164    0.0175
           6    0.0018   -0.0026    0.0007    0.0025   -0.0075    0.0030    0.0093    0.0070
           7   -0.0020   -0.0116    0.0107   -0.0030    0.0083    0.0101    0.0215    0.0389
           8    0.0016    0.0059   -0.0138   -0.0028    0.0169    0.0027   -0.0341    0.0092
           9    0.0010   -0.0029    0.0024    0.0024    0.0060    0.0075   -0.0039    0.0160
          10    0.0039    0.0061   -0.0114    0.0048   -0.0002   -0.0076    0.0074   -0.0149
          11    0.0004   -0.0045   -0.0061   -0.0112   -0.0069    0.0125    0.0119   -0.0333
          12    0.0045    0.0081   -0.0115    0.0038    0.0007   -0.0071    0.0077   -0.0171
          13   -0.0036   -0.0132    0.0058   -0.0059   -0.0056   -0.0074   -0.0000    0.0039
          14   -0.0181   -0.0247    0.0273    0.0144   -0.0194    0.0116   -0.0078   -0.0023
          15   -0.0057   -0.0147    0.0095   -0.0161   -0.0002   -0.0080   -0.0008    0.0072
          16   -0.0015   -0.0013    0.0047    0.0049    0.0015   -0.0093   -0.0009    0.0039
          17    0.0045    0.0110   -0.0095    0.0016    0.0171   -0.0269   -0.0089    0.0200
          18    0.0003    0.0063    0.0158    0.0010    0.0061   -0.0091   -0.0014    0.0043
          19   -0.0038   -0.0106    0.0044   -0.0063   -0.0068   -0.0075    0.0038   -0.0020
          20   -0.0032   -0.0103    0.0140   -0.0191    0.0064   -0.0152   -0.0051    0.0158
          21   -0.0041   -0.0117    0.0036   -0.0043   -0.0093   -0.0088    0.0045   -0.0032
          22    0.0008    0.0001   -0.0142    0.0017   -0.0006   -0.0133   -0.0154   -0.0017
          23    0.0072    0.0076   -0.0055   -0.0075   -0.0235   -0.0123   -0.0055    0.0126
          24    0.0026    0.0028   -0.0044   -0.0015   -0.0063   -0.0062   -0.0057    0.0017
          25    0.0014   -0.0030   -0.0051    0.0115    0.0248    0.0063    0.0016   -0.0232
          26   -0.0007    0.0086   -0.0050    0.0007   -0.0075   -0.0053   -0.0028   -0.0100
          27    0.0003   -0.0003   -0.0024    0.0052    0.0071    0.0008   -0.0004   -0.0103
          28    0.0013    0.0029    0.0051    0.0060    0.0037   -0.0126   -0.0024    0.0079
          29    0.0010   -0.0069   -0.0229    0.0022   -0.0086    0.0124    0.0006    0.0015
          30    0.0008    0.0008    0.0014    0.0083    0.0026   -0.0141   -0.0024    0.0093
          31    0.0502   -0.0824   -0.0864    0.0813   -0.0470   -0.0294    0.0194    0.0149
          32   -0.0241   -0.0301   -0.0820   -0.0580    0.0282   -0.0208   -0.0242    0.0432
          33    0.0078   -0.0284   -0.0280    0.0251   -0.0204   -0.0001    0.0064    0.0017
          34   -0.0946   -0.0647   -0.0624    0.1044   -0.0041   -0.0631   -0.0230    0.0132
          35   -0.0513   -0.0415   -0.0204    0.0401    0.0586   -0.0068   -0.0256   -0.0521
          36   -0.0206   -0.0177   -0.0028    0.0084    0.0529    0.0189   -0.0165   -0.0787
          37   -0.0837   -0.0205   -0.0241    0.0357    0.0183   -0.0337   -0.0338    0.0141
          38   -0.0416   -0.0307   -0.0100    0.0202    0.0705    0.0138   -0.0240   -0.0882
          39   -0.0184   -0.0073   -0.0074    0.0103   -0.0005   -0.0133   -0.0064    0.0237
          40   -0.0242    0.0977   -0.0545   -0.0546   -0.0683   -0.0358   -0.1362   -0.0732
          41   -0.0142    0.0777   -0.0788   -0.0348    0.0373   -0.0263    0.1259   -0.0093
          42   -0.0130    0.0693   -0.0644   -0.0319    0.0300   -0.0223    0.1697   -0.0000
          43   -0.0089    0.0598   -0.0256   -0.0079   -0.0490   -0.0206   -0.0513   -0.0486
          44   -0.0018    0.0508   -0.0501    0.0151    0.0461   -0.0059    0.2129    0.0064
          45   -0.0047    0.0371   -0.0154   -0.0066   -0.0409   -0.0128   -0.1127   -0.0446
          46    0.0132    0.0252   -0.0471    0.0246   -0.0021    0.1545   -0.0565    0.0923
          47    0.0158    0.0323    0.0052    0.0333    0.0279   -0.0241   -0.0213    0.0535
          48    0.0073    0.0138   -0.0202    0.0106    0.0010    0.0309   -0.0084    0.0107
          49    0.0057    0.0091   -0.0190    0.0097   -0.0013    0.0230   -0.0045    0.0054
          50    0.0163    0.0328    0.0121    0.0346    0.0258   -0.0256   -0.0181    0.0494
          51    0.0134    0.0228   -0.0504    0.0291   -0.0041    0.1544   -0.0564    0.0948
          52   -0.0083    0.0048   -0.0135   -0.0001   -0.0096   -0.0147   -0.0154   -0.0001
          53    0.2601   -0.0781   -0.0057    0.0361    0.1443    0.0130   -0.0142   -0.0474
          54    0.0447   -0.0171   -0.0102    0.0093    0.0293   -0.0040   -0.0100   -0.0100
          55    0.2300    0.0181    0.0090   -0.0253   -0.1060   -0.0389   -0.0077   -0.0030
          56   -0.1347   -0.0024   -0.0150    0.0224    0.0690    0.0200    0.0013   -0.0237
          57    0.0578    0.0049    0.0010   -0.0036   -0.0223   -0.0091   -0.0029   -0.0056
          58   -0.0040   -0.0114   -0.0663   -0.0717   -0.0011    0.0486   -0.0074   -0.0080
          59   -0.0010   -0.0052   -0.0844   -0.0584    0.0109    0.0198   -0.0141    0.0120
          60   -0.0111   -0.0253   -0.0967   -0.0733   -0.0079    0.0523   -0.0080   -0.0060
          61    0.0129    0.0750   -0.0064    0.1259   -0.0052    0.0297   -0.0132   -0.0049
          62    0.0108    0.0608    0.0079    0.0937    0.0079    0.0180   -0.0192    0.0167
          63    0.0137    0.0786   -0.0048    0.1415   -0.0096    0.0341   -0.0098   -0.0022
          64    0.0105   -0.0502   -0.0649   -0.0057   -0.0385    0.0493    0.0170   -0.0381
          65   -0.0066    0.0406    0.0377    0.0135    0.0302   -0.0444   -0.0172    0.0434
          66    0.0103   -0.0555   -0.0737   -0.0048   -0.0446    0.0523    0.0189   -0.0392


   Root No.      41        42        43        44        45        46        47        48

                41 A      42 A      43 A      44 A      45 A      46 A      47 A      48 A   

                1380.6    1390.2    1417.0    1452.7    1489.0    1880.7    1883.5    1910.0
  
           1   -0.0187   -0.0145    0.0336    0.0033    0.0024    0.0003   -0.0084   -0.0170
           2   -0.0206    0.0064   -0.0165   -0.0000    0.0943   -0.0003   -0.0240    0.0071
           3   -0.0044   -0.0094    0.0194   -0.0015    0.0005    0.0009   -0.0104   -0.0189
           4    0.0442    0.0073   -0.0325   -0.0172   -0.0160   -0.0049   -0.0007   -0.0026
           5    0.0009   -0.0291   -0.0342   -0.0291   -0.0275   -0.0299    0.0012   -0.0019
           6    0.0018   -0.0090   -0.0166   -0.0105   -0.0072   -0.0075    0.0004   -0.0014
           7    0.0161   -0.0107    0.0138    0.0568    0.0317   -0.0251    0.0087   -0.0161
           8    0.0175   -0.0150   -0.0311    0.0275    0.0361    0.0120    0.0042   -0.0126
           9    0.0122   -0.0105   -0.0026    0.0320    0.0206   -0.0058    0.0058   -0.0143
          10    0.0146   -0.0224    0.0088    0.0054    0.0056   -0.0010    0.0084    0.0170
          11   -0.0198    0.0005   -0.0304    0.0826   -0.0529   -0.0071   -0.0266    0.0107
          12    0.0144   -0.0241    0.0087    0.0079    0.0047   -0.0012    0.0085    0.0188
          13   -0.0033    0.0095   -0.0043   -0.0171    0.0071   -0.0230   -0.0477    0.1291
          14   -0.0012   -0.0018    0.0484   -0.0199   -0.0885   -0.0029    0.0020    0.0019
          15   -0.0043    0.0102   -0.0007   -0.0156    0.0091   -0.0280   -0.0538    0.1460
          16   -0.0037    0.0090   -0.0091    0.0105   -0.0106    0.0154    0.1170    0.0499
          17    0.0062    0.0078   -0.0115    0.0146   -0.0386    0.0028    0.0248    0.0077
          18   -0.0056    0.0088   -0.0111    0.0117   -0.0137    0.0166    0.1339    0.0568
          19   -0.0066    0.0095   -0.0045   -0.0137    0.0019    0.0241    0.0429   -0.1173
          20   -0.0016    0.0133   -0.0015   -0.0393    0.0315    0.0077    0.0125   -0.0273
          21   -0.0072    0.0109   -0.0061   -0.0164    0.0017    0.0279    0.0492   -0.1342
          22   -0.0091    0.0080    0.0177    0.0135    0.0088   -0.0798    0.0135   -0.0094
          23   -0.0027    0.0086    0.0294    0.0318    0.0134    0.1893   -0.0283    0.0215
          24   -0.0028    0.0047    0.0116    0.0111    0.0064    0.0116   -0.0013    0.0012
          25   -0.0052   -0.0038   -0.0242   -0.0392   -0.0231    0.1302   -0.0202    0.0147
          26   -0.0047    0.0083    0.0065   -0.0044   -0.0006   -0.1583    0.0256   -0.0204
          27   -0.0032    0.0004   -0.0069   -0.0150   -0.0083    0.0128   -0.0016    0.0006
          28    0.0005    0.0071   -0.0071    0.0053   -0.0138   -0.0149   -0.1176   -0.0496
          29    0.0128   -0.0135    0.0218   -0.0362    0.0333    0.0047    0.0322    0.0108
          30    0.0019    0.0075   -0.0071    0.0040   -0.0138   -0.0166   -0.1320   -0.0557
          31    0.0242    0.0183   -0.0349   -0.0042   -0.0056   -0.0006    0.0008   -0.0007
          32    0.0204   -0.0094    0.0155   -0.0106   -0.0762   -0.0091   -0.0221    0.0144
          33    0.0111    0.0015   -0.0033   -0.0041   -0.0059    0.0002   -0.0047   -0.0066
          34   -0.1354   -0.0396    0.0051    0.0177    0.0628   -0.0135    0.0010   -0.0005
          35    0.0235    0.0577    0.0345    0.0232    0.0316   -0.0316    0.0020   -0.0005
          36    0.1167    0.1143    0.0472    0.0334    0.0206   -0.0089    0.0029   -0.0046
          37   -0.1233   -0.0535    0.0296    0.0105    0.0285   -0.0068   -0.0013   -0.0011
          38    0.1028    0.1179    0.0555    0.0375    0.0338   -0.0048   -0.0001   -0.0017
          39   -0.0671   -0.0477   -0.0061   -0.0093   -0.0004   -0.0078   -0.0012   -0.0010
          40   -0.0118    0.0134   -0.0555   -0.0600   -0.0033   -0.0290   -0.0045    0.0196
          41   -0.0372    0.0364    0.0054   -0.0351    0.0027   -0.0013   -0.0063    0.0192
          42   -0.0450    0.0433    0.0366   -0.0297   -0.0106   -0.0163   -0.0075    0.0221
          43   -0.0173    0.0146   -0.0128   -0.0463   -0.0199   -0.0193    0.0011    0.0026
          44   -0.0450    0.0371    0.0575   -0.0223   -0.0291    0.0000    0.0030   -0.0079
          45    0.0030   -0.0043   -0.0420   -0.0294   -0.0005   -0.0050   -0.0007    0.0036
          46   -0.0782    0.1047   -0.0297   -0.0110   -0.0082   -0.0004    0.0036    0.0094
          47    0.0319   -0.0023    0.0321   -0.0793    0.0509   -0.0050   -0.0242    0.0092
          48   -0.0062    0.0060    0.0011   -0.0000    0.0042   -0.0007    0.0058    0.0126
          49   -0.0028    0.0017    0.0012    0.0025    0.0029   -0.0006    0.0055    0.0104
          50    0.0325   -0.0052    0.0319   -0.0756    0.0497   -0.0052   -0.0222    0.0086
          51   -0.0768    0.1054   -0.0294   -0.0131   -0.0072   -0.0007    0.0025    0.0083
          52   -0.0069    0.0105    0.0203    0.0172    0.0111   -0.1015    0.0173   -0.0123
          53   -0.0356   -0.0176   -0.0291   -0.0590   -0.0315   -0.0411    0.0064   -0.0040
          54   -0.0121   -0.0003    0.0023   -0.0050   -0.0021   -0.0453    0.0075   -0.0054
          55   -0.0273    0.0329    0.0693    0.0141   -0.0073   -0.0846    0.0142   -0.0110
          56    0.0077   -0.0120   -0.0484   -0.0365   -0.0094   -0.0712    0.0126   -0.0126
          57   -0.0086    0.0083    0.0151   -0.0016   -0.0043   -0.0429    0.0073   -0.0064
          58    0.0096   -0.0285    0.0419   -0.0307    0.0166    0.0029    0.0151    0.0011
          59    0.0212   -0.0237    0.0320   -0.0221   -0.0143   -0.0127   -0.1013   -0.0518
          60    0.0155   -0.0315    0.0472   -0.0361    0.0167    0.0025    0.0117   -0.0024
          61    0.0232   -0.0337    0.0423    0.0051   -0.0399    0.0019    0.0084   -0.0037
          62    0.0252   -0.0236    0.0403   -0.0222   -0.0045   -0.0194   -0.0311    0.1070
          63    0.0284   -0.0373    0.0470    0.0091   -0.0444    0.0001    0.0097   -0.0055
          64    0.0038   -0.0295    0.0177   -0.0047    0.0317   -0.0024   -0.0104    0.0020
          65    0.0108    0.0185    0.0002   -0.0276   -0.0078   -0.0114   -0.0995   -0.0503
          66    0.0071   -0.0315    0.0197   -0.0082    0.0347   -0.0028   -0.0186   -0.0016


   Root No.      49        50        51        52        53        54        55        56

                49 A      50 A      51 A      52 A      53 A      54 A      55 A      56 A   

                2847.3    2930.1    2932.2    2949.2    3007.9    3009.5    3026.4    3043.0
  
           1    0.0217    0.0001    0.0001    0.0010   -0.0001    0.0000    0.0009   -0.0001
           2    0.0016   -0.0000   -0.0002    0.0002    0.0000    0.0003   -0.0001   -0.0003
           3   -0.0645   -0.0002   -0.0003   -0.0029   -0.0002    0.0001   -0.0000    0.0003
           4    0.0008   -0.0000   -0.0000    0.0016   -0.0000   -0.0001    0.0217   -0.0002
           5   -0.0015   -0.0000   -0.0001    0.0196    0.0001    0.0001   -0.0309    0.0001
           6    0.0039    0.0000    0.0002   -0.0545    0.0000   -0.0000   -0.0087   -0.0001
           7   -0.0000    0.0005    0.0207    0.0000    0.0002    0.0199    0.0002   -0.0000
           8   -0.0000    0.0005    0.0165    0.0000   -0.0002   -0.0343   -0.0002   -0.0001
           9    0.0002   -0.0015   -0.0527   -0.0000   -0.0000   -0.0001    0.0000   -0.0000
          10   -0.0000   -0.0435    0.0013    0.0000   -0.0251    0.0003   -0.0000    0.0007
          11    0.0000   -0.0011   -0.0000    0.0000    0.0007    0.0000   -0.0000    0.0001
          12   -0.0000    0.0402   -0.0012    0.0000   -0.0281    0.0002   -0.0000    0.0008
          13   -0.0006   -0.0002   -0.0003    0.0003    0.0001   -0.0003   -0.0003    0.0004
          14    0.0006   -0.0000   -0.0001   -0.0001    0.0002   -0.0005    0.0001    0.0004
          15   -0.0007    0.0002   -0.0005    0.0001    0.0002   -0.0003   -0.0001    0.0005
          16   -0.0001   -0.0002    0.0000    0.0001    0.0001    0.0000    0.0004    0.0134
          17   -0.0013    0.0000    0.0000    0.0002   -0.0000   -0.0000   -0.0002   -0.0314
          18   -0.0002    0.0002    0.0000   -0.0001    0.0001   -0.0000    0.0002    0.0129
          19    0.0006   -0.0001    0.0003   -0.0000    0.0016    0.0004    0.0000   -0.0028
          20    0.0000    0.0001    0.0006   -0.0000   -0.0050   -0.0009    0.0000    0.0063
          21    0.0003   -0.0001    0.0002   -0.0000    0.0019    0.0004    0.0000   -0.0033
          22    0.0000    0.0000    0.0001    0.0010    0.0000   -0.0001   -0.0066    0.0001
          23    0.0000    0.0000    0.0001   -0.0004    0.0000    0.0001   -0.0000    0.0000
          24   -0.0001   -0.0000   -0.0002    0.0002   -0.0000   -0.0000   -0.0022    0.0000
          25    0.0000    0.0000    0.0001   -0.0001    0.0000    0.0024    0.0003    0.0000
          26    0.0000   -0.0000   -0.0003    0.0001    0.0000    0.0041    0.0006    0.0001
          27   -0.0000   -0.0000   -0.0001   -0.0003    0.0000    0.0017    0.0002    0.0000
          28    0.0006   -0.0001    0.0000    0.0000    0.0012   -0.0000    0.0000    0.0092
          29   -0.0000   -0.0001   -0.0000   -0.0000    0.0040   -0.0000    0.0002    0.0255
          30    0.0002   -0.0001    0.0000   -0.0000    0.0017   -0.0000    0.0000    0.0122
          31   -0.2747   -0.0006   -0.0008   -0.0160   -0.0003    0.0003    0.0000    0.0014
          32   -0.0208   -0.0001   -0.0005   -0.0004   -0.0000   -0.0000   -0.0006   -0.0018
          33    0.7839    0.0012    0.0023    0.0319    0.0009   -0.0007    0.0003   -0.0046
          34   -0.0061    0.0000   -0.0003    0.1455    0.0003    0.0010   -0.1385    0.0008
          35    0.0233    0.0000    0.0005   -0.3165   -0.0006   -0.0022    0.3227   -0.0034
          36   -0.0182   -0.0000   -0.0005    0.2314    0.0005    0.0018   -0.2770    0.0022
          37    0.0083    0.0000    0.0003   -0.1655    0.0002    0.0005   -0.1298    0.0004
          38   -0.0067   -0.0000    0.0000    0.0845   -0.0001   -0.0001    0.0461   -0.0002
          39   -0.0340   -0.0001   -0.0009    0.4264   -0.0005   -0.0016    0.3828   -0.0013
          40   -0.0002    0.0009    0.0325    0.0002    0.0001   -0.0116    0.0000   -0.0002
          41    0.0025   -0.0089   -0.3176   -0.0010    0.0020    0.3390    0.0016    0.0008
          42   -0.0021    0.0073    0.2632    0.0009   -0.0017   -0.3205   -0.0015   -0.0010
          43    0.0011   -0.0082   -0.2850   -0.0003   -0.0017   -0.2276   -0.0012   -0.0002
          44   -0.0001    0.0036    0.1226    0.0002    0.0006    0.0734    0.0004    0.0000
          45   -0.0015    0.0108    0.3724    0.0001    0.0024    0.3237    0.0016    0.0003
          46    0.0002    0.0654   -0.0018    0.0000   -0.0979    0.0008   -0.0001    0.0031
          47   -0.0000    0.0112   -0.0004   -0.0000   -0.0106    0.0000    0.0000    0.0027
          48    0.0007   -0.4375    0.0122   -0.0002    0.4119   -0.0036    0.0005   -0.0141
          49   -0.0021    0.4608   -0.0130   -0.0002    0.3989   -0.0037    0.0006   -0.0130
          50   -0.0000    0.0020    0.0000   -0.0000    0.0026   -0.0000    0.0000    0.0020
          51    0.0001   -0.0472    0.0014    0.0000   -0.0752    0.0007   -0.0001    0.0023
          52    0.0010    0.0000    0.0001   -0.0112   -0.0001   -0.0025    0.0752   -0.0008
          53   -0.0002    0.0000    0.0001    0.0022    0.0000    0.0006   -0.0040    0.0000
          54    0.0003   -0.0000   -0.0007   -0.0050   -0.0000   -0.0007    0.0242   -0.0003
          55    0.0001   -0.0000    0.0012    0.0005   -0.0001   -0.0206   -0.0030   -0.0006
          56    0.0003    0.0000    0.0031    0.0004   -0.0002   -0.0489   -0.0046   -0.0014
[...]
 TRANSITION DIPOLE   0.0729         C  1 -- C  5          +9.9% ( 47.3%)     95.8%
 TRAVEL (Ang.)       0.2154         C  1 -- C  2          +9.0% ( 44.9%)     73.1%
 REDUCED MASS        1.0253         C  3 -- C  5          +8.6% ( 44.1%)     57.4%
 EFFECTIVE MASS      9.2433
 FORCE CONSTANT      1.2130

 VIBRATION         44   44A           ATOM PAIR      ENERGY CONTRIBUTION    RADIAL
 FREQUENCY          1452.69         C  4 -- C  7         +13.4% ( 57.8%)     88.5%
 TRANSITION DIPOLE   0.1100         C  4 -- C 10         +11.4% ( 53.4%)     69.6%
 TRAVEL (Ang.)       0.1602         C  3 -- C  9         +10.1% ( 50.2%)     86.1%
 REDUCED MASS        1.8094         C  4 -- H 16          +8.7% ( 46.6%)      0.1%
 EFFECTIVE MASS     10.5631
 FORCE CONSTANT      2.2497

 VIBRATION         45   45A           ATOM PAIR      ENERGY CONTRIBUTION    RADIAL
 FREQUENCY          1489.02         C  1 -- C  5         +18.7% ( 67.6%)     76.3%
 TRANSITION DIPOLE   0.0748         C  1 -- C  6         +11.3% ( 52.7%)     80.3%
 TRAVEL (Ang.)       0.1477         C  3 -- C  5         +11.0% ( 51.9%)     86.4%
 REDUCED MASS        2.0772         C  1 -- C  2          +8.5% ( 45.6%)      2.2%
 EFFECTIVE MASS     11.1015
 FORCE CONSTANT      2.7135

 VIBRATION         46   46A           ATOM PAIR      ENERGY CONTRIBUTION    RADIAL
 FREQUENCY          1880.65         C  8 -- C  9         +42.5% ( 96.1%)    100.0%
 TRANSITION DIPOLE   0.1566         C  2 -- C  8         +13.7% ( 54.5%)     52.1%
 TRAVEL (Ang.)       0.0848         C  3 -- C  9         +13.5% ( 54.2%)     50.7%
 REDUCED MASS        4.9892         C  8 -- H 18         +12.6% ( 52.2%)      4.6%
 EFFECTIVE MASS     11.8684         C  9 -- H 19         +12.5% ( 52.2%)      4.6%
 FORCE CONSTANT     10.3967

 VIBRATION         47   47A           ATOM PAIR      ENERGY CONTRIBUTION    RADIAL
 FREQUENCY          1883.50         C  6 -- C 10         +37.5% ( 90.6%)    100.0%
 TRANSITION DIPOLE   0.1219         C  4 -- C 10         +12.1% ( 51.4%)     57.5%
 TRAVEL (Ang.)       0.0946         C  1 -- C  6         +12.1% ( 51.4%)     56.5%
 REDUCED MASS        4.0027         C  6 -- H 20         +11.1% ( 49.3%)      4.7%
 EFFECTIVE MASS     11.8949         C 10 -- H 22         +11.0% ( 49.2%)      4.5%
 FORCE CONSTANT      8.3664

 VIBRATION         48   48A           ATOM PAIR      ENERGY CONTRIBUTION    RADIAL
 FREQUENCY          1909.98         C  5 -- C  7         +37.0% ( 89.6%)     99.2%
 TRANSITION DIPOLE   0.0631         C  3 -- C  5         +12.9% ( 52.9%)     34.6%
 TRAVEL (Ang.)       0.0929         C  1 -- C  5         +12.9% ( 52.9%)     30.4%
 REDUCED MASS        4.0871         C  4 -- C  7         +10.9% ( 48.7%)     49.2%
 EFFECTIVE MASS     11.8921         C  7 -- H 21         +10.1% ( 46.9%)      4.2%
 FORCE CONSTANT      8.7846

 VIBRATION         49   49A           ATOM PAIR      ENERGY CONTRIBUTION    RADIAL
 FREQUENCY          2847.25         C  1 -- H 11         +96.6% ( 99.8%)    100.0%
 TRANSITION DIPOLE   0.0729         C  1 -- C  2          +1.0% ( 10.2%)      8.5%
 TRAVEL (Ang.)       0.1601         C  1 -- C  6          +1.0% ( 10.1%)      8.2%
 REDUCED MASS        0.9235         C  1 -- C  5          +1.0% ( 10.1%)      8.0%
 EFFECTIVE MASS      1.4367
 FORCE CONSTANT      4.4112

 VIBRATION         50   50A           ATOM PAIR      ENERGY CONTRIBUTION    RADIAL
 FREQUENCY          2930.08         C  4 -- H 17         +50.9% ( 74.0%)     96.8%
 TRANSITION DIPOLE   0.0282         C  4 -- H 16         +46.8% ( 71.0%)     96.3%
 TRAVEL (Ang.)       0.2109         C  4 -- C  7          +1.1% ( 10.8%)      0.0%
 REDUCED MASS        0.5175         C  4 -- C 10          +1.1% ( 10.8%)      0.0%
 EFFECTIVE MASS      1.5345
 FORCE CONSTANT      2.6179

 VIBRATION         51   51A           ATOM PAIR      ENERGY CONTRIBUTION    RADIAL
 FREQUENCY          2932.16         C  3 -- H 15         +55.9% ( 77.5%)     97.2%
 TRANSITION DIPOLE   0.0368         C  3 -- H 14         +41.8% ( 67.1%)     95.7%
 TRAVEL (Ang.)       0.2089         C  3 -- C  9          +1.1% ( 10.9%)      0.1%
 REDUCED MASS        0.5271         C  3 -- C  5          +1.1% ( 10.9%)      0.0%
 EFFECTIVE MASS      1.5374
 FORCE CONSTANT      2.6701

 VIBRATION         52   52A           ATOM PAIR      ENERGY CONTRIBUTION    RADIAL
 FREQUENCY          2949.18         C  2 -- H 13         +53.5% ( 75.8%)     97.0%
 TRANSITION DIPOLE   0.0489         C  2 -- H 12         +44.0% ( 68.8%)     96.0%
 TRAVEL (Ang.)       0.2099         C  2 -- C  8          +1.1% ( 11.0%)      0.0%
 REDUCED MASS        0.5190         C  1 -- C  2          +1.1% ( 10.9%)      0.0%
 EFFECTIVE MASS      1.5385
 FORCE CONSTANT      2.6597

 VIBRATION         53   53A           ATOM PAIR      ENERGY CONTRIBUTION    RADIAL
 FREQUENCY          3007.93         C  4 -- H 16         +50.5% ( 70.1%)     98.0%
 TRANSITION DIPOLE   0.0779         C  4 -- H 17         +46.2% ( 67.0%)     97.5%
 TRAVEL (Ang.)       0.2190         C  7 -- H 21          +1.2% ( 10.8%)    100.0%
 REDUCED MASS        0.4673         C 10 -- H 22          +0.8% (  8.6%)     99.9%
 EFFECTIVE MASS      1.2841
 FORCE CONSTANT      2.4911

 VIBRATION         54   54A           ATOM PAIR      ENERGY CONTRIBUTION    RADIAL
 FREQUENCY          3009.51         C  3 -- H 14         +56.5% ( 74.1%)     98.5%
 TRANSITION DIPOLE   0.0858         C  3 -- H 15         +41.2% ( 63.3%)     96.6%
 TRAVEL (Ang.)       0.2149         C  9 -- H 19          +0.9% (  9.4%)    100.0%
 REDUCED MASS        0.4854         C  3 -- C  9          +0.7% (  8.1%)     19.6%
 EFFECTIVE MASS      1.2822
 FORCE CONSTANT      2.5901

 VIBRATION         55   55A           ATOM PAIR      ENERGY CONTRIBUTION    RADIAL
 FREQUENCY          3026.43         C  2 -- H 12         +53.3% ( 72.0%)     98.2%
 TRANSITION DIPOLE   0.0688         C  2 -- H 13         +43.5% ( 65.1%)     97.1%
 TRAVEL (Ang.)       0.2174         C  8 -- H 18          +1.8% ( 13.3%)    100.0%
 REDUCED MASS        0.4714         C  2 -- C  8          +0.6% (  7.9%)     18.2%
 EFFECTIVE MASS      1.2800
 FORCE CONSTANT      2.5438

 VIBRATION         56   56A           ATOM PAIR      ENERGY CONTRIBUTION    RADIAL
 FREQUENCY          3042.98         C  6 -- H 20         +56.3% ( 76.2%)    100.0%
 TRANSITION DIPOLE   0.2334         C 10 -- H 22         +38.8% ( 63.2%)    100.0%
 TRAVEL (Ang.)       0.2202         C  7 -- H 21          +2.4% ( 15.7%)    100.0%
 REDUCED MASS        0.4569         C  6 -- C 10          +1.1% ( 10.4%)      0.6%
 EFFECTIVE MASS      1.4563
 FORCE CONSTANT      2.4925

 VIBRATION         57   57A           ATOM PAIR      ENERGY CONTRIBUTION    RADIAL
 FREQUENCY          3045.58         C  9 -- H 19         +51.0% ( 72.4%)    100.0%
 TRANSITION DIPOLE   0.3344         C  8 -- H 18         +42.9% ( 66.4%)    100.0%
 TRAVEL (Ang.)       0.2263         C  7 -- H 21          +2.5% ( 16.0%)    100.0%
 REDUCED MASS        0.4325         C  8 -- C  9          +1.0% ( 10.3%)      0.1%
 EFFECTIVE MASS      1.4543
 FORCE CONSTANT      2.3636

 VIBRATION         58   58A           ATOM PAIR      ENERGY CONTRIBUTION    RADIAL
 FREQUENCY          3046.33         C  7 -- H 21         +90.7% ( 96.6%)    100.0%
 TRANSITION DIPOLE   0.2841         C  6 -- H 20          +2.5% ( 16.1%)    100.0%
 TRAVEL (Ang.)       0.1651         C  5 -- C  7          +1.5% ( 12.2%)     38.6%
 REDUCED MASS        0.8117         C  4 -- C  7          +1.3% ( 11.7%)     19.8%
 EFFECTIVE MASS      1.5156
 FORCE CONSTANT      4.4380

 VIBRATION         59   59A           ATOM PAIR      ENERGY CONTRIBUTION    RADIAL
 FREQUENCY          3063.71         C 10 -- H 22         +57.4% ( 76.8%)     99.9%
 TRANSITION DIPOLE   0.2724         C  6 -- H 20         +38.1% ( 62.6%)     99.9%
 TRAVEL (Ang.)       0.2151         C  6 -- C 10          +2.0% ( 14.5%)     98.3%
 REDUCED MASS        0.4756         C  4 -- C 10          +0.9% (  9.8%)     15.3%
 EFFECTIVE MASS      1.5898
 FORCE CONSTANT      2.6300

 VIBRATION         60   60A           ATOM PAIR      ENERGY CONTRIBUTION    RADIAL
 FREQUENCY          3065.82         C  8 -- H 18         +51.2% ( 72.6%)     99.9%
 TRANSITION DIPOLE   0.2872         C  9 -- H 19         +44.0% ( 67.3%)     99.9%
 TRAVEL (Ang.)       0.2194         C  8 -- C  9          +2.0% ( 14.4%)     99.8%
 REDUCED MASS        0.4570         C  2 -- C  8          +0.8% (  9.3%)     16.5%
 EFFECTIVE MASS      1.5863
 FORCE CONSTANT      2.5310

      SYMMETRY NUMBER FOR POINT-GROUP C1  =  1


          SYSTEM IS A GROUND STATE



 InChI=1S/C10H12/c1-2-6-10-8-4-3-7-9(10)5-1/h1-3,7-9H,4-6H2


          MOLECULE IS NOT LINEAR

          THERE ARE 60 GENUINE VIBRATIONS IN THIS SYSTEM
          THIS THERMODYNAMICS CALCULATION IS LIMITED TO
          MOLECULES WHICH HAVE NO INTERNAL ROTATIONS




                    CALCULATED THERMODYNAMIC PROPERTIES
                                          *
   TEMP. (K)   PARTITION FUNCTION   H.O.F.    ENTHALPY  HEAT CAPACITY ENTROPY
                                   KCAL/MOL   CAL/MOLE    CAL/K/MOL  CAL/K/MOL


 298.00  VIB.     0.6624D+02                  3446.6526    27.8527    19.8988
         ROT.     0.5263D+06                   888.2803     2.9808    29.1594
         INT.     0.3486D+08                  4334.9329    30.8335    49.0582
         TRA.     0.1470D+28                  1480.4672     4.9680    40.5480
         TOT.                       29.340    5815.4000    35.8015    89.6062

 200.00  VIB.     0.1115D+02                  1336.8260    15.5655    11.4764
         ROT.     0.2894D+06                   596.1613     2.9808    27.9708
         INT.     0.3227D+07                  1932.9873    18.5463    39.4472
         TRA.     0.8080D+27                   993.6021     4.9680    38.5668
         TOT.                       26.452    2926.5895    23.5143    78.0140

 210.00  VIB.     0.1321D+02                  1498.1176    16.6990    12.2631
         ROT.     0.3113D+06                   625.9693     2.9808    28.1162
         INT.     0.4113D+07                  2124.0870    19.6798    40.3793
         TRA.     0.8694D+27                  1043.2822     4.9680    38.8092
         TOT.                       26.692    3167.3692    24.6479    79.1885

 220.00  VIB.     0.1570D+02                  1670.9274    17.8687    13.0668
         ROT.     0.3338D+06                   655.7774     2.9808    28.2549
         INT.     0.5240D+07                  2326.7048    20.8495    41.3217
         TRA.     0.9322D+27                  1092.9623     4.9680    39.0403
         TOT.                       26.945    3419.6671    25.8175    80.3620

 230.00  VIB.     0.1870D+02                  1855.6038    19.0719    13.8875
         ROT.     0.3569D+06                   685.5855     2.9808    28.3874
         INT.     0.6674D+07                  2541.1893    22.0527    42.2749
         TRA.     0.9965D+27                  1142.6424     4.9680    39.2612
         TOT.                       27.209    3683.8318    27.0207    81.5361

 240.00  VIB.     0.2234D+02                  2052.4655    20.3052    14.7252
         ROT.     0.3804D+06                   715.3935     2.9808    28.5142
         INT.     0.8499D+07                  2767.8591    23.2860    43.2394
         TRA.     0.1062D+28                  1192.3226     4.9680    39.4726
         TOT.                       27.485    3960.1816    28.2540    82.7120

 250.00  VIB.     0.2677D+02                  2261.7960    21.5650    15.5795
         ROT.     0.4044D+06                   745.2016     2.9808    28.6359
         INT.     0.1082D+08                  3006.9976    24.5458    44.2154
         TRA.     0.1129D+28                  1242.0027     4.9680    39.6754
         TOT.                       27.774    4249.0002    29.5138    83.8909

 260.00  VIB.     0.3216D+02                  2483.8401    22.8473    16.4502
         ROT.     0.4289D+06                   775.0097     2.9808    28.7528
         INT.     0.1379D+08                  3258.8498    25.8281    45.2031
         TRA.     0.1198D+28                  1291.6828     4.9680    39.8703
         TOT.                       28.076    4550.5326    30.7961    85.0733

 270.00  VIB.     0.3874D+02                  2718.8023    24.1479    17.3368
         ROT.     0.4539D+06                   804.8177     2.9808    28.8653
         INT.     0.1759D+08                  3523.6201    27.1287    46.2022
         TRA.     0.1267D+28                  1341.3629     4.9680    40.0578
         TOT.                       28.390    4864.9829    32.0967    86.2599

 280.00  VIB.     0.4681D+02                  2966.8457    25.4628    18.2388
         ROT.     0.4793D+06                   834.6258     2.9808    28.9737
         INT.     0.2244D+08                  3801.4715    28.4436    47.2125
         TRA.     0.1338D+28                  1391.0430     4.9680    40.2384
         TOT.                       28.717    5192.5145    33.4116    87.4509

 290.00  VIB.     0.5670D+02                  3228.0923    26.7879    19.1554
         ROT.     0.5052D+06                   864.4339     2.9808    29.0783
         INT.     0.2865D+08                  4092.5262    29.7687    48.2337
         TRA.     0.1411D+28                  1440.7231     4.9680    40.4128
         TOT.                       29.058    5533.2492    34.7367    88.6465

 300.00  VIB.     0.6888D+02                  3502.6245    28.1193    20.0860
         ROT.     0.5316D+06                   894.2419     2.9808    29.1794
         INT.     0.3662D+08                  4396.8664    31.1001    49.2653
         TRA.     0.1484D+28                  1490.4032     4.9680    40.5812
         TOT.                       29.412    5887.2696    36.0681    89.8465

 310.00  VIB.     0.8389D+02                  3790.4868    29.4533    21.0297
         ROT.     0.5584D+06                   924.0500     2.9808    29.2771
         INT.     0.4684D+08                  4714.5368    32.4341    50.3069
         TRA.     0.1559D+28                  1540.0833     4.9680    40.7441
         TOT.                       29.780    6254.6201    37.4021    91.0510

 320.00  VIB.     0.1024D+03                  4091.6882    30.7866    21.9859
         ROT.     0.5856D+06                   953.8580     2.9808    29.3718
         INT.     0.5999D+08                  5045.5462    33.7674    51.3577
         TRA.     0.1635D+28                  1589.7634     4.9680    40.9018
         TOT.                       30.160    6635.3096    38.7354    92.2595

 330.00  VIB.     0.1254D+03                  4406.2048    32.1159    22.9536
         ROT.     0.6133D+06                   983.6661     2.9808    29.4635
         INT.     0.7692D+08                  5389.8709    35.0967    52.4171
         TRA.     0.1713D+28                  1639.4435     4.9680    41.0547
         TOT.                       30.554    7029.3144    40.0647    93.4718

 340.00  VIB.     0.1539D+03                  4733.9831    33.4384    23.9320
         ROT.     0.6414D+06                  1013.4742     2.9808    29.5525
         INT.     0.9873D+08                  5747.4572    36.4192    53.4845
         TRA.     0.1791D+28                  1689.1236     4.9680    41.2030
         TOT.                       30.962    7436.5809    41.3872    94.6875

 350.00  VIB.     0.1894D+03                  5074.9424    34.7517    24.9203
         ROT.     0.6699D+06                  1043.2822     2.9808    29.6389
         INT.     0.1269D+09                  6118.2246    37.7325    54.5592
         TRA.     0.1871D+28                  1738.8037     4.9680    41.3470
         TOT.                       31.382    7857.0283    42.7005    95.9062

 360.00  VIB.     0.2336D+03                  5428.9783    36.0534    25.9176
         ROT.     0.6988D+06                  1073.0903     2.9808    29.7228
         INT.     0.1632D+09                  6502.0686    39.0342    55.6404
         TRA.     0.1951D+28                  1788.4838     4.9680    41.4870
         TOT.                       31.816    8290.5524    44.0022    97.1274

 370.00  VIB.     0.2887D+03                  5795.9654    37.3416    26.9230
         ROT.     0.7281D+06                  1102.8984     2.9808    29.8045
         INT.     0.2102D+09                  6898.8637    40.3224    56.7275
         TRA.     0.2033D+28                  1838.1639     4.9680    41.6231
         TOT.                       32.262    8737.0277    45.2904    98.3506

 380.00  VIB.     0.3576D+03                  6175.7601    38.6147    27.9358
         ROT.     0.7578D+06                  1132.7064     2.9808    29.8840
         INT.     0.2710D+09                  7308.4666    41.5955    57.8198
         TRA.     0.2116D+28                  1887.8440     4.9680    41.7556
         TOT.                       32.721    9196.3106    46.5635    99.5754

 390.00  VIB.     0.4440D+03                  6568.2035    39.8711    28.9551
         ROT.     0.7879D+06                  1162.5145     2.9808    29.9614
         INT.     0.3498D+09                  7730.7180    42.8519    58.9165
         TRA.     0.2200D+28                  1937.5242     4.9680    41.8846
         TOT.                       33.193    9668.2422    47.8199   100.8011

 400.00  VIB.     0.5523D+03                  6973.1235    41.1098    29.9802
         ROT.     0.8184D+06                  1192.3226     2.9808    30.0369
         INT.     0.4520D+09                  8165.4460    44.0906    60.0171
         TRA.     0.2285D+28                  1987.2043     4.9680    42.0104
         TOT.                       33.678   10152.6503    49.0586   102.0275

   *: NOTE: HEATS OF FORMATION ARE RELATIVE TO THE
            ELEMENTS IN THEIR STANDARD STATE AT 298K
              (=  Standard Enthalpy of Formation).

            Hvib:  Zero-point energy is not included.
                   frequencies of less than zero cm-1 are not included.
            Hrot = (3/2)RT
            Htra = (3/2)RT + pV = (5/2)RT

            Heat capacity is Cp, not Cv

          For more information, see: HTTP://OpenMOPAC.net/Manual/thermochemistry.html


           FORCE CONSTANT IN CARTESIAN COORDINATES (Millidynes/A)

    ATOM   CHEMICAL       X               Y               Z
   NUMBER   SYMBOL  FORCE CONSTANT  FORCE CONSTANT  FORCE CONSTANT

      1       C        8.062354        9.635502        8.349791
      2       C        8.120738        9.221049        7.994259
      3       C        8.929941        8.941008        8.103679
      4       C        8.248402        9.469646        8.430471
      5       C        8.628024        9.563793        9.982026
      6       C        8.281902        9.406317        9.702007
      7       C        7.942965        9.748299        9.732091
      8       C       10.542806       13.360088        3.353711
      9       C       10.166117       13.673248        3.392408
     10       C        8.035118        9.585432        9.736523
     11       H        1.082620        0.652873        4.058437
     12       H        1.188016        3.018498        2.145678
     13       H        1.184532        0.741889        4.340998
     14       H        0.680577        3.043449        2.559347
     15       H        2.060084        0.845523        3.231316
     16       H        0.775154        0.678905        4.732569
     17       H        4.794601        0.662427        0.705188
     18       H        4.640086        0.756723        0.849859
     19       H        1.484356        3.881673        0.878931
     20       H        1.091939        4.049884        1.094372
     21       H        0.990406        4.025947        1.218064
     22       H        0.972183        3.926068        1.348317

 **********************
 *                    *
 * JOB ENDED NORMALLY *
 *                    *
 **********************



 TOTAL JOB TIME:             2.78 SECONDS

 == MOPAC DONE ==
