 *******************************************************************************
 **                                                                           **
 **                              MOPAC v23.1.2                                **
 **                                                                           **
 *******************************************************************************
 **          Digital Object Identifier (DOI): 10.5281/zenodo.6511958          **
 **    Visit the DOI location for information on how to cite this program.    **
 *******************************************************************************

                              PM3 CALCULATION RESULTS

 *******************************************************************************
 *  CALCULATION DONE: (MAX THREADS = 1)              Tue Jun  3 16:30:29 2025  *
 *  PM3        - The PM3 Hamiltonian to be used
 *  PRECISE    - TIGHTER CRITERIA TO BE USED
 *  NOSYM      - POINT-GROUP SYMMETRY SET TO C1
 *  THREADS=1  - MULTI-THREADING NOT USED
 *  T=         - A TIME OF 172800.0 SECONDS REQUESTED
 *  DUMP=N     - RESTART FILE WRITTEN EVERY 7200.0 SECONDS REQUESTED
 *******************************************************************************
pm3  precise nosym THREADS=1
 InChI=1S/C9H12/c1-2-6-9-7-4-3-5-8-9/h2-4,8H,1,5-7H2

   ATOM   CHEMICAL          X               Y               Z
  NUMBER   SYMBOL      (ANGSTROMS)     (ANGSTROMS)     (ANGSTROMS)

     1       C          1.50760000  *   0.91530000  *  -0.65250000  *
     2       C         -0.00030000  *   0.35350000  *   1.41160000  *
     3       C         -2.31540000  *   0.32340000  *  -0.31030000  *
     4       C          0.14840000  *   0.59960000  *  -0.07680000  *
     5       C         -0.94070000  *   0.58610000  *  -0.87370000  *
     6       C         -1.17410000  *  -0.54540000  *   1.71040000  *
     7       C         -2.25010000  *  -0.55990000  *   0.90950000  *
     8       C          1.99590000  *  -0.20480000  *  -1.52880000  *
     9       C          2.34370000  *  -1.39130000  *  -1.02190000  *
    10       H          1.44400000  *   1.85010000  *  -1.25030000  *
    11       H          2.24610000  *   1.09440000  *   0.15890000  *
    12       H         -0.15680000  *   1.32740000  *   1.92150000  *
    13       H          0.92240000  *  -0.11180000  *   1.81880000  *
    14       H         -2.94760000  *  -0.15990000  *  -1.08460000  *
    15       H         -2.77900000  *   1.29210000  *  -0.02840000  *
    16       H          2.07780000  *  -0.04030000  *  -2.59910000  *
    17       H         -1.15710000  *  -1.16830000  *   2.59950000  *
    18       H         -0.84370000  *   0.79620000  *  -1.93540000  *
    19       H         -3.09660000  *  -1.19310000  *   1.15660000  *
    20       H          2.27850000  *  -1.58360000  *   0.04470000  *
    21       H          2.69710000  *  -2.17970000  *  -1.67830000  *



          CARTESIAN COORDINATES 

    NO.       ATOM           X           Y           Z

     1         C          1.5076      0.9153     -0.6525
     2         C         -0.0003      0.3535      1.4116
     3         C         -2.3154      0.3234     -0.3103
     4         C          0.1484      0.5996     -0.0768
     5         C         -0.9407      0.5861     -0.8737
     6         C         -1.1741     -0.5454      1.7104
     7         C         -2.2501     -0.5599      0.9095
     8         C          1.9959     -0.2048     -1.5288
     9         C          2.3437     -1.3913     -1.0219
    10         H          1.4440      1.8501     -1.2503
    11         H          2.2461      1.0944      0.1589
    12         H         -0.1568      1.3274      1.9215
    13         H          0.9224     -0.1118      1.8188
    14         H         -2.9476     -0.1599     -1.0846
    15         H         -2.7790      1.2921     -0.0284
    16         H          2.0778     -0.0403     -2.5991
    17         H         -1.1571     -1.1683      2.5995
    18         H         -0.8437      0.7962     -1.9354
    19         H         -3.0966     -1.1931      1.1566
    20         H          2.2785     -1.5836      0.0447
    21         H          2.6971     -2.1797     -1.6783

  H: (PM3): J. J. P. STEWART, J. COMP. CHEM. 10, 209 (1989).
  C: (PM3): J. J. P. STEWART, J. COMP. CHEM. 10, 209 (1989).

           Empirical Formula: C9 H12  =    21 atoms



      MOLECULAR POINT GROUP   :   C1  


      RHF CALCULATION, NO. OF DOUBLY OCCUPIED LEVELS = 24


          Geometry optimization using EF

          DIAGONAL MATRIX USED AS START HESSIAN

 CYCLE:     1 TIME:   0.008 TIME LEFT:  2.00D  GRAD.:    63.465 HEAT:  35.51256
 CYCLE:     2 TIME:   0.012 TIME LEFT:  2.00D  GRAD.:    72.136 HEAT:  35.01826
 CYCLE:     3 TIME:   0.008 TIME LEFT:  2.00D  GRAD.:    68.579 HEAT:  34.72545
 CYCLE:     4 TIME:   0.008 TIME LEFT:  2.00D  GRAD.:    47.037 HEAT:  34.19672
 CYCLE:     5 TIME:   0.012 TIME LEFT:  2.00D  GRAD.:    25.288 HEAT:  33.73799
 CYCLE:     6 TIME:   0.008 TIME LEFT:  2.00D  GRAD.:    15.892 HEAT:  33.59704
 CYCLE:     7 TIME:   0.012 TIME LEFT:  2.00D  GRAD.:    16.224 HEAT:  33.52470
 CYCLE:     8 TIME:   0.008 TIME LEFT:  2.00D  GRAD.:    17.859 HEAT:  33.45558
 CYCLE:     9 TIME:   0.008 TIME LEFT:  2.00D  GRAD.:    19.460 HEAT:  33.40351
 CYCLE:    10 TIME:   0.008 TIME LEFT:  2.00D  GRAD.:    15.042 HEAT:  33.30678
 CYCLE:    11 TIME:   0.004 TIME LEFT:  2.00D  GRAD.:    15.797 HEAT:  33.24424
 CYCLE:    12 TIME:   0.012 TIME LEFT:  2.00D  GRAD.:    17.419 HEAT:  33.19916
 CYCLE:    13 TIME:   0.008 TIME LEFT:  2.00D  GRAD.:    12.158 HEAT:  33.16166
 CYCLE:    14 TIME:   0.008 TIME LEFT:  2.00D  GRAD.:    10.647 HEAT:  33.14230
 CYCLE:    15 TIME:   0.008 TIME LEFT:  2.00D  GRAD.:     4.635 HEAT:  33.10514
 CYCLE:    16 TIME:   0.004 TIME LEFT:  2.00D  GRAD.:    11.261 HEAT:  33.08877
 CYCLE:    17 TIME:   0.008 TIME LEFT:  2.00D  GRAD.:    10.766 HEAT:  33.05263
 CYCLE:    18 TIME:   0.008 TIME LEFT:  2.00D  GRAD.:    14.941 HEAT:  33.03219
 CYCLE:    19 TIME:   0.008 TIME LEFT:  2.00D  GRAD.:     8.413 HEAT:  32.96765
 CYCLE:    20 TIME:   0.012 TIME LEFT:  2.00D  GRAD.:    10.555 HEAT:  32.95804
 CYCLE:    21 TIME:   0.008 TIME LEFT:  2.00D  GRAD.:     5.639 HEAT:  32.91711
 CYCLE:    22 TIME:   0.008 TIME LEFT:  2.00D  GRAD.:    13.514 HEAT:  32.91047
 CYCLE:    23 TIME:   0.004 TIME LEFT:  2.00D  GRAD.:     5.424 HEAT:  32.84546
 CYCLE:    24 TIME:   0.008 TIME LEFT:  2.00D  GRAD.:     7.365 HEAT:  32.80196
 CYCLE:    25 TIME:   0.008 TIME LEFT:  2.00D  GRAD.:    10.485 HEAT:  32.74567
 CYCLE:    26 TIME:   0.008 TIME LEFT:  2.00D  GRAD.:    10.954 HEAT:  32.70600
 CYCLE:    27 TIME:   0.004 TIME LEFT:  2.00D  GRAD.:     5.303 HEAT:  32.62501
 CYCLE:    28 TIME:   0.008 TIME LEFT:  2.00D  GRAD.:     7.371 HEAT:  32.55358
 CYCLE:    29 TIME:   0.008 TIME LEFT:  2.00D  GRAD.:    10.474 HEAT:  32.46868
 CYCLE:    30 TIME:   0.008 TIME LEFT:  2.00D  GRAD.:    14.115 HEAT:  32.44757
 CYCLE:    31 TIME:   0.008 TIME LEFT:  2.00D  GRAD.:     9.084 HEAT:  32.36812
 CYCLE:    32 TIME:   0.004 TIME LEFT:  2.00D  GRAD.:     7.390 HEAT:  32.31070
 CYCLE:    33 TIME:   0.012 TIME LEFT:  2.00D  GRAD.:     6.592 HEAT:  32.24776
 CYCLE:    34 TIME:   0.008 TIME LEFT:  2.00D  GRAD.:     8.461 HEAT:  32.15897
 CYCLE:    35 TIME:   0.008 TIME LEFT:  2.00D  GRAD.:     8.479 HEAT:  32.11486
 CYCLE:    36 TIME:   0.008 TIME LEFT:  2.00D  GRAD.:     4.487 HEAT:  32.06385
 CYCLE:    37 TIME:   0.004 TIME LEFT:  2.00D  GRAD.:     4.859 HEAT:  32.01604
 CYCLE:    38 TIME:   0.008 TIME LEFT:  2.00D  GRAD.:     6.650 HEAT:  31.97505
 CYCLE:    39 TIME:   0.008 TIME LEFT:  2.00D  GRAD.:     6.513 HEAT:  31.94397
 CYCLE:    40 TIME:   0.012 TIME LEFT:  2.00D  GRAD.:     6.003 HEAT:  31.92149
 CYCLE:    41 TIME:   0.008 TIME LEFT:  2.00D  GRAD.:     3.125 HEAT:  31.89240
 CYCLE:    42 TIME:   0.008 TIME LEFT:  2.00D  GRAD.:     3.159 HEAT:  31.87560
 CYCLE:    43 TIME:   0.008 TIME LEFT:  2.00D  GRAD.:     4.073 HEAT:  31.84979
 CYCLE:    44 TIME:   0.008 TIME LEFT:  2.00D  GRAD.:     3.599 HEAT:  31.82853
 CYCLE:    45 TIME:   0.008 TIME LEFT:  2.00D  GRAD.:     3.172 HEAT:  31.80829
 CYCLE:    46 TIME:   0.008 TIME LEFT:  2.00D  GRAD.:     3.990 HEAT:  31.77440
 CYCLE:    47 TIME:   0.004 TIME LEFT:  2.00D  GRAD.:     4.416 HEAT:  31.74351
 CYCLE:    48 TIME:   0.008 TIME LEFT:  2.00D  GRAD.:     4.272 HEAT:  31.70758
 CYCLE:    49 TIME:   0.008 TIME LEFT:  2.00D  GRAD.:     5.780 HEAT:  31.68403
 CYCLE:    50 TIME:   0.008 TIME LEFT:  2.00D  GRAD.:     4.065 HEAT:  31.64977
 CYCLE:    51 TIME:   0.008 TIME LEFT:  2.00D  GRAD.:     3.695 HEAT:  31.61559
 CYCLE:    52 TIME:   0.008 TIME LEFT:  2.00D  GRAD.:     3.132 HEAT:  31.56715
 CYCLE:    53 TIME:   0.008 TIME LEFT:  2.00D  GRAD.:     2.364 HEAT:  31.55044
 CYCLE:    54 TIME:   0.012 TIME LEFT:  2.00D  GRAD.:     2.090 HEAT:  31.53879
 CYCLE:    55 TIME:   0.008 TIME LEFT:  2.00D  GRAD.:     2.351 HEAT:  31.52895
 CYCLE:    56 TIME:   0.008 TIME LEFT:  2.00D  GRAD.:     2.882 HEAT:  31.51323
 CYCLE:    57 TIME:   0.004 TIME LEFT:  2.00D  GRAD.:     3.323 HEAT:  31.49419
 CYCLE:    58 TIME:   0.008 TIME LEFT:  2.00D  GRAD.:     2.900 HEAT:  31.47636
 CYCLE:    59 TIME:   0.008 TIME LEFT:  2.00D  GRAD.:     2.372 HEAT:  31.46215
 CYCLE:    60 TIME:   0.008 TIME LEFT:  2.00D  GRAD.:     2.247 HEAT:  31.45092
 CYCLE:    61 TIME:   0.008 TIME LEFT:  2.00D  GRAD.:     2.232 HEAT:  31.43900
 CYCLE:    62 TIME:   0.008 TIME LEFT:  2.00D  GRAD.:     2.086 HEAT:  31.42758
 CYCLE:    63 TIME:   0.008 TIME LEFT:  2.00D  GRAD.:     1.876 HEAT:  31.41815
 CYCLE:    64 TIME:   0.008 TIME LEFT:  2.00D  GRAD.:     1.689 HEAT:  31.41195
 CYCLE:    65 TIME:   0.008 TIME LEFT:  2.00D  GRAD.:     1.333 HEAT:  31.40826
 CYCLE:    66 TIME:   0.008 TIME LEFT:  2.00D  GRAD.:     1.179 HEAT:  31.40495
 CYCLE:    67 TIME:   0.008 TIME LEFT:  2.00D  GRAD.:     1.407 HEAT:  31.40122
 CYCLE:    68 TIME:   0.008 TIME LEFT:  2.00D  GRAD.:     1.801 HEAT:  31.39535
 CYCLE:    69 TIME:   0.008 TIME LEFT:  2.00D  GRAD.:     2.180 HEAT:  31.38756
 CYCLE:    70 TIME:   0.004 TIME LEFT:  2.00D  GRAD.:     2.259 HEAT:  31.37747
 CYCLE:    71 TIME:   0.012 TIME LEFT:  2.00D  GRAD.:     1.925 HEAT:  31.37085
 CYCLE:    72 TIME:   0.008 TIME LEFT:  2.00D  GRAD.:     2.028 HEAT:  31.35966
 CYCLE:    73 TIME:   0.004 TIME LEFT:  2.00D  GRAD.:     2.004 HEAT:  31.35351
 CYCLE:    74 TIME:   0.008 TIME LEFT:  2.00D  GRAD.:     2.537 HEAT:  31.34208
 CYCLE:    75 TIME:   0.008 TIME LEFT:  2.00D  GRAD.:     2.732 HEAT:  31.33194
 CYCLE:    76 TIME:   0.008 TIME LEFT:  2.00D  GRAD.:     3.536 HEAT:  31.31013
 CYCLE:    77 TIME:   0.008 TIME LEFT:  2.00D  GRAD.:     5.057 HEAT:  31.28044
 CYCLE:    78 TIME:   0.004 TIME LEFT:  2.00D  GRAD.:     5.817 HEAT:  31.23921
 CYCLE:    79 TIME:   0.008 TIME LEFT:  2.00D  GRAD.:    10.584 HEAT:  31.18657
 CYCLE:    80 TIME:   0.012 TIME LEFT:  2.00D  GRAD.:     9.429 HEAT:  31.16460
 CYCLE:    81 TIME:   0.008 TIME LEFT:  2.00D  GRAD.:     5.188 HEAT:  31.08526
 CYCLE:    82 TIME:   0.008 TIME LEFT:  2.00D  GRAD.:     5.239 HEAT:  31.04707
 CYCLE:    83 TIME:   0.008 TIME LEFT:  2.00D  GRAD.:     9.607 HEAT:  31.01807
 CYCLE:    84 TIME:   0.008 TIME LEFT:  2.00D  GRAD.:     4.177 HEAT:  30.98614
 CYCLE:    85 TIME:   0.008 TIME LEFT:  2.00D  GRAD.:     4.537 HEAT:  30.95940
 CYCLE:    86 TIME:   0.012 TIME LEFT:  2.00D  GRAD.:     2.288 HEAT:  30.93607
 CYCLE:    87 TIME:   0.008 TIME LEFT:  2.00D  GRAD.:     4.060 HEAT:  30.90914
 CYCLE:    88 TIME:   0.008 TIME LEFT:  2.00D  GRAD.:     4.524 HEAT:  30.87211
 CYCLE:    89 TIME:   0.008 TIME LEFT:  2.00D  GRAD.:     3.574 HEAT:  30.85030
 CYCLE:    90 TIME:   0.008 TIME LEFT:  2.00D  GRAD.:     7.541 HEAT:  30.82358
 CYCLE:    91 TIME:   0.004 TIME LEFT:  2.00D  GRAD.:     4.563 HEAT:  30.78341
 CYCLE:    92 TIME:   0.008 TIME LEFT:  2.00D  GRAD.:     9.653 HEAT:  30.75226
 CYCLE:    93 TIME:   0.012 TIME LEFT:  2.00D  GRAD.:     7.581 HEAT:  30.70721
 CYCLE:    94 TIME:   0.004 TIME LEFT:  2.00D  GRAD.:     5.161 HEAT:  30.68397
 CYCLE:    95 TIME:   0.008 TIME LEFT:  2.00D  GRAD.:     7.876 HEAT:  30.67026
 CYCLE:    96 TIME:   0.008 TIME LEFT:  2.00D  GRAD.:     8.492 HEAT:  30.66097
 CYCLE:    97 TIME:   0.008 TIME LEFT:  2.00D  GRAD.:     2.628 HEAT:  30.62726
 CYCLE:    98 TIME:   0.008 TIME LEFT:  2.00D  GRAD.:     3.967 HEAT:  30.61803
 CYCLE:    99 TIME:   0.008 TIME LEFT:  2.00D  GRAD.:     3.818 HEAT:  30.60557
 CYCLE:   100 TIME:   0.008 TIME LEFT:  2.00D  GRAD.:     3.379 HEAT:  30.59038
 CYCLE:   101 TIME:   0.008 TIME LEFT:  2.00D  GRAD.:     1.981 HEAT:  30.57704
 CYCLE:   102 TIME:   0.008 TIME LEFT:  2.00D  GRAD.:     4.755 HEAT:  30.57421
 CYCLE:   103 TIME:   0.008 TIME LEFT:  2.00D  GRAD.:     2.735 HEAT:  30.56604
 CYCLE:   104 TIME:   0.004 TIME LEFT:  2.00D  GRAD.:     1.780 HEAT:  30.55988
 CYCLE:   105 TIME:   0.008 TIME LEFT:  2.00D  GRAD.:     2.285 HEAT:  30.55304
 CYCLE:   106 TIME:   0.008 TIME LEFT:  2.00D  GRAD.:     2.055 HEAT:  30.54577
 CYCLE:   107 TIME:   0.008 TIME LEFT:  2.00D  GRAD.:     2.423 HEAT:  30.53746
 CYCLE:   108 TIME:   0.004 TIME LEFT:  2.00D  GRAD.:     1.535 HEAT:  30.53346
 CYCLE:   109 TIME:   0.012 TIME LEFT:  2.00D  GRAD.:     1.565 HEAT:  30.52645
 CYCLE:   110 TIME:   0.008 TIME LEFT:  2.00D  GRAD.:     1.934 HEAT:  30.52039
 CYCLE:   111 TIME:   0.008 TIME LEFT:  2.00D  GRAD.:     2.478 HEAT:  30.51080
 CYCLE:   112 TIME:   0.008 TIME LEFT:  2.00D  GRAD.:     2.483 HEAT:  30.50597
 CYCLE:   113 TIME:   0.008 TIME LEFT:  2.00D  GRAD.:     3.844 HEAT:  30.49858
 CYCLE:   114 TIME:   0.008 TIME LEFT:  2.00D  GRAD.:     1.663 HEAT:  30.49194
 CYCLE:   115 TIME:   0.008 TIME LEFT:  2.00D  GRAD.:     1.407 HEAT:  30.48663
 CYCLE:   116 TIME:   0.008 TIME LEFT:  2.00D  GRAD.:     1.230 HEAT:  30.48108
 CYCLE:   117 TIME:   0.008 TIME LEFT:  2.00D  GRAD.:     0.889 HEAT:  30.47966
 CYCLE:   118 TIME:   0.008 TIME LEFT:  2.00D  GRAD.:     1.067 HEAT:  30.47858
 CYCLE:   119 TIME:   0.012 TIME LEFT:  2.00D  GRAD.:     1.174 HEAT:  30.47746
 CYCLE:   120 TIME:   0.004 TIME LEFT:  2.00D  GRAD.:     1.160 HEAT:  30.47552
 CYCLE:   121 TIME:   0.012 TIME LEFT:  2.00D  GRAD.:     1.055 HEAT:  30.47472
 CYCLE:   122 TIME:   0.008 TIME LEFT:  2.00D  GRAD.:     1.133 HEAT:  30.47345
 CYCLE:   123 TIME:   0.004 TIME LEFT:  2.00D  GRAD.:     0.788 HEAT:  30.47281
 CYCLE:   124 TIME:   0.008 TIME LEFT:  2.00D  GRAD.:     0.605 HEAT:  30.47187
 CYCLE:   125 TIME:   0.008 TIME LEFT:  2.00D  GRAD.:     0.587 HEAT:  30.47113
 CYCLE:   126 TIME:   0.008 TIME LEFT:  2.00D  GRAD.:     0.639 HEAT:  30.47047
 CYCLE:   127 TIME:   0.008 TIME LEFT:  2.00D  GRAD.:     0.762 HEAT:  30.46987
 CYCLE:   128 TIME:   0.008 TIME LEFT:  2.00D  GRAD.:     0.923 HEAT:  30.46914
 CYCLE:   129 TIME:   0.008 TIME LEFT:  2.00D  GRAD.:     1.041 HEAT:  30.46818
 CYCLE:   130 TIME:   0.012 TIME LEFT:  2.00D  GRAD.:     0.955 HEAT:  30.46671
 CYCLE:   131 TIME:   0.008 TIME LEFT:  2.00D  GRAD.:     0.815 HEAT:  30.46562
 CYCLE:   132 TIME:   0.008 TIME LEFT:  2.00D  GRAD.:     1.014 HEAT:  30.46419
 CYCLE:   133 TIME:   0.008 TIME LEFT:  2.00D  GRAD.:     1.334 HEAT:  30.46318
 CYCLE:   134 TIME:   0.008 TIME LEFT:  2.00D  GRAD.:     1.223 HEAT:  30.46110
 CYCLE:   135 TIME:   0.012 TIME LEFT:  2.00D  GRAD.:     1.443 HEAT:  30.45647
 CYCLE:   136 TIME:   0.008 TIME LEFT:  2.00D  GRAD.:     1.208 HEAT:  30.45360
 CYCLE:   137 TIME:   0.008 TIME LEFT:  2.00D  GRAD.:     2.210 HEAT:  30.45326
 CYCLE:   138 TIME:   0.008 TIME LEFT:  2.00D  GRAD.:     0.760 HEAT:  30.45000
 CYCLE:   139 TIME:   0.008 TIME LEFT:  2.00D  GRAD.:     0.928 HEAT:  30.44842
 CYCLE:   140 TIME:   0.008 TIME LEFT:  2.00D  GRAD.:     2.032 HEAT:  30.44737
 CYCLE:   141 TIME:   0.008 TIME LEFT:  2.00D  GRAD.:     0.828 HEAT:  30.44515
 CYCLE:   142 TIME:   0.008 TIME LEFT:  2.00D  GRAD.:     0.934 HEAT:  30.44358
 CYCLE:   143 TIME:   0.012 TIME LEFT:  2.00D  GRAD.:     1.485 HEAT:  30.43959
 CYCLE:   144 TIME:   0.008 TIME LEFT:  2.00D  GRAD.:     1.069 HEAT:  30.43714
 CYCLE:   145 TIME:   0.008 TIME LEFT:  2.00D  GRAD.:     1.158 HEAT:  30.43502
 CYCLE:   146 TIME:   0.008 TIME LEFT:  2.00D  GRAD.:     0.930 HEAT:  30.43228
 CYCLE:   147 TIME:   0.008 TIME LEFT:  2.00D  GRAD.:     1.635 HEAT:  30.43107
 CYCLE:   148 TIME:   0.004 TIME LEFT:  2.00D  GRAD.:     1.887 HEAT:  30.43036
 CYCLE:   149 TIME:   0.012 TIME LEFT:  2.00D  GRAD.:     0.844 HEAT:  30.42880
 CYCLE:   150 TIME:   0.008 TIME LEFT:  2.00D  GRAD.:     0.838 HEAT:  30.42813
 CYCLE:   151 TIME:   0.008 TIME LEFT:  2.00D  GRAD.:     0.971 HEAT:  30.42710
 CYCLE:   152 TIME:   0.008 TIME LEFT:  2.00D  GRAD.:     0.676 HEAT:  30.42674
 CYCLE:   153 TIME:   0.008 TIME LEFT:  2.00D  GRAD.:     0.705 HEAT:  30.42633
 CYCLE:   154 TIME:   0.008 TIME LEFT:  2.00D  GRAD.:     0.554 HEAT:  30.42609
 CYCLE:   155 TIME:   0.008 TIME LEFT:  2.00D  GRAD.:     0.465 HEAT:  30.42586
 CYCLE:   156 TIME:   0.004 TIME LEFT:  2.00D  GRAD.:     0.422 HEAT:  30.42564
 CYCLE:   157 TIME:   0.008 TIME LEFT:  2.00D  GRAD.:     0.541 HEAT:  30.42532
 CYCLE:   158 TIME:   0.008 TIME LEFT:  2.00D  GRAD.:     0.677 HEAT:  30.42479
 CYCLE:   159 TIME:   0.008 TIME LEFT:  2.00D  GRAD.:     0.721 HEAT:  30.42416
 CYCLE:   160 TIME:   0.008 TIME LEFT:  2.00D  GRAD.:     0.828 HEAT:  30.42267
 CYCLE:   161 TIME:   0.008 TIME LEFT:  2.00D  GRAD.:     1.084 HEAT:  30.42169
 CYCLE:   162 TIME:   0.008 TIME LEFT:  2.00D  GRAD.:     1.146 HEAT:  30.42001
 CYCLE:   163 TIME:   0.008 TIME LEFT:  2.00D  GRAD.:     1.547 HEAT:  30.41800
 CYCLE:   164 TIME:   0.008 TIME LEFT:  2.00D  GRAD.:     1.337 HEAT:  30.41573
 CYCLE:   165 TIME:   0.004 TIME LEFT:  2.00D  GRAD.:     1.716 HEAT:  30.41200
 CYCLE:   166 TIME:   0.008 TIME LEFT:  2.00D  GRAD.:     1.354 HEAT:  30.41098
 CYCLE:   167 TIME:   0.008 TIME LEFT:  2.00D  GRAD.:     1.156 HEAT:  30.40918
 CYCLE:   168 TIME:   0.008 TIME LEFT:  2.00D  GRAD.:     1.022 HEAT:  30.40839
 CYCLE:   169 TIME:   0.008 TIME LEFT:  2.00D  GRAD.:     0.641 HEAT:  30.40772
 CYCLE:   170 TIME:   0.008 TIME LEFT:  2.00D  GRAD.:     0.510 HEAT:  30.40729
 CYCLE:   171 TIME:   0.008 TIME LEFT:  2.00D  GRAD.:     0.269 HEAT:  30.40707
 CYCLE:   172 TIME:   0.008 TIME LEFT:  2.00D  GRAD.:     0.209 HEAT:  30.40694
 CYCLE:   173 TIME:   0.008 TIME LEFT:  2.00D  GRAD.:     2.431 HEAT:  30.40996
 CYCLE:   174 TIME:   0.012 TIME LEFT:  2.00D  GRAD.:     0.156 HEAT:  30.40681
 CYCLE:   175 TIME:   0.004 TIME LEFT:  2.00D  GRAD.:     0.138 HEAT:  30.40680
 CYCLE:   176 TIME:   0.008 TIME LEFT:  2.00D  GRAD.:     0.132 HEAT:  30.40678
 CYCLE:   177 TIME:   0.008 TIME LEFT:  2.00D  GRAD.:     0.585 HEAT:  30.40712
 CYCLE:   178 TIME:   0.008 TIME LEFT:  2.00D  GRAD.:     0.164 HEAT:  30.40671
 CYCLE:   179 TIME:   0.008 TIME LEFT:  2.00D  GRAD.:     0.062 HEAT:  30.40669
 CYCLE:   180 TIME:   0.008 TIME LEFT:  2.00D  GRAD.:     0.071 HEAT:  30.40668
 CYCLE:   181 TIME:   0.008 TIME LEFT:  2.00D  GRAD.:     2.002 HEAT:  30.40927
 CYCLE:   182 TIME:   0.008 TIME LEFT:  2.00D  GRAD.:     0.132 HEAT:  30.40666
 CYCLE:   183 TIME:   0.008 TIME LEFT:  2.00D  GRAD.:     0.036 HEAT:  30.40667

     GRADIENT =  0.03642 IS LESS THAN CUTOFF =  0.05000



 -------------------------------------------------------------------------------
 pm3  precise nosym THREADS=1
 InChI=1S/C9H12/c1-2-6-9-7-4-3-5-8-9/h2-4,8H,1,5-7H2



     GEOMETRY OPTIMISED USING EIGENVECTOR FOLLOWING (EF).     
     SCF FIELD WAS ACHIEVED                                   


                              PM3 CALCULATION
                                                       MOPAC v23.1.2 MacOS
                                                       Tue Jun  3 16:30:31 2025




          FINAL HEAT OF FORMATION =         30.40667 KCAL/MOL =     127.22150 KJ/MOL


          COSMO AREA              =        175.10 SQUARE ANGSTROMS
          COSMO VOLUME            =        172.83 CUBIC ANGSTROMS

          GRADIENT NORM           =          0.03642          =       0.00795 PER ATOM
          IONIZATION POTENTIAL    =          9.131722 EV
          HOMO LUMO ENERGIES (EV) =         -9.132  0.965
          NO. OF FILLED LEVELS    =         24
          MOLECULAR WEIGHT        =        120.1938         POINT GROUP:  C1  

          MOLECULAR DIMENSIONS (Angstroms)

            Atom       Atom       Distance
            H    21    H    19     7.86635
            H    18    H    17     4.77773
            H    14    H    11     3.21678


          SCF CALCULATIONS        =        196

          WALL-CLOCK TIME         =      1.445 SECONDS
          COMPUTATION TIME        =      0.856 SECONDS




   ATOM   CHEMICAL          X               Y               Z
  NUMBER   SYMBOL      (ANGSTROMS)     (ANGSTROMS)     (ANGSTROMS)

     1       C          1.35708872  *   0.68663540  *  -0.76032232  *
     2       C         -0.00708762  *  -0.24148103  *   1.16272797  *
     3       C         -2.47520225  *   0.55036004  *  -0.25527749  *
     4       C          0.00567839  *   0.42926348  *  -0.17016816  *
     5       C         -1.11620343  *   0.78485841  *  -0.80639512  *
     6       C         -1.36877686  *  -0.49897327  *   1.69670782  *
     7       C         -2.48317655  *  -0.14177626  *   1.05872845  *
     8       C          1.97717667  *  -0.57487263  *  -1.25661763  *
     9       C          3.24610217  *  -0.89485371  *  -1.03196933  *
    10       H          1.28633542  *   1.39611153  *  -1.61039156  *
    11       H          1.99938143  *   1.18340031  *  -0.00452378  *
    12       H          0.55577601  *   0.38027417  *   1.88972732  *
    13       H          0.54561814  *  -1.20130170  *   1.08744539  *
    14       H         -3.06452891  *  -0.04370157  *  -0.98379519  *
    15       H         -3.00022124  *   1.52298706  *  -0.15779496  *
    16       H          1.31954121  *  -1.23307335  *  -1.83702127  *
    17       H         -1.41364411  *  -1.00882570  *   2.66563943  *
    18       H         -1.07505430  *   1.27724130  *  -1.78577156  *
    19       H         -3.46974904  *  -0.34900579  *   1.48788203  *
    20       H          3.92544229  *  -0.27202780  *  -0.45614661  *
    21       H          3.69550889  *  -1.80680407  *  -1.41269862  *

                             CARTESIAN COORDINATES

   1    C        1.357088715     0.686635403    -0.760322321
   2    C       -0.007087619    -0.241481035     1.162727972
   3    C       -2.475202249     0.550360045    -0.255277486
   4    C        0.005678393     0.429263475    -0.170168161
   5    C       -1.116203432     0.784858415    -0.806395116
   6    C       -1.368776859    -0.498973265     1.696707820
   7    C       -2.483176545    -0.141776263     1.058728445
   8    C        1.977176673    -0.574872633    -1.256617629
   9    C        3.246102170    -0.894853712    -1.031969334
  10    H        1.286335419     1.396111533    -1.610391555
  11    H        1.999381428     1.183400313    -0.004523785
  12    H        0.555776012     0.380274171     1.889727321
  13    H        0.545618136    -1.201301698     1.087445394
  14    H       -3.064528915    -0.043701566    -0.983795191
  15    H       -3.000221243     1.522987055    -0.157794956
  16    H        1.319541206    -1.233073349    -1.837021266
  17    H       -1.413644113    -1.008825702     2.665639426
  18    H       -1.075054300     1.277241297    -1.785771562
  19    H       -3.469749038    -0.349005791     1.487882035
  20    H        3.925442293    -0.272027803    -0.456146613
  21    H        3.695508886    -1.806804073    -1.412698619


           Empirical Formula: C9 H12  =    21 atoms



      MOLECULAR POINT GROUP   :   C1  


                  EIGENVALUES  
 -40.38766 -35.30195 -30.41033 -30.08745 -25.25795 -22.66002 -20.26548 -19.62653
 -17.51399 -16.25960 -16.04056 -15.67335 -15.41084 -14.77463 -14.25208 -13.83888
 -13.67937 -13.08540 -12.40693 -12.23314 -11.75289 -10.29209 -10.11991  -9.13172
   0.96514   1.10556   1.19933   3.20867   3.46002   3.48397   3.55790   3.79784
   3.83976   3.94170   4.02664   4.11932   4.28499   4.40069   4.41280   4.56170
   4.67043   4.72892   5.32652   5.41134   5.59316   5.82615   6.00692   6.23525


              NET ATOMIC CHARGES AND DIPOLE CONTRIBUTIONS

  ATOM NO.   TYPE          CHARGE      No. of ELECS.   s-Pop       p-Pop       
    1          C          -0.025008        4.0250     1.13747     2.88754
    2          C          -0.014647        4.0146     1.13130     2.88334
    3          C          -0.017270        4.0173     1.13072     2.88655
    4          C          -0.121827        4.1218     1.19717     2.92466
    5          C          -0.146448        4.1464     1.19246     2.95398
    6          C          -0.144755        4.1448     1.19264     2.95211
    7          C          -0.148531        4.1485     1.19271     2.95583
    8          C          -0.133209        4.1332     1.19540     2.93781
    9          C          -0.170238        4.1702     1.18282     2.98742
   10          H           0.059253        0.9407     0.94075
   11          H           0.058257        0.9417     0.94174
   12          H           0.061126        0.9389     0.93887
   13          H           0.065156        0.9348     0.93484
   14          H           0.059160        0.9408     0.94084
   15          H           0.059593        0.9404     0.94041
   16          H           0.101273        0.8987     0.89873
   17          H           0.097710        0.9023     0.90229
   18          H           0.101075        0.8989     0.89893
   19          H           0.097899        0.9021     0.90210
   20          H           0.081356        0.9186     0.91864
   21          H           0.080073        0.9199     0.91993
 DIPOLE           X         Y         Z       TOTAL
 POINT-CHG.    -0.061     0.102    -0.010     0.120
 HYBRID         0.015    -0.016    -0.016     0.027
 SUM           -0.046     0.087    -0.026     0.102


          ATOMIC ORBITAL ELECTRON POPULATIONS

     Atom    s        px        py        pz   
    1  C   1.13747   0.94046   0.95402   0.99306
    2  C   1.13130   0.95127   0.99425   0.93782
    3  C   1.13072   0.94869   0.98982   0.94804
    4  C   1.19717   0.95000   1.00403   0.97063
    5  C   1.19246   0.94714   1.01634   0.99050
    6  C   1.19264   0.95251   1.00845   0.99115
    7  C   1.19271   0.97627   1.00563   0.97392
    8  C   1.19540   0.96753   0.97688   0.99340
    9  C   1.18282   0.96209   1.00932   1.01601
   10  H   0.94075
   11  H   0.94174
   12  H   0.93887
   13  H   0.93484
   14  H   0.94084
   15  H   0.94041
   16  H   0.89873
   17  H   0.90229
   18  H   0.89893
   19  H   0.90210
   20  H   0.91864
   21  H   0.91993
 *******************************************************************************
 **                                                                           **
 **                              MOPAC v23.1.2                                **
 **                                                                           **
 *******************************************************************************
 **          Digital Object Identifier (DOI): 10.5281/zenodo.6511958          **
 **    Visit the DOI location for information on how to cite this program.    **
 *******************************************************************************

                              PM3 CALCULATION RESULTS

 *******************************************************************************
 *  CALCULATION DONE: (MAX THREADS = 1)              Tue Jun  3 16:30:31 2025  *
 *  PM3        - The PM3 Hamiltonian to be used
 *  OLDGEO     - PREVIOUS GEOMETRY TO BE USED
 *  PRECISE    - TIGHTER CRITERIA TO BE USED
 *  NOSYM      - POINT-GROUP SYMMETRY SET TO C1
 *  THREADS=1  - MULTI-THREADING NOT USED
 *  T=         - A TIME OF 172800.0 SECONDS REQUESTED
 *  DUMP=N     - RESTART FILE WRITTEN EVERY 7200.0 SECONDS REQUESTED
 *  THERMO     - THERMODYNAMIC QUANTITIES TO BE CALCULATED
 *******************************************************************************
oldgeo thermo nosym precise THREADS=1  pm3
 InChI=1S/C9H12/c1-2-6-9-7-4-3-5-8-9/h2-4,8H,1,5-7H2

   ATOM   CHEMICAL          X               Y               Z
  NUMBER   SYMBOL      (ANGSTROMS)     (ANGSTROMS)     (ANGSTROMS)

     1       C          1.35708872  *   0.68663540  *  -0.76032232  *
     2       C         -0.00708762  *  -0.24148103  *   1.16272797  *
     3       C         -2.47520225  *   0.55036004  *  -0.25527749  *
     4       C          0.00567839  *   0.42926348  *  -0.17016816  *
     5       C         -1.11620343  *   0.78485841  *  -0.80639512  *
     6       C         -1.36877686  *  -0.49897327  *   1.69670782  *
     7       C         -2.48317655  *  -0.14177626  *   1.05872845  *
     8       C          1.97717667  *  -0.57487263  *  -1.25661763  *
     9       C          3.24610217  *  -0.89485371  *  -1.03196933  *
    10       H          1.28633542  *   1.39611153  *  -1.61039156  *
    11       H          1.99938143  *   1.18340031  *  -0.00452378  *
    12       H          0.55577601  *   0.38027417  *   1.88972732  *
    13       H          0.54561814  *  -1.20130170  *   1.08744539  *
    14       H         -3.06452891  *  -0.04370157  *  -0.98379519  *
    15       H         -3.00022124  *   1.52298706  *  -0.15779496  *
    16       H          1.31954121  *  -1.23307335  *  -1.83702127  *
    17       H         -1.41364411  *  -1.00882570  *   2.66563943  *
    18       H         -1.07505430  *   1.27724130  *  -1.78577156  *
    19       H         -3.46974904  *  -0.34900579  *   1.48788203  *
    20       H          3.92544229  *  -0.27202780  *  -0.45614661  *
    21       H          3.69550889  *  -1.80680407  *  -1.41269862  *



          CARTESIAN COORDINATES 

    NO.       ATOM           X           Y           Z

     1         C          1.3571      0.6866     -0.7603
     2         C         -0.0071     -0.2415      1.1627
     3         C         -2.4752      0.5504     -0.2553
     4         C          0.0057      0.4293     -0.1702
     5         C         -1.1162      0.7849     -0.8064
     6         C         -1.3688     -0.4990      1.6967
     7         C         -2.4832     -0.1418      1.0587
     8         C          1.9772     -0.5749     -1.2566
     9         C          3.2461     -0.8949     -1.0320
    10         H          1.2863      1.3961     -1.6104
    11         H          1.9994      1.1834     -0.0045
    12         H          0.5558      0.3803      1.8897
    13         H          0.5456     -1.2013      1.0874
    14         H         -3.0645     -0.0437     -0.9838
    15         H         -3.0002      1.5230     -0.1578
    16         H          1.3195     -1.2331     -1.8370
    17         H         -1.4136     -1.0088      2.6656
    18         H         -1.0751      1.2772     -1.7858
    19         H         -3.4697     -0.3490      1.4879
    20         H          3.9254     -0.2720     -0.4561
    21         H          3.6955     -1.8068     -1.4127

  H: (PM3): J. J. P. STEWART, J. COMP. CHEM. 10, 209 (1989).
  C: (PM3): J. J. P. STEWART, J. COMP. CHEM. 10, 209 (1989).

           Empirical Formula: C9 H12  =    21 atoms



      MOLECULAR POINT GROUP   :   C1  


      RHF CALCULATION, NO. OF DOUBLY OCCUPIED LEVELS = 24



          HEAT OF FORMATION =      30.406669 KCALS/MOLE


          CARTESIAN COORDINATE DERIVATIVES

   NUMBER  ATOM         X            Y            Z

     1       C      0.000225    -0.001034    -0.003564
     2       C      0.000982     0.000389    -0.003794
     3       C      0.000295    -0.001634     0.000588
     4       C      0.000306     0.010435     0.003208
     5       C     -0.002517    -0.008481    -0.002190
     6       C     -0.000485    -0.004791     0.000184
     7       C      0.004247     0.004274     0.000429
     8       C      0.010077     0.006647    -0.004282
     9       C     -0.013171    -0.005855     0.003569
    10       H     -0.000417     0.000385    -0.000951
    11       H      0.000897     0.001721    -0.003113
    12       H     -0.000956     0.000745    -0.000754
    13       H     -0.001111    -0.001811     0.003939
    14       H     -0.001151     0.000430     0.001939
    15       H     -0.001864     0.003994    -0.002694
    16       H      0.002541     0.012673     0.013385
    17       H      0.002013    -0.000227     0.000413
    18       H      0.001266    -0.004435    -0.000162
    19       H     -0.000715     0.000241    -0.000488
    20       H     -0.003113    -0.011405    -0.011540
    21       H      0.002650    -0.002260     0.005877



          GRADIENT NORM =   0.03795

          MOLECULAR WEIGHT =  120.19



          ROTATIONAL CONSTANTS IN CM(-1)

          A =    0.12761060   B =    0.03157726   C =    0.02736290



           PRINCIPAL MOMENTS OF INERTIA IN UNITS OF 10**(-40)*GRAM-CM**2

          A =      219.3607   B =      886.4844   C =     1023.0185


          ORIENTATION OF MOLECULE IN FORCE CALCULATION

    NO.       ATOM         X         Y         Z

     1          C      -1.5620   -0.6918   -0.3228
     2          C       0.9719   -0.6918   -0.3228
     3          C       0.9344    2.2625   -0.3228
     4          C      -0.2923    0.1011   -0.3216
     5          C      -0.3014    1.4389   -0.3214
     6          C       2.2045    0.1361   -0.2959
     7          C       2.1895    1.4689   -0.2966
     8          C      -1.8104   -1.3129    1.0094
     9          C      -2.2059   -2.5716    1.1588
    10          H      -2.4289   -0.0455   -0.5712
    11          H      -1.5162   -1.4574   -1.1242
    12          H       0.9928   -1.3441   -1.2206
    13          H       0.9687   -1.3747    0.5524
    14          H       0.9164    2.9451    0.5517
    15          H       0.9348    2.9150   -1.2202
    16          H      -1.6558   -0.6594    1.8763
    17          H       3.1508   -0.4161   -0.2759
    18          H      -1.2472    1.9946   -0.3210
    19          H       3.1222    2.0434   -0.2777
    20          H      -2.3628   -3.2506    0.3249
    21          H      -2.4028   -3.0112    2.1317


    FIRST DERIVATIVES WILL BE USED IN THE CALCULATION OF SECOND DERIVATIVES

          ESTIMATED TIME TO COMPLETE CALCULATION =        0.98 SECONDS

    FOR POINT-GROUP C1   THERE ARE   1 UNIQUE SYMMETRY FUNCTIONS.

 STEP:   1 TIME =     0.02 SECS, INTEGRAL =      0.02 TIME LEFT: 172799.98
 STEP:   2 TIME =     0.02 SECS, INTEGRAL =      0.04 TIME LEFT: 172799.96
 STEP:   3 TIME =     0.02 SECS, INTEGRAL =      0.06 TIME LEFT: 172799.94
 STEP:   4 TIME =     0.02 SECS, INTEGRAL =      0.07 TIME LEFT: 172799.92
 STEP:   5 TIME =     0.02 SECS, INTEGRAL =      0.09 TIME LEFT: 172799.90
 STEP:   6 TIME =     0.02 SECS, INTEGRAL =      0.12 TIME LEFT: 172799.88
 STEP:   7 TIME =     0.02 SECS, INTEGRAL =      0.14 TIME LEFT: 172799.86
 STEP:   8 TIME =     0.02 SECS, INTEGRAL =      0.16 TIME LEFT: 172799.84
 STEP:   9 TIME =     0.02 SECS, INTEGRAL =      0.18 TIME LEFT: 172799.82
 STEP:  10 TIME =     0.02 SECS, INTEGRAL =      0.20 TIME LEFT: 172799.80
 STEP:  11 TIME =     0.02 SECS, INTEGRAL =      0.22 TIME LEFT: 172799.78
 STEP:  12 TIME =     0.02 SECS, INTEGRAL =      0.24 TIME LEFT: 172799.76
 STEP:  13 TIME =     0.02 SECS, INTEGRAL =      0.26 TIME LEFT: 172799.74
 STEP:  14 TIME =     0.02 SECS, INTEGRAL =      0.27 TIME LEFT: 172799.72
 STEP:  15 TIME =     0.02 SECS, INTEGRAL =      0.30 TIME LEFT: 172799.70
 STEP:  16 TIME =     0.02 SECS, INTEGRAL =      0.32 TIME LEFT: 172799.68
 STEP:  17 TIME =     0.02 SECS, INTEGRAL =      0.34 TIME LEFT: 172799.66
 STEP:  18 TIME =     0.02 SECS, INTEGRAL =      0.36 TIME LEFT: 172799.64
 STEP:  19 TIME =     0.02 SECS, INTEGRAL =      0.38 TIME LEFT: 172799.62
 STEP:  20 TIME =     0.02 SECS, INTEGRAL =      0.39 TIME LEFT: 172799.60
 STEP:  21 TIME =     0.02 SECS, INTEGRAL =      0.42 TIME LEFT: 172799.58
 STEP:  22 TIME =     0.02 SECS, INTEGRAL =      0.44 TIME LEFT: 172799.56
 STEP:  23 TIME =     0.02 SECS, INTEGRAL =      0.46 TIME LEFT: 172799.54
 STEP:  24 TIME =     0.02 SECS, INTEGRAL =      0.48 TIME LEFT: 172799.52
 STEP:  25 TIME =     0.02 SECS, INTEGRAL =      0.50 TIME LEFT: 172799.50
 STEP:  26 TIME =     0.02 SECS, INTEGRAL =      0.52 TIME LEFT: 172799.48
 STEP:  27 TIME =     0.02 SECS, INTEGRAL =      0.54 TIME LEFT: 172799.46
 STEP:  28 TIME =     0.02 SECS, INTEGRAL =      0.55 TIME LEFT: 172799.44
 STEP:  29 TIME =     0.02 SECS, INTEGRAL =      0.57 TIME LEFT: 172799.43
 STEP:  30 TIME =     0.02 SECS, INTEGRAL =      0.59 TIME LEFT: 172799.41
 STEP:  31 TIME =     0.02 SECS, INTEGRAL =      0.61 TIME LEFT: 172799.39
 STEP:  32 TIME =     0.02 SECS, INTEGRAL =      0.63 TIME LEFT: 172799.36
 STEP:  33 TIME =     0.02 SECS, INTEGRAL =      0.65 TIME LEFT: 172799.34
 STEP:  34 TIME =     0.02 SECS, INTEGRAL =      0.67 TIME LEFT: 172799.32
 STEP:  35 TIME =     0.02 SECS, INTEGRAL =      0.69 TIME LEFT: 172799.30
 STEP:  36 TIME =     0.02 SECS, INTEGRAL =      0.71 TIME LEFT: 172799.29
 STEP:  37 TIME =     0.02 SECS, INTEGRAL =      0.73 TIME LEFT: 172799.27
 STEP:  38 TIME =     0.02 SECS, INTEGRAL =      0.75 TIME LEFT: 172799.25
 STEP:  39 TIME =     0.02 SECS, INTEGRAL =      0.77 TIME LEFT: 172799.23
 STEP:  40 TIME =     0.02 SECS, INTEGRAL =      0.79 TIME LEFT: 172799.20
 STEP:  41 TIME =     0.02 SECS, INTEGRAL =      0.81 TIME LEFT: 172799.18
 STEP:  42 TIME =     0.02 SECS, INTEGRAL =      0.83 TIME LEFT: 172799.16
 STEP:  43 TIME =     0.02 SECS, INTEGRAL =      0.85 TIME LEFT: 172799.14
 STEP:  44 TIME =     0.02 SECS, INTEGRAL =      0.87 TIME LEFT: 172799.12
 STEP:  45 TIME =     0.02 SECS, INTEGRAL =      0.89 TIME LEFT: 172799.11
 STEP:  46 TIME =     0.02 SECS, INTEGRAL =      0.91 TIME LEFT: 172799.09
 STEP:  47 TIME =     0.02 SECS, INTEGRAL =      0.93 TIME LEFT: 172799.07
 STEP:  48 TIME =     0.02 SECS, INTEGRAL =      0.95 TIME LEFT: 172799.05
 STEP:  49 TIME =     0.02 SECS, INTEGRAL =      0.96 TIME LEFT: 172799.04
 STEP:  50 TIME =     0.02 SECS, INTEGRAL =      0.98 TIME LEFT: 172799.02
 STEP:  51 TIME =     0.02 SECS, INTEGRAL =      1.00 TIME LEFT: 172799.00
 STEP:  52 TIME =     0.02 SECS, INTEGRAL =      1.02 TIME LEFT: 172798.98
 STEP:  53 TIME =     0.02 SECS, INTEGRAL =      1.04 TIME LEFT: 172798.96
 STEP:  54 TIME =     0.02 SECS, INTEGRAL =      1.06 TIME LEFT: 172798.93
 STEP:  55 TIME =     0.02 SECS, INTEGRAL =      1.08 TIME LEFT: 172798.91
 STEP:  56 TIME =     0.02 SECS, INTEGRAL =      1.10 TIME LEFT: 172798.89
 STEP:  57 TIME =     0.02 SECS, INTEGRAL =      1.12 TIME LEFT: 172798.88
 STEP:  58 TIME =     0.02 SECS, INTEGRAL =      1.14 TIME LEFT: 172798.86
 STEP:  59 TIME =     0.02 SECS, INTEGRAL =      1.16 TIME LEFT: 172798.83
 STEP:  60 TIME =     0.02 SECS, INTEGRAL =      1.18 TIME LEFT: 172798.81
 STEP:  61 TIME =     0.02 SECS, INTEGRAL =      1.21 TIME LEFT: 172798.79
 STEP:  62 TIME =     0.02 SECS, INTEGRAL =      1.23 TIME LEFT: 172798.77
 STEP:  63 TIME =     0.02 SECS, INTEGRAL =      1.25 TIME LEFT: 172798.75

(To convert to Hartree/Bohr^2, multiply by (10^(-21) x N x a0^2)/(4.184 x 627.51) =  0.0642)


           FORCE MATRIX IN MILLIDYNES/ANGSTROM


                  C  1       C  2       C  3       C  4       C  5       C  6
 ------------------------------------------------------------------------------
     C    1  14.917700
     C    2   0.598158  15.121534
     C    3   0.134542   0.192365  15.145015
     C    4   4.641264   4.783009   0.824010  18.458806
     C    5   0.805441   0.808410   5.040016  10.400849  18.312331
     C    6   0.049113   5.045211   0.850833   0.713613   0.055421  18.299470
     C    7   0.002827   0.844561   5.051059   0.050048   0.733639  10.739775
     C    8   4.857325   0.038705   0.022035   0.731788   0.033853   0.003438
     C    9   0.830591   0.005206   0.003601   0.044985   0.005237   0.001896
     H   10   4.401112   0.042866   0.002745   0.458797   0.056802   0.008022
     H   11   4.411212   0.031799   0.016230   0.428629   0.037763   0.001993
     H   12   0.026019   4.371983   0.013443   0.431036   0.034765   0.420644
     H   13   0.026476   4.370447   0.013413   0.431511   0.035986   0.421848
     H   14   0.017992   0.013338   4.385266   0.036762   0.419073   0.038611
     H   15   0.018520   0.013396   4.380719   0.036024   0.418957   0.037557
     H   16   0.434383   0.005175   0.001168   0.024005   0.004612   0.001234
     H   17   0.007866   0.423995   0.127890   0.045485   0.003816   4.821874
     H   18   0.079864   0.117140   0.423556   0.458812   4.783219   0.003417
     H   19   0.001327   0.127588   0.425256   0.003203   0.046040   0.445303
     H   20   0.099415   0.000772   0.000711   0.009788   0.001522   0.000619
     H   21   0.140001   0.000901   0.001167   0.017434   0.001275   0.000482


                  C  7       C  8       C  9       H 10       H 11       H 12
 ------------------------------------------------------------------------------
     C    7  18.295689
     C    8   0.000978  18.118775
     C    9   0.000678  11.067842  18.017863
     H   10   0.000876   0.408687   0.032422   4.988205
     H   11   0.001345   0.466928   0.043652   0.557897   5.007981
     H   12   0.037297   0.002342   0.000614   0.001435   0.023302   4.956431
     H   13   0.038113   0.010100   0.003750   0.001717   0.002096   0.562279
     H   14   0.421656   0.003721   0.001208   0.000672   0.001664   0.002592
     H   15   0.421018   0.002527   0.000465   0.000393   0.002949   0.002489
     H   16   0.000560   4.804630   0.453134   0.015047   0.039119   0.000523
     H   17   0.445298   0.000981   0.000529   0.001487   0.000547   0.027522
     H   18   0.045814   0.012281   0.002916   0.029707   0.007318   0.015762
     H   19   4.826252   0.000394   0.000371   0.000267   0.000303   0.016831
     H   20   0.000358   0.490735   5.069351   0.012954   0.028113   0.000286
     H   21   0.000227   0.462531   5.107610   0.018768   0.004046   0.000129


                  H 13       H 14       H 15       H 16       H 17       H 18
 ------------------------------------------------------------------------------
     H   13   4.950046
     H   14   0.002301   4.968991
     H   15   0.002563   0.566207   4.965380
     H   16   0.001868   0.000482   0.000274   5.172114
     H   17   0.028549   0.016606   0.016821   0.000357   5.198057
     H   18   0.015831   0.029068   0.027480   0.001159   0.000882   5.167123
     H   19   0.016463   0.028399   0.026862   0.000311   0.071299   0.006747
     H   20   0.000629   0.000201   0.000129   0.121171   0.000170   0.000460
     H   21   0.000506   0.000242   0.000140   0.081730   0.000135   0.000687


                  H 19       H 20       H 21
 ------------------------------------------
     H   19   5.203946
     H   20   0.000138   5.466476
     H   21   0.000112   0.424546   5.496571


          HEAT OF FORMATION =      30.406669 KCALS/MOLE

          ZERO POINT ENERGY     113.270 KCAL/MOL


           NORMAL COORDINATE ANALYSIS (Total motion = 1 Angstrom)


   Root No.       1         2         3         4         5         6         7         8

                 1 A       2 A       3 A       4 A       5 A       6 A       7 A       8 A   

                  27.5      42.2      59.3     156.2     278.1     336.6     360.7     400.8
  
           1   -0.0091   -0.0240   -0.0010   -0.0080    0.0042    0.0166   -0.0001    0.0431
           2    0.0207    0.0242    0.0018    0.0015   -0.0080   -0.0308   -0.0019   -0.0232
           3    0.0242    0.0003   -0.0102   -0.0154   -0.0384   -0.0059   -0.0009    0.0169
           4   -0.0092   -0.0249   -0.0004   -0.0133   -0.0135   -0.0254   -0.0019   -0.0150
           5    0.0052   -0.0041   -0.0017   -0.0034   -0.0022    0.0274    0.0026   -0.0087
           6    0.0395   -0.0087    0.0457    0.0123    0.0172   -0.0053    0.0109   -0.0004
           7    0.0091    0.0101    0.0021   -0.0029   -0.0027    0.0290    0.0032   -0.0114
           8    0.0054   -0.0042   -0.0008   -0.0024   -0.0020    0.0115    0.0007    0.0008
           9   -0.0304   -0.0150    0.0223    0.0367   -0.0119    0.0011   -0.0115   -0.0003
          10   -0.0044   -0.0156    0.0004   -0.0092   -0.0069   -0.0196   -0.0019    0.0035
          11    0.0130    0.0108   -0.0002    0.0028    0.0070    0.0353    0.0028    0.0160
          12    0.0164   -0.0069    0.0132   -0.0302    0.0004    0.0055   -0.0010    0.0107
          13    0.0039   -0.0000    0.0018   -0.0062   -0.0081    0.0039    0.0008   -0.0180
          14    0.0131    0.0108   -0.0002    0.0026    0.0063    0.0366    0.0030    0.0145
          15   -0.0142   -0.0109    0.0050   -0.0390    0.0584   -0.0117   -0.0003   -0.0057
          16   -0.0040   -0.0157    0.0013   -0.0103   -0.0106   -0.0075    0.0011   -0.0153
          17   -0.0018   -0.0191   -0.0020   -0.0085   -0.0098   -0.0048    0.0005   -0.0205
          18    0.0128    0.0250   -0.0245   -0.0022    0.0118    0.0004   -0.0634   -0.0047
          19    0.0043    0.0000    0.0024   -0.0061   -0.0070    0.0197    0.0015   -0.0229
          20   -0.0017   -0.0189   -0.0020   -0.0085   -0.0099   -0.0053    0.0004   -0.0205
          21   -0.0189    0.0221   -0.0353    0.0121   -0.0132   -0.0028    0.0635    0.0029
          22    0.0217   -0.0090   -0.0306    0.0440    0.0295   -0.0081   -0.0016    0.0248
          23   -0.0294    0.0137    0.0109    0.0011    0.0043   -0.0325   -0.0038    0.0290
          24    0.0065   -0.0018   -0.0116   -0.0048   -0.0296   -0.0077   -0.0016    0.0365
          25   -0.0108    0.0746    0.0221    0.0111    0.0105   -0.0132   -0.0014    0.0090
          26   -0.0242   -0.0125   -0.0052    0.0143    0.0157   -0.0282   -0.0034    0.0251
          27   -0.0344   -0.0022   -0.0089    0.0154    0.0062    0.0267    0.0037   -0.0415
          28   -0.0127   -0.0212    0.0055   -0.0170   -0.0034   -0.0074   -0.0015    0.0211
          29    0.0344    0.0347    0.0015   -0.0008   -0.0252   -0.0817   -0.0042   -0.0856
          30    0.0720    0.0184   -0.0335    0.0113   -0.0535   -0.0494   -0.0015   -0.0630
          31   -0.0341   -0.0408    0.0153   -0.0272    0.0299    0.0864    0.0025    0.1157
          32    0.0510    0.0323   -0.0032    0.0032   -0.0118   -0.0456   -0.0017   -0.0727
          33   -0.0062   -0.0084   -0.0046   -0.0176   -0.0329    0.0111   -0.0010    0.0650
          34   -0.0144   -0.0218   -0.0133   -0.0083   -0.0079   -0.0370   -0.0360   -0.0321
          35   -0.0231    0.0164   -0.0613   -0.0380   -0.0233    0.0436   -0.0859   -0.0022
          36    0.0600   -0.0236    0.0888    0.0378    0.0330   -0.0182    0.0760   -0.0063
          37   -0.0131   -0.0440    0.0111   -0.0261   -0.0297   -0.0359    0.0296   -0.0214
          38    0.0327   -0.0244    0.0561    0.0302    0.0178    0.0114    0.0886   -0.0166
          39    0.0610   -0.0245    0.0910    0.0389    0.0337   -0.0178    0.0799   -0.0062
          40    0.0148    0.0064    0.0172   -0.0201    0.0347    0.0396   -0.0309   -0.0052
          41    0.0206    0.0186   -0.0425   -0.0650    0.0514   -0.0021    0.0855   -0.0012
          42   -0.0421   -0.0330    0.0554    0.0858   -0.0538    0.0122   -0.0803    0.0012
          43    0.0114    0.0304   -0.0131    0.0200   -0.0305    0.0469    0.0414    0.0045
          44   -0.0101   -0.0274    0.0420    0.0619   -0.0569    0.0264   -0.0863    0.0028
          45   -0.0416   -0.0319    0.0536    0.0840   -0.0526    0.0122   -0.0766    0.0013
          46    0.0717   -0.0681   -0.0974    0.1183    0.0833   -0.0329   -0.0036   -0.0022
          47   -0.0718    0.0286    0.0316   -0.0087    0.0089   -0.0166   -0.0022    0.0244
          48    0.0295   -0.0025   -0.0153   -0.0103   -0.0419   -0.0146   -0.0023    0.0422
          49   -0.0073   -0.0229    0.0019   -0.0120   -0.0131   -0.0217    0.0016   -0.0149
          50   -0.0072   -0.0304   -0.0025   -0.0120   -0.0135   -0.0289   -0.0019   -0.0197
          51    0.0207    0.0523   -0.0666   -0.0222    0.0232    0.0029   -0.1539   -0.0119
          52    0.0076    0.0066    0.0022   -0.0045   -0.0071    0.0168    0.0022   -0.0217
          53    0.0193    0.0221    0.0005    0.0054    0.0074    0.0571    0.0052    0.0070
          54   -0.0300   -0.0109   -0.0158   -0.0810    0.1179   -0.0296   -0.0016   -0.0196
          55    0.0080    0.0063    0.0040   -0.0036   -0.0040    0.0300    0.0005   -0.0192
          56   -0.0070   -0.0299   -0.0028   -0.0123   -0.0141   -0.0221   -0.0009   -0.0265
          57   -0.0378    0.0470   -0.0868    0.0063   -0.0325   -0.0049    0.1539    0.0080
          58   -0.0603    0.1355    0.0891   -0.0641   -0.0474    0.0060   -0.0004    0.0578
          59    0.0166   -0.0275   -0.0253    0.0222    0.0069   -0.0634   -0.0082    0.0790
          60   -0.0583   -0.0014   -0.0052    0.0232    0.0247    0.0523    0.0075   -0.0963
          61    0.0101    0.0879    0.0016    0.0567    0.0511   -0.0370   -0.0022   -0.0579
          62   -0.0604   -0.0212    0.0003    0.0187    0.0364    0.0126    0.0021   -0.0367
          63   -0.0466   -0.0034   -0.0105    0.0266    0.0238    0.0409    0.0061   -0.0844


   Root No.       9        10        11        12        13        14        15        16

                 9 A      10 A      11 A      12 A      13 A      14 A      15 A      16 A   

                 499.9     526.9     569.5     634.8     716.6     817.7     828.0     881.9
  
           1    0.0202   -0.0230   -0.0094    0.0163   -0.0015    0.0318   -0.0269    0.0250
           2    0.0225   -0.0119   -0.0167    0.0134   -0.0002    0.0157   -0.0091   -0.0360
           3   -0.0089   -0.0094   -0.0031    0.0117   -0.0016    0.0152   -0.0094   -0.0120
           4    0.0033    0.0020   -0.0165    0.0161   -0.0045   -0.0166    0.0105   -0.0048
           5   -0.0262    0.0264   -0.0350   -0.0045    0.0017   -0.0019    0.0023    0.0118
           6    0.0063    0.0060   -0.0005   -0.0102   -0.0115    0.0052    0.0201    0.0151
           7   -0.0134    0.0027    0.0232   -0.0101    0.0010   -0.0020    0.0017    0.0022
           8    0.0160   -0.0290    0.0467    0.0099   -0.0076   -0.0371    0.0252    0.0060
           9   -0.0028   -0.0005   -0.0005   -0.0038   -0.0235   -0.0201   -0.0302   -0.0042
          10    0.0249   -0.0223    0.0010    0.0206   -0.0043    0.0096   -0.0101    0.0043
          11    0.0063   -0.0059   -0.0207    0.0178   -0.0038   -0.0002   -0.0018   -0.0007
          12    0.0683    0.0381    0.0013   -0.0224    0.0274   -0.0003    0.0057   -0.0047
          13    0.0003   -0.0136    0.0558   -0.0121    0.0003   -0.0104    0.0099   -0.0039
          14    0.0064   -0.0085   -0.0163    0.0201   -0.0058   -0.0086    0.0029    0.0024
          15   -0.0140   -0.0051    0.0003   -0.0024    0.0030   -0.0166   -0.0113    0.0043
          16   -0.0110    0.0211   -0.0529    0.0207   -0.0056   -0.0346    0.0249   -0.0044
          17   -0.0126    0.0061    0.0212   -0.0181    0.0047    0.0174   -0.0119   -0.0021
          18   -0.0098   -0.0045   -0.0010    0.0008   -0.0192    0.0092    0.0058   -0.0028
          19   -0.0307    0.0250    0.0003   -0.0231    0.0072    0.0262   -0.0190   -0.0001
          20   -0.0114    0.0044    0.0244   -0.0181    0.0044    0.0165   -0.0113   -0.0028
          21    0.0042    0.0025    0.0002   -0.0024   -0.0151    0.0139    0.0099   -0.0050
          22    0.0034   -0.0147   -0.0176   -0.0385    0.0068   -0.0020    0.0036    0.0024
          23   -0.0069    0.0157    0.0072   -0.0001    0.0009    0.0004    0.0000    0.0006
          24   -0.0330    0.0035    0.0109    0.0019   -0.0056   -0.0105    0.0029    0.0022
          25    0.0010    0.0098    0.0041   -0.0012    0.0017    0.0004    0.0010   -0.0019
          26    0.0006    0.0075   -0.0022   -0.0145    0.0045    0.0014    0.0009    0.0052
          27    0.0105   -0.0089   -0.0033    0.0063   -0.0023   -0.0058    0.0019    0.0101
          28    0.0329   -0.0201   -0.0021    0.0296   -0.0022    0.0437   -0.0384    0.0368
          29    0.0420   -0.0349   -0.0339    0.0083   -0.0020    0.0273   -0.0284    0.0435
          30   -0.0046   -0.0742   -0.0659   -0.0450   -0.0039    0.0037   -0.0178    0.1417
          31    0.0334    0.0271    0.0255    0.0485    0.0108    0.0515   -0.0167   -0.1043
          32    0.0561   -0.0387   -0.0528   -0.0095    0.0088    0.0261   -0.0162    0.0387
          33   -0.0393    0.0179    0.0316    0.0345   -0.0097    0.0062   -0.0027   -0.0866
          34   -0.0451   -0.0173   -0.0011    0.0221   -0.0382    0.0023    0.0148   -0.0215
          35    0.0485    0.0748   -0.0371   -0.0513   -0.0544    0.0126    0.0576    0.0526
          36   -0.0514   -0.0307    0.0009    0.0253    0.0305   -0.0062   -0.0207   -0.0158
          37    0.0406    0.0332    0.0011   -0.0136    0.0337   -0.0359    0.0113   -0.0097
          38   -0.1016   -0.0176   -0.0374    0.0400    0.0566   -0.0174   -0.0496   -0.0236
          39   -0.0543   -0.0300   -0.0019    0.0257    0.0337   -0.0065   -0.0226   -0.0134
          40   -0.0213   -0.0075    0.0096    0.0069    0.0120   -0.0528   -0.0087    0.0199
          41    0.0159   -0.0255    0.0490   -0.0109   -0.1023   -0.1040   -0.0532   -0.0030
          42   -0.0029   -0.0039   -0.0022    0.0138    0.0539    0.0316    0.0344    0.0036
          43    0.0045    0.0043    0.0107    0.0027   -0.0230    0.0087    0.0362   -0.0016
          44    0.0176   -0.0359    0.0501    0.0337    0.0875    0.0154    0.1173    0.0184
          45   -0.0018   -0.0055    0.0017    0.0142    0.0492    0.0213    0.0385    0.0050
          46    0.0148    0.0610    0.0318    0.0008    0.0089   -0.0270    0.0336   -0.1248
          47   -0.0053   -0.0011   -0.0067   -0.0288    0.0047   -0.0099    0.0046    0.0847
          48   -0.0343    0.0019    0.0116    0.0164   -0.0087    0.0024   -0.0063   -0.0386
          49    0.0007    0.0121   -0.0486    0.0301   -0.0136   -0.0493    0.0394   -0.0127
          50    0.0065   -0.0098    0.0273   -0.0003   -0.0017   -0.0111    0.0079   -0.0168
          51   -0.0399   -0.0272    0.0007    0.0421    0.1839   -0.1064   -0.1136   -0.0169
          52   -0.0110   -0.0039    0.0514   -0.0192    0.0021   -0.0099    0.0090   -0.0041
          53   -0.0123    0.0075   -0.0231    0.0079   -0.0029   -0.0079    0.0010    0.0021
          54   -0.1111   -0.0653   -0.0006    0.0586    0.0345    0.1632    0.1657   -0.0049
          55   -0.0269    0.0144    0.0272   -0.0286    0.0026    0.0274   -0.0206    0.0060
          56   -0.0171    0.0214   -0.0194   -0.0095    0.0042    0.0152   -0.0086   -0.0150
          57    0.0061   -0.0028    0.0032    0.0287    0.2125   -0.0345    0.0259    0.0535
          58   -0.0260   -0.0881   -0.0697   -0.1166    0.0130   -0.0360    0.0332   -0.0673
          59   -0.0354    0.0542    0.0384    0.0103   -0.0033   -0.0246    0.0097    0.0870
          60    0.0465   -0.0291   -0.0232    0.0080    0.0022    0.0237   -0.0121   -0.0458
          61    0.0262    0.1395    0.1075    0.1728   -0.0193    0.0457   -0.0420    0.0605
          62    0.0490   -0.0516   -0.0575   -0.0605    0.0193    0.0350   -0.0082   -0.0810
          63    0.0382   -0.0101   -0.0077    0.0216   -0.0001    0.0193   -0.0115   -0.0180


   Root No.      17        18        19        20        21        22        23        24

                17 A      18 A      19 A      20 A      21 A      22 A      23 A      24 A   

                 914.2     932.4     947.1     948.5     966.7    1013.9    1015.4    1021.6
  
           1    0.0010   -0.0055    0.0214   -0.0033    0.0023   -0.0021   -0.0038   -0.0019
           2    0.0144   -0.0065   -0.0191   -0.0000    0.0285   -0.0006    0.0004    0.0088
           3    0.0044    0.0234    0.0069   -0.0023   -0.0069   -0.0027    0.0046    0.0015
           4    0.0005   -0.0036   -0.0110    0.0017   -0.0137   -0.0063   -0.0030   -0.0070
           5   -0.0098    0.0182    0.0360   -0.0062    0.0358   -0.0111   -0.0077   -0.0091
           6    0.0465    0.0025    0.0039    0.0207    0.0015    0.0013   -0.0166    0.0127
           7   -0.0005   -0.0014   -0.0036    0.0006   -0.0102   -0.0121   -0.0050   -0.0062
           8   -0.0077    0.0116    0.0085    0.0005   -0.0052    0.0338    0.0096    0.0027
           9    0.0085    0.0040    0.0050    0.0365    0.0039   -0.0042    0.0215   -0.0148
          10    0.0045   -0.0112    0.0049   -0.0012    0.0046    0.0099   -0.0039   -0.0018
          11    0.0039   -0.0089   -0.0093    0.0013   -0.0070   -0.0018    0.0004    0.0035
          12   -0.0369   -0.0007   -0.0007    0.0050   -0.0028   -0.0001    0.0164   -0.0122
          13   -0.0058    0.0178    0.0163   -0.0042    0.0370   -0.0242    0.0007    0.0089
          14    0.0041   -0.0129   -0.0147    0.0027   -0.0232    0.0006   -0.0027   -0.0022
          15    0.0095   -0.0018   -0.0047   -0.0434   -0.0019    0.0023   -0.0203    0.0157
          16   -0.0050    0.0114   -0.0004    0.0006    0.0039    0.0168    0.0108    0.0141
          17    0.0041   -0.0075   -0.0079    0.0010   -0.0073   -0.0108   -0.0041   -0.0034
          18   -0.0115   -0.0022   -0.0033   -0.0316   -0.0008   -0.0025    0.0243   -0.0208
          19    0.0067   -0.0124   -0.0100    0.0023   -0.0156    0.0437    0.0129    0.0092
          20    0.0044   -0.0077   -0.0092    0.0012   -0.0078    0.0055    0.0024    0.0042
          21   -0.0272   -0.0016   -0.0020   -0.0038   -0.0043    0.0053   -0.0281    0.0199
          22   -0.0034    0.0215   -0.0251    0.0023    0.0096   -0.0056    0.0061    0.0152
          23   -0.0004    0.0023    0.0114   -0.0014   -0.0090    0.0018   -0.0020   -0.0054
          24    0.0038   -0.0053   -0.0031   -0.0014    0.0020    0.0019   -0.0051   -0.0006
          25   -0.0013    0.0101   -0.0098    0.0010    0.0063    0.0152   -0.0146   -0.0294
          26   -0.0048    0.0073    0.0076   -0.0001   -0.0101   -0.0064    0.0081    0.0089
          27   -0.0034   -0.0384   -0.0128    0.0044    0.0215    0.0002    0.0001    0.0008
          28    0.0029   -0.0353    0.0601   -0.0088    0.0303    0.0242   -0.0551   -0.0510
          29   -0.0008   -0.0433    0.0508   -0.0074    0.0317    0.0254   -0.0549   -0.0515
          30   -0.0384    0.0344    0.0495   -0.0025   -0.0937   -0.0301    0.0420    0.0192
          31    0.0128   -0.0058   -0.0620    0.0089    0.0691   -0.0406    0.0577    0.0513
          32   -0.0256   -0.0424   -0.0128    0.0095    0.0240   -0.0258    0.0398    0.0220
          33    0.0423    0.0570   -0.0026   -0.0111   -0.0001    0.0185   -0.0291   -0.0083
          34    0.0277   -0.0116   -0.0413   -0.0335   -0.0237   -0.0641    0.0210   -0.0332
          35    0.1064    0.0289    0.0550    0.0394    0.0522   -0.0161   -0.0492    0.0163
          36   -0.0408   -0.0046   -0.0098   -0.0146   -0.0096    0.0021    0.0144   -0.0074
          37   -0.0201   -0.0046   -0.0290    0.0488   -0.0649   -0.0519   -0.0624   -0.0496
          38   -0.1277    0.0191    0.0393   -0.0543    0.0453   -0.0222    0.0249   -0.0428
          39   -0.0485    0.0023    0.0054   -0.0178    0.0073   -0.0059    0.0100   -0.0139
          40    0.0436   -0.0106   -0.0210   -0.0473   -0.0558   -0.0710   -0.0226   -0.0674
          41    0.0110    0.0245    0.0222    0.0839    0.0008    0.0399    0.0613   -0.0288
          42   -0.0061   -0.0060   -0.0062   -0.0319   -0.0019   -0.0096   -0.0199    0.0094
          43   -0.0493   -0.0083   -0.0145    0.0613   -0.0600   -0.0672   -0.0504   -0.0357
          44   -0.0314    0.0051   -0.0016   -0.0849   -0.0177    0.0561   -0.0356    0.0373
          45   -0.0090   -0.0016   -0.0029   -0.0277   -0.0056    0.0117   -0.0127    0.0106
          46    0.0197   -0.1603    0.1619   -0.0101   -0.0485    0.0136   -0.0121   -0.0452
          47   -0.0365    0.0129   -0.0529    0.0131    0.0096   -0.0117    0.0230    0.0139
          48    0.0266    0.0199    0.0124   -0.0103   -0.0021    0.0085   -0.0202   -0.0043
          49   -0.0023    0.0070   -0.0250    0.0002   -0.0181   -0.0299    0.0049    0.0078
          50    0.0081   -0.0148   -0.0492    0.0074   -0.0440   -0.0942   -0.0195   -0.0112
          51   -0.0318    0.0135    0.0169    0.1740   -0.0038    0.0110   -0.0908    0.0696
          52   -0.0045    0.0137    0.0049   -0.0043    0.0251   -0.0754   -0.0149   -0.0001
          53    0.0067   -0.0214   -0.0352    0.0026   -0.0453   -0.0840   -0.0291   -0.0173
          54   -0.0383    0.0057    0.0193    0.1940    0.0010   -0.0049    0.0462   -0.0405
          55    0.0010   -0.0136   -0.0036    0.0038   -0.0285    0.0662    0.0072   -0.0073
          56    0.0068   -0.0065   -0.0218    0.0004    0.0099   -0.0297    0.0078    0.0346
          57    0.1896    0.0013    0.0022   -0.0444    0.0175   -0.0151    0.1016   -0.0679
          58    0.0082   -0.1403    0.1157   -0.0055   -0.0432   -0.0582    0.0597    0.1027
          59   -0.0352   -0.0864   -0.0690    0.0202    0.0656    0.0101   -0.0027   -0.0236
          60    0.0200    0.0709    0.0273   -0.0115   -0.0330    0.0004   -0.0048    0.0024
          61   -0.0018    0.0517    0.0597   -0.0109   -0.0704   -0.0662    0.0648    0.1165
          62    0.0201    0.1738    0.0369   -0.0174   -0.0700    0.0203   -0.0198   -0.0445
          63    0.0089    0.0472    0.0148   -0.0062   -0.0213   -0.0038    0.0028    0.0061


   Root No.      25        26        27        28        29        30        31        32

                25 A      26 A      27 A      28 A      29 A      30 A      31 A      32 A   

                1042.7    1052.0    1060.9    1078.1    1111.7    1158.5    1161.5    1192.8
  
           1   -0.0071    0.0017   -0.0052    0.0051   -0.0000    0.0017    0.0068    0.0028
           2    0.0141   -0.0024    0.0005    0.0035    0.0089    0.0009   -0.0096   -0.0030
           3   -0.0005    0.0075   -0.0102    0.0045    0.0050   -0.0001   -0.0482    0.0195
           4    0.0161    0.0047   -0.0015   -0.0004   -0.0091    0.0015   -0.0041   -0.0097
           5    0.0217    0.0049   -0.0017   -0.0000    0.0057    0.0058   -0.0031   -0.0048
           6    0.0010    0.0041   -0.0048    0.0007    0.0010   -0.0000   -0.0012    0.0020
           7    0.0006    0.0006    0.0019   -0.0034    0.0093    0.0032    0.0003   -0.0027
           8    0.0124    0.0025    0.0009   -0.0025    0.0029   -0.0047    0.0049    0.0142
           9   -0.0014   -0.0026    0.0031   -0.0001   -0.0006   -0.0002   -0.0001   -0.0003
          10    0.0028   -0.0023    0.0033   -0.0006    0.0105   -0.0025   -0.0124   -0.0296
          11   -0.0089   -0.0021   -0.0024    0.0049   -0.0109    0.0019   -0.0042   -0.0187
          12   -0.0036    0.0023    0.0084   -0.0227   -0.0060   -0.0011    0.0008   -0.0125
          13   -0.0180   -0.0016   -0.0076    0.0089   -0.0135   -0.0014   -0.0027   -0.0139
          14   -0.0066   -0.0036    0.0025    0.0007   -0.0154   -0.0050   -0.0037   -0.0145
          15    0.0003    0.0135    0.0105    0.0168    0.0023    0.0004   -0.0017    0.0030
          16   -0.0239   -0.0053    0.0019   -0.0010    0.0050   -0.0009    0.0051    0.0141
          17   -0.0027   -0.0005    0.0020   -0.0027    0.0083    0.0055   -0.0015   -0.0025
          18    0.0009   -0.0150    0.0062    0.0207    0.0023    0.0006    0.0009    0.0007
          19    0.0028   -0.0008   -0.0000    0.0018   -0.0059   -0.0018    0.0022    0.0048
          20   -0.0120   -0.0032    0.0023   -0.0015    0.0054   -0.0053    0.0004    0.0021
          21    0.0020   -0.0049   -0.0200   -0.0170   -0.0005   -0.0002   -0.0001    0.0001
          22    0.0148   -0.0152    0.0207   -0.0110   -0.0014   -0.0004   -0.0026    0.0016
          23   -0.0055    0.0044   -0.0055    0.0025   -0.0006    0.0003    0.0129   -0.0043
          24    0.0006   -0.0056    0.0084   -0.0044   -0.0045    0.0003    0.0459    0.0183
          25   -0.0155    0.0135   -0.0158    0.0063    0.0006    0.0003    0.0038   -0.0027
          26    0.0032   -0.0005    0.0010   -0.0012    0.0004    0.0002    0.0070   -0.0088
          27    0.0028    0.0002   -0.0017    0.0022    0.0026    0.0004   -0.0036   -0.0116
          28   -0.0094   -0.0495    0.0805   -0.0533   -0.0325    0.0018    0.0138    0.1036
          29   -0.0026   -0.0495    0.0846   -0.0577   -0.0332    0.0006    0.0132    0.0999
          30   -0.0368    0.0666   -0.0958    0.0526    0.0085   -0.0015   -0.0202   -0.0668
          31    0.0273    0.0616   -0.0878    0.0451    0.0411    0.0066    0.0746    0.1204
          32    0.0060    0.0476   -0.0606    0.0242    0.0208    0.0073    0.1608    0.1081
          33    0.0089   -0.0350    0.0420   -0.0129   -0.0046   -0.0062   -0.2088   -0.0779
          34    0.0907    0.1659    0.0030   -0.1560   -0.1227   -0.0888    0.0025   -0.0103
          35    0.0351    0.0192   -0.0136   -0.0008    0.0114    0.0163   -0.0083   -0.0077
          36   -0.0063   -0.0023    0.0043   -0.0030   -0.0055   -0.0071    0.0022    0.0031
          37    0.1426   -0.0974   -0.0566    0.1916   -0.0632   -0.0754    0.0163    0.0266
          38    0.0327   -0.0022    0.0071    0.0004    0.0077    0.0164   -0.0049   -0.0165
          39    0.0089   -0.0019    0.0024    0.0010    0.0018    0.0053   -0.0025   -0.0066
          40    0.0428   -0.0997   -0.1270   -0.1612    0.1612   -0.0752    0.0109    0.0308
          41    0.0145   -0.0039    0.0067   -0.0064    0.0038   -0.0169    0.0110    0.0374
          42   -0.0030    0.0001   -0.0040   -0.0004    0.0010    0.0049   -0.0040   -0.0148
          43    0.0137    0.1150    0.1856    0.0790    0.1590   -0.0692    0.0118    0.0307
          44    0.0189    0.0103   -0.0023   -0.0029    0.0062   -0.0161    0.0110    0.0385
          45    0.0042    0.0034    0.0005   -0.0003    0.0027   -0.0059    0.0036    0.0145
          46   -0.0445    0.0452   -0.0576    0.0252    0.0037   -0.0014   -0.0830    0.0453
          47    0.0029    0.0056   -0.0067   -0.0021    0.0014   -0.0070   -0.2481    0.1323
          48    0.0047   -0.0167    0.0226   -0.0073   -0.0068    0.0060    0.2557   -0.0894
          49   -0.0573   -0.0119    0.0080   -0.0076    0.0259    0.1530    0.0076    0.0199
          50   -0.0634   -0.0111    0.0126   -0.0166    0.0475    0.2725    0.0022    0.0057
          51   -0.0023    0.0291   -0.0147   -0.0307   -0.0021    0.0024   -0.0009    0.0006
          52   -0.0510   -0.0123   -0.0012    0.0078   -0.0953   -0.0019    0.0000    0.0391
          53   -0.0631   -0.0224    0.0142   -0.0013   -0.1595   -0.0052    0.0012    0.0779
          54   -0.0019   -0.0336   -0.0080   -0.0225   -0.0072   -0.0005    0.0074   -0.0112
          55    0.0732    0.0160   -0.0059   -0.0029   -0.0215    0.1554   -0.0056    0.0098
          56   -0.1295   -0.0317    0.0111    0.0037    0.0345   -0.2636    0.0139   -0.0043
          57   -0.0035    0.0057    0.0370    0.0247   -0.0001    0.0025   -0.0004   -0.0001
          58    0.0480   -0.0349    0.0398   -0.0165    0.0016   -0.0003   -0.0169   -0.0063
          59   -0.0093    0.0222   -0.0299    0.0142    0.0098    0.0010   -0.0326   -0.0301
          60    0.0007   -0.0086    0.0124   -0.0060   -0.0053    0.0000    0.0370    0.0073
          61    0.0493   -0.0411    0.0468   -0.0189   -0.0032   -0.0003    0.0094    0.0108
          62   -0.0297    0.0217   -0.0198    0.0018   -0.0054    0.0003    0.0448    0.0382
          63    0.0012   -0.0015    0.0025   -0.0019   -0.0011    0.0004    0.0180    0.0121


   Root No.      33        34        35        36        37        38        39        40

                33 A      34 A      35 A      36 A      37 A      38 A      39 A      40 A   

                1217.4    1228.4    1308.0    1321.3    1361.2    1375.7    1392.6    1396.2
  
           1   -0.0110    0.0113   -0.0167   -0.0109   -0.0089   -0.0281    0.0052   -0.0247
           2   -0.0051   -0.0024   -0.0193   -0.0021   -0.0103   -0.0279    0.0125    0.0027
           3   -0.0199    0.0118    0.0178    0.0032    0.0093    0.0300   -0.0070   -0.0489
           4    0.0011   -0.0276    0.0094    0.0156    0.0026    0.0366    0.0032    0.0164
           5    0.0024   -0.0014   -0.0012   -0.0020   -0.0304    0.0151    0.0343    0.0017
           6   -0.0006   -0.0001    0.0009    0.0003   -0.0002    0.0015    0.0004   -0.0003
           7    0.0084    0.0126    0.0027    0.0099    0.0007    0.0322    0.0101    0.0123
           8   -0.0113    0.0067   -0.0021   -0.0020    0.0278   -0.0062    0.0421   -0.0021
           9    0.0000    0.0000    0.0000    0.0002   -0.0004    0.0006   -0.0006   -0.0001
          10    0.0190   -0.0276    0.0008    0.0250   -0.0049    0.0043    0.0149   -0.0017
          11    0.0222    0.0034    0.0122   -0.0076   -0.0017    0.0001   -0.0199   -0.0004
          12    0.0029   -0.0015   -0.0045   -0.0010   -0.0020   -0.0054    0.0012    0.0026
          13    0.0152    0.0029    0.0114   -0.0160   -0.0036   -0.0083   -0.0231   -0.0037
          14    0.0194    0.0026    0.0145   -0.0029    0.0038    0.0088   -0.0170    0.0040
          15   -0.0010    0.0006    0.0010    0.0002    0.0004    0.0012   -0.0002   -0.0009
          16   -0.0139   -0.0007    0.0043   -0.0250    0.0038   -0.0194   -0.0190   -0.0068
          17   -0.0028   -0.0149    0.0082   -0.0113   -0.0019    0.0015   -0.0168    0.0012
          18   -0.0004   -0.0004    0.0001   -0.0004    0.0001   -0.0003   -0.0004    0.0001
          19    0.0009    0.0144   -0.0113    0.0135    0.0032   -0.0087    0.0159   -0.0034
          20   -0.0069   -0.0132    0.0061   -0.0134    0.0030   -0.0081   -0.0169   -0.0023
          21    0.0000    0.0004   -0.0002    0.0003    0.0001   -0.0002    0.0004   -0.0001
          22   -0.0006    0.0005   -0.0021   -0.0016    0.0030    0.0069   -0.0012   -0.0001
          23    0.0034   -0.0023   -0.0165   -0.0082    0.0045    0.0077   -0.0014   -0.0035
          24    0.0452   -0.0191   -0.0048    0.0034   -0.0098   -0.0240    0.0060    0.0189
          25   -0.0048    0.0020   -0.0011   -0.0016    0.0026    0.0059   -0.0016   -0.0039
          26   -0.0182    0.0071   -0.0010   -0.0041    0.0090    0.0215   -0.0054   -0.0114
          27   -0.0179    0.0068    0.0017   -0.0001    0.0003    0.0007   -0.0001   -0.0021
          28   -0.0133    0.0543    0.0380   -0.0220    0.0269    0.0435   -0.0328    0.0548
          29   -0.0104    0.0515    0.0282   -0.0277    0.0345    0.0469   -0.0350    0.1787
          30   -0.0376    0.0020   -0.0600   -0.0307    0.0080   -0.0263    0.0010    0.2332
          31   -0.0342    0.0001    0.0001   -0.0075    0.0405    0.0597   -0.0095    0.2333
          32    0.0366   -0.0163    0.0347    0.0186    0.0082    0.0443   -0.0024   -0.1345
          33   -0.0617    0.0254   -0.0361   -0.0194   -0.0028   -0.0325    0.0050    0.1287
          34    0.0298    0.1016   -0.0149   -0.0306   -0.0064   -0.0576   -0.0079   -0.0305
          35    0.0082    0.0012   -0.0327    0.0971    0.1293   -0.0445   -0.0743   -0.0059
          36   -0.0032    0.0020    0.0198   -0.0630   -0.1003    0.0360    0.0677    0.0027
          37    0.0225    0.0946   -0.0088   -0.0288   -0.0046   -0.0483   -0.0075   -0.0215
          38    0.0101    0.0002   -0.0349    0.0942    0.1248   -0.0460   -0.0711   -0.0038
          39    0.0046    0.0004   -0.0222    0.0654    0.1045   -0.0399   -0.0705   -0.0040
          40   -0.0460   -0.0342   -0.0097   -0.0244   -0.0011   -0.0510   -0.0136   -0.0185
          41   -0.0365    0.0199   -0.0644    0.0684   -0.1202    0.0200   -0.0941    0.0043
          42    0.0154   -0.0099    0.0415   -0.0477    0.0993   -0.0187    0.0910   -0.0051
          43   -0.0442   -0.0354   -0.0093   -0.0249    0.0005   -0.0517   -0.0112   -0.0168
          44   -0.0363    0.0202   -0.0657    0.0699   -0.1238    0.0201   -0.0973    0.0053
          45   -0.0151    0.0085   -0.0395    0.0449   -0.0951    0.0169   -0.0879    0.0046
          46    0.0413   -0.0125   -0.0101   -0.0023   -0.0061   -0.0157    0.0037   -0.0001
          47    0.1318   -0.0435   -0.0208   -0.0005   -0.0142   -0.0341    0.0094    0.0117
          48   -0.0557    0.0130   -0.0017   -0.0026    0.0055    0.0103   -0.0025    0.0081
          49    0.0086    0.0747   -0.0259    0.0106   -0.0026   -0.0247    0.0237   -0.0110
          50    0.0377    0.1144   -0.0438    0.0524   -0.0152   -0.0042    0.0586   -0.0049
          51    0.0002    0.0019   -0.0005    0.0002   -0.0001   -0.0006    0.0005   -0.0004
          52   -0.0753   -0.0626   -0.0304    0.0184   -0.0045   -0.0273    0.0284   -0.0189
          53   -0.1359   -0.1079   -0.0565    0.0562    0.0049   -0.0221    0.0720   -0.0198
          54    0.0037   -0.0038   -0.0046   -0.0004   -0.0020   -0.0053    0.0016    0.0043
          55   -0.0287   -0.0484    0.0122   -0.0393   -0.0005   -0.0330   -0.0360   -0.0108
          56    0.0405    0.0914   -0.0335    0.0732    0.0111    0.0290    0.0694    0.0090
          57   -0.0005   -0.0009    0.0003   -0.0009   -0.0001   -0.0008   -0.0009   -0.0005
          58   -0.0306    0.0129    0.0507    0.0242   -0.0119   -0.0201    0.0039    0.0128
          59   -0.0946    0.0410    0.1324    0.0618   -0.0338   -0.0609    0.0105    0.0264
          60    0.0478   -0.0221   -0.1087   -0.0546    0.0357    0.0687   -0.0132   -0.0342
          61    0.0020    0.0009    0.0393    0.0204   -0.0146   -0.0286    0.0054    0.0134
          62    0.0137   -0.0014    0.1458    0.0777   -0.0509   -0.0975    0.0189    0.0542
          63    0.0009    0.0012    0.0686    0.0377   -0.0285   -0.0571    0.0119    0.0297


   Root No.      41        42        43        44        45        46        47        48

                41 A      42 A      43 A      44 A      45 A      46 A      47 A      48 A   

                1436.5    1494.6    1858.6    1880.7    1905.3    2925.8    2929.6    2936.3
  
           1    0.0441    0.0366   -0.0113    0.0058   -0.0124    0.0012   -0.0002   -0.0301
           2    0.0336    0.0185   -0.0241    0.0055   -0.0150   -0.0019    0.0004    0.0452
           3   -0.0129   -0.0052    0.0257    0.0014   -0.0015   -0.0010    0.0001    0.0170
           4    0.0206    0.1042    0.0021   -0.0248    0.0050    0.0008   -0.0000    0.0005
           5   -0.0164   -0.0033   -0.0010   -0.0119   -0.0248    0.0013   -0.0001    0.0001
           6   -0.0006    0.0007    0.0000   -0.0004   -0.0000   -0.0560    0.0029   -0.0024
           7    0.0885   -0.0607    0.0025   -0.0272    0.0099    0.0000    0.0006    0.0001
           8    0.0028    0.0060    0.0011    0.0107    0.0254   -0.0000   -0.0008    0.0000
           9    0.0008   -0.0007    0.0000   -0.0004   -0.0001   -0.0025   -0.0578    0.0003
          10   -0.0506   -0.0954   -0.0002    0.0013    0.0028   -0.0000    0.0000   -0.0001
          11   -0.0172    0.0154    0.0176   -0.0817    0.1861   -0.0000   -0.0000    0.0006
          12    0.0032    0.0017    0.0021    0.0005   -0.0009   -0.0001   -0.0002   -0.0000
          13   -0.0314    0.0375   -0.0026    0.0146   -0.0273    0.0000   -0.0000   -0.0007
          14   -0.0111    0.0073   -0.0167    0.0753   -0.1721    0.0000    0.0001   -0.0004
          15   -0.0007   -0.0003    0.0001   -0.0000    0.0002   -0.0002   -0.0000    0.0000
          16    0.0139   -0.0446   -0.0011    0.0266    0.0093    0.0000   -0.0000   -0.0000
          17    0.0196   -0.0183   -0.0060    0.1748    0.0803   -0.0000   -0.0000   -0.0000
          18    0.0003   -0.0008    0.0000    0.0005    0.0002   -0.0000   -0.0003   -0.0000
          19   -0.0417    0.0373   -0.0012    0.0304    0.0111    0.0000    0.0000    0.0000
          20    0.0084   -0.0217    0.0060   -0.1741   -0.0796    0.0000    0.0001    0.0000
          21   -0.0008    0.0007   -0.0000    0.0006    0.0003   -0.0003   -0.0000   -0.0000
          22   -0.0039   -0.0026    0.0656    0.0043   -0.0054   -0.0001    0.0000   -0.0002
          23   -0.0009    0.0005    0.1998    0.0117   -0.0130   -0.0000   -0.0000   -0.0007
          24    0.0105    0.0033   -0.0620   -0.0039    0.0047    0.0001   -0.0000   -0.0016
          25   -0.0030   -0.0012   -0.0563   -0.0033    0.0036    0.0000   -0.0000   -0.0002
          26   -0.0121   -0.0057   -0.1785   -0.0104    0.0114    0.0000   -0.0000   -0.0000
          27    0.0011    0.0011    0.0245    0.0015   -0.0018   -0.0000    0.0000    0.0003
          28   -0.0257    0.0136    0.0074   -0.0077    0.0205   -0.0135    0.0024    0.3485
          29   -0.0520   -0.0062    0.0056   -0.0146    0.0321    0.0098   -0.0018   -0.2541
          30   -0.0147   -0.0097    0.0114    0.0013   -0.0016   -0.0041    0.0007    0.1031
          31   -0.0741   -0.0575    0.0112    0.0121   -0.0250    0.0001    0.0000    0.0126
          32   -0.0050   -0.0049    0.0305    0.0059   -0.0120    0.0136   -0.0025   -0.2855
          33    0.0111    0.0078   -0.0238   -0.0019    0.0017    0.0143   -0.0026   -0.3067
          34   -0.0303   -0.0902    0.0032   -0.0268    0.0158   -0.0086    0.0004    0.0006
          35    0.0172   -0.0029   -0.0008   -0.0061   -0.0136    0.2546   -0.0122    0.0115
          36   -0.0222   -0.0030    0.0002   -0.0024   -0.0012    0.3402   -0.0166    0.0153
          37   -0.0357   -0.0916    0.0027   -0.0279    0.0161    0.0001   -0.0000    0.0003
          38    0.0181   -0.0016   -0.0007   -0.0066   -0.0150   -0.2701    0.0131   -0.0114
          39    0.0225    0.0005    0.0004    0.0016    0.0009    0.3361   -0.0165    0.0142
          40   -0.0900    0.0563    0.0022   -0.0246    0.0078   -0.0003   -0.0072    0.0001
          41   -0.0013   -0.0019    0.0007    0.0058    0.0149    0.0129    0.2758   -0.0015
          42    0.0003    0.0071    0.0001    0.0014    0.0016    0.0157    0.3425   -0.0020
          43   -0.0881    0.0557    0.0021   -0.0235    0.0076   -0.0000   -0.0000   -0.0000
          44   -0.0012   -0.0022    0.0006    0.0052    0.0139   -0.0126   -0.2670    0.0014
          45   -0.0021   -0.0058    0.0000   -0.0021   -0.0021    0.0165    0.3567   -0.0018
          46    0.0125    0.0075   -0.0028    0.0004   -0.0007   -0.0002    0.0000    0.0024
          47    0.0216    0.0100    0.0205    0.0018   -0.0029   -0.0004    0.0001    0.0147
          48   -0.0079   -0.0048    0.1295    0.0073   -0.0076   -0.0003    0.0002    0.0148
          49   -0.0389   -0.0164    0.0028   -0.0982   -0.0538   -0.0004    0.0001    0.0002
          50   -0.0707    0.0306   -0.0013    0.0180   -0.0008    0.0004   -0.0000   -0.0001
          51   -0.0010   -0.0005    0.0000   -0.0020   -0.0012   -0.0016   -0.0007   -0.0001
          52   -0.0442   -0.0068    0.0098   -0.0369    0.1038    0.0001    0.0005    0.0034
          53   -0.0300   -0.0678   -0.0011    0.0131   -0.0065   -0.0000   -0.0005   -0.0038
          54    0.0030    0.0011   -0.0001    0.0002   -0.0008   -0.0008   -0.0016   -0.0004
          55   -0.0297   -0.0071    0.0027   -0.0980   -0.0532   -0.0001   -0.0004   -0.0000
          56   -0.0141    0.0508    0.0014   -0.0205   -0.0004   -0.0001   -0.0004   -0.0000
          57   -0.0009   -0.0002    0.0000   -0.0019   -0.0012   -0.0008   -0.0016   -0.0000
          58    0.0021   -0.0011    0.0001   -0.0000    0.0001    0.0000   -0.0000   -0.0004
          59    0.0143    0.0048   -0.0278   -0.0018    0.0022    0.0001   -0.0000   -0.0027
          60   -0.0206   -0.0075   -0.1454   -0.0082    0.0087    0.0001   -0.0000   -0.0017
          61    0.0092    0.0039   -0.0101   -0.0007    0.0010    0.0001   -0.0000   -0.0010
          62    0.0237    0.0051   -0.0060   -0.0009    0.0016    0.0000   -0.0000   -0.0009
[...]
 FREQUENCY          1396.16         C  1 -- H 11         +33.0% ( 60.3%)      5.0%
 TRANSITION DIPOLE   0.0710         C  1 -- H 10         +32.9% ( 60.2%)      4.8%
 TRAVEL (Ang.)       0.2907         C  1 -- C  8         +12.1% ( 36.5%)     66.5%
 REDUCED MASS        0.5716         C  1 -- C  4          +8.4% ( 30.5%)     10.1%
 EFFECTIVE MASS      3.0140
 FORCE CONSTANT      0.6565

 VIBRATION         41   41A           ATOM PAIR      ENERGY CONTRIBUTION    RADIAL
 FREQUENCY          1436.52         C  3 -- C  7         +15.7% ( 61.7%)     75.3%
 TRANSITION DIPOLE   0.1565         C  3 -- C  5         +14.1% ( 58.6%)     79.3%
 TRAVEL (Ang.)       0.1481         C  3 -- H 14         +11.5% ( 52.8%)      0.0%
 REDUCED MASS        2.1410         C  3 -- H 15         +11.4% ( 52.6%)      0.0%
 EFFECTIVE MASS     10.0784         C  1 -- C  4         +10.8% ( 51.2%)     97.3%
 FORCE CONSTANT      2.6031

 VIBRATION         42   42A           ATOM PAIR      ENERGY CONTRIBUTION    RADIAL
 FREQUENCY          1494.57         C  2 -- C  4         +20.7% ( 70.7%)     79.8%
 TRANSITION DIPOLE   0.0096         C  2 -- C  6         +12.8% ( 55.5%)     77.8%
 TRAVEL (Ang.)       0.1377         C  1 -- C  4         +10.2% ( 49.6%)     73.8%
 REDUCED MASS        2.3804         C  2 -- H 13          +9.2% ( 47.0%)      0.0%
 EFFECTIVE MASS     10.9419
 FORCE CONSTANT      3.1328

 VIBRATION         43   43A           ATOM PAIR      ENERGY CONTRIBUTION    RADIAL
 FREQUENCY          1858.56         C  8 -- C  9         +45.0% ( 99.0%)     99.0%
 TRANSITION DIPOLE   0.2072         C  1 -- C  8         +16.5% ( 60.0%)     53.4%
 TRAVEL (Ang.)       0.0835         C  8 -- H 16         +15.2% ( 57.6%)      4.1%
 REDUCED MASS        5.2074         C  9 -- H 20         +10.9% ( 48.8%)     11.0%
 EFFECTIVE MASS     11.7992         C  9 -- H 21         +10.7% ( 48.4%)     12.8%
 FORCE CONSTANT     10.5980

 VIBRATION         44   44A           ATOM PAIR      ENERGY CONTRIBUTION    RADIAL
 FREQUENCY          1880.68         C  6 -- C  7         +36.8% ( 89.6%)    100.0%
 TRANSITION DIPOLE   0.1601         C  3 -- C  7         +11.9% ( 50.9%)     58.0%
 TRAVEL (Ang.)       0.0959         C  2 -- C  6         +11.8% ( 50.9%)     57.4%
 REDUCED MASS        3.9025         C  6 -- H 17         +10.9% ( 48.7%)      4.5%
 EFFECTIVE MASS     11.8769         C  7 -- H 19         +10.8% ( 48.6%)      4.6%
 FORCE CONSTANT      8.1325

 VIBRATION         45   45A           ATOM PAIR      ENERGY CONTRIBUTION    RADIAL
 FREQUENCY          1905.34         C  4 -- C  5         +36.4% ( 88.6%)     99.2%
 TRANSITION DIPOLE   0.0486         C  2 -- C  4         +12.4% ( 51.7%)     29.2%
 TRAVEL (Ang.)       0.0946         C  1 -- C  4         +12.3% ( 51.5%)     35.0%
 REDUCED MASS        3.9586         C  3 -- C  5         +11.0% ( 48.6%)     48.8%
 EFFECTIVE MASS     11.8660         C  5 -- H 18         +10.1% ( 46.8%)      4.2%
 FORCE CONSTANT      8.4672

 VIBRATION         46   46A           ATOM PAIR      ENERGY CONTRIBUTION    RADIAL
 FREQUENCY          2925.78         C  2 -- H 13         +49.4% ( 72.9%)     96.6%
 TRANSITION DIPOLE   0.0516         C  2 -- H 12         +48.1% ( 71.9%)     96.4%
 TRAVEL (Ang.)       0.2118         C  2 -- C  6          +1.1% ( 10.8%)      0.0%
 REDUCED MASS        0.5136         C  2 -- C  4          +1.1% ( 10.8%)      0.0%
 EFFECTIVE MASS      1.5356
 FORCE CONSTANT      2.5902

 VIBRATION         47   47A           ATOM PAIR      ENERGY CONTRIBUTION    RADIAL
 FREQUENCY          2929.62         C  3 -- H 15         +49.4% ( 72.9%)     96.6%
 TRANSITION DIPOLE   0.0213         C  3 -- H 14         +48.2% ( 72.0%)     96.5%
 TRAVEL (Ang.)       0.2113         C  3 -- C  7          +1.1% ( 10.8%)      0.0%
 REDUCED MASS        0.5153         C  3 -- C  5          +1.1% ( 10.8%)      0.0%
 EFFECTIVE MASS      1.5352
 FORCE CONSTANT      2.6057

 VIBRATION         48   48A           ATOM PAIR      ENERGY CONTRIBUTION    RADIAL
 FREQUENCY          2936.32         C  1 -- H 10         +51.2% ( 74.3%)     96.8%
 TRANSITION DIPOLE   0.0511         C  1 -- H 11         +46.1% ( 70.6%)     96.2%
 TRAVEL (Ang.)       0.2107         C  1 -- C  8          +1.2% ( 11.3%)      0.2%
 REDUCED MASS        0.5175         C  1 -- C  4          +1.2% ( 11.3%)      0.1%
 EFFECTIVE MASS      1.5496
 FORCE CONSTANT      2.6288

 VIBRATION         49   49A           ATOM PAIR      ENERGY CONTRIBUTION    RADIAL
 FREQUENCY          3002.80         C  2 -- H 12         +49.2% ( 69.2%)     97.8%
 TRANSITION DIPOLE   0.0923         C  2 -- H 13         +47.8% ( 68.2%)     97.6%
 TRAVEL (Ang.)       0.2189         C  2 -- C  6          +0.7% (  8.0%)     21.9%
 REDUCED MASS        0.4686         C  2 -- C  4          +0.7% (  8.0%)     28.1%
 EFFECTIVE MASS      1.2797
 FORCE CONSTANT      2.4897

 VIBRATION         50   50A           ATOM PAIR      ENERGY CONTRIBUTION    RADIAL
 FREQUENCY          3007.65         C  3 -- H 14         +48.6% ( 68.8%)     97.8%
 TRANSITION DIPOLE   0.0786         C  3 -- H 15         +47.4% ( 67.9%)     97.7%
 TRAVEL (Ang.)       0.2205         C  5 -- H 18          +1.2% ( 10.9%)     99.9%
 REDUCED MASS        0.4609         C  3 -- C  5          +0.7% (  8.1%)     18.9%
 EFFECTIVE MASS      1.2843
 FORCE CONSTANT      2.4566

 VIBRATION         51   51A           ATOM PAIR      ENERGY CONTRIBUTION    RADIAL
 FREQUENCY          3012.59         C  1 -- H 11         +51.5% ( 70.7%)     97.9%
 TRANSITION DIPOLE   0.0578         C  1 -- H 10         +46.3% ( 67.1%)     97.3%
 TRAVEL (Ang.)       0.2168         C  1 -- C  8          +0.6% (  7.9%)     29.8%
 REDUCED MASS        0.4762         C  1 -- C  4          +0.6% (  7.8%)     31.3%
 EFFECTIVE MASS      1.2773
 FORCE CONSTANT      2.5466

 VIBRATION         52   52A           ATOM PAIR      ENERGY CONTRIBUTION    RADIAL
 FREQUENCY          3045.03         C  5 -- H 18         +83.9% ( 92.9%)    100.0%
 TRANSITION DIPOLE   0.2008         C  7 -- H 19          +7.4% ( 27.5%)    100.0%
 TRAVEL (Ang.)       0.1777         C  6 -- H 17          +4.6% ( 21.8%)    100.0%
 REDUCED MASS        0.7014         C  4 -- C  5          +1.3% ( 11.8%)     39.1%
 EFFECTIVE MASS      1.5070
 FORCE CONSTANT      3.8316

 VIBRATION         53   53A           ATOM PAIR      ENERGY CONTRIBUTION    RADIAL
 FREQUENCY          3046.42         C  8 -- H 16         +91.7% ( 97.1%)    100.0%
 TRANSITION DIPOLE   0.2010         C  6 -- H 17          +2.3% ( 15.4%)    100.0%
 TRAVEL (Ang.)       0.1635         C  7 -- H 19          +1.9% ( 14.0%)    100.0%
 REDUCED MASS        0.8280         C  8 -- C  9          +1.3% ( 11.7%)     30.6%
 EFFECTIVE MASS      1.4979
 FORCE CONSTANT      4.5274

 VIBRATION         54   54A           ATOM PAIR      ENERGY CONTRIBUTION    RADIAL
 FREQUENCY          3046.66         C  6 -- H 17         +46.2% ( 69.0%)    100.0%
 TRANSITION DIPOLE   0.3777         C  7 -- H 19         +35.1% ( 60.1%)    100.0%
 TRAVEL (Ang.)       0.2540         C  5 -- H 18         +11.6% ( 34.5%)    100.0%
 REDUCED MASS        0.3429         C  8 -- H 16          +3.7% ( 19.6%)    100.0%
 EFFECTIVE MASS      1.4685
 FORCE CONSTANT      1.8754

 VIBRATION         55   55A           ATOM PAIR      ENERGY CONTRIBUTION    RADIAL
 FREQUENCY          3066.74         C  7 -- H 19         +52.1% ( 73.2%)     99.9%
 TRANSITION DIPOLE   0.2738         C  6 -- H 17         +43.3% ( 66.8%)     99.9%
 TRAVEL (Ang.)       0.2185         C  6 -- C  7          +2.0% ( 14.5%)     99.7%
 REDUCED MASS        0.4603         C  3 -- C  7          +0.9% (  9.4%)     14.7%
 EFFECTIVE MASS      1.5904
 FORCE CONSTANT      2.5509

 VIBRATION         56   56A           ATOM PAIR      ENERGY CONTRIBUTION    RADIAL
 FREQUENCY          3135.21         C  9 -- H 20         +91.7% ( 97.5%)     99.9%
 TRANSITION DIPOLE   0.1995         C  9 -- H 21          +6.9% ( 26.8%)     71.8%
 TRAVEL (Ang.)       0.1589         C  8 -- C  9          +1.3% ( 11.7%)     21.9%
 REDUCED MASS        0.8520
 EFFECTIVE MASS      1.5382
 FORCE CONSTANT      4.9343

 VIBRATION         57   57A           ATOM PAIR      ENERGY CONTRIBUTION    RADIAL
 FREQUENCY          3147.66         C  9 -- H 21         +91.6% ( 96.4%)     99.7%
 TRANSITION DIPOLE   0.2704         C  9 -- H 20          +5.9% ( 24.5%)     42.1%
 TRAVEL (Ang.)       0.1621         C  8 -- C  9          +1.6% ( 12.7%)     73.8%
 REDUCED MASS        0.8157         C  8 -- H 16          +0.8% (  9.2%)     95.2%
 EFFECTIVE MASS      1.4653
 FORCE CONSTANT      4.7614

      SYMMETRY NUMBER FOR POINT-GROUP C1  =  1


          SYSTEM IS A GROUND STATE



 InChI=1S/C9H12/c1-2-6-9-7-4-3-5-8-9/h2-4,8H,1,5-7H2


          MOLECULE IS NOT LINEAR

          THERE ARE 57 GENUINE VIBRATIONS IN THIS SYSTEM
          THIS THERMODYNAMICS CALCULATION IS LIMITED TO
          MOLECULES WHICH HAVE NO INTERNAL ROTATIONS




                    CALCULATED THERMODYNAMIC PROPERTIES
                                          *
   TEMP. (K)   PARTITION FUNCTION   H.O.F.    ENTHALPY  HEAT CAPACITY ENTROPY
                                   KCAL/MOL   CAL/MOLE    CAL/K/MOL  CAL/K/MOL


 298.00  VIB.     0.1308D+04                  3981.8990    28.0663    27.6222
         ROT.     0.5031D+06                   888.2803     2.9808    29.0701
         INT.     0.6579D+09                  4870.1793    31.0471    56.6923
         TRA.     0.1274D+28                  1480.4672     4.9680    40.2640
         TOT.                       30.407    6350.6464    36.0151    96.9564

 200.00  VIB.     0.1459D+03                  1786.5068    17.0743    18.8345
         ROT.     0.2766D+06                   596.1613     2.9808    27.8814
         INT.     0.4036D+08                  2382.6681    20.0551    46.7159
         TRA.     0.7004D+27                   993.6021     4.9680    38.2829
         TOT.                       27.432    3376.2702    25.0231    84.9988

 210.00  VIB.     0.1826D+03                  1962.2737    18.0847    19.6918
         ROT.     0.2976D+06                   625.9693     2.9808    28.0269
         INT.     0.5434D+08                  2588.2431    21.0655    47.7187
         TRA.     0.7536D+27                  1043.2822     4.9680    38.5253
         TOT.                       27.688    3631.5253    26.0335    86.2440

 220.00  VIB.     0.2283D+03                  2148.3112    19.1281    20.5571
         ROT.     0.3192D+06                   655.7774     2.9808    28.1655
         INT.     0.7287D+08                  2804.0886    22.1089    48.7226
         TRA.     0.8081D+27                  1092.9623     4.9680    38.7564
         TOT.                       27.953    3897.0510    27.0769    87.4790

 230.00  VIB.     0.2854D+03                  2344.9382    20.2022    21.4310
         ROT.     0.3412D+06                   685.5855     2.9808    28.2980
         INT.     0.9738D+08                  3030.5236    23.1830    49.7290
         TRA.     0.8638D+27                  1142.6424     4.9680    38.9773
         TOT.                       28.229    4173.1661    28.1510    88.7062

 240.00  VIB.     0.3567D+03                  2552.4477    21.3041    22.3139
         ROT.     0.3637D+06                   715.3935     2.9808    28.4249
         INT.     0.1297D+09                  3267.8412    24.2849    50.7388
         TRA.     0.9207D+27                  1192.3226     4.9680    39.1887
         TOT.                       28.516    4460.1637    29.2529    89.9275

 250.00  VIB.     0.4459D+03                  2771.1022    22.4306    23.2064
         ROT.     0.3866D+06                   745.2016     2.9808    28.5466
         INT.     0.1724D+09                  3516.3038    25.4114    51.7530
         TRA.     0.9789D+27                  1242.0027     4.9680    39.3915
         TOT.                       28.814    4758.3065    30.3794    91.1445

 260.00  VIB.     0.5574D+03                  3001.1303    23.5782    24.1084
         ROT.     0.4100D+06                   775.0097     2.9808    28.6635
         INT.     0.2286D+09                  3776.1399    26.5590    52.7719
         TRA.     0.1038D+28                  1291.6828     4.9680    39.5863
         TOT.                       29.124    5067.8227    31.5270    92.3583

 270.00  VIB.     0.6971D+03                  3242.7242    24.7432    25.0201
         ROT.     0.4339D+06                   804.8177     2.9808    28.7760
         INT.     0.3025D+09                  4047.5419    27.7240    53.7960
         TRA.     0.1099D+28                  1341.3629     4.9680    39.7738
         TOT.                       29.445    5388.9048    32.6920    93.5699

 280.00  VIB.     0.8722D+03                  3496.0393    25.9218    25.9412
         ROT.     0.4583D+06                   834.6258     2.9808    28.8844
         INT.     0.3997D+09                  4330.6651    28.9026    54.8256
         TRA.     0.1160D+28                  1391.0430     4.9680    39.9545
         TOT.                       29.778    5721.7080    33.8706    94.7801

 290.00  VIB.     0.1092D+04                  3761.1940    27.1105    26.8715
         ROT.     0.4830D+06                   864.4339     2.9808    28.9890
         INT.     0.5274D+09                  4625.6278    30.0913    55.8605
         TRA.     0.1223D+28                  1440.7231     4.9680    40.1289
         TOT.                       30.122    6066.3509    35.0593    95.9894

 300.00  VIB.     0.1368D+04                  4038.2709    28.3057    27.8107
         ROT.     0.5082D+06                   894.2419     2.9808    29.0900
         INT.     0.6953D+09                  4932.5128    31.2865    56.9008
         TRA.     0.1287D+28                  1490.4032     4.9680    40.2973
         TOT.                       30.479    6422.9160    36.2545    97.1981

 310.00  VIB.     0.1715D+04                  4327.3184    29.5041    28.7584
         ROT.     0.5338D+06                   924.0500     2.9808    29.1878
         INT.     0.9157D+09                  5251.3683    32.4849    57.9462
         TRA.     0.1352D+28                  1540.0833     4.9680    40.4602
         TOT.                       30.847    6791.4516    37.4529    98.4064

 320.00  VIB.     0.2152D+04                  4628.3524    30.7025    29.7141
         ROT.     0.5599D+06                   953.8580     2.9808    29.2824
         INT.     0.1205D+10                  5582.2104    33.6833    58.9965
         TRA.     0.1418D+28                  1589.7634     4.9680    40.6179
         TOT.                       31.228    7171.9738    38.6513    99.6144

 330.00  VIB.     0.2703D+04                  4941.3592    31.8982    30.6771
         ROT.     0.5863D+06                   983.6661     2.9808    29.3741
         INT.     0.1585D+10                  5925.0253    34.8790    60.0513
         TRA.     0.1485D+28                  1639.4435     4.9680    40.7708
         TOT.                       31.620    7564.4688    39.8470   100.8221

 340.00  VIB.     0.3398D+04                  5266.2979    33.0885    31.6471
         ROT.     0.6132D+06                  1013.4742     2.9808    29.4631
         INT.     0.2084D+10                  6279.7721    36.0693    61.1102
         TRA.     0.1553D+28                  1689.1236     4.9680    40.9191
         TOT.                       32.025    7968.8957    41.0373   102.0293

 350.00  VIB.     0.4276D+04                  5603.1030    34.2711    32.6233
         ROT.     0.6404D+06                  1043.2822     2.9808    29.5495
         INT.     0.2738D+10                  6646.3852    37.2519    62.1729
         TRA.     0.1622D+28                  1738.8037     4.9680    41.0631
         TOT.                       32.441    8385.1889    42.2199   103.2360

 360.00  VIB.     0.5385D+04                  5951.6871    35.4440    33.6052
         ROT.     0.6681D+06                  1073.0903     2.9808    29.6335
         INT.     0.3598D+10                  7024.7774    38.4248    63.2387
         TRA.     0.1692D+28                  1788.4838     4.9680    41.2031
         TOT.                       32.869    8813.2612    43.3928   104.4418

 370.00  VIB.     0.6788D+04                  6311.9437    36.6053    34.5922
         ROT.     0.6961D+06                  1102.8984     2.9808    29.7152
         INT.     0.4725D+10                  7414.8421    39.5861    64.3074
         TRA.     0.1762D+28                  1838.1639     4.9680    41.3392
         TOT.                       33.309    9253.0060    44.5541   105.6466

 380.00  VIB.     0.8564D+04                  6683.7497    37.7536    35.5837
         ROT.     0.7245D+06                  1132.7064     2.9808    29.7947
         INT.     0.6205D+10                  7816.4561    40.7344    65.3784
         TRA.     0.1834D+28                  1887.8440     4.9680    41.4717
         TOT.                       33.760    9704.3002    45.7024   106.8500

 390.00  VIB.     0.1082D+05                  7066.9677    38.8875    36.5791
         ROT.     0.7533D+06                  1162.5145     2.9808    29.8721
         INT.     0.8147D+10                  8229.4822    41.8683    66.4512
         TRA.     0.1907D+28                  1937.5242     4.9680    41.6007
         TOT.                       34.223   10167.0063    46.8363   108.0519

 400.00  VIB.     0.1367D+05                  7461.4483    40.0060    37.5777
         ROT.     0.7825D+06                  1192.3226     2.9808    29.9476
         INT.     0.1070D+11                  8653.7709    42.9868    67.5253
         TRA.     0.1981D+28                  1987.2043     4.9680    41.7265
         TOT.                       34.697   10640.9752    47.9548   109.2518

   *: NOTE: HEATS OF FORMATION ARE RELATIVE TO THE
            ELEMENTS IN THEIR STANDARD STATE AT 298K
              (=  Standard Enthalpy of Formation).

            Hvib:  Zero-point energy is not included.
                   frequencies of less than zero cm-1 are not included.
            Hrot = (3/2)RT
            Htra = (3/2)RT + pV = (5/2)RT

            Heat capacity is Cp, not Cv

          For more information, see: HTTP://OpenMOPAC.net/Manual/thermochemistry.html


           FORCE CONSTANT IN CARTESIAN COORDINATES (Millidynes/A)

    ATOM   CHEMICAL       X               Y               Z
   NUMBER   SYMBOL  FORCE CONSTANT  FORCE CONSTANT  FORCE CONSTANT

      1       C        8.586519        8.668030        8.566077
      2       C        9.468304        8.964607        7.653709
      3       C        9.455013        9.027506        7.647057
      4       C        9.692181       15.439045        2.884202
      5       C        9.742953       15.326726        2.346843
      6       C        9.583533       15.404476        2.358536
      7       C        9.603559       15.391247        2.353866
      8       C        3.666343       14.215188        9.111344
      9       C        3.153527       14.174462        9.123725
     10       H        3.255766        2.191234        0.815081
     11       H        0.716095        2.753548        2.852140
     12       H        0.687230        1.982412        3.505590
     13       H        0.666414        2.122831        3.363735
     14       H        0.674119        2.127635        3.376656
     15       H        0.667326        1.989774        3.512876
     16       H        0.475648        2.239811        3.501217
     17       H        4.042134        1.853348        0.350233
     18       H        3.999577        1.882322        0.345781
     19       H        3.955948        1.945495        0.349626
     20       H        0.469528        2.496281        3.492708
     21       H        0.520801        1.421141        4.531668

 **********************
 *                    *
 * JOB ENDED NORMALLY *
 *                    *
 **********************



 TOTAL JOB TIME:             4.27 SECONDS

 == MOPAC DONE ==
