 *******************************************************************************
 **                                                                           **
 **                              MOPAC v23.1.2                                **
 **                                                                           **
 *******************************************************************************
 **          Digital Object Identifier (DOI): 10.5281/zenodo.6511958          **
 **    Visit the DOI location for information on how to cite this program.    **
 *******************************************************************************

                              PM3 CALCULATION RESULTS

 *******************************************************************************
 *  CALCULATION DONE: (MAX THREADS = 1)              Tue Jun  3 16:29:47 2025  *
 *  PM3        - The PM3 Hamiltonian to be used
 *  PRECISE    - TIGHTER CRITERIA TO BE USED
 *  NOSYM      - POINT-GROUP SYMMETRY SET TO C1
 *  THREADS=1  - MULTI-THREADING NOT USED
 *  T=         - A TIME OF 172800.0 SECONDS REQUESTED
 *  DUMP=N     - RESTART FILE WRITTEN EVERY 7200.0 SECONDS REQUESTED
 *******************************************************************************
pm3  precise nosym THREADS=1
 InChI=1S/C9H8/c1-2-5-9-7-3-6-8(9)4-1/h1-8H

   ATOM   CHEMICAL          X               Y               Z
  NUMBER   SYMBOL      (ANGSTROMS)     (ANGSTROMS)     (ANGSTROMS)

     1       C         -0.46810000  *   0.62450000  *  -0.60210000  *
     2       C         -0.01350000  *  -0.79010000  *  -0.45070000  *
     3       C          0.35540000  *   1.53590000  *   0.27380000  *
     4       C         -1.90050000  *   0.50550000  *  -0.19700000  *
     5       C          1.39860000  *  -1.10200000  *  -0.20590000  *
     6       C         -1.02500000  *  -1.59040000  *  -0.15650000  *
     7       C          1.61880000  *   1.21010000  *   0.60130000  *
     8       C         -2.21730000  *  -0.76890000  *  -0.00810000  *
     9       C          2.18030000  *  -0.12900000  *   0.27970000  *
    10       H         -0.39240000  *   0.94260000  *  -1.66390000  *
    11       H         -0.02450000  *   2.51830000  *   0.52550000  *
    12       H         -2.60310000  *   1.32570000  *  -0.12820000  *
    13       H          3.21570000  *  -0.33990000  *   0.51380000  *
    14       H          2.23080000  *   1.92100000  *   1.14130000  *
    15       H          1.77980000  *  -2.10730000  *  -0.33410000  *
    16       H         -0.93820000  *  -2.63030000  *   0.13090000  *
    17       H         -3.19710000  *  -1.12570000  *   0.28020000  *



          CARTESIAN COORDINATES 

    NO.       ATOM           X           Y           Z

     1         C         -0.4681      0.6245     -0.6021
     2         C         -0.0135     -0.7901     -0.4507
     3         C          0.3554      1.5359      0.2738
     4         C         -1.9005      0.5055     -0.1970
     5         C          1.3986     -1.1020     -0.2059
     6         C         -1.0250     -1.5904     -0.1565
     7         C          1.6188      1.2101      0.6013
     8         C         -2.2173     -0.7689     -0.0081
     9         C          2.1803     -0.1290      0.2797
    10         H         -0.3924      0.9426     -1.6639
    11         H         -0.0245      2.5183      0.5255
    12         H         -2.6031      1.3257     -0.1282
    13         H          3.2157     -0.3399      0.5138
    14         H          2.2308      1.9210      1.1413
    15         H          1.7798     -2.1073     -0.3341
    16         H         -0.9382     -2.6303      0.1309
    17         H         -3.1971     -1.1257      0.2802

  H: (PM3): J. J. P. STEWART, J. COMP. CHEM. 10, 209 (1989).
  C: (PM3): J. J. P. STEWART, J. COMP. CHEM. 10, 209 (1989).

           Empirical Formula: C9 H8  =    17 atoms



      MOLECULAR POINT GROUP   :   C1  


      RHF CALCULATION, NO. OF DOUBLY OCCUPIED LEVELS = 22


          Geometry optimization using EF

          DIAGONAL MATRIX USED AS START HESSIAN

 CYCLE:     1 TIME:   0.008 TIME LEFT:  2.00D  GRAD.:   136.504 HEAT:  75.18728
 CYCLE:     2 TIME:   0.012 TIME LEFT:  2.00D  GRAD.:    52.773 HEAT:  72.03180
 CYCLE:     3 TIME:   0.008 TIME LEFT:  2.00D  GRAD.:    85.967 HEAT:  71.87856
 CYCLE:     4 TIME:   0.004 TIME LEFT:  2.00D  GRAD.:    41.093 HEAT:  70.25485
 CYCLE:     5 TIME:   0.012 TIME LEFT:  2.00D  GRAD.:    29.157 HEAT:  69.90543
 CYCLE:     6 TIME:   0.004 TIME LEFT:  2.00D  GRAD.:    20.192 HEAT:  69.61454
 CYCLE:     7 TIME:   0.008 TIME LEFT:  2.00D  GRAD.:    29.272 HEAT:  69.46853
 CYCLE:     8 TIME:   0.004 TIME LEFT:  2.00D  GRAD.:    18.528 HEAT:  69.14058
 CYCLE:     9 TIME:   0.008 TIME LEFT:  2.00D  GRAD.:    39.190 HEAT:  69.11184
 CYCLE:    10 TIME:   0.004 TIME LEFT:  2.00D  GRAD.:    32.666 HEAT:  68.94325
 CYCLE:    11 TIME:   0.008 TIME LEFT:  2.00D  GRAD.:    22.884 HEAT:  68.76576
 CYCLE:    12 TIME:   0.004 TIME LEFT:  2.00D  GRAD.:    27.691 HEAT:  68.74634
 CYCLE:    13 TIME:   0.008 TIME LEFT:  2.00D  GRAD.:    20.146 HEAT:  68.62636
 CYCLE:    14 TIME:   0.004 TIME LEFT:  2.00D  GRAD.:    19.513 HEAT:  68.56932
 CYCLE:    15 TIME:   0.004 TIME LEFT:  2.00D  GRAD.:    12.735 HEAT:  68.44967
 CYCLE:    16 TIME:   0.012 TIME LEFT:  2.00D  GRAD.:    17.013 HEAT:  68.43441
 CYCLE:    17 TIME:   0.004 TIME LEFT:  2.00D  GRAD.:     7.226 HEAT:  68.34696
 CYCLE:    18 TIME:   0.008 TIME LEFT:  2.00D  GRAD.:     8.149 HEAT:  68.28988
 CYCLE:    19 TIME:   0.004 TIME LEFT:  2.00D  GRAD.:     7.439 HEAT:  68.22976
 CYCLE:    20 TIME:   0.004 TIME LEFT:  2.00D  GRAD.:     5.595 HEAT:  68.20283
 CYCLE:    21 TIME:   0.008 TIME LEFT:  2.00D  GRAD.:     4.665 HEAT:  68.18399
 CYCLE:    22 TIME:   0.004 TIME LEFT:  2.00D  GRAD.:     4.168 HEAT:  68.16768
 CYCLE:    23 TIME:   0.004 TIME LEFT:  2.00D  GRAD.:     3.651 HEAT:  68.15513
 CYCLE:    24 TIME:   0.008 TIME LEFT:  2.00D  GRAD.:     3.302 HEAT:  68.14958
 CYCLE:    25 TIME:   0.004 TIME LEFT:  2.00D  GRAD.:     2.596 HEAT:  68.14430
 CYCLE:    26 TIME:   0.008 TIME LEFT:  2.00D  GRAD.:     2.499 HEAT:  68.13764
 CYCLE:    27 TIME:   0.004 TIME LEFT:  2.00D  GRAD.:     1.556 HEAT:  68.13016
 CYCLE:    28 TIME:   0.004 TIME LEFT:  2.00D  GRAD.:     1.417 HEAT:  68.12761
 CYCLE:    29 TIME:   0.008 TIME LEFT:  2.00D  GRAD.:     0.969 HEAT:  68.12548
 CYCLE:    30 TIME:   0.004 TIME LEFT:  2.00D  GRAD.:     0.729 HEAT:  68.12407
 CYCLE:    31 TIME:   0.004 TIME LEFT:  2.00D  GRAD.:     0.401 HEAT:  68.12350
 CYCLE:    32 TIME:   0.008 TIME LEFT:  2.00D  GRAD.:     0.268 HEAT:  68.12334
 CYCLE:    33 TIME:   0.004 TIME LEFT:  2.00D  GRAD.:     0.191 HEAT:  68.12325
 CYCLE:    34 TIME:   0.004 TIME LEFT:  2.00D  GRAD.:     0.163 HEAT:  68.12320
 CYCLE:    35 TIME:   0.008 TIME LEFT:  2.00D  GRAD.:     0.174 HEAT:  68.12314
 CYCLE:    36 TIME:   0.004 TIME LEFT:  2.00D  GRAD.:     0.134 HEAT:  68.12310
 CYCLE:    37 TIME:   0.004 TIME LEFT:  2.00D  GRAD.:     0.098 HEAT:  68.12307
 CYCLE:    38 TIME:   0.008 TIME LEFT:  2.00D  GRAD.:     0.099 HEAT:  68.12305
 CYCLE:    39 TIME:   0.004 TIME LEFT:  2.00D  GRAD.:     0.062 HEAT:  68.12304
 CYCLE:    40 TIME:   0.004 TIME LEFT:  2.00D  GRAD.:     0.056 HEAT:  68.12303
 CYCLE:    41 TIME:   0.008 TIME LEFT:  2.00D  GRAD.:     0.035 HEAT:  68.12303

     GRADIENT =  0.03534 IS LESS THAN CUTOFF =  0.05000



 -------------------------------------------------------------------------------
 pm3  precise nosym THREADS=1
 InChI=1S/C9H8/c1-2-5-9-7-3-6-8(9)4-1/h1-8H



     GEOMETRY OPTIMISED USING EIGENVECTOR FOLLOWING (EF).     
     SCF FIELD WAS ACHIEVED                                   


                              PM3 CALCULATION
                                                       MOPAC v23.1.2 MacOS
                                                       Tue Jun  3 16:29:48 2025




          FINAL HEAT OF FORMATION =         68.12303 KCAL/MOL =     285.02674 KJ/MOL


          COSMO AREA              =        155.38 SQUARE ANGSTROMS
          COSMO VOLUME            =        153.09 CUBIC ANGSTROMS

          GRADIENT NORM           =          0.03534          =       0.00857 PER ATOM
          IONIZATION POTENTIAL    =          8.522229 EV
          HOMO LUMO ENERGIES (EV) =         -8.522 -0.446
          NO. OF FILLED LEVELS    =         22
          MOLECULAR WEIGHT        =        116.1622         POINT GROUP:  C1  

          MOLECULAR DIMENSIONS (Angstroms)

            Atom       Atom       Distance
            H    17    H    13     6.62800
            H    16    H    11     5.03601
            H    10    H    14     2.51829


          SCF CALCULATIONS        =         48

          WALL-CLOCK TIME         =      0.254 SECONDS
          COMPUTATION TIME        =      0.157 SECONDS




   ATOM   CHEMICAL          X               Y               Z
  NUMBER   SYMBOL      (ANGSTROMS)     (ANGSTROMS)     (ANGSTROMS)

     1       C         -0.45348133  *   0.60623163  *  -0.50702184  *
     2       C          0.00229693  *  -0.82459880  *  -0.31997071  *
     3       C          0.38815344  *   1.55036148  *   0.27053957  *
     4       C         -1.92768137  *   0.51641257  *  -0.21708958  *
     5       C          1.41599453  *  -1.08308640  *  -0.19474693  *
     6       C         -1.07607465  *  -1.62444623  *  -0.11993003  *
     7       C          1.65216764  *   1.21825573  *   0.58196394  *
     8       C         -2.27244886  *  -0.78345964  *  -0.05933625  *
     9       C          2.20604750  *  -0.08289117  *   0.24435346  *
    10       H         -0.35211392  *   0.88603529  *  -1.58781040  *
    11       H         -0.04857440  *   2.51822735  *   0.53402333  *
    12       H         -2.57510359  *   1.38996847  *  -0.19467889  *
    13       H          3.28225005  *  -0.22650653  *   0.38289767  *
    14       H          2.30565546  *   1.91856792  *   1.11238590  *
    15       H          1.79381550  *  -2.08646681  *  -0.41175093  *
    16       H         -1.08581650  *  -2.70311624  *   0.02212497  *
    17       H         -3.27077030  *  -1.18257172  *   0.11030562  *

                             CARTESIAN COORDINATES

   1    C       -0.453481334     0.606231633    -0.507021840
   2    C        0.002296929    -0.824598805    -0.319970715
   3    C        0.388153444     1.550361479     0.270539572
   4    C       -1.927681372     0.516412567    -0.217089578
   5    C        1.415994525    -1.083086399    -0.194746930
   6    C       -1.076074652    -1.624446233    -0.119930026
   7    C        1.652167638     1.218255734     0.581963936
   8    C       -2.272448862    -0.783459640    -0.059336246
   9    C        2.206047496    -0.082891166     0.244353464
  10    H       -0.352113919     0.886035286    -1.587810396
  11    H       -0.048574405     2.518227347     0.534023334
  12    H       -2.575103586     1.389968472    -0.194678888
  13    H        3.282250046    -0.226506526     0.382897668
  14    H        2.305655460     1.918567916     1.112385896
  15    H        1.793815500    -2.086466806    -0.411750927
  16    H       -1.085816503    -2.703116244     0.022124967
  17    H       -3.270770297    -1.182571717     0.110305619


           Empirical Formula: C9 H8  =    17 atoms



      MOLECULAR POINT GROUP   :   C1  


                  EIGENVALUES  
 -41.28634 -34.80021 -30.61128 -26.75481 -25.71912 -21.37850 -19.96690 -19.35509
 -17.71990 -16.88850 -16.01157 -15.12023 -14.83781 -14.23302 -13.68592 -13.18812
 -12.90700 -12.21293 -11.64740 -11.15935  -9.73877  -8.52223  -0.44631   0.69503
   1.73850   2.29282   3.14875   3.18847   3.33223   3.46789   3.55674   3.79218
   4.03857   4.11053   4.19797   4.28271   4.59027   4.88045   5.33924   5.42924
   5.61085   5.93405   6.17765   6.25592


              NET ATOMIC CHARGES AND DIPOLE CONTRIBUTIONS

  ATOM NO.   TYPE          CHARGE      No. of ELECS.   s-Pop       p-Pop       
    1          C          -0.003754        4.0038     1.14849     2.85526
    2          C          -0.106274        4.1063     1.19291     2.91337
    3          C          -0.103326        4.1033     1.18982     2.91351
    4          C          -0.148207        4.1482     1.20626     2.94194
    5          C          -0.071554        4.0716     1.17222     2.89934
    6          C          -0.102085        4.1021     1.18830     2.91379
    7          C          -0.117129        4.1171     1.18032     2.93681
    8          C          -0.115470        4.1155     1.19193     2.92354
    9          C          -0.101469        4.1015     1.18203     2.91943
   10          H           0.105292        0.8947     0.89471
   11          H           0.105285        0.8947     0.89472
   12          H           0.117272        0.8827     0.88273
   13          H           0.101500        0.8985     0.89850
   14          H           0.102249        0.8978     0.89775
   15          H           0.106670        0.8933     0.89333
   16          H           0.117033        0.8830     0.88297
   17          H           0.113968        0.8860     0.88603
 DIPOLE           X         Y         Z       TOTAL
 POINT-CHG.     0.081     0.332    -0.143     0.370
 HYBRID        -0.035     0.019    -0.123     0.129
 SUM            0.046     0.351    -0.266     0.442


          ATOMIC ORBITAL ELECTRON POPULATIONS

     Atom    s        px        py        pz   
    1  C   1.14849   0.92919   0.93640   0.98967
    2  C   1.19291   0.94327   0.95689   1.01321
    3  C   1.18982   0.95367   0.98279   0.97704
    4  C   1.20626   0.96008   0.97327   1.00859
    5  C   1.17222   0.92504   0.97897   0.99533
    6  C   1.18830   0.93079   0.97672   1.00627
    7  C   1.18032   0.96158   0.96493   1.01030
    8  C   1.19193   0.97128   0.94413   1.00813
    9  C   1.18203   0.98114   0.94104   0.99726
   10  H   0.89471
   11  H   0.89472
   12  H   0.88273
   13  H   0.89850
   14  H   0.89775
   15  H   0.89333
   16  H   0.88297
   17  H   0.88603
 *******************************************************************************
 **                                                                           **
 **                              MOPAC v23.1.2                                **
 **                                                                           **
 *******************************************************************************
 **          Digital Object Identifier (DOI): 10.5281/zenodo.6511958          **
 **    Visit the DOI location for information on how to cite this program.    **
 *******************************************************************************

                              PM3 CALCULATION RESULTS

 *******************************************************************************
 *  CALCULATION DONE: (MAX THREADS = 1)              Tue Jun  3 16:29:48 2025  *
 *  PM3        - The PM3 Hamiltonian to be used
 *  OLDGEO     - PREVIOUS GEOMETRY TO BE USED
 *  PRECISE    - TIGHTER CRITERIA TO BE USED
 *  NOSYM      - POINT-GROUP SYMMETRY SET TO C1
 *  THREADS=1  - MULTI-THREADING NOT USED
 *  T=         - A TIME OF 172800.0 SECONDS REQUESTED
 *  DUMP=N     - RESTART FILE WRITTEN EVERY 7200.0 SECONDS REQUESTED
 *  THERMO     - THERMODYNAMIC QUANTITIES TO BE CALCULATED
 *******************************************************************************
oldgeo thermo nosym precise THREADS=1  pm3
 InChI=1S/C9H8/c1-2-5-9-7-3-6-8(9)4-1/h1-8H

   ATOM   CHEMICAL          X               Y               Z
  NUMBER   SYMBOL      (ANGSTROMS)     (ANGSTROMS)     (ANGSTROMS)

     1       C         -0.45348133  *   0.60623163  *  -0.50702184  *
     2       C          0.00229693  *  -0.82459880  *  -0.31997071  *
     3       C          0.38815344  *   1.55036148  *   0.27053957  *
     4       C         -1.92768137  *   0.51641257  *  -0.21708958  *
     5       C          1.41599453  *  -1.08308640  *  -0.19474693  *
     6       C         -1.07607465  *  -1.62444623  *  -0.11993003  *
     7       C          1.65216764  *   1.21825573  *   0.58196394  *
     8       C         -2.27244886  *  -0.78345964  *  -0.05933625  *
     9       C          2.20604750  *  -0.08289117  *   0.24435346  *
    10       H         -0.35211392  *   0.88603529  *  -1.58781040  *
    11       H         -0.04857440  *   2.51822735  *   0.53402333  *
    12       H         -2.57510359  *   1.38996847  *  -0.19467889  *
    13       H          3.28225005  *  -0.22650653  *   0.38289767  *
    14       H          2.30565546  *   1.91856792  *   1.11238590  *
    15       H          1.79381550  *  -2.08646681  *  -0.41175093  *
    16       H         -1.08581650  *  -2.70311624  *   0.02212497  *
    17       H         -3.27077030  *  -1.18257172  *   0.11030562  *



          CARTESIAN COORDINATES 

    NO.       ATOM           X           Y           Z

     1         C         -0.4535      0.6062     -0.5070
     2         C          0.0023     -0.8246     -0.3200
     3         C          0.3882      1.5504      0.2705
     4         C         -1.9277      0.5164     -0.2171
     5         C          1.4160     -1.0831     -0.1947
     6         C         -1.0761     -1.6244     -0.1199
     7         C          1.6522      1.2183      0.5820
     8         C         -2.2724     -0.7835     -0.0593
     9         C          2.2060     -0.0829      0.2444
    10         H         -0.3521      0.8860     -1.5878
    11         H         -0.0486      2.5182      0.5340
    12         H         -2.5751      1.3900     -0.1947
    13         H          3.2823     -0.2265      0.3829
    14         H          2.3057      1.9186      1.1124
    15         H          1.7938     -2.0865     -0.4118
    16         H         -1.0858     -2.7031      0.0221
    17         H         -3.2708     -1.1826      0.1103

  H: (PM3): J. J. P. STEWART, J. COMP. CHEM. 10, 209 (1989).
  C: (PM3): J. J. P. STEWART, J. COMP. CHEM. 10, 209 (1989).

           Empirical Formula: C9 H8  =    17 atoms



      MOLECULAR POINT GROUP   :   C1  


      RHF CALCULATION, NO. OF DOUBLY OCCUPIED LEVELS = 22



          HEAT OF FORMATION =      68.123026 KCALS/MOLE


          CARTESIAN COORDINATE DERIVATIVES

   NUMBER  ATOM         X            Y            Z

     1       C     -0.001239     0.010380    -0.007821
     2       C     -0.000858    -0.001047    -0.001498
     3       C      0.000676     0.003785    -0.001770
     4       C     -0.003068     0.008772    -0.002168
     5       C      0.003880    -0.006772    -0.002814
     6       C     -0.008527    -0.004337     0.006835
     7       C      0.006881     0.005116    -0.004748
     8       C     -0.002975     0.004758     0.000678
     9       C      0.003017     0.001831    -0.003985
    10       H      0.004683     0.005598    -0.003549
    11       H     -0.001626    -0.010780     0.008518
    12       H      0.005448    -0.009480    -0.001169
    13       H     -0.001468    -0.002207     0.000042
    14       H     -0.004683    -0.006186     0.009158
    15       H     -0.000513    -0.000083    -0.004467
    16       H     -0.002114     0.002750     0.002476
    17       H      0.002484    -0.002099     0.006283



          GRADIENT NORM =   0.03556

          MOLECULAR WEIGHT =  116.16



          ROTATIONAL CONSTANTS IN CM(-1)

          A =    0.11905934   B =    0.05541448   C =    0.03965702



           PRINCIPAL MOMENTS OF INERTIA IN UNITS OF 10**(-40)*GRAM-CM**2

          A =      235.1160   B =      505.1523   C =      705.8712


          ORIENTATION OF MOLECULE IN FORCE CALCULATION

    NO.       ATOM         X         Y         Z

     1          C      -0.8118   -0.4109   -0.1561
     2          C       0.7015   -0.4109   -0.1561
     3          C      -1.3549    0.9709   -0.1561
     4          C      -1.1350   -1.3341    0.9879
     5          C       1.3872    0.6135   -0.9054
     6          C       1.1577   -1.3223    0.7405
     7          C      -0.6217    1.9773   -0.6606
     8          C       0.0097   -1.8935    1.4462
     9          C       0.7337    1.7684   -1.1435
    10          H      -1.1794   -0.9106   -1.0898
    11          H      -2.3690    1.1159    0.2280
    12          H      -2.1532   -1.5191    1.3223
    13          H       1.2107    2.5912   -1.6851
    14          H      -1.0214    2.9952   -0.7149
    15          H       2.4228    0.4430   -1.2135
    16          H       2.1922   -1.5788    0.9591
    17          H       0.1073   -2.6405    2.2319


    FIRST DERIVATIVES WILL BE USED IN THE CALCULATION OF SECOND DERIVATIVES

          ESTIMATED TIME TO COMPLETE CALCULATION =        0.80 SECONDS

    FOR POINT-GROUP C1   THERE ARE   1 UNIQUE SYMMETRY FUNCTIONS.

 STEP:   1 TIME =     0.01 SECS, INTEGRAL =      0.01 TIME LEFT: 172799.98
 STEP:   2 TIME =     0.02 SECS, INTEGRAL =      0.03 TIME LEFT: 172799.97
 STEP:   3 TIME =     0.02 SECS, INTEGRAL =      0.04 TIME LEFT: 172799.95
 STEP:   4 TIME =     0.02 SECS, INTEGRAL =      0.06 TIME LEFT: 172799.94
 STEP:   5 TIME =     0.01 SECS, INTEGRAL =      0.07 TIME LEFT: 172799.93
 STEP:   6 TIME =     0.02 SECS, INTEGRAL =      0.09 TIME LEFT: 172799.91
 STEP:   7 TIME =     0.02 SECS, INTEGRAL =      0.10 TIME LEFT: 172799.89
 STEP:   8 TIME =     0.02 SECS, INTEGRAL =      0.12 TIME LEFT: 172799.88
 STEP:   9 TIME =     0.02 SECS, INTEGRAL =      0.13 TIME LEFT: 172799.86
 STEP:  10 TIME =     0.01 SECS, INTEGRAL =      0.14 TIME LEFT: 172799.85
 STEP:  11 TIME =     0.02 SECS, INTEGRAL =      0.16 TIME LEFT: 172799.84
 STEP:  12 TIME =     0.02 SECS, INTEGRAL =      0.18 TIME LEFT: 172799.82
 STEP:  13 TIME =     0.02 SECS, INTEGRAL =      0.19 TIME LEFT: 172799.80
 STEP:  14 TIME =     0.02 SECS, INTEGRAL =      0.21 TIME LEFT: 172799.79
 STEP:  15 TIME =     0.02 SECS, INTEGRAL =      0.22 TIME LEFT: 172799.77
 STEP:  16 TIME =     0.02 SECS, INTEGRAL =      0.24 TIME LEFT: 172799.76
 STEP:  17 TIME =     0.02 SECS, INTEGRAL =      0.25 TIME LEFT: 172799.74
 STEP:  18 TIME =     0.02 SECS, INTEGRAL =      0.27 TIME LEFT: 172799.73
 STEP:  19 TIME =     0.02 SECS, INTEGRAL =      0.29 TIME LEFT: 172799.71
 STEP:  20 TIME =     0.01 SECS, INTEGRAL =      0.30 TIME LEFT: 172799.70
 STEP:  21 TIME =     0.02 SECS, INTEGRAL =      0.31 TIME LEFT: 172799.68
 STEP:  22 TIME =     0.02 SECS, INTEGRAL =      0.33 TIME LEFT: 172799.67
 STEP:  23 TIME =     0.01 SECS, INTEGRAL =      0.34 TIME LEFT: 172799.66
 STEP:  24 TIME =     0.02 SECS, INTEGRAL =      0.36 TIME LEFT: 172799.64
 STEP:  25 TIME =     0.02 SECS, INTEGRAL =      0.37 TIME LEFT: 172799.62
 STEP:  26 TIME =     0.02 SECS, INTEGRAL =      0.39 TIME LEFT: 172799.61
 STEP:  27 TIME =     0.02 SECS, INTEGRAL =      0.40 TIME LEFT: 172799.59
 STEP:  28 TIME =     0.02 SECS, INTEGRAL =      0.42 TIME LEFT: 172799.58
 STEP:  29 TIME =     0.02 SECS, INTEGRAL =      0.44 TIME LEFT: 172799.56
 STEP:  30 TIME =     0.02 SECS, INTEGRAL =      0.45 TIME LEFT: 172799.54
 STEP:  31 TIME =     0.02 SECS, INTEGRAL =      0.47 TIME LEFT: 172799.53
 STEP:  32 TIME =     0.02 SECS, INTEGRAL =      0.48 TIME LEFT: 172799.51
 STEP:  33 TIME =     0.02 SECS, INTEGRAL =      0.50 TIME LEFT: 172799.50
 STEP:  34 TIME =     0.02 SECS, INTEGRAL =      0.52 TIME LEFT: 172799.48
 STEP:  35 TIME =     0.02 SECS, INTEGRAL =      0.53 TIME LEFT: 172799.46
 STEP:  36 TIME =     0.02 SECS, INTEGRAL =      0.55 TIME LEFT: 172799.45
 STEP:  37 TIME =     0.02 SECS, INTEGRAL =      0.56 TIME LEFT: 172799.43
 STEP:  38 TIME =     0.01 SECS, INTEGRAL =      0.57 TIME LEFT: 172799.42
 STEP:  39 TIME =     0.02 SECS, INTEGRAL =      0.59 TIME LEFT: 172799.41
 STEP:  40 TIME =     0.02 SECS, INTEGRAL =      0.61 TIME LEFT: 172799.39
 STEP:  41 TIME =     0.02 SECS, INTEGRAL =      0.62 TIME LEFT: 172799.38
 STEP:  42 TIME =     0.02 SECS, INTEGRAL =      0.64 TIME LEFT: 172799.36
 STEP:  43 TIME =     0.02 SECS, INTEGRAL =      0.65 TIME LEFT: 172799.34
 STEP:  44 TIME =     0.02 SECS, INTEGRAL =      0.67 TIME LEFT: 172799.33
 STEP:  45 TIME =     0.02 SECS, INTEGRAL =      0.68 TIME LEFT: 172799.31
 STEP:  46 TIME =     0.02 SECS, INTEGRAL =      0.70 TIME LEFT: 172799.30
 STEP:  47 TIME =     0.02 SECS, INTEGRAL =      0.71 TIME LEFT: 172799.28
 STEP:  48 TIME =     0.02 SECS, INTEGRAL =      0.73 TIME LEFT: 172799.27
 STEP:  49 TIME =     0.02 SECS, INTEGRAL =      0.75 TIME LEFT: 172799.25
 STEP:  50 TIME =     0.02 SECS, INTEGRAL =      0.76 TIME LEFT: 172799.23
 STEP:  51 TIME =     0.02 SECS, INTEGRAL =      0.78 TIME LEFT: 172799.22

(To convert to Hartree/Bohr^2, multiply by (10^(-21) x N x a0^2)/(4.184 x 627.51) =  0.0642)


           FORCE MATRIX IN MILLIDYNES/ANGSTROM


                  C  1       C  2       C  3       C  4       C  5       C  6
 ------------------------------------------------------------------------------
     C    1  15.455792
     C    2   4.010435  19.000252
     C    3   4.938165   0.717432  17.872691
     C    4   4.241596   1.089335   0.573875  17.739311
     C    5   0.609041   5.846619   0.203402   0.071949  18.152075
     C    6   1.177276   9.098435   0.073929   1.600128   0.919268  18.002562
     C    7   0.936271   0.216449  10.013003   0.064520   1.152550   0.099064
     C    8   1.264928   1.692818   0.064542   9.549000   0.181560   5.095019
     C    9   0.173602   1.283712   1.134402   0.043296   9.701053   0.197601
     H   10   4.063827   0.395591   0.391222   0.366362   0.022567   0.057510
     H   11   0.436465   0.041958   4.878828   0.011833   0.016900   0.007471
     H   12   0.407622   0.043120   0.011404   5.082598   0.011572   0.102698
     H   13   0.005385   0.121581   0.049009   0.002458   0.439321   0.010604
     H   14   0.117547   0.003507   0.440642   0.013463   0.048399   0.002247
     H   15   0.035560   0.447183   0.019484   0.009839   4.880278   0.022618
     H   16   0.110916   0.455303   0.019426   0.049026   0.052599   5.074403
     H   17   0.111117   0.049549   0.016002   0.445111   0.007367   0.421230


                  C  7       C  8       C  9       H 10       H 11       H 12
 ------------------------------------------------------------------------------
     C    7  18.089721
     C    8   0.058232  18.126195
     C    9   5.427618   0.086420  17.977022
     H   10   0.035056   0.059825   0.019997   4.524999
     H   11   0.443244   0.007351   0.122986   0.012638   5.255057
     H   12   0.003646   0.442188   0.003037   0.012787   0.004961   5.482775
     H   13   0.433612   0.008567   4.867085   0.001143   0.007592   0.000525
     H   14   4.854428   0.002790   0.434001   0.016098   0.064525   0.000514
     H   15   0.124017   0.010418   0.447133   0.004571   0.009478   0.001730
     H   16   0.010835   0.419298   0.012207   0.016895   0.003997   0.005448
     H   17   0.003082   5.061584   0.002510   0.014860   0.000743   0.042010


                  H 13       H 14       H 15       H 16       H 17
 ------------------------------------------------------------------
     H   13   5.231235
     H   14   0.032047   5.217702
     H   15   0.061784   0.007393   5.253344
     H   16   0.003408   0.000855   0.005774   5.467424
     H   17   0.000671   0.000846   0.000542   0.009392   5.450682


          HEAT OF FORMATION =      68.123026 KCALS/MOLE

          ZERO POINT ENERGY      87.546 KCAL/MOL


           NORMAL COORDINATE ANALYSIS (Total motion = 1 Angstrom)


   Root No.       1         2         3         4         5         6         7         8

                 1 A       2 A       3 A       4 A       5 A       6 A       7 A       8 A   

                 158.4     183.5     358.6     385.6     468.0     501.5     543.5     581.7
  
           1   -0.0038   -0.0120   -0.0358   -0.0206    0.0269    0.0097    0.0076   -0.0008
           2   -0.0216   -0.0209    0.0017   -0.0116    0.0205   -0.0108   -0.0501   -0.0107
           3   -0.0382   -0.0196    0.0264   -0.0124    0.0168   -0.0111   -0.0002    0.0274
           4   -0.0027   -0.0122   -0.0380   -0.0202    0.0230    0.0103   -0.0033    0.0052
           5   -0.0083   -0.0275    0.0093   -0.0169   -0.0185   -0.0161   -0.0094    0.0713
           6   -0.0194   -0.0452   -0.0023   -0.0378    0.0021   -0.0272   -0.0005    0.0218
           7    0.0123   -0.0185   -0.0041    0.0201    0.0068    0.0156    0.0809   -0.0088
           8   -0.0124   -0.0242    0.0193    0.0057    0.0144   -0.0158   -0.0189   -0.0394
           9    0.0196   -0.0485   -0.0166    0.0497    0.0199    0.0229   -0.0234    0.0261
          10   -0.0097    0.0083    0.0048   -0.0046    0.0008   -0.0036   -0.0146   -0.0351
          11   -0.0204    0.0341   -0.0396   -0.0189   -0.0107    0.0417   -0.0311   -0.0097
          12   -0.0381    0.0332    0.0138   -0.0123   -0.0241    0.0216    0.0302    0.0123
          13   -0.0087   -0.0004   -0.0103    0.0148   -0.0212    0.0061   -0.0516    0.0419
          14   -0.0201   -0.0063   -0.0181    0.0111   -0.0185    0.0025    0.0464    0.0205
          15   -0.0445   -0.0045   -0.0100    0.0352   -0.0408   -0.0133   -0.0079   -0.0434
          16   -0.0022    0.0000    0.0003   -0.0072    0.0074   -0.0039   -0.0251   -0.0282
          17    0.0471   -0.0111    0.0434    0.0062   -0.0183    0.0286   -0.0238    0.0146
          18    0.0348   -0.0340    0.0102   -0.0218    0.0149    0.0259    0.0063   -0.0267
          19    0.0208    0.0010    0.0204   -0.0049   -0.0280   -0.0118    0.0177    0.0157
          20    0.0000   -0.0055    0.0048   -0.0175    0.0122   -0.0171    0.0366   -0.0704
          21    0.0581    0.0188   -0.0186   -0.0351   -0.0349   -0.0120   -0.0144    0.0008
          22   -0.0066    0.0128    0.0251    0.0073   -0.0074   -0.0173   -0.0164   -0.0224
          23    0.0370    0.0361   -0.0245    0.0293    0.0067   -0.0272   -0.0279    0.0134
          24    0.0211    0.0236   -0.0127    0.0159    0.0166   -0.0348    0.0341   -0.0042
          25    0.0010    0.0203    0.0324    0.0087   -0.0013   -0.0007    0.0076    0.0359
          26   -0.0061    0.0191    0.0085   -0.0005    0.0134    0.0042    0.0792    0.0239
          27    0.0006    0.0646    0.0154   -0.0018    0.0434    0.0105   -0.0336   -0.0005
          28   -0.0049   -0.0321   -0.0649   -0.0623    0.0314   -0.0322   -0.0072    0.0525
          29    0.0026   -0.0582   -0.0032    0.0297    0.0575   -0.0219   -0.0745   -0.0269
          30   -0.0485    0.0088    0.0398   -0.0165   -0.0066    0.0124    0.0197    0.0145
          31    0.0208   -0.0443   -0.0176    0.0580   -0.0006    0.0340    0.0940   -0.0086
          32   -0.0148   -0.0385    0.0493    0.0351   -0.0069   -0.0233   -0.0138   -0.0201
          33    0.0428   -0.1102   -0.0635    0.1387    0.0083    0.0753    0.0117    0.0192
          34   -0.0155    0.0155    0.0142   -0.0021   -0.0108   -0.0024   -0.0173   -0.0380
          35   -0.0517    0.0674   -0.1012   -0.0466   -0.0375    0.1237   -0.0110   -0.0051
          36   -0.0727    0.0735    0.0081   -0.0200   -0.0740    0.0711    0.0334    0.0066
          37   -0.0125    0.0466    0.0643    0.0312    0.0420    0.0082    0.0225   -0.0073
          38   -0.0044    0.0529    0.0150    0.0167    0.0435    0.0316    0.0698    0.0708
          39   -0.0084    0.1388    0.0539    0.0445    0.1261    0.0598   -0.0348    0.0328
          40    0.0416   -0.0068    0.0177   -0.0197   -0.0764   -0.0365   -0.0364   -0.0270
          41    0.0115   -0.0080    0.0021   -0.0251   -0.0129   -0.0281    0.0182   -0.0889
          42    0.1237    0.0262   -0.0572   -0.0729   -0.1492   -0.0334    0.0389   -0.0350
          43   -0.0271    0.0003   -0.0180    0.0516   -0.0435    0.0131   -0.0586    0.0176
          44   -0.0407   -0.0027   -0.0599    0.0462   -0.0223    0.0248    0.0377   -0.0277
          45   -0.0941   -0.0044   -0.0130    0.1393   -0.1143   -0.0022   -0.0288   -0.0963
          46   -0.0011    0.0033    0.0143   -0.0014   -0.0009   -0.0050   -0.0294   -0.0369
          47    0.0891   -0.0128    0.1067    0.0242   -0.0550    0.1096   -0.0307   -0.0813
          48    0.0785   -0.0512    0.0185   -0.0277    0.0115    0.1262    0.0195   -0.0996
          49   -0.0070    0.0253    0.0536    0.0252   -0.0268   -0.0325   -0.0008    0.0077
          50    0.0672    0.0728   -0.0640    0.0762    0.0204   -0.0974   -0.0062    0.0188
          51    0.0499    0.0570   -0.0536    0.0583    0.0322   -0.1000    0.0537   -0.0031


   Root No.       9        10        11        12        13        14        15        16

                 9 A      10 A      11 A      12 A      13 A      14 A      15 A      16 A   

                 692.0     745.1     780.5     814.7     839.7     853.0     902.1     935.6
  
           1   -0.0150    0.0039    0.0001    0.0047    0.0064    0.0116    0.0314    0.0339
           2   -0.0189    0.0055   -0.0114    0.0014    0.0024   -0.0176    0.0137    0.0245
           3   -0.0435    0.0045    0.0066    0.0282   -0.0284   -0.0009    0.0116    0.0396
           4   -0.0265    0.0024   -0.0066    0.0022   -0.0198    0.0008   -0.0219   -0.0170
           5    0.0287    0.0023   -0.0089   -0.0056    0.0102    0.0253    0.0217   -0.0190
           6    0.0587    0.0043    0.0053    0.0098    0.0001   -0.0030    0.0047   -0.0327
           7    0.0107   -0.0112    0.0306    0.0132    0.0074    0.0430    0.0149    0.0036
           8   -0.0046   -0.0013   -0.0179   -0.0066   -0.0014    0.0006   -0.0121   -0.0137
           9    0.0024   -0.0182    0.0030    0.0124    0.0209   -0.0129   -0.0009   -0.0051
          10    0.0130    0.0019   -0.0227   -0.0266    0.0378   -0.0259    0.0107    0.0006
          11    0.0130    0.0077    0.0302   -0.0092    0.0158   -0.0273    0.0201   -0.0127
          12   -0.0159    0.0066    0.0109   -0.0116   -0.0073    0.0163    0.0084   -0.0236
          13   -0.0368   -0.0076   -0.0223   -0.0323   -0.0138    0.0351   -0.0094   -0.0206
          14   -0.0218   -0.0084   -0.0065   -0.0110   -0.0066   -0.0196   -0.0117   -0.0047
          15    0.0141   -0.0181    0.0235   -0.0119   -0.0098   -0.0152    0.0064    0.0181
          16    0.0204    0.0018    0.0282    0.0285   -0.0272   -0.0191   -0.0288   -0.0108
          17    0.0001    0.0029    0.0074    0.0004    0.0126    0.0332   -0.0150    0.0348
          18   -0.0021    0.0089   -0.0054   -0.0009    0.0118   -0.0062   -0.0435    0.0116
          19   -0.0025   -0.0056    0.0042    0.0149    0.0107   -0.0240   -0.0046   -0.0046
          20   -0.0031   -0.0031   -0.0004   -0.0069   -0.0040    0.0577    0.0017   -0.0161
          21   -0.0179   -0.0139    0.0061    0.0147    0.0208    0.0039    0.0012   -0.0193
          22    0.0136    0.0006    0.0000   -0.0036    0.0050   -0.0040   -0.0007   -0.0017
          23    0.0018    0.0045    0.0480    0.0163   -0.0180    0.0002   -0.0106   -0.0036
          24   -0.0202    0.0078   -0.0206   -0.0345    0.0345   -0.0076    0.0051    0.0005
          25    0.0094   -0.0050   -0.0014   -0.0070   -0.0011   -0.0308   -0.0034    0.0128
          26    0.0001   -0.0044   -0.0006   -0.0008    0.0002   -0.0467   -0.0118    0.0121
          27    0.0144   -0.0122    0.0096   -0.0272   -0.0152    0.0267   -0.0006    0.0161
          28    0.0488    0.0359   -0.0101    0.0300    0.0059    0.0578    0.1154    0.0661
          29   -0.0068   -0.0358   -0.0446    0.0303    0.0363   -0.0536   -0.0212    0.0318
          30   -0.0734    0.0135    0.0274    0.0015   -0.0465    0.0007   -0.0050    0.0196
          31    0.0612    0.0440    0.0167   -0.0478   -0.0467    0.0411    0.0106    0.0056
          32    0.0178    0.0233   -0.0375   -0.0255   -0.0407   -0.0518   -0.0699   -0.0515
          33    0.1264    0.1179   -0.0263   -0.1415   -0.1077    0.0003    0.0081    0.0143
          34    0.0307   -0.0068   -0.0352   -0.0146    0.0222   -0.0161   -0.0221   -0.0180
          35    0.1255   -0.0676   -0.1386    0.0656    0.0332    0.0307   -0.0490    0.1414
          36    0.0984   -0.0612   -0.1192    0.0669   -0.0479    0.0780   -0.1314    0.0036
          37    0.0528    0.0629   -0.0123    0.0578    0.0167   -0.0105    0.0317   -0.0144
          38   -0.0102    0.0601   -0.0461    0.0469    0.0190   -0.0563   -0.0116   -0.0538
          39    0.0390    0.1454   -0.0674    0.1028    0.0296    0.0315    0.0327   -0.1065
          40    0.0015    0.0662   -0.0479   -0.0099   -0.0462   -0.0308   -0.0132    0.0223
          41   -0.0009    0.0341   -0.0248   -0.0184   -0.0332    0.0526   -0.0017    0.0009
          42    0.0015    0.1543   -0.0539   -0.0105   -0.1016   -0.0514    0.0187    0.1228
          43   -0.0661    0.0341   -0.0394    0.0303    0.0235    0.0620   -0.0119   -0.0309
          44   -0.1043    0.0447   -0.0438    0.0563    0.0153    0.0405   -0.0672   -0.0604
          45   -0.0368    0.0926   -0.0124    0.1616    0.1049    0.0408    0.0308    0.0165
          46    0.0290   -0.0024    0.0260    0.0251   -0.0189   -0.0178    0.0022    0.0033
          47   -0.0150   -0.0603   -0.0470    0.0144   -0.0579   -0.0441    0.2272   -0.0299
          48   -0.0624   -0.0453   -0.0599    0.0328   -0.1145   -0.1076    0.0869   -0.1379
          49    0.0060   -0.0110   -0.0190    0.0002   -0.0205    0.0737    0.0284    0.0105
          50    0.0507   -0.0665   -0.0922    0.0931   -0.1054    0.0125    0.0413    0.0026
          51    0.0267   -0.0582   -0.1531    0.0371   -0.0450   -0.0055    0.0502    0.0039


   Root No.      17        18        19        20        21        22        23        24

                17 A      18 A      19 A      20 A      21 A      22 A      23 A      24 A   

                 957.1     959.5     997.1    1003.1    1025.1    1057.2    1073.1    1095.4
  
           1    0.0001    0.0014   -0.0083    0.0026    0.0073   -0.0042    0.0092   -0.0001
           2   -0.0041    0.0036   -0.0033   -0.0012    0.0192   -0.0032    0.0039    0.0205
           3   -0.0044    0.0053   -0.0130   -0.0117    0.0172    0.0078   -0.0061    0.0138
           4    0.0026   -0.0007    0.0020    0.0006   -0.0007   -0.0039    0.0048   -0.0111
           5   -0.0100   -0.0038    0.0067   -0.0211   -0.0003   -0.0008    0.0073    0.0073
           6   -0.0051   -0.0027    0.0115   -0.0206    0.0022    0.0036    0.0036   -0.0102
           7   -0.0181   -0.0224    0.0135   -0.0119    0.0040    0.0192    0.0029    0.0250
           8    0.0094    0.0010   -0.0044    0.0075   -0.0284   -0.0031   -0.0011   -0.0102
           9    0.0000   -0.0215    0.0090    0.0065   -0.0568   -0.0113   -0.0017   -0.0091
          10   -0.0202    0.0029   -0.0004   -0.0082   -0.0054   -0.0003    0.0024    0.0267
          11   -0.0269    0.0065    0.0154    0.0156   -0.0036    0.0041    0.0008    0.0077
          12    0.0088   -0.0003    0.0242    0.0350    0.0062    0.0004   -0.0030   -0.0245
          13   -0.0055   -0.0156   -0.0043   -0.0010    0.0038   -0.0101   -0.0228   -0.0070
          14    0.0001   -0.0102   -0.0126    0.0108    0.0004    0.0048   -0.0018   -0.0028
          15   -0.0053   -0.0251   -0.0291    0.0239    0.0090    0.0033    0.0063    0.0080
          16    0.0016    0.0036    0.0005   -0.0029   -0.0012    0.0063   -0.0219   -0.0339
          17   -0.0148    0.0022   -0.0018    0.0220    0.0019    0.0031    0.0006    0.0028
          18   -0.0155    0.0073    0.0035    0.0201   -0.0002   -0.0037   -0.0019   -0.0003
          19    0.0035    0.0137   -0.0123    0.0060    0.0122    0.0247    0.0144    0.0112
          20    0.0007    0.0013   -0.0065   -0.0021    0.0010   -0.0220   -0.0163   -0.0127
          21    0.0022    0.0257   -0.0261    0.0070    0.0331   -0.0048   -0.0024   -0.0014
          22    0.0032   -0.0010   -0.0004   -0.0020    0.0001   -0.0042    0.0085    0.0108
          23    0.0297   -0.0118   -0.0117   -0.0245    0.0013   -0.0088    0.0071    0.0161
          24    0.0267   -0.0113   -0.0111   -0.0262    0.0015    0.0066   -0.0050   -0.0119
          25    0.0090    0.0135    0.0116   -0.0030   -0.0073   -0.0276   -0.0116   -0.0156
          26    0.0094    0.0151    0.0114   -0.0018   -0.0081   -0.0161   -0.0062   -0.0106
          27    0.0027    0.0155    0.0318   -0.0200   -0.0169    0.0199    0.0115    0.0091
          28    0.2199    0.0655   -0.0273    0.1765   -0.1499    0.0313   -0.0520    0.0611
          29    0.0813   -0.1027    0.1633    0.0381    0.3040    0.0367   -0.0079   -0.0262
          30   -0.1365    0.0357   -0.0928   -0.1009   -0.0718   -0.0280    0.0245    0.0127
          31   -0.0049    0.0467   -0.0145   -0.0156    0.0796    0.0385    0.0096    0.0330
          32    0.0347    0.0460   -0.0262    0.0134   -0.0557    0.1606    0.0602    0.0485
          33    0.0249    0.1439   -0.0566   -0.0062    0.1535   -0.0298   -0.0106   -0.0153
          34    0.0032   -0.0020    0.0102   -0.0014   -0.0029   -0.0211   -0.0376    0.1229
          35    0.0336   -0.0199   -0.0997   -0.1121   -0.0001    0.0311    0.0783   -0.1370
          36    0.1127   -0.0295   -0.0077   -0.0157    0.0157   -0.0462   -0.0843    0.1775
          37   -0.0052   -0.0409   -0.0607    0.0403    0.0064   -0.0967   -0.0067   -0.0586
          38   -0.0128   -0.0370   -0.0426    0.0226    0.0300    0.0277   -0.0165    0.0186
          39   -0.0445   -0.1123   -0.1140    0.0547    0.0543    0.0270    0.0017    0.0185
          40    0.0157   -0.0438    0.0144    0.0165   -0.1140    0.0757    0.0644   -0.0409
          41    0.0040   -0.0299    0.0110   -0.0004   -0.0554   -0.0039    0.0013   -0.0330
          42   -0.0342   -0.1406    0.1111   -0.0407   -0.0657   -0.0295   -0.0244    0.0253
          43    0.0068    0.0421    0.0443   -0.0394   -0.0077   -0.0100   -0.0200   -0.0136
          44    0.0158    0.0549    0.0546   -0.0331   -0.0288    0.1590    0.0587    0.0010
          45    0.0266    0.1328    0.0964   -0.0801   -0.0132   -0.0744   -0.0114   -0.0111
          46    0.0033    0.0008   -0.0069   -0.0123    0.0023    0.0484   -0.0786   -0.0847
          47    0.0610   -0.0153   -0.0194   -0.0774    0.0071    0.0948   -0.1131   -0.0940
          48    0.0675    0.0005    0.0195   -0.0526   -0.0106   -0.0971    0.1313    0.1163
          49    0.0453   -0.0130    0.0180    0.0692    0.0332   -0.0648    0.2902   -0.0906
          50   -0.1394    0.0556    0.0403    0.0895   -0.0034   -0.0037    0.0055    0.0085
          51   -0.1384    0.0542    0.0367    0.0741   -0.0067    0.0189   -0.0412   -0.0083


   Root No.      25        26        27        28        29        30        31        32

                25 A      26 A      27 A      28 A      29 A      30 A      31 A      32 A   

                1118.3    1142.7    1172.8    1190.8    1288.7    1354.9    1398.7    1426.0
  
           1    0.0105    0.0152    0.0044    0.0379    0.0531    0.0533    0.0238    0.0159
           2    0.0025   -0.0006    0.0230   -0.0028    0.0206   -0.0389    0.0108    0.0942
           3   -0.0020   -0.0048   -0.0153   -0.0157   -0.0482    0.0074    0.0012   -0.0501
           4    0.0042   -0.0052    0.0019    0.0319    0.0029   -0.0217   -0.0515   -0.0736
           5    0.0080   -0.0020   -0.0155    0.0068    0.0171   -0.0052    0.0024   -0.0212
           6    0.0008    0.0007    0.0140   -0.0034   -0.0064    0.0114   -0.0014    0.0125
           7   -0.0105   -0.0000   -0.0002   -0.0081   -0.0156   -0.0239    0.0037    0.0292
           8   -0.0055    0.0048    0.0112   -0.0068    0.0374   -0.0136   -0.0266   -0.0384
           9    0.0034   -0.0013    0.0021    0.0025    0.0018    0.0095    0.0031   -0.0011
          10    0.0007   -0.0055   -0.0109   -0.0099   -0.0211    0.0057   -0.0053   -0.0257
          11   -0.0014   -0.0036    0.0066   -0.0007   -0.0391   -0.0030    0.0207   -0.0322
          12   -0.0007    0.0034   -0.0119    0.0022    0.0457    0.0073   -0.0238    0.0343
          13   -0.0199   -0.0040   -0.0004   -0.0138   -0.0285    0.0009    0.0091    0.0368
          14    0.0052    0.0037   -0.0100    0.0074   -0.0157   -0.0354   -0.0125    0.0205
          15    0.0041   -0.0015    0.0019   -0.0019    0.0180    0.0152    0.0057   -0.0244
          16   -0.0099    0.0031   -0.0102   -0.0113    0.0172   -0.0394    0.0700    0.0075
          17    0.0031   -0.0013   -0.0157    0.0011    0.0259   -0.0058    0.0291   -0.0354
          18   -0.0047    0.0014    0.0169   -0.0013   -0.0299    0.0091   -0.0362    0.0365
          19    0.0076    0.0077    0.0084   -0.0074    0.0302   -0.0381   -0.0335   -0.0283
          20   -0.0057   -0.0021   -0.0045   -0.0089   -0.0131    0.0278    0.0090   -0.0208
          21    0.0003   -0.0045   -0.0042    0.0057   -0.0107    0.0096    0.0114    0.0151
          22   -0.0026   -0.0015   -0.0089   -0.0154    0.0006    0.0281   -0.0609    0.0419
          23    0.0033    0.0025    0.0027   -0.0001   -0.0057    0.0269   -0.0344    0.0117
          24   -0.0010   -0.0017   -0.0002    0.0026    0.0072   -0.0317    0.0423   -0.0151
          25    0.0018   -0.0068    0.0110   -0.0134    0.0030    0.0518    0.0281   -0.0167
          26   -0.0022    0.0038    0.0019    0.0049   -0.0164    0.0058   -0.0007    0.0204
          27    0.0040    0.0038   -0.0049    0.0053    0.0063   -0.0250   -0.0126   -0.0015
          28   -0.0406   -0.0318   -0.0157   -0.0833   -0.0605   -0.0485   -0.0078    0.0008
          29    0.0122    0.0063   -0.0593    0.0091   -0.0312    0.0469   -0.0025   -0.0490
          30    0.0135    0.0104    0.0363    0.0279    0.0275    0.0033    0.0189    0.0287
          31   -0.0185   -0.0072   -0.0099    0.0069   -0.0219   -0.0143    0.0109    0.0356
          32   -0.1574   -0.1392   -0.0722    0.1799   -0.0316    0.1260    0.0780    0.0661
          33    0.0410    0.0314    0.0095   -0.0321    0.0107   -0.0129   -0.0192   -0.0350
          34    0.0333    0.0073    0.0370    0.0336   -0.0461   -0.0017    0.0449   -0.0549
          35   -0.0564   -0.0242   -0.0711   -0.0811    0.0072    0.0099   -0.0754    0.0328
          36    0.0665    0.0310    0.0896    0.0890    0.0010   -0.0172    0.0784   -0.0129
          37    0.1579   -0.2282   -0.0704    0.0742   -0.0657   -0.0642   -0.0133    0.0787
          38   -0.1105    0.1514    0.0568   -0.0570    0.0256    0.0907    0.0297   -0.0432
          39   -0.0235    0.0305    0.0054   -0.0091    0.0144   -0.0071   -0.0070   -0.0180
          40    0.1508    0.2398   -0.0839    0.0439   -0.1223    0.0168    0.0376    0.0782
          41    0.0453    0.0846   -0.0391    0.0099   -0.0713    0.0533    0.0371    0.0153
          42   -0.0707   -0.1128    0.0417   -0.0201    0.0634   -0.0178   -0.0232   -0.0385
          43   -0.0155   -0.0085    0.0039   -0.0147   -0.0305    0.0062    0.0101    0.0389
          44    0.1632   -0.1344    0.0802   -0.1377    0.0424    0.1250    0.0725   -0.0057
          45   -0.0648    0.0645   -0.0330    0.0757   -0.0087   -0.0585   -0.0393   -0.0137
          46   -0.0055    0.0021    0.0464    0.0207   -0.0243   -0.0334    0.0217    0.0210
          47    0.0169   -0.0064    0.1039    0.0681   -0.0621    0.0144   -0.0800   -0.0127
          48   -0.0141    0.0008   -0.1108   -0.0773    0.0633   -0.0176    0.0831    0.0175
          49   -0.0474   -0.0085    0.1510    0.0312   -0.1265   -0.0593    0.0924   -0.0436
          50   -0.0001    0.0011    0.0030   -0.0019   -0.0095    0.0277   -0.0347    0.0117
          51    0.0008   -0.0022   -0.0193   -0.0047    0.0212   -0.0264    0.0287   -0.0028


   Root No.      33        34        35        36        37        38        39        40

                33 A      34 A      35 A      36 A      37 A      38 A      39 A      40 A   

                1494.4    1735.5    1792.2    1815.4    1857.0    2837.0    3055.6    3062.7
  
           1   -0.0752    0.0038    0.0014    0.0056   -0.0013   -0.0247    0.0000   -0.0001
           2    0.0790   -0.0110    0.0007   -0.0221   -0.0194   -0.0315    0.0003    0.0000
           3   -0.0222    0.0053   -0.0015    0.0061    0.0058   -0.0607   -0.0001    0.0000
           4    0.1005    0.0105    0.0186    0.0135   -0.0072   -0.0012    0.0001   -0.0000
           5    0.0097    0.0583   -0.0431   -0.0818    0.1064    0.0005   -0.0002   -0.0001
           6   -0.0085   -0.0506    0.0436    0.0730   -0.0898   -0.0009    0.0001    0.0000
           7    0.0281   -0.0021   -0.0185    0.0612    0.0386    0.0000   -0.0140   -0.0126
           8   -0.0574   -0.0054   -0.0211    0.1264    0.0755   -0.0018    0.0031    0.0021
           9    0.0020    0.0041    0.0112   -0.0507   -0.0304   -0.0001    0.0051    0.0047
          10    0.0034   -0.1546   -0.0248   -0.0185    0.0179   -0.0002   -0.0000   -0.0001
          11   -0.0225    0.0847    0.0172    0.0145   -0.0138    0.0007    0.0000    0.0000
          12    0.0195   -0.0711   -0.0143   -0.0162    0.0119   -0.0014    0.0000   -0.0000
          13   -0.0387   -0.0209    0.0672    0.0071    0.0073   -0.0000   -0.0073    0.0198
          14   -0.0466   -0.0002   -0.1327    0.0229   -0.0880   -0.0003    0.0006   -0.0025
          15    0.0339    0.0093    0.0319   -0.0153    0.0379    0.0000    0.0024   -0.0062
          16   -0.0152    0.0035   -0.0149   -0.0280    0.0287    0.0002   -0.0000    0.0001
          17    0.0262   -0.0230    0.0495    0.0567   -0.0613   -0.0008    0.0001   -0.0000
          18   -0.0252    0.0228   -0.0487   -0.0555    0.0593    0.0005   -0.0000    0.0000
          19   -0.0523   -0.0039    0.0478   -0.0992   -0.0527    0.0007    0.0119    0.0057
          20    0.0062    0.0058    0.0086   -0.0974   -0.0610    0.0005   -0.0323   -0.0140
          21    0.0180    0.0003   -0.0194    0.0599    0.0346   -0.0006    0.0021    0.0007
          22    0.0013    0.1609    0.0282    0.0318   -0.0310    0.0008   -0.0000    0.0000
          23   -0.0078   -0.0730   -0.0163   -0.0108    0.0099   -0.0004   -0.0000   -0.0000
          24    0.0095    0.0590    0.0136    0.0083   -0.0075    0.0001    0.0000    0.0000
          25    0.0522    0.0203   -0.1108    0.0205   -0.0238   -0.0004    0.0085   -0.0121
          26   -0.0024   -0.0224    0.1368    0.0037    0.0516    0.0002    0.0160   -0.0210
          27   -0.0194    0.0015   -0.0132   -0.0093   -0.0118    0.0001   -0.0102    0.0138
          28    0.0320   -0.0165   -0.0098   -0.0024    0.0131    0.3000   -0.0004   -0.0003
          29   -0.0460    0.0025   -0.0045   -0.0038    0.0072    0.3965    0.0000    0.0002
          30    0.0023   -0.0022    0.0038    0.0091   -0.0134    0.7498   -0.0003    0.0001
          31    0.0313   -0.0034   -0.0213    0.0708    0.0465   -0.0029    0.1733    0.1534
          32    0.0309    0.0061   -0.0028   -0.0432   -0.0324   -0.0003   -0.0277   -0.0234
          33   -0.0237   -0.0004    0.0103   -0.0218   -0.0125   -0.0010   -0.0651   -0.0578
          34   -0.0244   -0.1133   -0.0162   -0.0108    0.0118   -0.0044   -0.0002    0.0003
          35    0.0332   -0.0573   -0.0115   -0.0064    0.0058   -0.0007    0.0001    0.0002
          36   -0.0265    0.0810    0.0133    0.0067   -0.0065   -0.0002   -0.0000   -0.0002
          37   -0.0541   -0.0227    0.0724    0.0437    0.0380   -0.0000   -0.1039    0.1447
          38    0.0734    0.0017    0.0392   -0.0092    0.0171    0.0001   -0.1820    0.2436
          39   -0.0030    0.0083   -0.0490   -0.0098   -0.0254   -0.0000    0.1191   -0.1620
          40    0.0615   -0.0085    0.0280    0.0582    0.0497   -0.0012   -0.1461   -0.0676
          41    0.0492    0.0051    0.0065   -0.0623   -0.0372    0.0022    0.3712    0.1643
          42   -0.0409    0.0013   -0.0110   -0.0131   -0.0133   -0.0010   -0.0196   -0.0074
          43   -0.0376   -0.0277    0.0928    0.0132    0.0126    0.0005    0.0875   -0.2377
          44    0.0307    0.0058    0.0058   -0.0000    0.0251   -0.0001   -0.0131    0.0374
          45    0.0009    0.0006   -0.0443    0.0075   -0.0301   -0.0003   -0.0268    0.0717
          46   -0.0196    0.0105   -0.0536   -0.0736    0.0787    0.0036   -0.0002   -0.0001
          47    0.0228   -0.0330   -0.0084   -0.0085    0.0062   -0.0016    0.0000    0.0002
          48   -0.0165    0.0366    0.0136    0.0015   -0.0031    0.0004   -0.0000   -0.0001
          49   -0.0382   -0.0267   -0.0233   -0.0285    0.0282    0.0005   -0.0001   -0.0000
          50   -0.0080   -0.0962   -0.0195   -0.0123    0.0114   -0.0034    0.0001    0.0001
          51    0.0174    0.1062    0.0235    0.0169   -0.0156    0.0022   -0.0002   -0.0002


   Root No.      41        42        43        44        45

                41 A      42 A      43 A      44 A      45 A   

                3077.7    3083.4    3131.2    3141.0    3152.3
  
           1   -0.0001    0.0003    0.0000    0.0005   -0.0007
           2   -0.0002    0.0004   -0.0003   -0.0002    0.0005
           3   -0.0001   -0.0001    0.0003    0.0003   -0.0008
           4    0.0003   -0.0001   -0.0002    0.0012    0.0004
           5    0.0003    0.0009    0.0002   -0.0030    0.0017
           6   -0.0003   -0.0005   -0.0002    0.0028   -0.0017
           7   -0.0294    0.0190   -0.0000   -0.0000   -0.0000
           8    0.0016   -0.0006    0.0000    0.0000   -0.0001
           9    0.0117   -0.0076    0.0000    0.0000    0.0001
          10   -0.0001   -0.0000   -0.0206   -0.0236   -0.0386
          11    0.0001   -0.0001   -0.0046   -0.0035   -0.0044
          12   -0.0000    0.0001    0.0077    0.0069    0.0099
          13   -0.0237   -0.0243    0.0001    0.0001   -0.0001
          14    0.0055    0.0061    0.0000    0.0001   -0.0001
          15    0.0064    0.0064   -0.0000   -0.0001    0.0001
          16   -0.0001    0.0000    0.0109   -0.0514    0.0178
          17   -0.0000   -0.0001   -0.0032    0.0148   -0.0046
          18    0.0001    0.0001    0.0028   -0.0128    0.0038
          19   -0.0029    0.0048   -0.0000    0.0000   -0.0000
          20    0.0147   -0.0162   -0.0000   -0.0000    0.0000
          21   -0.0019    0.0015    0.0000   -0.0000   -0.0000
          22    0.0000   -0.0000   -0.0048    0.0019    0.0054
          23    0.0000   -0.0000    0.0305    0.0001   -0.0190
          24   -0.0000    0.0001   -0.0320   -0.0003    0.0196
          25   -0.0030   -0.0076    0.0000   -0.0000    0.0001
          26   -0.0098   -0.0174   -0.0000    0.0001    0.0000
          27    0.0054    0.0104   -0.0000   -0.0000   -0.0000
          28   -0.0003    0.0001   -0.0005   -0.0006    0.0003
          29    0.0005   -0.0004   -0.0003   -0.0005    0.0012
          30    0.0010   -0.0010    0.0004   -0.0002    0.0030
          31    0.3290   -0.2061   -0.0002   -0.0005    0.0003
          32   -0.0476    0.0296   -0.0001   -0.0001   -0.0003
          33   -0.1246    0.0783    0.0002    0.0002    0.0000
          34    0.0002    0.0008    0.2571    0.2706    0.3994
          35    0.0003   -0.0000    0.0482    0.0494    0.0727
          36   -0.0002   -0.0002   -0.0864   -0.0896   -0.1320
          37    0.0510    0.1004   -0.0001   -0.0001   -0.0004
          38    0.0922    0.1730   -0.0002   -0.0002   -0.0006
          39   -0.0596   -0.1140    0.0001    0.0002    0.0004
          40    0.0550   -0.0654   -0.0001   -0.0001    0.0003
          41   -0.1456    0.1650    0.0002    0.0003   -0.0007
          42    0.0088   -0.0086   -0.0000   -0.0000   -0.0000
          43    0.2661    0.2655   -0.0002   -0.0005   -0.0004
          44   -0.0441   -0.0444   -0.0000    0.0003   -0.0001
          45   -0.0791   -0.0789    0.0001    0.0001    0.0001
          46    0.0005   -0.0001   -0.1265    0.5838   -0.1879
          47   -0.0002   -0.0001    0.0326   -0.1448    0.0460
          48    0.0002    0.0001   -0.0278    0.1225   -0.0387
          49    0.0000   -0.0000    0.0446   -0.0021   -0.0250
          50   -0.0003    0.0003   -0.3498   -0.0045    0.1919
          51    0.0003   -0.0002    0.3679    0.0051   -0.2016


           MASS-WEIGHTED COORDINATE ANALYSIS (NORMAL COORDINATES)


   Root No.       1         2         3         4         5         6         7         8

                 1 A       2 A       3 A       4 A       5 A       6 A       7 A       8 A   

                 158.4     183.5     358.6     385.6     468.0     501.5     543.5     581.7
  
           1   -0.0256   -0.0779   -0.2742   -0.1550    0.2005    0.0755    0.0418   -0.0046
           2   -0.1461   -0.1354    0.0133   -0.0875    0.1526   -0.0837   -0.2761   -0.0641
           3   -0.2580   -0.1269    0.2024   -0.0935    0.1248   -0.0858   -0.0012    0.1635
           4   -0.0184   -0.0788   -0.2912   -0.1522    0.1714    0.0798   -0.0184    0.0311
           5   -0.0562   -0.1778    0.0709   -0.1270   -0.1376   -0.1248   -0.0520    0.4259
           6   -0.1311   -0.2923   -0.0179   -0.2848    0.0160   -0.2107   -0.0026    0.1299
           7    0.0833   -0.1198   -0.0317    0.1512    0.0508    0.1210    0.4454   -0.0525
           8   -0.0840   -0.1565    0.1479    0.0432    0.1072   -0.1229   -0.1040   -0.2352
           9    0.1321   -0.3142   -0.1270    0.3745    0.1482    0.1779   -0.1290    0.1560
          10   -0.0656    0.0535    0.0365   -0.0344    0.0061   -0.0280   -0.0805   -0.2099
          11   -0.1378    0.2210   -0.3036   -0.1427   -0.0798    0.3237   -0.1713   -0.0578
          12   -0.2571    0.2146    0.1059   -0.0930   -0.1793    0.1672    0.1661    0.0736
          13   -0.0586   -0.0026   -0.0789    0.1114   -0.1578    0.0476   -0.2842    0.2501
          14   -0.1358   -0.0409   -0.1390    0.0837   -0.1381    0.0190    0.2554    0.1222
          15   -0.3006   -0.0292   -0.0768    0.2649   -0.3041   -0.1033   -0.0433   -0.2593
          16   -0.0152    0.0002    0.0021   -0.0545    0.0553   -0.0303   -0.1381   -0.1682
          17    0.3183   -0.0716    0.3322    0.0468   -0.1365    0.2218   -0.1313    0.0872
          18    0.2349   -0.2200    0.0778   -0.1641    0.1111    0.2006    0.0345   -0.1593
          19    0.1408    0.0067    0.1562   -0.0372   -0.2083   -0.0913    0.0974    0.0935
          20    0.0001   -0.0358    0.0365   -0.1317    0.0911   -0.1323    0.2014   -0.4205
          21    0.3926    0.1218   -0.1421   -0.2639   -0.2598   -0.0934   -0.0794    0.0048
          22   -0.0446    0.0830    0.1921    0.0547   -0.0551   -0.1344   -0.0901   -0.1338
          23    0.2495    0.2335   -0.1880    0.2206    0.0496   -0.2108   -0.1534    0.0799
          24    0.1426    0.1530   -0.0971    0.1195    0.1235   -0.2702    0.1877   -0.0253
          25    0.0070    0.1315    0.2485    0.0651   -0.0096   -0.0054    0.0420    0.2143
          26   -0.0413    0.1239    0.0651   -0.0041    0.0998    0.0324    0.4362    0.1428
          27    0.0043    0.4179    0.1180   -0.0136    0.3234    0.0817   -0.1850   -0.0031
          28   -0.0095   -0.0603   -0.1440   -0.1359    0.0678   -0.0724   -0.0116    0.0908
          29    0.0051   -0.1090   -0.0071    0.0648    0.1241   -0.0492   -0.1189   -0.0466
          30   -0.0949    0.0165    0.0883   -0.0359   -0.0141    0.0280    0.0314    0.0250
          31    0.0407   -0.0831   -0.0391    0.1264   -0.0012    0.0765    0.1500   -0.0149
          32   -0.0290   -0.0723    0.1094    0.0765   -0.0149   -0.0523   -0.0220   -0.0348
          33    0.0838   -0.2065   -0.1410    0.3025    0.0178    0.1692    0.0186    0.0332
          34   -0.0303    0.0290    0.0315   -0.0047   -0.0233   -0.0053   -0.0276   -0.0657
          35   -0.1012    0.1264   -0.2245   -0.1016   -0.0809    0.2780   -0.0176   -0.0088
          36   -0.1423    0.1378    0.0181   -0.0436   -0.1597    0.1598    0.0533    0.0115
          37   -0.0244    0.0873    0.1427    0.0680    0.0907    0.0184    0.0359   -0.0127
          38   -0.0087    0.0992    0.0334    0.0363    0.0938    0.0710    0.1114    0.1224
          39   -0.0164    0.2603    0.1196    0.0970    0.2721    0.1344   -0.0555    0.0567
          40    0.0815   -0.0127    0.0393   -0.0431   -0.1648   -0.0819   -0.0582   -0.0468
          41    0.0226   -0.0151    0.0048   -0.0548   -0.0279   -0.0632    0.0290   -0.1538
          42    0.2420    0.0490   -0.1270   -0.1589   -0.3220   -0.0751    0.0622   -0.0605
          43   -0.0530    0.0005   -0.0400    0.1126   -0.0938    0.0294   -0.0935    0.0305
          44   -0.0797   -0.0050   -0.1329    0.1008   -0.0481    0.0557    0.0602   -0.0479
          45   -0.1841   -0.0082   -0.0289    0.3039   -0.2466   -0.0051   -0.0459   -0.1667
          46   -0.0021    0.0061    0.0316   -0.0032   -0.0020   -0.0112   -0.0469   -0.0639
          47    0.1742   -0.0240    0.2368    0.0528   -0.1186    0.2463   -0.0491   -0.1407
          48    0.1536   -0.0959    0.0410   -0.0605    0.0248    0.2836    0.0311   -0.1724
          49   -0.0137    0.0475    0.1189    0.0551   -0.0578   -0.0730   -0.0013    0.0133
          50    0.1314    0.1365   -0.1420    0.1663    0.0441   -0.2188   -0.0099    0.0326
          51    0.0976    0.1069   -0.1188    0.1271    0.0694   -0.2248    0.0856   -0.0054


   Root No.       9        10        11        12        13        14        15        16

                 9 A      10 A      11 A      12 A      13 A      14 A      15 A      16 A   

                 692.0     745.1     780.5     814.7     839.7     853.0     902.1     935.6
  
           1   -0.1095    0.0376    0.0011    0.0387    0.0537    0.0810    0.2472    0.2643
           2   -0.1374    0.0524   -0.0905    0.0111    0.0199   -0.1226    0.1077    0.1908
           3   -0.3168    0.0431    0.0523    0.2311   -0.2396   -0.0061    0.0915    0.3084
           4   -0.1931    0.0232   -0.0521    0.0180   -0.1677    0.0053   -0.1726   -0.1320
           5    0.2088    0.0221   -0.0707   -0.0456    0.0860    0.1763    0.1707   -0.1480
           6    0.4271    0.0410    0.0417    0.0807    0.0007   -0.0206    0.0367   -0.2543
           7    0.0780   -0.1069    0.2421    0.1084    0.0629    0.2993    0.1171    0.0282
           8   -0.0335   -0.0128   -0.1416   -0.0540   -0.0117    0.0039   -0.0950   -0.1064
           9    0.0176   -0.1735    0.0234    0.1014    0.1770   -0.0897   -0.0068   -0.0394
          10    0.0944    0.0181   -0.1795   -0.2182    0.3195   -0.1804    0.0844    0.0048
          11    0.0946    0.0730    0.2389   -0.0751    0.1335   -0.1903    0.1584   -0.0987
          12   -0.1159    0.0633    0.0866   -0.0954   -0.0619    0.1134    0.0664   -0.1835
          13   -0.2681   -0.0721   -0.1762   -0.2649   -0.1166    0.2443   -0.0741   -0.1606
          14   -0.1588   -0.0800   -0.0515   -0.0901   -0.0556   -0.1367   -0.0920   -0.0367
          15    0.1029   -0.1720    0.1862   -0.0975   -0.0826   -0.1057    0.0502    0.1412
          16    0.1487    0.0173    0.2232    0.2335   -0.2295   -0.1328   -0.2271   -0.0841
          17    0.0008    0.0273    0.0585    0.0030    0.1067    0.2314   -0.1180    0.2707
          18   -0.0151    0.0851   -0.0425   -0.0073    0.1002   -0.0434   -0.3422    0.0900
          19   -0.0183   -0.0531    0.0332    0.1221    0.0901   -0.1670   -0.0359   -0.0360
          20   -0.0226   -0.0293   -0.0033   -0.0568   -0.0335    0.4022    0.0130   -0.1254
          21   -0.1306   -0.1323    0.0485    0.1204    0.1757    0.0269    0.0091   -0.1502
          22    0.0992    0.0057    0.0001   -0.0295    0.0420   -0.0280   -0.0059   -0.0135
          23    0.0129    0.0433    0.3803    0.1332   -0.1522    0.0016   -0.0838   -0.0281
          24   -0.1468    0.0744   -0.1633   -0.2826    0.2919   -0.0529    0.0398    0.0041
          25    0.0686   -0.0480   -0.0114   -0.0571   -0.0090   -0.2147   -0.0264    0.0997
          26    0.0005   -0.0416   -0.0046   -0.0065    0.0015   -0.3254   -0.0928    0.0940
          27    0.1047   -0.1160    0.0761   -0.2232   -0.1283    0.1860   -0.0047    0.1253
          28    0.1029    0.0990   -0.0231    0.0712    0.0143    0.1166    0.2633    0.1491
          29   -0.0143   -0.0987   -0.1023    0.0719    0.0889   -0.1081   -0.0483    0.0718
          30   -0.1547    0.0371    0.0629    0.0036   -0.1138    0.0013   -0.0115    0.0443
          31    0.1291    0.1213    0.0384   -0.1135   -0.1144    0.0830    0.0241    0.0126
          32    0.0375    0.0644   -0.0861   -0.0606   -0.0997   -0.1045   -0.1594   -0.1162
          33    0.2666    0.3253   -0.0603   -0.3361   -0.2637    0.0006    0.0185    0.0323
          34    0.0648   -0.0187   -0.0807   -0.0346    0.0543   -0.0324   -0.0504   -0.0407
          35    0.2648   -0.1865   -0.3179    0.1557    0.0814    0.0620   -0.1118    0.3189
          36    0.2076   -0.1688   -0.2733    0.1588   -0.1174    0.1574   -0.2998    0.0082
          37    0.1114    0.1736   -0.0282    0.1372    0.0409   -0.0213    0.0722   -0.0324
          38   -0.0214    0.1658   -0.1057    0.1115    0.0465   -0.1136   -0.0265   -0.1213
          39    0.0822    0.4011   -0.1547    0.2441    0.0725    0.0635    0.0746   -0.2401
          40    0.0031    0.1827   -0.1098   -0.0234   -0.1130   -0.0622   -0.0302    0.0504
          41   -0.0019    0.0940   -0.0570   -0.0438   -0.0813    0.1062   -0.0040    0.0021
          42    0.0033    0.4257   -0.1237   -0.0250   -0.2488   -0.1037    0.0426    0.2770
          43   -0.1394    0.0942   -0.0905    0.0719    0.0576    0.1251   -0.0271   -0.0696
          44   -0.2200    0.1233   -0.1005    0.1338    0.0374    0.0817   -0.1533   -0.1361
          45   -0.0775    0.2556   -0.0284    0.3838    0.2569    0.0824    0.0703    0.0373
          46    0.0612   -0.0066    0.0597    0.0596   -0.0462   -0.0360    0.0050    0.0075
          47   -0.0317   -0.1665   -0.1079    0.0341   -0.1418   -0.0890    0.5183   -0.0674
          48   -0.1317   -0.1248   -0.1375    0.0778   -0.2803   -0.2171    0.1982   -0.3111
          49    0.0126   -0.0303   -0.0436    0.0005   -0.0503    0.1488    0.0648    0.0237
          50    0.1069   -0.1836   -0.2115    0.2210   -0.2581    0.0252    0.0942    0.0059
          51    0.0562   -0.1607   -0.3512    0.0880   -0.1103   -0.0111    0.1144    0.0088


   Root No.      17        18        19        20        21        22        23        24

                17 A      18 A      19 A      20 A      21 A      22 A      23 A      24 A   

                 957.1     959.5     997.1    1003.1    1025.1    1057.2    1073.1    1095.4
  
           1    0.0006    0.0125   -0.0718    0.0219    0.0498   -0.0377    0.0749   -0.0010
           2   -0.0323    0.0317   -0.0288   -0.0101    0.1305   -0.0283    0.0320    0.1639
           3   -0.0348    0.0467   -0.1128   -0.0967    0.1166    0.0691   -0.0497    0.1103
           4    0.0207   -0.0061    0.0169    0.0051   -0.0048   -0.0345    0.0390   -0.0891
           5   -0.0788   -0.0328    0.0577   -0.1755   -0.0019   -0.0075    0.0594    0.0582
           6   -0.0398   -0.0236    0.0999   -0.1713    0.0152    0.0319    0.0291   -0.0813
           7   -0.1425   -0.1958    0.1169   -0.0985    0.0270    0.1711    0.0236    0.2003
           8    0.0739    0.0086   -0.0382    0.0621   -0.1929   -0.0280   -0.0087   -0.0820
           9    0.0003   -0.1878    0.0778    0.0539   -0.3858   -0.1008   -0.0137   -0.0728
          10   -0.1593    0.0255   -0.0038   -0.0678   -0.0365   -0.0025    0.0198    0.2140
          11   -0.2121    0.0571    0.1334    0.1292   -0.0243    0.0366    0.0066    0.0620
          12    0.0696   -0.0029    0.2093    0.2909    0.0422    0.0037   -0.0244   -0.1960
          13   -0.0432   -0.1368   -0.0374   -0.0086    0.0258   -0.0899   -0.1859   -0.0564
          14    0.0007   -0.0889   -0.1086    0.0893    0.0030    0.0424   -0.0145   -0.0227
          15   -0.0422   -0.2194   -0.2514    0.1981    0.0613    0.0293    0.0509    0.0642
          16    0.0124    0.0312    0.0046   -0.0237   -0.0080    0.0559   -0.1786   -0.2711
          17   -0.1167    0.0190   -0.0157    0.1825    0.0126    0.0274    0.0046    0.0223
          18   -0.1219    0.0637    0.0299    0.1671   -0.0011   -0.0332   -0.0153   -0.0023
          19    0.0274    0.1194   -0.1062    0.0497    0.0825    0.2198    0.1171    0.0899
          20    0.0052    0.0112   -0.0565   -0.0174    0.0068   -0.1960   -0.1329   -0.1017
          21    0.0174    0.2243   -0.2259    0.0578    0.2244   -0.0424   -0.0199   -0.0116
          22    0.0254   -0.0086   -0.0033   -0.0163    0.0008   -0.0374    0.0691    0.0860
          23    0.2342   -0.1029   -0.1011   -0.2036    0.0088   -0.0786    0.0580    0.1285
          24    0.2108   -0.0988   -0.0963   -0.2175    0.0101    0.0590   -0.0408   -0.0952
          25    0.0706    0.1180    0.1005   -0.0246   -0.0495   -0.2459   -0.0946   -0.1248
          26    0.0741    0.1324    0.0988   -0.0153   -0.0552   -0.1431   -0.0501   -0.0851
          27    0.0212    0.1356    0.2749   -0.1657   -0.1146    0.1769    0.0936    0.0726
          28    0.5020    0.1660   -0.0685    0.4245   -0.2948    0.0806   -0.1227    0.1417
          29    0.1856   -0.2600    0.4095    0.0917    0.5976    0.0946   -0.0186   -0.0607
          30   -0.3116    0.0905   -0.2326   -0.2428   -0.1411   -0.0722    0.0577    0.0294
          31   -0.0112    0.1183   -0.0364   -0.0376    0.1565    0.0994    0.0226    0.0765
          32    0.0792    0.1165   -0.0657    0.0322   -0.1095    0.4140    0.1420    0.1124
          33    0.0568    0.3644   -0.1419   -0.0149    0.3017   -0.0768   -0.0249   -0.0355
          34    0.0072   -0.0050    0.0256   -0.0034   -0.0057   -0.0545   -0.0888    0.2849
          35    0.0767   -0.0503   -0.2499   -0.2696   -0.0001    0.0801    0.1848   -0.3176
          36    0.2573   -0.0748   -0.0192   -0.0377    0.0310   -0.1191   -0.1988    0.4115
          37   -0.0118   -0.1036   -0.1522    0.0970    0.0127   -0.2492   -0.0159   -0.1359
          38   -0.0292   -0.0938   -0.1069    0.0544    0.0589    0.0715   -0.0389    0.0431
          39   -0.1016   -0.2844   -0.2857    0.1316    0.1068    0.0696    0.0039    0.0428
          40    0.0359   -0.1111    0.0361    0.0398   -0.2241    0.1953    0.1519   -0.0948
          41    0.0092   -0.0758    0.0275   -0.0010   -0.1089   -0.0101    0.0031   -0.0765
          42   -0.0781   -0.3562    0.2785   -0.0979   -0.1293   -0.0761   -0.0576    0.0587
          43    0.0155    0.1066    0.1111   -0.0948   -0.0151   -0.0259   -0.0471   -0.0315
          44    0.0362    0.1390    0.1369   -0.0795   -0.0567    0.4101    0.1384    0.0023
          45    0.0607    0.3362    0.2416   -0.1926   -0.0259   -0.1920   -0.0269   -0.0256
          46    0.0075    0.0020   -0.0174   -0.0295    0.0044    0.1249   -0.1854   -0.1963
          47    0.1393   -0.0388   -0.0486   -0.1861    0.0141    0.2444   -0.2668   -0.2178
          48    0.1541    0.0014    0.0490   -0.1265   -0.0208   -0.2504    0.3097    0.2697
          49    0.1035   -0.0329    0.0450    0.1665    0.0652   -0.1670    0.6847   -0.2100
          50   -0.3183    0.1409    0.1011    0.2152   -0.0067   -0.0097    0.0129    0.0197
          51   -0.3159    0.1373    0.0920    0.1783   -0.0133    0.0488   -0.0972   -0.0192


   Root No.      25        26        27        28        29        30        31        32

                25 A      26 A      27 A      28 A      29 A      30 A      31 A      32 A   

                1118.3    1142.7    1172.8    1190.8    1288.7    1354.9    1398.7    1426.0
  
           1    0.0935    0.1156    0.0418    0.3350    0.3579    0.3550    0.1474    0.0849
           2    0.0223   -0.0043    0.2186   -0.0246    0.1390   -0.2588    0.0670    0.5025
           3   -0.0178   -0.0365   -0.1454   -0.1388   -0.3248    0.0492    0.0076   -0.2671
           4    0.0377   -0.0393    0.0179    0.2813    0.0198   -0.1447   -0.3185   -0.3930
           5    0.0708   -0.0154   -0.1469    0.0605    0.1151   -0.0348    0.0150   -0.1132
           6    0.0068    0.0051    0.1334   -0.0303   -0.0432    0.0761   -0.0084    0.0665
           7   -0.0933   -0.0000   -0.0019   -0.0715   -0.1053   -0.1588    0.0227    0.1557
           8   -0.0488    0.0364    0.1068   -0.0599    0.2519   -0.0904   -0.1645   -0.2051
           9    0.0302   -0.0100    0.0200    0.0217    0.0122    0.0635    0.0192   -0.0057
          10    0.0064   -0.0419   -0.1032   -0.0872   -0.1423    0.0380   -0.0327   -0.1374
          11   -0.0122   -0.0274    0.0631   -0.0066   -0.2636   -0.0200    0.1282   -0.1721
          12   -0.0062    0.0261   -0.1131    0.0195    0.3082    0.0489   -0.1473    0.1830
          13   -0.1764   -0.0308   -0.0037   -0.1222   -0.1923    0.0057    0.0563    0.1965
          14    0.0457    0.0281   -0.0947    0.0651   -0.1057   -0.2358   -0.0774    0.1094
          15    0.0367   -0.0114    0.0177   -0.0172    0.1212    0.1014    0.0354   -0.1304
          16   -0.0876    0.0235   -0.0968   -0.0997    0.1156   -0.2623    0.4330    0.0402
          17    0.0275   -0.0101   -0.1490    0.0100    0.1744   -0.0385    0.1800   -0.1889
          18   -0.0413    0.0104    0.1601   -0.0117   -0.2017    0.0607   -0.2238    0.1948
          19    0.0671    0.0584    0.0801   -0.0651    0.2036   -0.2536   -0.2073   -0.1509
          20   -0.0504   -0.0159   -0.0431   -0.0784   -0.0882    0.1849    0.0559   -0.1110
          21    0.0027   -0.0340   -0.0396    0.0505   -0.0720    0.0636    0.0708    0.0807
          22   -0.0230   -0.0113   -0.0848   -0.1356    0.0043    0.1868   -0.3766    0.2238
          23    0.0294    0.0189    0.0253   -0.0012   -0.0386    0.1790   -0.2127    0.0623
          24   -0.0089   -0.0126   -0.0024    0.0231    0.0483   -0.2112    0.2617   -0.0804
          25    0.0160   -0.0519    0.1042   -0.1183    0.0202    0.3446    0.1738   -0.0890
          26   -0.0198    0.0285    0.0179    0.0431   -0.1103    0.0385   -0.0043    0.1091
          27    0.0359    0.0289   -0.0462    0.0466    0.0427   -0.1661   -0.0776   -0.0080
          28   -0.1044   -0.0702   -0.0432   -0.2131   -0.1181   -0.0935   -0.0141    0.0012
          29    0.0314    0.0139   -0.1631    0.0233   -0.0610    0.0905   -0.0044   -0.0757
          30    0.0347    0.0230    0.1000    0.0715    0.0537    0.0064    0.0339    0.0444
          31   -0.0475   -0.0158   -0.0273    0.0176   -0.0428   -0.0275    0.0195    0.0551
          32   -0.4044   -0.3069   -0.1988    0.4602   -0.0617    0.2429    0.1398    0.1022
          33    0.1055    0.0691    0.0261   -0.0821    0.0209   -0.0248   -0.0344   -0.0541
          34    0.0856    0.0161    0.1018    0.0860   -0.0900   -0.0033    0.0804   -0.0848
          35   -0.1449   -0.0532   -0.1957   -0.2074    0.0140    0.0190   -0.1350    0.0508
          36    0.1709    0.0683    0.2467    0.2277    0.0020   -0.0332    0.1405   -0.0200
          37    0.4058   -0.5030   -0.1937    0.1899   -0.1282   -0.1238   -0.0239    0.1216
          38   -0.2840    0.3337    0.1563   -0.1457    0.0500    0.1749    0.0532   -0.0668
          39   -0.0603    0.0672    0.0148   -0.0232    0.0281   -0.0138   -0.0125   -0.0278
          40    0.3874    0.5286   -0.2309    0.1122   -0.2388    0.0323    0.0674    0.1208
          41    0.1165    0.1865   -0.1075    0.0253   -0.1392    0.1028    0.0665    0.0237
          42   -0.1816   -0.2486    0.1147   -0.0514    0.1238   -0.0343   -0.0415   -0.0595
          43   -0.0397   -0.0188    0.0109   -0.0375   -0.0595    0.0119    0.0182    0.0601
          44    0.4194   -0.2962    0.2207   -0.3522    0.0828    0.2409    0.1300   -0.0088
          45   -0.1665    0.1421   -0.0909    0.1937   -0.0170   -0.1128   -0.0704   -0.0212
          46   -0.0140    0.0047    0.1276    0.0528   -0.0474   -0.0643    0.0389    0.0324
          47    0.0434   -0.0142    0.2861    0.1742   -0.1212    0.0277   -0.1433   -0.0196
          48   -0.0363    0.0017   -0.3050   -0.1976    0.1235   -0.0340    0.1490    0.0270
          49   -0.1219   -0.0187    0.4155    0.0798   -0.2469   -0.1144    0.1656   -0.0674
          50   -0.0002    0.0023    0.0083   -0.0048   -0.0185    0.0534   -0.0622    0.0181
          51    0.0021   -0.0049   -0.0531   -0.0120    0.0415   -0.0508    0.0514   -0.0044


   Root No.      33        34        35        36        37        38        39        40

                33 A      34 A      35 A      36 A      37 A      38 A      39 A      40 A   

                1494.4    1735.5    1792.2    1815.4    1857.0    2837.0    3055.6    3062.7
  
           1   -0.3633    0.0130    0.0052    0.0211   -0.0051   -0.0912    0.0003   -0.0009
           2    0.3815   -0.0379    0.0027   -0.0832   -0.0792   -0.1163    0.0019    0.0000
           3   -0.1074    0.0183   -0.0055    0.0230    0.0237   -0.2242   -0.0004    0.0001
           4    0.4856    0.0364    0.0693    0.0510   -0.0295   -0.0046    0.0010   -0.0003
           5    0.0466    0.2013   -0.1609   -0.3081    0.4351    0.0018   -0.0013   -0.0004
           6   -0.0411   -0.1750    0.1630    0.2750   -0.3673   -0.0034    0.0006    0.0003
           7    0.1356   -0.0074   -0.0691    0.2307    0.1581    0.0000   -0.0910   -0.0874
           8   -0.2772   -0.0186   -0.0787    0.4764    0.3087   -0.0067    0.0199    0.0145
           9    0.0095    0.0143    0.0420   -0.1911   -0.1244   -0.0002    0.0329    0.0327
          10    0.0165   -0.5344   -0.0925   -0.0697    0.0733   -0.0007   -0.0002   -0.0005
          11   -0.1088    0.2928    0.0641    0.0546   -0.0566    0.0026    0.0002    0.0003
          12    0.0943   -0.2457   -0.0534   -0.0612    0.0489   -0.0052    0.0002   -0.0000
          13   -0.1871   -0.0723    0.2509    0.0268    0.0299   -0.0001   -0.0471    0.1371
          14   -0.2252   -0.0007   -0.4956    0.0864   -0.3602   -0.0012    0.0036   -0.0173
          15    0.1638    0.0323    0.1190   -0.0576    0.1552    0.0000    0.0156   -0.0429
          16   -0.0734    0.0122   -0.0556   -0.1054    0.1173    0.0006   -0.0001    0.0005
          17    0.1267   -0.0795    0.1847    0.2138   -0.2508   -0.0029    0.0003   -0.0001
          18   -0.1215    0.0788   -0.1819   -0.2091    0.2426    0.0019   -0.0002    0.0000
          19   -0.2525   -0.0134    0.1784   -0.3740   -0.2157    0.0027    0.0769    0.0397
          20    0.0299    0.0202    0.0320   -0.3670   -0.2496    0.0018   -0.2092   -0.0970
          21    0.0868    0.0010   -0.0723    0.2257    0.1414   -0.0024    0.0135    0.0047
          22    0.0065    0.5561    0.1053    0.1198   -0.1268    0.0029   -0.0000    0.0002
          23   -0.0376   -0.2524   -0.0609   -0.0406    0.0404   -0.0015   -0.0001   -0.0002
          24    0.0458    0.2039    0.0508    0.0313   -0.0307    0.0003    0.0001    0.0000
          25    0.2521    0.0701   -0.4137    0.0773   -0.0972   -0.0015    0.0550   -0.0841
          26   -0.0115   -0.0773    0.5111    0.0138    0.2110    0.0008    0.1039   -0.1457
          27   -0.0937    0.0051   -0.0493   -0.0351   -0.0482    0.0006   -0.0662    0.0956
          28    0.0448   -0.0165   -0.0106   -0.0026    0.0156    0.3211   -0.0008   -0.0005
          29   -0.0644    0.0025   -0.0049   -0.0042    0.0085    0.4245    0.0001    0.0003
          30    0.0032   -0.0022    0.0041    0.0100   -0.0159    0.8027   -0.0005    0.0003
          31    0.0438   -0.0034   -0.0230    0.0773    0.0551   -0.0031    0.3251    0.3080
          32    0.0433    0.0061   -0.0030   -0.0472   -0.0383   -0.0003   -0.0519   -0.0470
          33   -0.0332   -0.0004    0.0112   -0.0238   -0.0148   -0.0010   -0.1222   -0.1161
          34   -0.0341   -0.1135   -0.0175   -0.0118    0.0140   -0.0047   -0.0003    0.0006
          35    0.0465   -0.0574   -0.0124   -0.0070    0.0068   -0.0007    0.0002    0.0003
          36   -0.0371    0.0811    0.0143    0.0073   -0.0077   -0.0003   -0.0000   -0.0003
          37   -0.0758   -0.0228    0.0784    0.0477    0.0450   -0.0000   -0.1950    0.2905
          38    0.1027    0.0017    0.0424   -0.0100    0.0202    0.0001   -0.3415    0.4891
[...]
 TRANSITION DIPOLE   0.0440         C  8 -- H 17         +10.1% ( 41.9%)      0.2%
 TRAVEL (Ang.)       0.4995         C  1 -- C  2          +8.5% ( 38.6%)      0.3%
 REDUCED MASS        0.2305         C  4 -- H 12          +8.4% ( 38.4%)      0.6%
 EFFECTIVE MASS      3.0341
 FORCE CONSTANT      0.1868

 VIBRATION         28   28A           ATOM PAIR      ENERGY CONTRIBUTION    RADIAL
 FREQUENCY          1190.80         C  3 -- H 11         +12.6% ( 46.4%)      0.9%
 TRANSITION DIPOLE   0.1144         C  1 -- H 10         +10.1% ( 41.4%)      0.1%
 TRAVEL (Ang.)       0.3723         C  5 -- H 15          +9.9% ( 41.1%)      3.3%
 REDUCED MASS        0.4086         C  1 -- C  4          +7.7% ( 36.1%)     19.6%
 EFFECTIVE MASS      3.8070
 FORCE CONSTANT      0.3414

 VIBRATION         29   29A           ATOM PAIR      ENERGY CONTRIBUTION    RADIAL
 FREQUENCY          1288.70         C  1 -- C  4         +17.5% ( 66.6%)     85.9%
 TRANSITION DIPOLE   0.3206         C  1 -- C  3          +9.6% ( 49.3%)     22.1%
 TRAVEL (Ang.)       0.1910         C  4 -- C  6          +8.7% ( 46.8%)     18.9%
 REDUCED MASS        1.4336         C  1 -- H 10          +8.0% ( 45.1%)      1.2%
 EFFECTIVE MASS      9.2484
 FORCE CONSTANT      1.4027

 VIBRATION         30   30A           ATOM PAIR      ENERGY CONTRIBUTION    RADIAL
 FREQUENCY          1354.89         C  7 -- C  9         +11.3% ( 53.4%)     99.3%
 TRANSITION DIPOLE   0.4145         C  6 -- C  8          +8.6% ( 46.5%)    100.0%
 TRAVEL (Ang.)       0.2078         C  1 -- C  2          +8.1% ( 45.1%)     83.1%
 REDUCED MASS        1.1528         C  1 -- C  3          +7.8% ( 44.1%)     40.6%
 EFFECTIVE MASS      9.6963
 FORCE CONSTANT      1.2469

 VIBRATION         31   31A           ATOM PAIR      ENERGY CONTRIBUTION    RADIAL
 FREQUENCY          1398.68         C  6 -- C  8         +21.5% ( 75.2%)    100.0%
 TRANSITION DIPOLE   0.3491         C  2 -- C  6         +10.7% ( 53.1%)      0.0%
 TRAVEL (Ang.)       0.1603         C  2 -- C  8          +9.8% ( 50.6%)     97.7%
 REDUCED MASS        1.8751         C  4 -- C  6          +8.9% ( 48.3%)     98.6%
 EFFECTIVE MASS     10.1303
 FORCE CONSTANT      2.1613

 VIBRATION         32   32A           ATOM PAIR      ENERGY CONTRIBUTION    RADIAL
 FREQUENCY          1425.99         C  1 -- C  2         +13.5% ( 62.0%)     31.8%
 TRANSITION DIPOLE   0.2582         C  1 -- C  4         +13.0% ( 60.8%)     91.3%
 TRAVEL (Ang.)       0.1539         C  1 -- C  3         +12.1% ( 58.8%)     81.6%
 REDUCED MASS        1.9976         C  1 -- H 10          +8.7% ( 49.7%)      0.2%
 EFFECTIVE MASS     11.1940
 FORCE CONSTANT      2.3932

 VIBRATION         33   33A           ATOM PAIR      ENERGY CONTRIBUTION    RADIAL
 FREQUENCY          1494.39         C  1 -- C  2         +16.0% ( 64.8%)     86.1%
 TRANSITION DIPOLE   0.3747         C  1 -- C  3         +13.2% ( 58.9%)     90.9%
 TRAVEL (Ang.)       0.1465         C  2 -- C  5         +11.4% ( 54.8%)     67.5%
 REDUCED MASS        2.1021         C  1 -- C  4          +8.5% ( 47.3%)     32.6%
 EFFECTIVE MASS     11.4348
 FORCE CONSTANT      2.7658

 VIBRATION         34   34A           ATOM PAIR      ENERGY CONTRIBUTION    RADIAL
 FREQUENCY          1735.55         C  4 -- C  8         +32.2% ( 96.1%)    100.0%
 TRANSITION DIPOLE   0.4717         C  2 -- C  8         +11.3% ( 57.0%)     26.1%
 TRAVEL (Ang.)       0.0943         C  1 -- C  4         +10.1% ( 53.7%)     17.1%
 REDUCED MASS        4.3696         C  4 -- C  6         +10.0% ( 53.6%)     47.3%
 EFFECTIVE MASS     11.9590
 FORCE CONSTANT      7.7547

 VIBRATION         35   35A           ATOM PAIR      ENERGY CONTRIBUTION    RADIAL
 FREQUENCY          1792.19         C  5 -- C  9         +34.0% ( 88.4%)     99.4%
 TRANSITION DIPOLE   0.2541         C  7 -- C  9         +14.1% ( 56.8%)     68.0%
 TRAVEL (Ang.)       0.1016         C  9 -- H 13         +11.8% ( 52.0%)      4.0%
 REDUCED MASS        3.6466         C  2 -- C  5          +9.5% ( 46.6%)     11.2%
 EFFECTIVE MASS     11.9043
 FORCE CONSTANT      6.9009

 VIBRATION         36   36A           ATOM PAIR      ENERGY CONTRIBUTION    RADIAL
 FREQUENCY          1815.43         C  3 -- C  7         +27.2% ( 81.2%)    100.0%
 TRANSITION DIPOLE   0.4290         C  2 -- C  6         +11.4% ( 52.7%)     98.3%
 TRAVEL (Ang.)       0.1119         C  7 -- C  9          +9.0% ( 46.8%)     49.1%
 REDUCED MASS        2.9670         C  1 -- C  3          +8.8% ( 46.1%)     49.0%
 EFFECTIVE MASS     11.8830
 FORCE CONSTANT      5.7614

 VIBRATION         37   37A           ATOM PAIR      ENERGY CONTRIBUTION    RADIAL
 FREQUENCY          1856.95         C  2 -- C  6         +17.7% ( 66.2%)     96.4%
 TRANSITION DIPOLE   0.2270         C  2 -- C  5         +15.0% ( 61.1%)     71.8%
 TRAVEL (Ang.)       0.1272         C  3 -- C  7         +10.6% ( 51.2%)     99.9%
 REDUCED MASS        2.2426         C  2 -- C  8          +9.2% ( 47.8%)     97.2%
 EFFECTIVE MASS     11.8518
 FORCE CONSTANT      4.5562

 VIBRATION         38   38A           ATOM PAIR      ENERGY CONTRIBUTION    RADIAL
 FREQUENCY          2837.02         C  1 -- H 10         +97.2% (100.0%)    100.0%
 TRANSITION DIPOLE   0.2826         C  1 -- C  2          +0.9% (  9.7%)     10.7%
 TRAVEL (Ang.)       0.1599         C  1 -- C  4          +0.9% (  9.7%)      7.8%
 REDUCED MASS        0.9298         C  1 -- C  3          +0.9% (  9.7%)      6.7%
 EFFECTIVE MASS      1.4217
 FORCE CONSTANT      4.4092

 VIBRATION         39   39A           ATOM PAIR      ENERGY CONTRIBUTION    RADIAL
 FREQUENCY          3055.63         C  7 -- H 14         +59.5% ( 78.4%)    100.0%
 TRANSITION DIPOLE   0.1211         C  9 -- H 13         +21.7% ( 47.4%)    100.0%
 TRAVEL (Ang.)       0.2316         C  3 -- H 11         +13.0% ( 36.7%)     99.9%
 REDUCED MASS        0.4115         C  5 -- H 15          +3.2% ( 18.1%)     99.9%
 EFFECTIVE MASS      1.4856
 FORCE CONSTANT      2.2635

 VIBRATION         40   40A           ATOM PAIR      ENERGY CONTRIBUTION    RADIAL
 FREQUENCY          3062.67         C  9 -- H 13         +45.4% ( 68.4%)    100.0%
 TRANSITION DIPOLE   0.3884         C  5 -- H 15         +26.9% ( 52.6%)    100.0%
 TRAVEL (Ang.)       0.2690         C  7 -- H 14         +13.4% ( 37.2%)    100.0%
 REDUCED MASS        0.3042         C  3 -- H 11         +11.7% ( 34.7%)    100.0%
 EFFECTIVE MASS      1.4641
 FORCE CONSTANT      1.6812

 VIBRATION         41   41A           ATOM PAIR      ENERGY CONTRIBUTION    RADIAL
 FREQUENCY          3077.65         C  3 -- H 11         +49.8% ( 71.7%)    100.0%
 TRANSITION DIPOLE   0.4931         C  5 -- H 15         +31.2% ( 56.8%)    100.0%
 TRAVEL (Ang.)       0.2476         C  7 -- H 14          +9.6% ( 31.6%)     99.6%
 REDUCED MASS        0.3574         C  9 -- H 13          +5.8% ( 24.5%)     99.6%
 EFFECTIVE MASS      1.5635
 FORCE CONSTANT      1.9946

 VIBRATION         42   42A           ATOM PAIR      ENERGY CONTRIBUTION    RADIAL
 FREQUENCY          3083.36         C  5 -- H 15         +35.6% ( 60.6%)     99.9%
 TRANSITION DIPOLE   0.2716         C  9 -- H 13         +24.0% ( 49.7%)     99.9%
 TRAVEL (Ang.)       0.2921         C  3 -- H 11         +22.4% ( 48.0%)     99.9%
 REDUCED MASS        0.2563         C  7 -- H 14         +14.3% ( 38.3%)    100.0%
 EFFECTIVE MASS      1.6051
 FORCE CONSTANT      1.4356

 VIBRATION         43   43A           ATOM PAIR      ENERGY CONTRIBUTION    RADIAL
 FREQUENCY          3131.20         C  8 -- H 17         +70.3% ( 85.9%)    100.0%
 TRANSITION DIPOLE   0.2658         C  4 -- H 12         +20.4% ( 46.3%)    100.0%
 TRAVEL (Ang.)       0.1980         C  6 -- H 16          +4.9% ( 22.6%)    100.0%
 REDUCED MASS        0.5492         C  6 -- C  8          +1.2% ( 11.3%)     11.9%
 EFFECTIVE MASS      1.4926
 FORCE CONSTANT      3.1723

 VIBRATION         44   44A           ATOM PAIR      ENERGY CONTRIBUTION    RADIAL
 FREQUENCY          3140.96         C  6 -- H 16         +77.8% ( 90.5%)    100.0%
 TRANSITION DIPOLE   0.5115         C  4 -- H 12         +17.2% ( 42.5%)    100.0%
 TRAVEL (Ang.)       0.1811         C  4 -- C  6          +1.5% ( 12.7%)     43.4%
 REDUCED MASS        0.6546         C  2 -- C  6          +1.5% ( 12.4%)     47.8%
 EFFECTIVE MASS      1.5433
 FORCE CONSTANT      3.8050

 VIBRATION         45   45A           ATOM PAIR      ENERGY CONTRIBUTION    RADIAL
 FREQUENCY          3152.34         C  4 -- H 12         +57.1% ( 77.7%)    100.0%
 TRANSITION DIPOLE   0.4365         C  8 -- H 17         +24.6% ( 51.0%)     99.9%
 TRAVEL (Ang.)       0.2245         C  6 -- H 16         +12.2% ( 35.9%)    100.0%
 REDUCED MASS        0.4245         C  4 -- C  8          +2.0% ( 14.7%)     96.4%
 EFFECTIVE MASS      1.6516
 FORCE CONSTANT      2.4855

      SYMMETRY NUMBER FOR POINT-GROUP C1  =  1


          SYSTEM IS A GROUND STATE



 InChI=1S/C9H8/c1-2-5-9-7-3-6-8(9)4-1/h1-8H


          MOLECULE IS NOT LINEAR

          THERE ARE 45 GENUINE VIBRATIONS IN THIS SYSTEM
          THIS THERMODYNAMICS CALCULATION IS LIMITED TO
          MOLECULES WHICH HAVE NO INTERNAL ROTATIONS




                    CALCULATED THERMODYNAMIC PROPERTIES
                                          *
   TEMP. (K)   PARTITION FUNCTION   H.O.F.    ENTHALPY  HEAT CAPACITY ENTROPY
                                   KCAL/MOL   CAL/MOLE    CAL/K/MOL  CAL/K/MOL


 298.00  VIB.     0.8241D+01                  2339.0804    21.0623    12.0405
         ROT.     0.3266D+06                   888.2803     2.9808    28.2115
         INT.     0.2692D+07                  3227.3607    24.0431    40.2521
         TRA.     0.1210D+28                  1480.4672     4.9680    40.1623
         TOT.                       68.123    4707.8279    29.0111    80.4144

 200.00  VIB.     0.2638D+01                   783.8835    10.8914     5.8472
         ROT.     0.1796D+06                   596.1613     2.9808    27.0228
         INT.     0.4738D+06                  1380.0448    13.8722    32.8700
         TRA.     0.6655D+27                   993.6021     4.9680    38.1812
         TOT.                       65.789    2373.6469    18.8402    71.0512

 210.00  VIB.     0.2917D+01                   897.5624    11.8493     6.4016
         ROT.     0.1932D+06                   625.9693     2.9808    27.1683
         INT.     0.5637D+06                  1523.5317    14.8301    33.5699
         TRA.     0.7160D+27                  1043.2822     4.9680    38.4236
         TOT.                       65.982    2566.8140    19.7981    71.9935

 220.00  VIB.     0.3238D+01                  1020.9617    12.8349     6.9755
         ROT.     0.2072D+06                   655.7774     2.9808    27.3069
         INT.     0.6708D+06                  1676.7391    15.8157    34.2824
         TRA.     0.7678D+27                  1092.9623     4.9680    38.6547
         TOT.                       66.185    2769.7014    20.7837    72.9372

 230.00  VIB.     0.3607D+01                  1154.3407    13.8446     7.5682
         ROT.     0.2215D+06                   685.5855     2.9808    27.4394
         INT.     0.7989D+06                  1839.9261    16.8254    35.0077
         TRA.     0.8207D+27                  1142.6424     4.9680    38.8756
         TOT.                       66.398    2982.5686    21.7934    73.8832

 240.00  VIB.     0.4033D+01                  1297.9220    14.8747     8.1791
         ROT.     0.2361D+06                   715.3935     2.9808    27.5663
         INT.     0.9521D+06                  2013.3155    17.8555    35.7454
         TRA.     0.8748D+27                  1192.3226     4.9680    39.0870
         TOT.                       66.621    3205.6380    22.8235    74.8324

 250.00  VIB.     0.4525D+01                  1451.8903    15.9214     8.8075
         ROT.     0.2510D+06                   745.2016     2.9808    27.6880
         INT.     0.1136D+07                  2197.0919    18.9022    36.4955
         TRA.     0.9301D+27                  1242.0027     4.9680    39.2898
         TOT.                       66.854    3439.0946    23.8702    75.7853

 260.00  VIB.     0.5095D+01                  1616.3926    16.9809     9.4526
         ROT.     0.2662D+06                   775.0097     2.9808    27.8049
         INT.     0.1356D+07                  2391.4023    19.9617    37.2575
         TRA.     0.9864D+27                  1291.6828     4.9680    39.4846
         TOT.                       67.098    3683.0850    24.9297    76.7421

 270.00  VIB.     0.5756D+01                  1791.5387    18.0496    10.1135
         ROT.     0.2817D+06                   804.8177     2.9808    27.9174
         INT.     0.1621D+07                  2596.3565    21.0304    38.0309
         TRA.     0.1044D+28                  1341.3629     4.9680    39.6721
         TOT.                       67.353    3937.7193    25.9984    77.7030

 280.00  VIB.     0.6525D+01                  1977.4032    19.1240    10.7893
         ROT.     0.2975D+06                   834.6258     2.9808    28.0258
         INT.     0.1941D+07                  2812.0290    22.1048    38.8151
         TRA.     0.1102D+28                  1391.0430     4.9680    39.8528
         TOT.                       67.618    4203.0720    27.0728    78.6679

 290.00  VIB.     0.7419D+01                  2174.0270    20.2009    11.4792
         ROT.     0.3136D+06                   864.4339     2.9808    28.1304
         INT.     0.2326D+07                  3038.4608    23.1817    39.6096
         TRA.     0.1162D+28                  1440.7231     4.9680    40.0272
         TOT.                       67.894    4479.1839    28.1497    79.6367

 300.00  VIB.     0.8463D+01                  2381.4201    21.2774    12.1822
         ROT.     0.3299D+06                   894.2419     2.9808    28.2314
         INT.     0.2792D+07                  3275.6620    24.2582    40.4136
         TRA.     0.1223D+28                  1490.4032     4.9680    40.1956
         TOT.                       68.181    4766.0652    29.2262    80.6092

 310.00  VIB.     0.9683D+01                  2599.5640    22.3507    12.8973
         ROT.     0.3466D+06                   924.0500     2.9808    28.3292
         INT.     0.3356D+07                  3523.6140    25.3315    41.2265
         TRA.     0.1284D+28                  1540.0833     4.9680    40.3585
         TOT.                       68.479    5063.6973    30.2995    81.5850

 320.00  VIB.     0.1111D+02                  2828.4144    23.4183    13.6238
         ROT.     0.3635D+06                   953.8580     2.9808    28.4238
         INT.     0.4038D+07                  3782.2725    26.3991    42.0477
         TRA.     0.1347D+28                  1589.7634     4.9680    40.5162
         TOT.                       68.787    5372.0359    31.3671    82.5639

 330.00  VIB.     0.1279D+02                  3067.9040    24.4781    14.3607
         ROT.     0.3806D+06                   983.6661     2.9808    28.5155
         INT.     0.4867D+07                  4051.5701    27.4590    42.8762
         TRA.     0.1410D+28                  1639.4435     4.9680    40.6691
         TOT.                       69.106    5691.0136    32.4270    83.5453

 340.00  VIB.     0.1475D+02                  3317.9450    25.5283    15.1071
         ROT.     0.3981D+06                  1013.4742     2.9808    28.6045
         INT.     0.5872D+07                  4331.4192    28.5091    43.7116
         TRA.     0.1475D+28                  1689.1236     4.9680    40.8174
         TOT.                       69.436    6020.5428    33.4771    84.5290

 350.00  VIB.     0.1707D+02                  3578.4317    26.5670    15.8621
         ROT.     0.4158D+06                  1043.2822     2.9808    28.6909
         INT.     0.7096D+07                  4621.7139    29.5478    44.5530
         TRA.     0.1541D+28                  1738.8037     4.9680    40.9614
         TOT.                       69.776    6360.5177    34.5159    85.5144

 360.00  VIB.     0.1979D+02                  3849.2431    27.5930    16.6249
         ROT.     0.4337D+06                  1073.0903     2.9808    28.7749
         INT.     0.8585D+07                  4922.3334    30.5738    45.3998
         TRA.     0.1607D+28                  1788.4838     4.9680    41.1014
         TOT.                       70.126    6710.8173    35.5418    86.5012

 370.00  VIB.     0.2301D+02                  4130.2451    28.6050    17.3948
         ROT.     0.4519D+06                  1102.8984     2.9808    28.8566
         INT.     0.1040D+08                  5233.1434    31.5858    46.2513
         TRA.     0.1675D+28                  1838.1639     4.9680    41.2375
         TOT.                       70.487    7071.3074    36.5538    87.4888

 380.00  VIB.     0.2682D+02                  4421.2924    29.6019    18.1709
         ROT.     0.4703D+06                  1132.7064     2.9808    28.9361
         INT.     0.1261D+08                  5553.9988    32.5827    47.1070
         TRA.     0.1743D+28                  1887.8440     4.9680    41.3700
         TOT.                       70.857    7441.8429    37.5507    88.4769

 390.00  VIB.     0.3132D+02                  4722.2309    30.5831    18.9525
         ROT.     0.4890D+06                  1162.5145     2.9808    29.0135
         INT.     0.1531D+08                  5884.7454    33.5639    47.9660
         TRA.     0.1812D+28                  1937.5242     4.9680    41.4990
         TOT.                       71.237    7822.2695    38.5319    89.4650

 400.00  VIB.     0.3665D+02                  5032.8989    31.5477    19.7390
         ROT.     0.5080D+06                  1192.3226     2.9808    29.0890
         INT.     0.1862D+08                  6225.2215    34.5286    48.8280
         TRA.     0.1882D+28                  1987.2043     4.9680    41.6248
         TOT.                       71.628    8212.4257    39.4966    90.4528

   *: NOTE: HEATS OF FORMATION ARE RELATIVE TO THE
            ELEMENTS IN THEIR STANDARD STATE AT 298K
              (=  Standard Enthalpy of Formation).

            Hvib:  Zero-point energy is not included.
                   frequencies of less than zero cm-1 are not included.
            Hrot = (3/2)RT
            Htra = (3/2)RT + pV = (5/2)RT

            Heat capacity is Cp, not Cv

          For more information, see: HTTP://OpenMOPAC.net/Manual/thermochemistry.html


           FORCE CONSTANT IN CARTESIAN COORDINATES (Millidynes/A)

    ATOM   CHEMICAL       X               Y               Z
   NUMBER   SYMBOL  FORCE CONSTANT  FORCE CONSTANT  FORCE CONSTANT

      1       C        8.641821        9.792177        7.930797
      2       C        9.496174       10.552520        8.375380
      3       C       10.611105       11.914516        4.374193
      4       C       14.701033        5.687946        6.110760
      5       C       10.884897       12.000528        4.559378
      6       C       12.395090        7.284211        7.296808
      7       C       10.394925       12.709910        4.139857
      8       C       11.405404        7.731997        8.021846
      9       C       10.039389       12.584825        4.478135
     10       H        0.983490        1.328054        3.260855
     11       H        4.506826        0.808693        0.953272
     12       H        4.831627        0.619796        0.998245
     13       H        1.546009        3.186375        1.530387
     14       H        1.293614        4.533352        0.425887
     15       H        4.687506        0.771046        0.797034
     16       H        4.961933        0.768859        0.713260
     17       H        0.735241        2.728789        2.983567

 **********************
 *                    *
 * JOB ENDED NORMALLY *
 *                    *
 **********************



 TOTAL JOB TIME:             1.40 SECONDS

 == MOPAC DONE ==
