 *******************************************************************************
 **                                                                           **
 **                              MOPAC v23.1.2                                **
 **                                                                           **
 *******************************************************************************
 **          Digital Object Identifier (DOI): 10.5281/zenodo.6511958          **
 **    Visit the DOI location for information on how to cite this program.    **
 *******************************************************************************

                              PM3 CALCULATION RESULTS

 *******************************************************************************
 *  CALCULATION DONE: (MAX THREADS = 1)              Tue Jun  3 16:29:58 2025  *
 *  PM3        - The PM3 Hamiltonian to be used
 *  PRECISE    - TIGHTER CRITERIA TO BE USED
 *  NOSYM      - POINT-GROUP SYMMETRY SET TO C1
 *  THREADS=1  - MULTI-THREADING NOT USED
 *  T=         - A TIME OF 172800.0 SECONDS REQUESTED
 *  DUMP=N     - RESTART FILE WRITTEN EVERY 7200.0 SECONDS REQUESTED
 *******************************************************************************
pm3  precise nosym THREADS=1
 InChI=1S/C9H12/c1-2-6-9-7-4-3-5-8-9/h3-5,7-8H,2,6H2,1H3

   ATOM   CHEMICAL          X               Y               Z
  NUMBER   SYMBOL      (ANGSTROMS)     (ANGSTROMS)     (ANGSTROMS)

     1       C         -1.78950000  *  -0.08440000  *   0.62790000  *
     2       C         -1.00370000  *  -0.19880000  *  -0.68230000  *
     3       C         -3.28580000  *  -0.26640000  *   0.39130000  *
     4       C          0.46960000  *  -0.01710000  *  -0.43280000  *
     5       C          1.04080000  *   1.26630000  *  -0.46250000  *
     6       C          1.27610000  *  -1.12230000  *  -0.11280000  *
     7       C          2.40360000  *   1.43690000  *  -0.19900000  *
     8       C          3.20220000  *   0.33090000  *   0.10500000  *
     9       C          2.63850000  *  -0.94730000  *   0.15000000  *
    10       H         -1.44100000  *  -0.86160000  *   1.34290000  *
    11       H         -1.61610000  *   0.91550000  *   1.08280000  *
    12       H         -1.36040000  *   0.57050000  *  -1.40230000  *
    13       H         -1.18650000  *  -1.19420000  *  -1.14400000  *
    14       H         -3.82800000  *  -0.17860000  *   1.35630000  *
    15       H         -3.66470000  *   0.51490000  *  -0.30150000  *
    16       H         -3.48890000  *  -1.26970000  *  -0.04020000  *
    17       H          0.43110000  *   2.13260000  *  -0.68790000  *
    18       H          2.83990000  *   2.42700000  *  -0.22710000  *
    19       H          4.25640000  *   0.46470000  *   0.31000000  *
    20       H          3.25650000  *  -1.80220000  *   0.39200000  *
    21       H          0.84980000  *  -2.11680000  *  -0.06580000  *



          CARTESIAN COORDINATES 

    NO.       ATOM           X           Y           Z

     1         C         -1.7895     -0.0844      0.6279
     2         C         -1.0037     -0.1988     -0.6823
     3         C         -3.2858     -0.2664      0.3913
     4         C          0.4696     -0.0171     -0.4328
     5         C          1.0408      1.2663     -0.4625
     6         C          1.2761     -1.1223     -0.1128
     7         C          2.4036      1.4369     -0.1990
     8         C          3.2022      0.3309      0.1050
     9         C          2.6385     -0.9473      0.1500
    10         H         -1.4410     -0.8616      1.3429
    11         H         -1.6161      0.9155      1.0828
    12         H         -1.3604      0.5705     -1.4023
    13         H         -1.1865     -1.1942     -1.1440
    14         H         -3.8280     -0.1786      1.3563
    15         H         -3.6647      0.5149     -0.3015
    16         H         -3.4889     -1.2697     -0.0402
    17         H          0.4311      2.1326     -0.6879
    18         H          2.8399      2.4270     -0.2271
    19         H          4.2564      0.4647      0.3100
    20         H          3.2565     -1.8022      0.3920
    21         H          0.8498     -2.1168     -0.0658

  H: (PM3): J. J. P. STEWART, J. COMP. CHEM. 10, 209 (1989).
  C: (PM3): J. J. P. STEWART, J. COMP. CHEM. 10, 209 (1989).

           Empirical Formula: C9 H12  =    21 atoms



      MOLECULAR POINT GROUP   :   C1  


      RHF CALCULATION, NO. OF DOUBLY OCCUPIED LEVELS = 24


          Geometry optimization using EF

          DIAGONAL MATRIX USED AS START HESSIAN

 CYCLE:     1 TIME:   0.008 TIME LEFT:  2.00D  GRAD.:    60.199 HEAT:  5.298605
 CYCLE:     2 TIME:   0.016 TIME LEFT:  2.00D  GRAD.:    26.996 HEAT:  4.397976
 CYCLE:     3 TIME:   0.008 TIME LEFT:  2.00D  GRAD.:    23.877 HEAT:  4.229739
 CYCLE:     4 TIME:   0.008 TIME LEFT:  2.00D  GRAD.:    31.824 HEAT:  4.226278
 CYCLE:     5 TIME:   0.008 TIME LEFT:  2.00D  GRAD.:    17.763 HEAT:  4.032603
 CYCLE:     6 TIME:   0.012 TIME LEFT:  2.00D  GRAD.:     9.100 HEAT:  3.943991
 CYCLE:     7 TIME:   0.008 TIME LEFT:  2.00D  GRAD.:     8.919 HEAT:  3.928117
 CYCLE:     8 TIME:   0.008 TIME LEFT:  2.00D  GRAD.:     8.033 HEAT:  3.910671
 CYCLE:     9 TIME:   0.008 TIME LEFT:  2.00D  GRAD.:     7.659 HEAT:  3.901995
 CYCLE:    10 TIME:   0.008 TIME LEFT:  2.00D  GRAD.:     5.181 HEAT:  3.891460
 CYCLE:    11 TIME:   0.008 TIME LEFT:  2.00D  GRAD.:     5.671 HEAT:  3.885588
 CYCLE:    12 TIME:   0.008 TIME LEFT:  2.00D  GRAD.:     6.250 HEAT:  3.883062
 CYCLE:    13 TIME:   0.008 TIME LEFT:  2.00D  GRAD.:     3.215 HEAT:  3.873808
 CYCLE:    14 TIME:   0.008 TIME LEFT:  2.00D  GRAD.:     5.071 HEAT:  3.876013
 CYCLE:    15 TIME:   0.004 TIME LEFT:  2.00D  GRAD.:     2.950 HEAT:  3.869494
 CYCLE:    16 TIME:   0.008 TIME LEFT:  2.00D  GRAD.:     5.802 HEAT:  3.874544
 CYCLE:    17 TIME:   0.008 TIME LEFT:  2.00D  GRAD.:     1.148 HEAT:  3.865828
 CYCLE:    18 TIME:   0.004 TIME LEFT:  2.00D  GRAD.:     1.937 HEAT:  3.865346
 CYCLE:    19 TIME:   0.008 TIME LEFT:  2.00D  GRAD.:     1.464 HEAT:  3.863589
 CYCLE:    20 TIME:   0.008 TIME LEFT:  2.00D  GRAD.:     3.243 HEAT:  3.864237
 CYCLE:    21 TIME:   0.008 TIME LEFT:  2.00D  GRAD.:     1.325 HEAT:  3.861257
 CYCLE:    22 TIME:   0.004 TIME LEFT:  2.00D  GRAD.:     2.408 HEAT:  3.862238
 CYCLE:    23 TIME:   0.008 TIME LEFT:  2.00D  GRAD.:     0.721 HEAT:  3.860261
 CYCLE:    24 TIME:   0.008 TIME LEFT:  2.00D  GRAD.:     1.122 HEAT:  3.860136
 CYCLE:    25 TIME:   0.008 TIME LEFT:  2.00D  GRAD.:     0.636 HEAT:  3.859601
 CYCLE:    26 TIME:   0.004 TIME LEFT:  2.00D  GRAD.:     0.860 HEAT:  3.859261
 CYCLE:    27 TIME:   0.008 TIME LEFT:  2.00D  GRAD.:     0.483 HEAT:  3.858955
 CYCLE:    28 TIME:   0.008 TIME LEFT:  2.00D  GRAD.:     0.458 HEAT:  3.858829
 CYCLE:    29 TIME:   0.004 TIME LEFT:  2.00D  GRAD.:     0.226 HEAT:  3.858739
 CYCLE:    30 TIME:   0.008 TIME LEFT:  2.00D  GRAD.:     0.273 HEAT:  3.858668
 CYCLE:    31 TIME:   0.008 TIME LEFT:  2.00D  GRAD.:     0.391 HEAT:  3.858589
 CYCLE:    32 TIME:   0.008 TIME LEFT:  2.00D  GRAD.:     0.284 HEAT:  3.858504
 CYCLE:    33 TIME:   0.004 TIME LEFT:  2.00D  GRAD.:     0.271 HEAT:  3.858404
 CYCLE:    34 TIME:   0.008 TIME LEFT:  2.00D  GRAD.:     0.241 HEAT:  3.858344
 CYCLE:    35 TIME:   0.008 TIME LEFT:  2.00D  GRAD.:     0.243 HEAT:  3.858255
 CYCLE:    36 TIME:   0.008 TIME LEFT:  2.00D  GRAD.:     0.335 HEAT:  3.858121
 CYCLE:    37 TIME:   0.008 TIME LEFT:  2.00D  GRAD.:     0.413 HEAT:  3.858068
 CYCLE:    38 TIME:   0.004 TIME LEFT:  2.00D  GRAD.:     0.190 HEAT:  3.857963
 CYCLE:    39 TIME:   0.008 TIME LEFT:  2.00D  GRAD.:     0.137 HEAT:  3.857892
 CYCLE:    40 TIME:   0.004 TIME LEFT:  2.00D  GRAD.:     0.185 HEAT:  3.857840
 CYCLE:    41 TIME:   0.004 TIME LEFT:  2.00D  GRAD.:     0.133 HEAT:  3.857796
 CYCLE:    42 TIME:   0.008 TIME LEFT:  2.00D  GRAD.:     0.079 HEAT:  3.857761
 CYCLE:    43 TIME:   0.008 TIME LEFT:  2.00D  GRAD.:     0.074 HEAT:  3.857745
 CYCLE:    44 TIME:   0.004 TIME LEFT:  2.00D  GRAD.:     0.139 HEAT:  3.857726
 CYCLE:    45 TIME:   0.008 TIME LEFT:  2.00D  GRAD.:     0.066 HEAT:  3.857717
 CYCLE:    46 TIME:   0.008 TIME LEFT:  2.00D  GRAD.:     0.035 HEAT:  3.857707

     GRADIENT =  0.03521 IS LESS THAN CUTOFF =  0.05000



 -------------------------------------------------------------------------------
 pm3  precise nosym THREADS=1
 InChI=1S/C9H12/c1-2-6-9-7-4-3-5-8-9/h3-5,7-8H,2,6H2,1H3



     GEOMETRY OPTIMISED USING EIGENVECTOR FOLLOWING (EF).     
     SCF FIELD WAS ACHIEVED                                   


                              PM3 CALCULATION
                                                       MOPAC v23.1.2 MacOS
                                                       Tue Jun  3 16:29:58 2025




          FINAL HEAT OF FORMATION =          3.85771 KCAL/MOL =      16.14065 KJ/MOL


          COSMO AREA              =        175.55 SQUARE ANGSTROMS
          COSMO VOLUME            =        173.08 CUBIC ANGSTROMS

          GRADIENT NORM           =          0.03521          =       0.00768 PER ATOM
          IONIZATION POTENTIAL    =          9.517496 EV
          HOMO LUMO ENERGIES (EV) =         -9.517  0.364
          NO. OF FILLED LEVELS    =         24
          MOLECULAR WEIGHT        =        120.1938         POINT GROUP:  C1  

          MOLECULAR DIMENSIONS (Angstroms)

            Atom       Atom       Distance
            H    19    H    14     8.19868
            H    18    H    21     4.37222
            H    12    H    10     2.73854


          SCF CALCULATIONS        =         54

          WALL-CLOCK TIME         =      0.344 SECONDS
          COMPUTATION TIME        =      0.215 SECONDS




   ATOM   CHEMICAL          X               Y               Z
  NUMBER   SYMBOL      (ANGSTROMS)     (ANGSTROMS)     (ANGSTROMS)

     1       C         -1.79119209  *  -0.08481480  *   0.62858907  *
     2       C         -0.99068720  *  -0.19492412  *  -0.66257783  *
     3       C         -3.27072220  *  -0.26658934  *   0.37653986  *
     4       C          0.46958611  *  -0.01286454  *  -0.40277193  *
     5       C          1.03887958  *   1.26054145  *  -0.45176805  *
     6       C          1.27313363  *  -1.11428605  *  -0.10404699  *
     7       C          2.39673611  *   1.42858405  *  -0.20544854  *
     8       C          3.19402204  *   0.32821666  *   0.09128760  *
     9       C          2.63062241  *  -0.94243718  *   0.14170850  *
    10       H         -1.43277199  *  -0.83961278  *   1.35623221  *
    11       H         -1.60307562  *   0.89896683  *   1.10235226  *
    12       H         -1.34387244  *   0.56034641  *  -1.39344126  *
    13       H         -1.17229939  *  -1.17964950  *  -1.13867392  *
    14       H         -3.84544398  *  -0.18711767  *   1.30804177  *
    15       H         -3.66031314  *   0.49207179  *  -0.31534621  *
    16       H         -3.48967426  *  -1.24961437  *  -0.06139192  *
    17       H          0.41172305  *   2.12843568  *  -0.68493084  *
    18       H          2.83847413  *   2.42950081  *  -0.24575265  *
    19       H          4.26315395  *   0.46194386  *   0.28445061  *
    20       H          3.25666738  *  -1.80975291  *   0.37494994  *
    21       H          0.83043986  *  -2.11593583  *  -0.06350086  *

                             CARTESIAN COORDINATES

   1    C       -1.791192087    -0.084814796     0.628589067
   2    C       -0.990687203    -0.194924117    -0.662577834
   3    C       -3.270722199    -0.266589339     0.376539859
   4    C        0.469586107    -0.012864544    -0.402771927
   5    C        1.038879576     1.260541446    -0.451768052
   6    C        1.273133631    -1.114286049    -0.104046987
   7    C        2.396736106     1.428584047    -0.205448545
   8    C        3.194022036     0.328216661     0.091287603
   9    C        2.630622413    -0.942437178     0.141708500
  10    H       -1.432771986    -0.839612783     1.356232210
  11    H       -1.603075617     0.898966830     1.102352264
  12    H       -1.343872441     0.560346410    -1.393441263
  13    H       -1.172299387    -1.179649504    -1.138673917
  14    H       -3.845443980    -0.187117674     1.308041774
  15    H       -3.660313142     0.492071788    -0.315346214
  16    H       -3.489674259    -1.249614372    -0.061391924
  17    H        0.411723055     2.128435682    -0.684930839
  18    H        2.838474127     2.429500807    -0.245752653
  19    H        4.263153947     0.461943863     0.284450612
  20    H        3.256667379    -1.809752910     0.374949941
  21    H        0.830439857    -2.115935829    -0.063500863


           Empirical Formula: C9 H12  =    21 atoms



      MOLECULAR POINT GROUP   :   C1  


                  EIGENVALUES  
 -40.47031 -36.10656 -30.20005 -29.61395 -25.31139 -21.63281 -21.56407 -20.34202
 -17.90767 -16.78812 -15.57056 -15.43074 -14.90110 -14.65012 -14.58662 -13.40872
 -13.03650 -12.95548 -12.39937 -12.30313 -12.24846 -11.48369  -9.72357  -9.51750
   0.36398   0.43650   2.81297   3.17817   3.43794   3.47870   3.60938   3.72261
   3.79379   3.96354   4.02860   4.03924   4.18151   4.32481   4.37469   4.86846
   4.87744   4.95281   5.06685   5.19905   5.31137   5.36502   6.17775   6.37564


              NET ATOMIC CHARGES AND DIPOLE CONTRIBUTIONS

  ATOM NO.   TYPE          CHARGE      No. of ELECS.   s-Pop       p-Pop       
    1          C          -0.096619        4.0966     1.15855     2.93807
    2          C          -0.056203        4.0562     1.14938     2.90682
    3          C          -0.109961        4.1100     1.13844     2.97152
    4          C          -0.077790        4.0778     1.18378     2.89401
    5          C          -0.099461        4.0995     1.17882     2.92064
    6          C          -0.099455        4.0995     1.17882     2.92063
    7          C          -0.100067        4.1001     1.17882     2.92125
    8          C          -0.106127        4.1061     1.17924     2.92689
    9          C          -0.100073        4.1001     1.17882     2.92125
   10          H           0.052262        0.9477     0.94774
   11          H           0.052277        0.9477     0.94772
   12          H           0.055204        0.9448     0.94480
   13          H           0.055198        0.9448     0.94480
   14          H           0.038306        0.9617     0.96169
   15          H           0.037615        0.9624     0.96238
   16          H           0.037616        0.9624     0.96238
   17          H           0.105577        0.8944     0.89442
   18          H           0.101889        0.8981     0.89811
   19          H           0.102347        0.8977     0.89765
   20          H           0.101890        0.8981     0.89811
   21          H           0.105574        0.8944     0.89443
 DIPOLE           X         Y         Z       TOTAL
 POINT-CHG.    -0.219    -0.017     0.030     0.221
 HYBRID         0.006     0.001     0.003     0.007
 SUM           -0.212    -0.016     0.033     0.215


          ATOMIC ORBITAL ELECTRON POPULATIONS

     Atom    s        px        py        pz   
    1  C   1.15855   0.94949   1.02079   0.96780
    2  C   1.14938   0.91717   1.01912   0.97053
    3  C   1.13844   0.95507   1.00843   1.00802
    4  C   1.18378   0.95491   0.94616   0.99294
    5  C   1.17882   0.95563   0.96059   1.00442
    6  C   1.17882   0.94696   0.97253   1.00114
    7  C   1.17882   0.94829   0.97611   0.99685
    8  C   1.17924   0.98254   0.94210   1.00224
    9  C   1.17882   0.95507   0.96746   0.99872
   10  H   0.94774
   11  H   0.94772
   12  H   0.94480
   13  H   0.94480
   14  H   0.96169
   15  H   0.96238
   16  H   0.96238
   17  H   0.89442
   18  H   0.89811
   19  H   0.89765
   20  H   0.89811
   21  H   0.89443
 *******************************************************************************
 **                                                                           **
 **                              MOPAC v23.1.2                                **
 **                                                                           **
 *******************************************************************************
 **          Digital Object Identifier (DOI): 10.5281/zenodo.6511958          **
 **    Visit the DOI location for information on how to cite this program.    **
 *******************************************************************************

                              PM3 CALCULATION RESULTS

 *******************************************************************************
 *  CALCULATION DONE: (MAX THREADS = 1)              Tue Jun  3 16:29:58 2025  *
 *  PM3        - The PM3 Hamiltonian to be used
 *  OLDGEO     - PREVIOUS GEOMETRY TO BE USED
 *  PRECISE    - TIGHTER CRITERIA TO BE USED
 *  NOSYM      - POINT-GROUP SYMMETRY SET TO C1
 *  THREADS=1  - MULTI-THREADING NOT USED
 *  T=         - A TIME OF 172800.0 SECONDS REQUESTED
 *  DUMP=N     - RESTART FILE WRITTEN EVERY 7200.0 SECONDS REQUESTED
 *  THERMO     - THERMODYNAMIC QUANTITIES TO BE CALCULATED
 *******************************************************************************
oldgeo thermo nosym precise THREADS=1  pm3
 InChI=1S/C9H12/c1-2-6-9-7-4-3-5-8-9/h3-5,7-8H,2,6H2,1H3

   ATOM   CHEMICAL          X               Y               Z
  NUMBER   SYMBOL      (ANGSTROMS)     (ANGSTROMS)     (ANGSTROMS)

     1       C         -1.79119209  *  -0.08481480  *   0.62858907  *
     2       C         -0.99068720  *  -0.19492412  *  -0.66257783  *
     3       C         -3.27072220  *  -0.26658934  *   0.37653986  *
     4       C          0.46958611  *  -0.01286454  *  -0.40277193  *
     5       C          1.03887958  *   1.26054145  *  -0.45176805  *
     6       C          1.27313363  *  -1.11428605  *  -0.10404699  *
     7       C          2.39673611  *   1.42858405  *  -0.20544854  *
     8       C          3.19402204  *   0.32821666  *   0.09128760  *
     9       C          2.63062241  *  -0.94243718  *   0.14170850  *
    10       H         -1.43277199  *  -0.83961278  *   1.35623221  *
    11       H         -1.60307562  *   0.89896683  *   1.10235226  *
    12       H         -1.34387244  *   0.56034641  *  -1.39344126  *
    13       H         -1.17229939  *  -1.17964950  *  -1.13867392  *
    14       H         -3.84544398  *  -0.18711767  *   1.30804177  *
    15       H         -3.66031314  *   0.49207179  *  -0.31534621  *
    16       H         -3.48967426  *  -1.24961437  *  -0.06139192  *
    17       H          0.41172305  *   2.12843568  *  -0.68493084  *
    18       H          2.83847413  *   2.42950081  *  -0.24575265  *
    19       H          4.26315395  *   0.46194386  *   0.28445061  *
    20       H          3.25666738  *  -1.80975291  *   0.37494994  *
    21       H          0.83043986  *  -2.11593583  *  -0.06350086  *



          CARTESIAN COORDINATES 

    NO.       ATOM           X           Y           Z

     1         C         -1.7912     -0.0848      0.6286
     2         C         -0.9907     -0.1949     -0.6626
     3         C         -3.2707     -0.2666      0.3765
     4         C          0.4696     -0.0129     -0.4028
     5         C          1.0389      1.2605     -0.4518
     6         C          1.2731     -1.1143     -0.1040
     7         C          2.3967      1.4286     -0.2054
     8         C          3.1940      0.3282      0.0913
     9         C          2.6306     -0.9424      0.1417
    10         H         -1.4328     -0.8396      1.3562
    11         H         -1.6031      0.8990      1.1024
    12         H         -1.3439      0.5603     -1.3934
    13         H         -1.1723     -1.1796     -1.1387
    14         H         -3.8454     -0.1871      1.3080
    15         H         -3.6603      0.4921     -0.3153
    16         H         -3.4897     -1.2496     -0.0614
    17         H          0.4117      2.1284     -0.6849
    18         H          2.8385      2.4295     -0.2458
    19         H          4.2632      0.4619      0.2845
    20         H          3.2567     -1.8098      0.3749
    21         H          0.8304     -2.1159     -0.0635

  H: (PM3): J. J. P. STEWART, J. COMP. CHEM. 10, 209 (1989).
  C: (PM3): J. J. P. STEWART, J. COMP. CHEM. 10, 209 (1989).

           Empirical Formula: C9 H12  =    21 atoms



      MOLECULAR POINT GROUP   :   C1  


      RHF CALCULATION, NO. OF DOUBLY OCCUPIED LEVELS = 24



          HEAT OF FORMATION =       3.857707 KCALS/MOLE


          CARTESIAN COORDINATE DERIVATIVES

   NUMBER  ATOM         X            Y            Z

     1       C     -0.004709    -0.001268     0.001504
     2       C     -0.007243    -0.000671     0.002658
     3       C      0.000242    -0.004880    -0.000102
     4       C      0.010710    -0.002125     0.004386
     5       C      0.005263     0.001539    -0.001293
     6       C     -0.002167     0.006792     0.003353
     7       C      0.000909     0.003425    -0.004674
     8       C     -0.000045     0.001612     0.001006
     9       C      0.005312    -0.003295    -0.006515
    10       H     -0.005160     0.009339     0.000255
    11       H     -0.002111     0.001107     0.001441
    12       H     -0.002304    -0.004140     0.003226
    13       H     -0.002758    -0.003909    -0.005234
    14       H      0.004913    -0.003115    -0.003843
    15       H      0.007027    -0.009483    -0.001869
    16       H      0.000871    -0.002003     0.001263
    17       H     -0.001050     0.007562    -0.001518
    18       H      0.001546    -0.000661     0.002192
    19       H     -0.013075     0.001583    -0.002145
    20       H      0.001149    -0.000349     0.005550
    21       H      0.002681     0.002940     0.000360



          GRADIENT NORM =   0.03404

          MOLECULAR WEIGHT =  120.19



          ROTATIONAL CONSTANTS IN CM(-1)

          A =    0.14556233   B =    0.02915228   C =    0.02598403



           PRINCIPAL MOMENTS OF INERTIA IN UNITS OF 10**(-40)*GRAM-CM**2

          A =      192.3077   B =      960.2251   C =     1077.3062


          ORIENTATION OF MOLECULE IN FORCE CALCULATION

    NO.       ATOM         X         Y         Z

     1          C      -1.7497    1.5675   -0.0013
     2          C      -0.2266    1.5675   -0.0013
     3          C      -2.3005    2.9754   -0.0013
     4          C       0.3075    0.1718   -0.0003
     5          C       0.5562   -0.4848    1.2060
     6          C       0.5562   -0.4866   -1.2056
     7          C       1.0488   -1.7848    1.2050
     8          C       1.2958   -2.4370    0.0017
     9          C       1.0489   -1.7866   -1.2026
    10          H      -2.1236    1.0118   -0.8839
    11          H      -2.1236    1.0117    0.8813
    12          H       0.1527    2.1203    0.8818
    13          H       0.1527    2.1191   -0.8851
    14          H      -3.3979    2.9730   -0.0015
    15          H      -1.9736    3.5386    0.8830
    16          H      -1.9733    3.5388   -0.8853
    17          H       0.3615    0.0278    2.1548
    18          H       1.2428   -2.2951    2.1540
    19          H       1.6843   -3.4604    0.0024
    20          H       1.2429   -2.2983   -2.1508
    21          H       0.3616    0.0246   -2.1552


    FIRST DERIVATIVES WILL BE USED IN THE CALCULATION OF SECOND DERIVATIVES

          ESTIMATED TIME TO COMPLETE CALCULATION =        0.98 SECONDS

    FOR POINT-GROUP C1   THERE ARE   1 UNIQUE SYMMETRY FUNCTIONS.

 STEP:   1 TIME =     0.02 SECS, INTEGRAL =      0.02 TIME LEFT: 172799.98
 STEP:   2 TIME =     0.02 SECS, INTEGRAL =      0.03 TIME LEFT: 172799.96
 STEP:   3 TIME =     0.02 SECS, INTEGRAL =      0.05 TIME LEFT: 172799.95
 STEP:   4 TIME =     0.02 SECS, INTEGRAL =      0.07 TIME LEFT: 172799.93
 STEP:   5 TIME =     0.02 SECS, INTEGRAL =      0.09 TIME LEFT: 172799.91
 STEP:   6 TIME =     0.02 SECS, INTEGRAL =      0.11 TIME LEFT: 172799.88
 STEP:   7 TIME =     0.02 SECS, INTEGRAL =      0.13 TIME LEFT: 172799.86
 STEP:   8 TIME =     0.02 SECS, INTEGRAL =      0.15 TIME LEFT: 172799.84
 STEP:   9 TIME =     0.02 SECS, INTEGRAL =      0.17 TIME LEFT: 172799.82
 STEP:  10 TIME =     0.02 SECS, INTEGRAL =      0.20 TIME LEFT: 172799.80
 STEP:  11 TIME =     0.02 SECS, INTEGRAL =      0.21 TIME LEFT: 172799.78
 STEP:  12 TIME =     0.03 SECS, INTEGRAL =      0.24 TIME LEFT: 172799.75
 STEP:  13 TIME =     0.02 SECS, INTEGRAL =      0.26 TIME LEFT: 172799.73
 STEP:  14 TIME =     0.02 SECS, INTEGRAL =      0.29 TIME LEFT: 172799.71
 STEP:  15 TIME =     0.02 SECS, INTEGRAL =      0.31 TIME LEFT: 172799.69
 STEP:  16 TIME =     0.02 SECS, INTEGRAL =      0.33 TIME LEFT: 172799.67
 STEP:  17 TIME =     0.02 SECS, INTEGRAL =      0.35 TIME LEFT: 172799.64
 STEP:  18 TIME =     0.02 SECS, INTEGRAL =      0.38 TIME LEFT: 172799.62
 STEP:  19 TIME =     0.02 SECS, INTEGRAL =      0.39 TIME LEFT: 172799.60
 STEP:  20 TIME =     0.02 SECS, INTEGRAL =      0.41 TIME LEFT: 172799.58
 STEP:  21 TIME =     0.02 SECS, INTEGRAL =      0.44 TIME LEFT: 172799.56
 STEP:  22 TIME =     0.02 SECS, INTEGRAL =      0.46 TIME LEFT: 172799.54
 STEP:  23 TIME =     0.02 SECS, INTEGRAL =      0.48 TIME LEFT: 172799.52
 STEP:  24 TIME =     0.02 SECS, INTEGRAL =      0.50 TIME LEFT: 172799.50
 STEP:  25 TIME =     0.02 SECS, INTEGRAL =      0.52 TIME LEFT: 172799.48
 STEP:  26 TIME =     0.02 SECS, INTEGRAL =      0.54 TIME LEFT: 172799.45
 STEP:  27 TIME =     0.02 SECS, INTEGRAL =      0.56 TIME LEFT: 172799.43
 STEP:  28 TIME =     0.02 SECS, INTEGRAL =      0.58 TIME LEFT: 172799.41
 STEP:  29 TIME =     0.02 SECS, INTEGRAL =      0.60 TIME LEFT: 172799.39
 STEP:  30 TIME =     0.02 SECS, INTEGRAL =      0.62 TIME LEFT: 172799.38
 STEP:  31 TIME =     0.02 SECS, INTEGRAL =      0.64 TIME LEFT: 172799.36
 STEP:  32 TIME =     0.02 SECS, INTEGRAL =      0.66 TIME LEFT: 172799.34
 STEP:  33 TIME =     0.02 SECS, INTEGRAL =      0.68 TIME LEFT: 172799.32
 STEP:  34 TIME =     0.02 SECS, INTEGRAL =      0.70 TIME LEFT: 172799.30
 STEP:  35 TIME =     0.02 SECS, INTEGRAL =      0.72 TIME LEFT: 172799.28
 STEP:  36 TIME =     0.02 SECS, INTEGRAL =      0.74 TIME LEFT: 172799.26
 STEP:  37 TIME =     0.02 SECS, INTEGRAL =      0.76 TIME LEFT: 172799.24
 STEP:  38 TIME =     0.02 SECS, INTEGRAL =      0.78 TIME LEFT: 172799.22
 STEP:  39 TIME =     0.02 SECS, INTEGRAL =      0.80 TIME LEFT: 172799.20
 STEP:  40 TIME =     0.02 SECS, INTEGRAL =      0.81 TIME LEFT: 172799.18
 STEP:  41 TIME =     0.02 SECS, INTEGRAL =      0.84 TIME LEFT: 172799.16
 STEP:  42 TIME =     0.02 SECS, INTEGRAL =      0.86 TIME LEFT: 172799.14
 STEP:  43 TIME =     0.02 SECS, INTEGRAL =      0.88 TIME LEFT: 172799.12
 STEP:  44 TIME =     0.02 SECS, INTEGRAL =      0.90 TIME LEFT: 172799.10
 STEP:  45 TIME =     0.02 SECS, INTEGRAL =      0.91 TIME LEFT: 172799.08
 STEP:  46 TIME =     0.02 SECS, INTEGRAL =      0.93 TIME LEFT: 172799.06
 STEP:  47 TIME =     0.02 SECS, INTEGRAL =      0.95 TIME LEFT: 172799.04
 STEP:  48 TIME =     0.02 SECS, INTEGRAL =      0.97 TIME LEFT: 172799.02
 STEP:  49 TIME =     0.02 SECS, INTEGRAL =      0.99 TIME LEFT: 172799.00
 STEP:  50 TIME =     0.02 SECS, INTEGRAL =      1.01 TIME LEFT: 172798.98
 STEP:  51 TIME =     0.02 SECS, INTEGRAL =      1.03 TIME LEFT: 172798.96
 STEP:  52 TIME =     0.02 SECS, INTEGRAL =      1.05 TIME LEFT: 172798.95
 STEP:  53 TIME =     0.02 SECS, INTEGRAL =      1.07 TIME LEFT: 172798.93
 STEP:  54 TIME =     0.02 SECS, INTEGRAL =      1.09 TIME LEFT: 172798.91
 STEP:  55 TIME =     0.02 SECS, INTEGRAL =      1.11 TIME LEFT: 172798.89
 STEP:  56 TIME =     0.02 SECS, INTEGRAL =      1.13 TIME LEFT: 172798.87
 STEP:  57 TIME =     0.02 SECS, INTEGRAL =      1.15 TIME LEFT: 172798.85
 STEP:  58 TIME =     0.02 SECS, INTEGRAL =      1.17 TIME LEFT: 172798.83
 STEP:  59 TIME =     0.02 SECS, INTEGRAL =      1.19 TIME LEFT: 172798.81
 STEP:  60 TIME =     0.02 SECS, INTEGRAL =      1.21 TIME LEFT: 172798.79
 STEP:  61 TIME =     0.02 SECS, INTEGRAL =      1.23 TIME LEFT: 172798.77
 STEP:  62 TIME =     0.02 SECS, INTEGRAL =      1.25 TIME LEFT: 172798.75
 STEP:  63 TIME =     0.02 SECS, INTEGRAL =      1.27 TIME LEFT: 172798.73

(To convert to Hartree/Bohr^2, multiply by (10^(-21) x N x a0^2)/(4.184 x 627.51) =  0.0642)


           FORCE MATRIX IN MILLIDYNES/ANGSTROM


                  C  1       C  2       C  3       C  4       C  5       C  6
 ------------------------------------------------------------------------------
     C    1  14.330232
     C    2   4.065165  14.654218
     C    3   4.479586   0.664232  14.377596
     C    4   0.685251   4.743455   0.053712  17.550276
     C    5   0.034270   0.703538   0.004749   6.766726  17.333283
     C    6   0.034255   0.703499   0.004751   6.766830   2.439864  17.333037
     C    7   0.013474   0.096681   0.002651   2.503327   7.017008   1.851825
     C    8   0.004164   0.012807   0.001246   1.891299   2.536665   2.536752
     C    9   0.013477   0.096683   0.002651   2.503189   1.851624   7.016737
     H   10   4.464540   0.442730   0.436445   0.026769   0.001770   0.004096
     H   11   4.464366   0.442735   0.436452   0.026882   0.004112   0.001762
     H   12   0.448474   4.435710   0.026959   0.442876   0.045720   0.040289
     H   13   0.448458   4.435731   0.026876   0.442883   0.040290   0.045698
     H   14   0.449371   0.051879   4.754370   0.009620   0.001010   0.001011
     H   15   0.463219   0.023624   4.722475   0.001408   0.000600   0.000702
     H   16   0.463243   0.023619   4.722407   0.001407   0.000701   0.000601
     H   17   0.008367   0.046282   0.002072   0.450062   4.828400   0.084545
     H   18   0.001004   0.008061   0.000432   0.092660   0.438151   0.011029
     H   19   0.001289   0.009037   0.000472   0.009096   0.089360   0.089362
     H   20   0.000999   0.008049   0.000435   0.092627   0.010931   0.438105
     H   21   0.008365   0.046272   0.002072   0.450101   0.084557   4.828476


                  C  7       C  8       C  9       H 10       H 11       H 12
 ------------------------------------------------------------------------------
     C    7  17.285201
     C    8   7.008181  17.252171
     C    9   2.523635   7.008264  17.285371
     H   10   0.000665   0.000601   0.000883   5.077945
     H   11   0.000882   0.000587   0.000658   0.572583   5.077788
     H   12   0.004841   0.002684   0.010147   0.046824   0.024101   5.042322
     H   13   0.010147   0.002683   0.004839   0.024158   0.046824   0.566653
     H   14   0.000492   0.000189   0.000492   0.029766   0.029744   0.001821
     H   15   0.000163   0.000175   0.000183   0.048289   0.024225   0.018848
     H   16   0.000183   0.000175   0.000163   0.024206   0.048288   0.001553
     H   17   0.438238   0.090955   0.010891   0.000589   0.004418   0.028151
     H   18   4.862800   0.439562   0.090308   0.000110   0.000214   0.000532
     H   19   0.440204   4.867753   0.440204   0.000147   0.000147   0.000535
     H   20   0.090134   0.439112   4.863013   0.000216   0.000113   0.001194
     H   21   0.010899   0.090956   0.438238   0.004419   0.000589   0.002918


                  H 13       H 14       H 15       H 16       H 17       H 18
 ------------------------------------------------------------------------------
     H   13   5.042333
     H   14   0.001816   5.490521
     H   15   0.001549   0.574658   5.465839
     H   16   0.018795   0.574754   0.577605   5.465859
     H   17   0.002917   0.000393   0.000298   0.000390   5.202063
     H   18   0.001200   0.000134   0.000072   0.000073   0.042243   5.228374
     H   19   0.000535   0.000135   0.000059   0.000059   0.007034   0.041396
     H   20   0.000531   0.000131   0.000073   0.000072   0.008173   0.007124
     H   21   0.028142   0.000393   0.000390   0.000298   0.007049   0.008173


                  H 19       H 20       H 21
 ------------------------------------------
     H   19   5.234993
     H   20   0.041450   5.228680
     H   21   0.007035   0.042242   5.202130


          HEAT OF FORMATION =       3.857707 KCALS/MOLE

          ZERO POINT ENERGY     114.665 KCAL/MOL


           NORMAL COORDINATE ANALYSIS (Total motion = 1 Angstrom)


   Root No.       1         2         3         4         5         6         7         8

                 1 A       2 A       3 A       4 A       5 A       6 A       7 A       8 A   

                   6.9      71.2     106.0     189.3     270.5     338.9     355.3     365.2
  
           1    0.0000    0.0000   -0.0232    0.0000    0.0470   -0.0116    0.0000   -0.0000
           2   -0.0000   -0.0000    0.0248    0.0000   -0.0011   -0.0627    0.0000   -0.0001
           3   -0.0340   -0.0548   -0.0001   -0.0317    0.0000   -0.0000   -0.0042    0.0162
           4    0.0000    0.0000   -0.0242    0.0000    0.0447   -0.0156    0.0000   -0.0000
           5    0.0000    0.0000   -0.0194    0.0000    0.0202   -0.0175   -0.0000    0.0000
           6    0.0380   -0.0222    0.0000    0.0074   -0.0000   -0.0000   -0.0151    0.0601
           7   -0.0000   -0.0000    0.0265   -0.0000   -0.0073    0.0749   -0.0000    0.0001
           8   -0.0000   -0.0001    0.0454   -0.0000   -0.0266   -0.0336    0.0000   -0.0000
           9   -0.0282    0.0619    0.0000    0.0072    0.0000    0.0000    0.0004   -0.0008
          10    0.0000    0.0000   -0.0380   -0.0000   -0.0050   -0.0005   -0.0000    0.0000
          11    0.0000    0.0000   -0.0249    0.0000    0.0020    0.0039    0.0000   -0.0000
          12    0.0224   -0.0116    0.0000    0.0065   -0.0000    0.0001    0.0118   -0.0468
          13    0.0287   -0.0012   -0.0255    0.0008   -0.0435   -0.0135    0.0541    0.0051
          14   -0.0047    0.0115   -0.0210   -0.0030   -0.0082    0.0189    0.0156    0.0218
          15    0.0136   -0.0050   -0.0004    0.0048    0.0017    0.0084    0.0091   -0.0362
          16   -0.0287    0.0013   -0.0255   -0.0008   -0.0435   -0.0136   -0.0541   -0.0051
          17    0.0048   -0.0115   -0.0210    0.0030   -0.0082    0.0189   -0.0156   -0.0218
          18    0.0136   -0.0050    0.0004    0.0048   -0.0017   -0.0083    0.0091   -0.0362
          19    0.0288   -0.0011    0.0231    0.0010   -0.0156   -0.0121   -0.0508   -0.0186
          20   -0.0049    0.0116   -0.0027   -0.0031    0.0030    0.0223   -0.0256    0.0182
          21   -0.0036    0.0083   -0.0002    0.0010    0.0011    0.0058   -0.0009    0.0032
          22   -0.0000   -0.0001    0.0549    0.0000    0.0347   -0.0079    0.0000   -0.0000
          23   -0.0000    0.0000    0.0090    0.0000    0.0239    0.0338   -0.0000    0.0000
          24   -0.0120    0.0149    0.0000   -0.0008   -0.0000   -0.0000   -0.0042    0.0172
          25   -0.0288    0.0010    0.0231   -0.0010   -0.0156   -0.0121    0.0508    0.0186
          26    0.0049   -0.0116   -0.0027    0.0031    0.0030    0.0223    0.0256   -0.0181
          27   -0.0037    0.0083    0.0002    0.0010   -0.0011   -0.0058   -0.0009    0.0032
          28    0.0424    0.0194   -0.0415    0.0173    0.0645   -0.0186   -0.0062    0.0283
          29    0.0201    0.0788    0.0376    0.0302   -0.0139   -0.0569   -0.0006    0.0030
          30   -0.0649   -0.1126   -0.0002   -0.0579   -0.0002    0.0001   -0.0013    0.0023
          31   -0.0423   -0.0194   -0.0416   -0.0173    0.0645   -0.0186    0.0062   -0.0283
          32   -0.0202   -0.0789    0.0374   -0.0302   -0.0138   -0.0570    0.0006   -0.0031
          33   -0.0649   -0.1126   -0.0002   -0.0579    0.0004   -0.0001   -0.0013    0.0023
          34   -0.0420   -0.0193   -0.0119   -0.0224    0.0516   -0.0297    0.0094   -0.0366
          35   -0.0231   -0.0025   -0.0270   -0.0114    0.0143   -0.0068    0.0238   -0.0895
          36    0.0706   -0.0121   -0.0001    0.0246   -0.0001    0.0001   -0.0345    0.1341
          37    0.0421    0.0193   -0.0118    0.0225    0.0516   -0.0297   -0.0093    0.0366
          38    0.0232    0.0025   -0.0270    0.0114    0.0143   -0.0069   -0.0238    0.0897
          39    0.0705   -0.0121    0.0002    0.0246    0.0000   -0.0003   -0.0345    0.1340
          40   -0.0000   -0.0000    0.0265   -0.0001   -0.0074    0.0761   -0.0000    0.0001
          41   -0.0001   -0.0001    0.0854   -0.0000   -0.0756    0.0529   -0.0000    0.0001
          42   -0.0775    0.0246   -0.0001    0.2466   -0.0000    0.0000    0.0007   -0.0011
          43   -0.0398   -0.0303    0.0469    0.1922   -0.0320    0.1209    0.0001    0.0002
          44   -0.0192   -0.0850    0.0336    0.0517   -0.0130   -0.0586   -0.0032    0.0123
          45   -0.0012    0.1273    0.0001   -0.0963    0.0002   -0.0000    0.0024   -0.0088
          46    0.0397    0.0303    0.0470   -0.1922   -0.0319    0.1209   -0.0003    0.0000
          47    0.0192    0.0850    0.0338   -0.0517   -0.0130   -0.0587    0.0033   -0.0124
          48   -0.0012    0.1273    0.0002   -0.0964   -0.0002    0.0000    0.0024   -0.0088
          49    0.0521   -0.0021   -0.0456    0.0017   -0.0808   -0.0246    0.1477    0.0158
          50   -0.0093    0.0203   -0.0290   -0.0059   -0.0194    0.0239    0.0446    0.0478
          51    0.0209   -0.0099   -0.0001    0.0066    0.0001    0.0033    0.0124   -0.0470
          52    0.0514   -0.0019    0.0398    0.0019   -0.0244   -0.0140   -0.1397   -0.0465
          53   -0.0088    0.0210    0.0039   -0.0056   -0.0014    0.0157   -0.0662    0.0354
          54   -0.0103    0.0135   -0.0001   -0.0005    0.0005    0.0024   -0.0044    0.0179
          55   -0.0000   -0.0001    0.1016    0.0000    0.0982    0.0002    0.0000   -0.0000
          56   -0.0000   -0.0000    0.0266    0.0000    0.0479    0.0369   -0.0000    0.0001
          57   -0.0255    0.0251   -0.0000   -0.0039   -0.0000   -0.0001   -0.0104    0.0422
          58   -0.0514    0.0018    0.0397   -0.0019   -0.0244   -0.0140    0.1397    0.0465
          59    0.0087   -0.0209    0.0038    0.0056   -0.0014    0.0159    0.0661   -0.0353
          60   -0.0103    0.0135    0.0001   -0.0005   -0.0005   -0.0025   -0.0045    0.0179
          61   -0.0521    0.0022   -0.0456   -0.0018   -0.0808   -0.0247   -0.1477   -0.0159
          62    0.0094   -0.0203   -0.0291    0.0059   -0.0194    0.0240   -0.0446   -0.0478
          63    0.0209   -0.0099    0.0002    0.0066   -0.0001   -0.0032    0.0125   -0.0470


   Root No.       9        10        11        12        13        14        15        16

                 9 A      10 A      11 A      12 A      13 A      14 A      15 A      16 A   

                 487.3     595.2     629.1     660.1     775.9     783.9     846.2     874.8
  
           1   -0.0264    0.0065    0.0000   -0.0081   -0.0098   -0.0000   -0.0000   -0.0145
           2   -0.0046    0.0147    0.0000    0.0032   -0.0029   -0.0000   -0.0000   -0.0061
           3   -0.0000    0.0000   -0.0037   -0.0000    0.0000   -0.0303   -0.0000    0.0000
           4   -0.0184    0.0071    0.0000   -0.0010    0.0021   -0.0000    0.0000    0.0053
           5    0.0109   -0.0554   -0.0001   -0.0191    0.0006   -0.0000    0.0000    0.0558
           6   -0.0000    0.0000   -0.0136    0.0000    0.0000   -0.0208   -0.0005   -0.0000
           7   -0.0009   -0.0156   -0.0000   -0.0089   -0.0053   -0.0000   -0.0000   -0.0085
           8    0.0109    0.0122    0.0000    0.0118    0.0067    0.0000    0.0000   -0.0026
           9   -0.0000   -0.0000   -0.0005   -0.0000    0.0000   -0.0016   -0.0001    0.0000
          10    0.0570    0.0111   -0.0000    0.0713    0.0472    0.0000    0.0000   -0.0097
          11    0.0338   -0.0465   -0.0001    0.0066    0.0107   -0.0000    0.0000    0.0028
          12   -0.0000    0.0000   -0.0347   -0.0000   -0.0000    0.0016   -0.0004   -0.0000
          13    0.0141    0.0165    0.0248   -0.0134   -0.0115    0.0009   -0.0304   -0.0012
          14   -0.0015    0.0079   -0.0649   -0.0084   -0.0089   -0.0004   -0.0114   -0.0238
          15   -0.0091    0.0306   -0.0627    0.0120    0.0055    0.0054   -0.0002    0.0023
          16    0.0141    0.0166   -0.0248   -0.0134   -0.0115   -0.0009    0.0304   -0.0012
          17   -0.0015    0.0078    0.0648   -0.0084   -0.0089    0.0004    0.0114   -0.0238
          18    0.0091   -0.0306   -0.0629   -0.0120   -0.0055    0.0054   -0.0003   -0.0022
          19   -0.0322   -0.0190    0.0261    0.0256   -0.0154    0.0007   -0.0296    0.0129
          20   -0.0215    0.0008   -0.0689    0.0081   -0.0106   -0.0013   -0.0111   -0.0233
          21   -0.0072    0.0286    0.0721    0.0134    0.0096    0.0009    0.0001    0.0424
          22    0.0501   -0.0008    0.0000   -0.0220   -0.0321   -0.0000   -0.0000   -0.0043
          23   -0.0027    0.0562    0.0001    0.0125   -0.0008    0.0000    0.0000    0.0433
          24    0.0000   -0.0001    0.0401   -0.0000    0.0000   -0.0011    0.0003   -0.0000
          25   -0.0322   -0.0190   -0.0262    0.0256   -0.0154   -0.0007    0.0296    0.0129
          26   -0.0215    0.0007    0.0690    0.0081   -0.0106    0.0013    0.0111   -0.0234
          27    0.0072   -0.0287    0.0720   -0.0134   -0.0096    0.0009    0.0000   -0.0424
          28   -0.0319   -0.0075   -0.0101   -0.0174   -0.0142   -0.1084   -0.0004    0.0090
          29   -0.0001    0.0241   -0.0030    0.0100    0.0001   -0.1261   -0.0021   -0.0224
          30    0.0004   -0.0002    0.0025    0.0000    0.0006    0.1017    0.0014    0.0012
          31   -0.0319   -0.0075    0.0101   -0.0175   -0.0143    0.1084    0.0004    0.0091
          32   -0.0001    0.0240    0.0030    0.0100   -0.0001    0.1261    0.0021   -0.0225
          33   -0.0004    0.0002    0.0025   -0.0001   -0.0007    0.1017    0.0014   -0.0013
          34   -0.0418    0.0231    0.0118   -0.0132   -0.0166   -0.0993   -0.0016   -0.0115
          35    0.0258   -0.0651   -0.0033   -0.0111    0.0131   -0.0707   -0.0021    0.0721
          36    0.0007   -0.0007   -0.0178    0.0002    0.0001    0.0707    0.0018   -0.0030
          37   -0.0418    0.0231   -0.0118   -0.0132   -0.0167    0.0993    0.0016   -0.0115
          38    0.0259   -0.0651    0.0031   -0.0111    0.0130    0.0708    0.0021    0.0721
          39   -0.0008    0.0007   -0.0178   -0.0002   -0.0002    0.0706    0.0018    0.0029
          40   -0.0006   -0.0167   -0.0000   -0.0092   -0.0053   -0.0000   -0.0000   -0.0068
          41    0.0427   -0.0253   -0.0000    0.0106    0.0234    0.0000    0.0000    0.0882
          42    0.0000   -0.0000    0.0004   -0.0000   -0.0000    0.0374    0.0008   -0.0000
          43    0.0147   -0.0368    0.0007   -0.0114    0.0015    0.0243    0.0006    0.0402
          44    0.0028    0.0234   -0.0038    0.0136    0.0039   -0.0759   -0.0016   -0.0268
          45   -0.0003   -0.0000    0.0017   -0.0003   -0.0005    0.0408    0.0008   -0.0012
          46    0.0147   -0.0368   -0.0007   -0.0114    0.0015   -0.0243   -0.0006    0.0402
          47    0.0028    0.0234    0.0038    0.0136    0.0038    0.0759    0.0016   -0.0270
          48    0.0003    0.0000    0.0017    0.0003    0.0005    0.0408    0.0008    0.0011
          49   -0.0198    0.0430    0.0127   -0.2105    0.0332    0.0005    0.2020    0.0529
          50   -0.0235    0.0478   -0.0339   -0.0689    0.0129   -0.0070    0.0733    0.0044
          51   -0.0042    0.0146   -0.0817    0.0042    0.0029    0.0091    0.0016   -0.0021
          52   -0.1337   -0.0548    0.0146    0.0032    0.2059    0.0009    0.1980    0.0017
          53   -0.0525   -0.0442   -0.0397   -0.0152    0.0621   -0.0071    0.0756   -0.0722
          54   -0.0029    0.0115    0.0898    0.0055    0.0037   -0.0022    0.0002    0.0199
          55    0.1254    0.0417    0.0001   -0.1556    0.2020    0.0001    0.0000   -0.0803
          56    0.0259    0.0722    0.0000   -0.0382    0.0877    0.0000    0.0000    0.0144
          57   -0.0000   -0.0000   -0.0631    0.0000   -0.0001   -0.0042    0.0008   -0.0000
          58   -0.1337   -0.0548   -0.0148    0.0032    0.2060   -0.0008   -0.1979    0.0017
          59   -0.0525   -0.0442    0.0399   -0.0152    0.0622    0.0071   -0.0756   -0.0722
          60    0.0030   -0.0115    0.0896   -0.0054   -0.0038   -0.0022    0.0003   -0.0198
          61   -0.0198    0.0430   -0.0124   -0.2106    0.0333   -0.0005   -0.2020    0.0529
          62   -0.0235    0.0477    0.0339   -0.0689    0.0129    0.0070   -0.0733    0.0044
          63    0.0042   -0.0146   -0.0818   -0.0041   -0.0029    0.0091    0.0017    0.0021


   Root No.      17        18        19        20        21        22        23        24

                17 A      18 A      19 A      20 A      21 A      22 A      23 A      24 A   

                 903.8     936.8     959.0     975.5    1013.7    1027.9    1045.3    1102.5
  
           1   -0.0000    0.0066   -0.0171   -0.0000   -0.0017    0.0000   -0.0000    0.0000
           2    0.0000    0.0053   -0.0071    0.0000   -0.0033    0.0000    0.0001   -0.0001
           3   -0.0119    0.0000   -0.0000    0.0004    0.0000    0.0199    0.0000   -0.0024
           4   -0.0000   -0.0115    0.0370    0.0000    0.0018    0.0000    0.0069   -0.0000
           5    0.0000    0.0180   -0.0018    0.0000   -0.0015   -0.0000   -0.0235    0.0001
           6    0.0382   -0.0000    0.0000   -0.0006   -0.0000   -0.0318   -0.0000   -0.0023
           7    0.0000    0.0080   -0.0432   -0.0000    0.0022   -0.0000   -0.0066   -0.0000
           8   -0.0000   -0.0076    0.0018   -0.0000    0.0037   -0.0000   -0.0002    0.0001
           9   -0.0177    0.0000    0.0000   -0.0001   -0.0000   -0.0149   -0.0000   -0.0003
          10   -0.0000   -0.0429   -0.0028   -0.0000    0.0197   -0.0000    0.0047    0.0000
          11    0.0000   -0.0065   -0.0130   -0.0000    0.0043   -0.0000    0.0113   -0.0001
          12    0.0005    0.0000    0.0000   -0.0004   -0.0000   -0.0084    0.0000    0.0084
          13   -0.0006    0.0405    0.0033   -0.0428   -0.0297    0.0006   -0.0006    0.0070
          14    0.0007    0.0077    0.0084   -0.0162   -0.0093   -0.0002   -0.0127   -0.0169
          15   -0.0068   -0.0068    0.0089   -0.0003    0.0060    0.0113   -0.0518   -0.0115
          16    0.0006    0.0405    0.0033    0.0428   -0.0297   -0.0006   -0.0006   -0.0070
          17   -0.0007    0.0077    0.0084    0.0163   -0.0094    0.0002   -0.0126    0.0170
          18   -0.0068    0.0068   -0.0089   -0.0003   -0.0060    0.0112    0.0518   -0.0119
          19   -0.0007    0.0068   -0.0005    0.0432    0.0416    0.0001    0.0041   -0.0018
          20    0.0022   -0.0066    0.0081    0.0166    0.0171   -0.0002   -0.0008    0.0041
          21   -0.0022    0.0137   -0.0124   -0.0000   -0.0031    0.0050    0.0210   -0.0145
          22   -0.0000   -0.0440   -0.0025    0.0000   -0.0453    0.0000   -0.0069    0.0001
          23    0.0000   -0.0024   -0.0147    0.0000   -0.0204   -0.0000    0.0104   -0.0002
          24    0.0016    0.0000    0.0000    0.0004    0.0000   -0.0033   -0.0000    0.0101
          25    0.0007    0.0068   -0.0005   -0.0432    0.0416   -0.0001    0.0041    0.0018
          26   -0.0022   -0.0066    0.0081   -0.0166    0.0171    0.0003   -0.0008   -0.0041
          27   -0.0022   -0.0137    0.0123   -0.0000    0.0031    0.0050   -0.0210   -0.0146
          28    0.0677    0.0180    0.0116    0.0009   -0.0096    0.0848   -0.0072   -0.0169
          29   -0.0975   -0.0014   -0.0265   -0.0004    0.0009    0.0025    0.0057    0.0064
          30    0.0224   -0.0013    0.0021    0.0002    0.0008   -0.0195   -0.0003    0.0004
          31   -0.0677    0.0180    0.0117   -0.0009   -0.0096   -0.0847   -0.0075    0.0173
          32    0.0974   -0.0014   -0.0265    0.0004    0.0009   -0.0026    0.0057   -0.0068
          33    0.0224    0.0013   -0.0021    0.0002   -0.0008   -0.0195    0.0003    0.0004
          34    0.0813   -0.0010    0.0818   -0.0010   -0.0145    0.1099    0.0383    0.0226
          35    0.0851    0.0123   -0.0279   -0.0017    0.0091   -0.1692   -0.0471   -0.0159
          36   -0.0533   -0.0006   -0.0037    0.0011    0.0003    0.0270    0.0011   -0.0029
          37   -0.0813   -0.0010    0.0819    0.0010   -0.0145   -0.1100    0.0381   -0.0233
          38   -0.0851    0.0123   -0.0279    0.0017    0.0092    0.1694   -0.0465    0.0166
          39   -0.0532    0.0006    0.0037    0.0011   -0.0003    0.0268   -0.0009   -0.0029
          40   -0.0000    0.0083   -0.0400   -0.0000    0.0017   -0.0000   -0.0066    0.0000
          41    0.0001   -0.0286    0.2440    0.0000   -0.0154    0.0001    0.0259    0.0000
          42    0.0539   -0.0000   -0.0000    0.0002    0.0000    0.0180    0.0000   -0.0017
          43    0.0491    0.0010    0.0841    0.0001   -0.0106    0.0262    0.0072   -0.0004
          44   -0.1270   -0.0053   -0.0604   -0.0004    0.0109   -0.0656   -0.0073    0.0009
          45    0.0495    0.0010   -0.0047    0.0002   -0.0000    0.0185   -0.0005   -0.0009
          46   -0.0490    0.0010    0.0841   -0.0001   -0.0106   -0.0262    0.0071    0.0003
          47    0.1269   -0.0054   -0.0606    0.0004    0.0109    0.0655   -0.0071   -0.0006
          48    0.0495   -0.0010    0.0047    0.0002    0.0000    0.0185    0.0006   -0.0009
          49   -0.0031   -0.1628   -0.0250    0.1880    0.0909    0.0057   -0.0089    0.0536
          50    0.0084   -0.0634   -0.0035    0.0657    0.0281   -0.0188    0.0764   -0.1526
          51   -0.0118   -0.0103    0.0099    0.0027    0.0106    0.0230   -0.1032    0.0695
          52   -0.0049   -0.0267   -0.0156   -0.1902   -0.1399    0.0107   -0.0567   -0.0297
          53    0.0119   -0.0272    0.0073   -0.0709   -0.0604   -0.0277    0.1224    0.0809
          54    0.0037    0.0100   -0.0102    0.0006   -0.0077   -0.0115    0.0994    0.0333
          55    0.0000    0.2044    0.0380   -0.0000    0.1602   -0.0000    0.0018    0.0001
          56    0.0000    0.0919    0.0004   -0.0000    0.0573   -0.0000    0.0157   -0.0000
          57    0.0100   -0.0001    0.0000    0.0019   -0.0000   -0.0202   -0.0001    0.2684
          58    0.0049   -0.0267   -0.0156    0.1903   -0.1398   -0.0106   -0.0565    0.0294
          59   -0.0119   -0.0272    0.0073    0.0710   -0.0603    0.0274    0.1217   -0.0802
          60    0.0037   -0.0099    0.0101    0.0005    0.0077   -0.0113   -0.0992    0.0329
          61    0.0031   -0.1628   -0.0250   -0.1880    0.0908   -0.0058   -0.0091   -0.0540
          62   -0.0084   -0.0633   -0.0036   -0.0658    0.0281    0.0187    0.0769    0.1536
          63   -0.0118    0.0104   -0.0099    0.0028   -0.0107    0.0228    0.1033    0.0694


   Root No.      25        26        27        28        29        30        31        32

                25 A      26 A      27 A      28 A      29 A      30 A      31 A      32 A   

                1109.2    1125.3    1128.8    1132.9    1138.8    1153.1    1155.2    1224.2
  
           1   -0.0095    0.0267    0.0002   -0.0002    0.0382    0.0000   -0.0003    0.0000
           2    0.0164   -0.0215   -0.0001   -0.0002    0.0603   -0.0001    0.0013   -0.0000
           3   -0.0000   -0.0000    0.0240    0.0453    0.0003    0.0022    0.0001   -0.0002
           4    0.0059   -0.0206   -0.0002    0.0003   -0.0502    0.0001   -0.0014    0.0000
           5   -0.0093   -0.0190   -0.0001    0.0001   -0.0120   -0.0005    0.0076   -0.0000
           6    0.0000   -0.0001    0.0145   -0.0300   -0.0002    0.0007    0.0000   -0.0072
           7    0.0029   -0.0128   -0.0001    0.0001   -0.0115   -0.0001    0.0011   -0.0000
           8   -0.0208    0.0324    0.0002    0.0001   -0.0431    0.0000   -0.0011    0.0000
           9   -0.0000    0.0002   -0.0420   -0.0186   -0.0001   -0.0010   -0.0001    0.0005
          10   -0.0006   -0.0020   -0.0000   -0.0001    0.0116    0.0001   -0.0008   -0.0000
          11    0.0205    0.0097    0.0001   -0.0000    0.0029    0.0001   -0.0017    0.0000
          12   -0.0000   -0.0000    0.0004    0.0060    0.0000   -0.0114   -0.0008    0.0187
          13    0.0014    0.0012   -0.0002    0.0003   -0.0050    0.0015    0.0020    0.0071
          14   -0.0079   -0.0061    0.0003   -0.0004    0.0003   -0.0046   -0.0031   -0.0194
          15   -0.0222   -0.0182    0.0001   -0.0036    0.0053    0.0002    0.0188    0.0125
          16    0.0013    0.0012    0.0002   -0.0002   -0.0050   -0.0017    0.0018   -0.0071
          17   -0.0078   -0.0061   -0.0004    0.0004    0.0003    0.0050   -0.0024    0.0194
          18    0.0221    0.0182    0.0003   -0.0037   -0.0053    0.0027   -0.0185    0.0125
          19   -0.0012   -0.0016   -0.0001    0.0008    0.0016    0.0002   -0.0010    0.0045
          20    0.0048    0.0042    0.0003   -0.0024   -0.0017   -0.0003    0.0017   -0.0114
          21   -0.0105   -0.0082    0.0001   -0.0029    0.0030    0.0031    0.0122   -0.0090
          22   -0.0119   -0.0081   -0.0000    0.0000    0.0019   -0.0001    0.0021   -0.0000
          23    0.0302    0.0213    0.0001   -0.0000   -0.0062    0.0003   -0.0052   -0.0000
          24    0.0000    0.0000   -0.0008    0.0020    0.0000    0.0020    0.0001   -0.0259
          25   -0.0012   -0.0016    0.0001   -0.0008    0.0015   -0.0001   -0.0010   -0.0045
          26    0.0047    0.0042   -0.0003    0.0024   -0.0017    0.0000    0.0018    0.0114
          27    0.0104    0.0082    0.0002   -0.0029   -0.0030    0.0046   -0.0117   -0.0090
          28   -0.0575    0.1299   -0.1810    0.1173    0.0872    0.0049    0.0017    0.0043
          29    0.0525   -0.0934    0.1788    0.0231    0.0622    0.0014   -0.0001   -0.0021
          30   -0.0024    0.0012   -0.0112   -0.0189   -0.0200   -0.0007    0.0002   -0.0008
          31   -0.0572    0.1279    0.1828   -0.1187    0.0856   -0.0052    0.0011   -0.0043
          32    0.0524   -0.0920   -0.1800   -0.0232    0.0621   -0.0012   -0.0002    0.0021
          33    0.0024   -0.0012   -0.0112   -0.0191    0.0198   -0.0006   -0.0003   -0.0008
          34    0.0629   -0.0427    0.0216   -0.1735   -0.0797   -0.0155   -0.0128    0.0189
          35   -0.0559   -0.0198    0.0107    0.0520   -0.0039    0.0134    0.0074   -0.0362
          36    0.0038    0.0088    0.0001    0.0135    0.0084   -0.0010    0.0040    0.0081
          37    0.0627   -0.0418   -0.0224    0.1745   -0.0774    0.0170   -0.0108   -0.0190
          38   -0.0559   -0.0200   -0.0110   -0.0518   -0.0046   -0.0141    0.0057    0.0362
          39   -0.0037   -0.0087   -0.0001    0.0137   -0.0083   -0.0004   -0.0041    0.0080
          40    0.0027   -0.0116   -0.0001    0.0000   -0.0068   -0.0001    0.0012   -0.0000
          41   -0.0218    0.0684    0.0005   -0.0005    0.0667    0.0003   -0.0038    0.0000
          42   -0.0000   -0.0001    0.0326    0.0302    0.0002    0.0019    0.0001   -0.0019
          43    0.0145   -0.0088    0.0459    0.0272    0.0895    0.0012    0.0009   -0.0000
          44   -0.0341    0.0428   -0.1316   -0.0732   -0.1083   -0.0036   -0.0016    0.0014
          45    0.0035   -0.0067    0.0265    0.0210    0.0050    0.0011    0.0004   -0.0006
          46    0.0145   -0.0085   -0.0459   -0.0280    0.0892   -0.0013    0.0008    0.0000
          47   -0.0341    0.0419    0.1320    0.0740   -0.1076    0.0037   -0.0012   -0.0014
          48   -0.0035    0.0065    0.0266    0.0210   -0.0048    0.0011   -0.0002   -0.0006
          49    0.0428    0.0279   -0.0034    0.0011    0.0071   -0.0277    0.0557   -0.0554
          50   -0.1028   -0.0649    0.0118   -0.0085    0.0240    0.0782   -0.1610    0.1547
          51    0.0352    0.0172   -0.0066    0.0005   -0.0044   -0.0516    0.1167   -0.0928
          52    0.0186    0.0091   -0.0003   -0.0079   -0.0012    0.0762   -0.0593   -0.0419
          53   -0.0495   -0.0241    0.0002    0.0215    0.0014   -0.2019    0.1586    0.1096
          54   -0.0449   -0.0267   -0.0001    0.0117    0.0057   -0.1198    0.1107    0.0650
          55   -0.0115   -0.0084   -0.0001   -0.0000    0.0027   -0.0001    0.0016   -0.0000
          56    0.0325    0.0229    0.0001    0.0000   -0.0065    0.0004   -0.0042    0.0001
          57    0.0012    0.0005   -0.0101    0.0146   -0.0001    0.2719    0.0189    0.1251
          58    0.0186    0.0090    0.0004    0.0079   -0.0010   -0.0675   -0.0692    0.0421
          59   -0.0494   -0.0238   -0.0004   -0.0213    0.0010    0.1785    0.1847   -0.1100
          60    0.0449    0.0266    0.0002    0.0116   -0.0054   -0.1041   -0.1264    0.0655
          61    0.0425    0.0279    0.0037   -0.0012    0.0071    0.0194    0.0593    0.0553
          62   -0.1019   -0.0647   -0.0125    0.0082    0.0241   -0.0543   -0.1710   -0.1546
          63   -0.0346   -0.0170   -0.0068    0.0003    0.0044   -0.0344   -0.1227   -0.0924


   Root No.      33        34        35        36        37        38        39        40

                33 A      34 A      35 A      36 A      37 A      38 A      39 A      40 A   

                1238.2    1327.6    1343.8    1378.6    1406.2    1408.6    1411.2    1416.9
  
           1   -0.0307    0.0435    0.0001    0.0015    0.0441   -0.0001    0.0111    0.0093
           2    0.0140   -0.0284   -0.0000    0.0159    0.0082    0.0000    0.0002   -0.0180
           3    0.0000   -0.0000   -0.0006   -0.0000    0.0000   -0.0014   -0.0000   -0.0000
           4   -0.0346   -0.0155   -0.0000    0.0268   -0.0398    0.0000   -0.0060   -0.0065
           5    0.0151   -0.0042    0.0000   -0.0082    0.0154    0.0000    0.0037   -0.0337
           6   -0.0000    0.0000   -0.0073    0.0000   -0.0000   -0.0000   -0.0000    0.0000
           7    0.0113   -0.0064   -0.0000   -0.0070   -0.0002    0.0003   -0.0362   -0.0141
           8    0.0037   -0.0061   -0.0000    0.0225    0.0056    0.0000   -0.0055    0.0314
           9   -0.0000   -0.0000    0.0008    0.0000    0.0000   -0.0412   -0.0002   -0.0000
          10    0.0070   -0.0124   -0.0000   -0.0089    0.0097   -0.0000    0.0015   -0.0064
          11    0.0185    0.0384    0.0001    0.0171   -0.0152    0.0000   -0.0028    0.0136
          12   -0.0000   -0.0001    0.1026   -0.0000    0.0000    0.0002    0.0000   -0.0000
          13   -0.0053   -0.0072   -0.0312   -0.0034    0.0034   -0.0002    0.0006   -0.0037
          14    0.0065    0.0178    0.0817    0.0105   -0.0112    0.0005   -0.0020    0.0099
          15    0.0116    0.0049   -0.0460   -0.0021    0.0044    0.0000    0.0008   -0.0048
          16   -0.0053   -0.0073    0.0311   -0.0034    0.0034    0.0002    0.0006   -0.0037
          17    0.0064    0.0178   -0.0817    0.0105   -0.0112   -0.0005   -0.0020    0.0099
          18   -0.0116   -0.0049   -0.0459    0.0021   -0.0044    0.0000   -0.0008    0.0048
          19    0.0027    0.0035    0.0326    0.0011   -0.0006    0.0003   -0.0001    0.0004
          20   -0.0064   -0.0093   -0.0857   -0.0026    0.0013   -0.0007    0.0002   -0.0012
          21    0.0126    0.0264   -0.0522    0.0139   -0.0143   -0.0003   -0.0026    0.0127
          22    0.0053    0.0087    0.0000    0.0045   -0.0046    0.0000   -0.0008    0.0038
          23   -0.0142   -0.0229    0.0001   -0.0118    0.0120   -0.0000    0.0022   -0.0101
          24    0.0000   -0.0000    0.0999    0.0000   -0.0000    0.0003   -0.0000    0.0000
          25    0.0027    0.0035   -0.0326    0.0011   -0.0006   -0.0003   -0.0001    0.0004
          26   -0.0064   -0.0093    0.0856   -0.0026    0.0013    0.0007    0.0002   -0.0012
          27   -0.0126   -0.0264   -0.0523   -0.0139    0.0143   -0.0003    0.0026   -0.0127
          28    0.0989   -0.0717   -0.0029   -0.0431   -0.1207    0.0020   -0.0422    0.0023
          29   -0.0722    0.0570    0.0008   -0.0877   -0.0944   -0.0009   -0.0280    0.0395
          30   -0.0020   -0.0042    0.0001    0.0730    0.1161   -0.0026    0.0345   -0.0288
          31    0.0989   -0.0717    0.0027   -0.0431   -0.1207   -0.0014   -0.0422    0.0024
          32   -0.0722    0.0570   -0.0007   -0.0877   -0.0944    0.0010   -0.0280    0.0395
          33    0.0020    0.0043    0.0001   -0.0730   -0.1161   -0.0023   -0.0345    0.0288
          34    0.1583    0.0223    0.0441   -0.0778    0.0747    0.0062    0.0100    0.0600
          35   -0.0994   -0.0730   -0.0677   -0.0544    0.0256   -0.0046    0.0015    0.1234
          36   -0.0107    0.0239    0.0192    0.0642   -0.0477   -0.0005   -0.0044   -0.1097
          37    0.1583    0.0223   -0.0439   -0.0777    0.0747   -0.0064    0.0100    0.0600
          38   -0.0993   -0.0730    0.0675   -0.0545    0.0257    0.0044    0.0016    0.1235
          39    0.0108   -0.0238    0.0190   -0.0641    0.0477   -0.0008    0.0044    0.1095
          40    0.0138   -0.0114   -0.0000   -0.0013   -0.0030    0.0000   -0.0117   -0.0071
          41   -0.0816    0.1099    0.0002   -0.0824    0.0416    0.0013   -0.1587   -0.0825
          42   -0.0000    0.0000   -0.0074   -0.0000   -0.0001    0.4151    0.0023    0.0002
          43    0.0048   -0.0314    0.0028    0.0361   -0.0262   -0.2495    0.2138    0.0461
          44   -0.0099    0.0580    0.0008   -0.0840   -0.0343    0.0478    0.1322   -0.0768
          45    0.0082   -0.0255   -0.0014    0.0425    0.0320    0.0495   -0.1678    0.0370
          46    0.0048   -0.0313   -0.0029    0.0361   -0.0263    0.2460    0.2165    0.0463
          47   -0.0098    0.0580   -0.0006   -0.0840   -0.0342   -0.0497    0.1316   -0.0768
          48   -0.0082    0.0255   -0.0013   -0.0425   -0.0320    0.0471    0.1685   -0.0369
          49    0.0027    0.0036   -0.0164    0.0012   -0.0025   -0.0002   -0.0007    0.0068
          50    0.0198   -0.0055    0.0440   -0.0079    0.0133    0.0004    0.0027   -0.0203
          51    0.0084    0.0229   -0.0219    0.0102   -0.0111    0.0001   -0.0022    0.0138
          52    0.0053    0.0159    0.0067    0.0089   -0.0092   -0.0001   -0.0017    0.0083
          53   -0.0119   -0.0413   -0.0185   -0.0243    0.0254    0.0003    0.0046   -0.0218
          54    0.0112    0.0111   -0.0107    0.0029   -0.0019    0.0004   -0.0003    0.0021
          55    0.0059    0.0099   -0.0000    0.0050   -0.0051    0.0000   -0.0009    0.0046
          56   -0.0161   -0.0266    0.0000   -0.0139    0.0142   -0.0000    0.0026   -0.0119
          57    0.0000    0.0000    0.0469    0.0000   -0.0000    0.0009    0.0000    0.0000
          58    0.0053    0.0159   -0.0066    0.0089   -0.0092    0.0001   -0.0017    0.0083
          59   -0.0119   -0.0413    0.0181   -0.0243    0.0254   -0.0003    0.0046   -0.0218
          60   -0.0112   -0.0110   -0.0106   -0.0029    0.0018    0.0004    0.0003   -0.0021
          61    0.0027    0.0036    0.0164    0.0012   -0.0025    0.0002   -0.0007    0.0068
          62    0.0197   -0.0056   -0.0440   -0.0080    0.0133   -0.0004    0.0027   -0.0203
          63   -0.0085   -0.0228   -0.0218   -0.0102    0.0111    0.0001    0.0022   -0.0138


   Root No.      41        42        43        44        45        46        47        48

                41 A      42 A      43 A      44 A      45 A      46 A      47 A      48 A   

                1436.6    1541.8    1606.4    1781.5    1799.1    2943.6    2960.1    3024.8
  
           1   -0.0180   -0.0000   -0.0026    0.0000   -0.0012   -0.0000    0.0000   -0.0019
           2    0.0384    0.0000    0.0031   -0.0000   -0.0002   -0.0000    0.0000   -0.0038
           3   -0.0000    0.0008   -0.0000   -0.0005    0.0000    0.0200   -0.0393   -0.0000
           4    0.0146   -0.0000    0.0202   -0.0000   -0.0063   -0.0000   -0.0000    0.0201
           5   -0.0347   -0.0000   -0.0447    0.0000    0.0177   -0.0000   -0.0000    0.0301
           6    0.0000   -0.0113    0.0000    0.0082   -0.0000   -0.0402   -0.0199   -0.0000
           7    0.0144    0.0000   -0.0011    0.0000    0.0006    0.0000   -0.0000    0.0005
           8   -0.0364   -0.0000   -0.0003    0.0000   -0.0002    0.0000    0.0000    0.0002
           9    0.0000   -0.0002   -0.0000    0.0001   -0.0000   -0.0013    0.0020    0.0000
          10   -0.0053    0.0000   -0.0408    0.0000    0.0332   -0.0000    0.0000   -0.0001
          11    0.0122    0.0000    0.1038   -0.0001   -0.0856   -0.0000   -0.0000    0.0003
          12   -0.0000    0.0778   -0.0001   -0.1400    0.0001   -0.0002   -0.0002   -0.0000
          13   -0.0039    0.0207    0.0069    0.0142   -0.0452    0.0001    0.0001   -0.0002
          14    0.0108   -0.0546   -0.0176   -0.0373    0.1190   -0.0003   -0.0003    0.0006
          15   -0.0067   -0.0266    0.0510    0.0738   -0.0452    0.0001   -0.0001    0.0014
          16   -0.0039   -0.0207    0.0069   -0.0142   -0.0452   -0.0001   -0.0001   -0.0002
          17    0.0108    0.0546   -0.0177    0.0374    0.1191    0.0003    0.0003    0.0006
          18    0.0067   -0.0267   -0.0510    0.0738    0.0450    0.0001   -0.0001   -0.0014
          19   -0.0000   -0.0215    0.0214    0.0130    0.0415   -0.0000   -0.0000   -0.0000
          20    0.0001    0.0567   -0.0563   -0.0344   -0.1094    0.0000    0.0000    0.0001
          21    0.0136   -0.0247   -0.0489   -0.0752   -0.0365   -0.0000    0.0000   -0.0002
          22    0.0042    0.0000   -0.0194   -0.0000   -0.0179   -0.0000    0.0000   -0.0000
          23   -0.0112    0.0000    0.0512    0.0001    0.0471    0.0000    0.0000    0.0000
          24    0.0000    0.0744   -0.0000    0.1420   -0.0000    0.0001    0.0000   -0.0000
          25   -0.0000    0.0215    0.0214   -0.0130    0.0415    0.0000    0.0000   -0.0000
          26    0.0000   -0.0567   -0.0562    0.0343   -0.1094   -0.0000   -0.0000    0.0001
          27   -0.0136   -0.0247    0.0490   -0.0752    0.0366   -0.0000    0.0000    0.0002
          28    0.0062    0.0022    0.0086   -0.0000   -0.0017   -0.0505    0.1050    0.0155
          29   -0.0876    0.0004   -0.0064   -0.0009    0.0013   -0.0783    0.1528    0.0242
          30    0.0598   -0.0006    0.0009   -0.0000   -0.0005   -0.1215    0.2356    0.0430
          31    0.0063   -0.0022    0.0086    0.0000   -0.0017    0.0505   -0.1051    0.0155
          32   -0.0876   -0.0004   -0.0064    0.0009    0.0013    0.0783   -0.1529    0.0241
          33   -0.0598   -0.0006   -0.0009   -0.0000    0.0005   -0.1215    0.2358   -0.0429
          34    0.0014    0.0123   -0.0069   -0.0145    0.0005    0.1061    0.0556   -0.1262
          35    0.0843   -0.0355    0.0086    0.0339   -0.0019    0.1545    0.0763   -0.1815
          36   -0.0601    0.0058   -0.0180   -0.0092    0.0068    0.2404    0.1178   -0.3345
          37    0.0014   -0.0123   -0.0069    0.0145    0.0005   -0.1061   -0.0556   -0.1262
          38    0.0844    0.0355    0.0087   -0.0339   -0.0019   -0.1542   -0.0761   -0.1810
          39    0.0600    0.0058    0.0179   -0.0092   -0.0068    0.2406    0.1179    0.3348
          40    0.0075   -0.0000   -0.0014    0.0000    0.0007   -0.0000   -0.0000   -0.0018
          41    0.0792    0.0000    0.0024   -0.0000   -0.0013    0.0000   -0.0000   -0.0005
          42   -0.0000    0.0011   -0.0000   -0.0003   -0.0000   -0.0003    0.0004    0.0000
          43   -0.0415   -0.0009   -0.0001    0.0004   -0.0002    0.0032   -0.0065   -0.0004
          44    0.0740    0.0002    0.0003   -0.0001    0.0001    0.0041   -0.0057   -0.0021
          45   -0.0394    0.0000   -0.0008    0.0001    0.0001    0.0080   -0.0134   -0.0031
          46   -0.0416    0.0008   -0.0001   -0.0004   -0.0002   -0.0032    0.0065   -0.0004
          47    0.0740   -0.0001    0.0003    0.0001    0.0001   -0.0041    0.0057   -0.0021
          48    0.0394    0.0000    0.0008    0.0001   -0.0001    0.0080   -0.0134    0.0031
          49    0.0066   -0.0100   -0.0357   -0.0173    0.0138   -0.0001   -0.0000    0.0028
          50   -0.0205    0.0289    0.0927    0.0450   -0.0360   -0.0006    0.0003   -0.0071
          51    0.0125   -0.0877   -0.0074    0.0310    0.0547    0.0009    0.0018   -0.0148
          52    0.0091    0.0091   -0.0305   -0.0181   -0.0077   -0.0000   -0.0000    0.0005
          53   -0.0242   -0.0242    0.0802    0.0478    0.0206   -0.0000    0.0000   -0.0014
          54    0.0009   -0.0855    0.0322   -0.0346    0.0491    0.0000   -0.0001    0.0028
          55    0.0050    0.0000   -0.0229    0.0000   -0.0209   -0.0000   -0.0000    0.0003
          56   -0.0132   -0.0001    0.0606   -0.0000    0.0559   -0.0000    0.0000   -0.0007
          57    0.0000   -0.1280   -0.0001   -0.0574   -0.0000   -0.0000    0.0000    0.0000
          58    0.0091   -0.0091   -0.0306    0.0181   -0.0077    0.0000    0.0000    0.0005
          59   -0.0242    0.0242    0.0802   -0.0479    0.0206    0.0000   -0.0000   -0.0014
          60   -0.0009   -0.0856   -0.0324   -0.0345   -0.0492    0.0000   -0.0001   -0.0028
          61    0.0066    0.0100   -0.0357    0.0173    0.0138    0.0001    0.0000    0.0028
          62   -0.0205   -0.0290    0.0927   -0.0449   -0.0361    0.0006   -0.0003   -0.0071
          63   -0.0125   -0.0877    0.0072    0.0310   -0.0546    0.0009    0.0018    0.0148


   Root No.      49        50        51        52        53        54        55        56

                49 A      50 A      51 A      52 A      53 A      54 A      55 A      56 A   

                3037.0    3052.4    3052.9    3061.2    3068.5    3078.2    3080.1    3084.6
  
           1   -0.0195   -0.0000    0.0001   -0.0001   -0.0000    0.0000    0.0000   -0.0018
           2   -0.0291   -0.0000    0.0002   -0.0001   -0.0000    0.0000    0.0000   -0.0026
           3   -0.0000    0.0001    0.0000   -0.0000    0.0001   -0.0030    0.0000   -0.0000
           4   -0.0031    0.0000   -0.0004    0.0003   -0.0000    0.0000   -0.0001    0.0002
           5   -0.0038    0.0000   -0.0009    0.0007    0.0000    0.0000   -0.0003   -0.0003
           6   -0.0000   -0.0001   -0.0000   -0.0000   -0.0000    0.0002    0.0000    0.0000
           7    0.0041    0.0000   -0.0000    0.0000    0.0000    0.0001    0.0000   -0.0440
           8    0.0011    0.0000   -0.0000    0.0000    0.0000    0.0000    0.0000   -0.0183
           9    0.0000   -0.0001   -0.0000   -0.0000   -0.0001   -0.0544    0.0000   -0.0001
          10   -0.0002    0.0000   -0.0002    0.0004    0.0000    0.0000   -0.0003   -0.0000
          11    0.0001   -0.0000    0.0006   -0.0010    0.0000   -0.0000    0.0008    0.0000
          12   -0.0000    0.0016    0.0000    0.0000    0.0012   -0.0000    0.0000   -0.0000
          13   -0.0001    0.0046   -0.0030    0.0030    0.0028   -0.0000   -0.0019   -0.0000
          14    0.0001   -0.0120    0.0079   -0.0079   -0.0075    0.0000    0.0049    0.0000
          15    0.0001   -0.0230    0.0156   -0.0143   -0.0118    0.0001    0.0075    0.0000
          16   -0.0001   -0.0043   -0.0032    0.0030   -0.0028    0.0000   -0.0019   -0.0000
          17    0.0001    0.0114    0.0085   -0.0079    0.0075   -0.0000    0.0049    0.0000
          18   -0.0001   -0.0218   -0.0168    0.0142   -0.0118    0.0001   -0.0075   -0.0000
          19   -0.0000    0.0022   -0.0025   -0.0022   -0.0048    0.0000    0.0034    0.0000
          20    0.0000   -0.0057    0.0065    0.0059    0.0128   -0.0000   -0.0089   -0.0000
          21   -0.0001    0.0124   -0.0127   -0.0079   -0.0225    0.0000    0.0179    0.0000
          22   -0.0000   -0.0001    0.0039    0.0092   -0.0000    0.0000    0.0092    0.0000
          23    0.0000    0.0004   -0.0103   -0.0242    0.0001   -0.0000   -0.0244   -0.0000
          24    0.0000   -0.0007   -0.0000    0.0000    0.0021   -0.0000    0.0000    0.0000
          25   -0.0000   -0.0020   -0.0026   -0.0022    0.0049   -0.0000    0.0034    0.0000
          26    0.0000    0.0052    0.0068    0.0059   -0.0128    0.0000   -0.0089   -0.0000
          27    0.0001    0.0114    0.0133    0.0078   -0.0225    0.0000   -0.0180   -0.0000
          28    0.1201   -0.0003   -0.0007    0.0004   -0.0001    0.0066   -0.0000    0.0086
          29    0.1765   -0.0005   -0.0012    0.0008   -0.0003    0.0146   -0.0001    0.0164
          30    0.3240   -0.0009   -0.0022    0.0014   -0.0004    0.0171   -0.0001    0.0275
          31    0.1200    0.0003   -0.0007    0.0004    0.0001   -0.0067   -0.0000    0.0085
          32    0.1764    0.0006   -0.0012    0.0008    0.0003   -0.0147   -0.0001    0.0163
          33   -0.3238   -0.0010    0.0022   -0.0014   -0.0004    0.0172    0.0001   -0.0274
          34    0.0163   -0.0006    0.0032   -0.0023   -0.0002    0.0003    0.0007    0.0008
          35    0.0220   -0.0004    0.0040   -0.0027   -0.0001   -0.0013    0.0006   -0.0001
          36    0.0418   -0.0017    0.0086   -0.0062   -0.0007   -0.0015    0.0018    0.0007
          37    0.0162    0.0003    0.0032   -0.0023    0.0002   -0.0003    0.0007    0.0008
          38    0.0219    0.0001    0.0040   -0.0027    0.0001    0.0013    0.0006   -0.0001
          39   -0.0418   -0.0010   -0.0087    0.0062   -0.0007   -0.0015   -0.0018   -0.0007
          40   -0.0395   -0.0000    0.0002   -0.0001   -0.0000   -0.0009   -0.0001    0.4216
          41   -0.0037   -0.0000    0.0000   -0.0000   -0.0000   -0.0000    0.0000    0.0027
          42   -0.0000   -0.0000   -0.0000   -0.0000   -0.0000   -0.0285    0.0000    0.0000
          43   -0.0043    0.0001    0.0000   -0.0000    0.0002    0.1400    0.0000    0.0518
          44   -0.0078    0.0002    0.0001   -0.0001    0.0003    0.2227    0.0000    0.1089
          45   -0.0148    0.0003    0.0001   -0.0001    0.0005    0.3395   -0.0000    0.1957
          46   -0.0043   -0.0001    0.0000   -0.0000   -0.0002   -0.1403    0.0000    0.0514
          47   -0.0078   -0.0002    0.0001   -0.0001   -0.0003   -0.2232    0.0000    0.1083
          48    0.0148    0.0003   -0.0001    0.0001    0.0005    0.3401    0.0000   -0.1946
          49    0.0001   -0.0534    0.0352   -0.0331   -0.0282    0.0002    0.0170   -0.0000
          50   -0.0008    0.1408   -0.0928    0.0872    0.0743   -0.0004   -0.0448    0.0000
          51   -0.0015    0.2646   -0.1750    0.1611    0.1351   -0.0007   -0.0811   -0.0000
          52    0.0001   -0.0285    0.0300    0.0212    0.0529   -0.0001   -0.0383   -0.0000
          53   -0.0004    0.0749   -0.0789   -0.0556   -0.1391    0.0002    0.1009    0.0000
          54    0.0007   -0.1429    0.1475    0.0977    0.2571   -0.0004   -0.1897   -0.0001
          55    0.0001    0.0016   -0.0455   -0.1068    0.0005   -0.0000   -0.1002   -0.0000
          56   -0.0002   -0.0043    0.1201    0.2820   -0.0012    0.0000    0.2645    0.0001
          57    0.0000    0.0019   -0.0000   -0.0002   -0.0034    0.0000   -0.0002   -0.0000
          58    0.0001    0.0262    0.0314    0.0210   -0.0529    0.0001   -0.0385   -0.0000
          59   -0.0004   -0.0691   -0.0827   -0.0552    0.1395   -0.0002    0.1016    0.0000
          60   -0.0007   -0.1316   -0.1544   -0.0967    0.2569   -0.0004    0.1905    0.0001
          61    0.0001    0.0507    0.0380   -0.0329    0.0282   -0.0002    0.0171   -0.0000
          62   -0.0008   -0.1333   -0.1000    0.0867   -0.0741    0.0004   -0.0449    0.0000
          63    0.0015    0.2515    0.1892   -0.1607    0.1353   -0.0007    0.0815    0.0000


   Root No.      57

                57 A   

                3181.3
  
           1   -0.0004
           2    0.0003
           3   -0.0000
           4   -0.0000
           5   -0.0002
           6    0.0000
           7   -0.0107
           8    0.0222
           9   -0.0000
          10    0.0000
          11    0.0000
          12   -0.0000
          13   -0.0000
          14   -0.0000
          15    0.0000
          16   -0.0000
          17   -0.0000
          18   -0.0000
          19    0.0000
          20   -0.0000
          21    0.0000
          22    0.0000
          23   -0.0000
          24   -0.0000
          25    0.0000
          26   -0.0000
          27   -0.0000
          28    0.0006
          29    0.0023
          30    0.0025
          31    0.0005
          32    0.0023
          33   -0.0025
          34    0.0004
          35    0.0013
          36    0.0019
          37    0.0004
          38    0.0013
          39   -0.0019
          40    0.3360
          41    0.0194
          42    0.0001
          43   -0.1026
          44   -0.1457
          45   -0.2574
          46   -0.1028
          47   -0.1459
          48    0.2574
          49    0.0000
          50   -0.0000
          51   -0.0000
          52   -0.0000
          53    0.0000
          54   -0.0000
          55   -0.0000
          56    0.0000
          57   -0.0000
          58   -0.0000
          59    0.0000
          60    0.0000
          61    0.0000
          62   -0.0000
          63    0.0000


           MASS-WEIGHTED COORDINATE ANALYSIS (NORMAL COORDINATES)


   Root No.       1         2         3         4         5         6         7         8

                 1 A       2 A       3 A       4 A       5 A       6 A       7 A       8 A   

                   6.9      71.2     106.0     189.3     270.5     338.9     355.3     365.2
  
           1    0.0002    0.0003   -0.1783    0.0001    0.3741   -0.0820    0.0001   -0.0001
           2   -0.0001   -0.0002    0.1907    0.0000   -0.0089   -0.4429    0.0002   -0.0004
           3   -0.3101   -0.4319   -0.0008   -0.2540    0.0003   -0.0001   -0.0282    0.1220
           4    0.0002    0.0003   -0.1862    0.0001    0.3562   -0.1102    0.0001   -0.0002
           5    0.0003    0.0001   -0.1496    0.0001    0.1605   -0.1235   -0.0000    0.0002
           6    0.3465   -0.1750    0.0001    0.0596   -0.0001   -0.0003   -0.1024    0.4520
           7   -0.0003   -0.0002    0.2043   -0.0000   -0.0579    0.5290   -0.0002    0.0006
           8   -0.0003   -0.0004    0.3491   -0.0000   -0.2116   -0.2370    0.0001   -0.0002
           9   -0.2567    0.4874    0.0002    0.0574    0.0000    0.0001    0.0024   -0.0057
          10    0.0001    0.0002   -0.2924   -0.0001   -0.0398   -0.0038   -0.0000    0.0000
          11    0.0002    0.0001   -0.1913    0.0000    0.0157    0.0277    0.0000   -0.0002
          12    0.2040   -0.0915    0.0001    0.0525   -0.0001    0.0005    0.0801   -0.3518
          13    0.2616   -0.0097   -0.1962    0.0066   -0.3466   -0.0955    0.3666    0.0381
          14   -0.0431    0.0906   -0.1616   -0.0242   -0.0651    0.1334    0.1059    0.1640
          15    0.1242   -0.0394   -0.0027    0.0388    0.0134    0.0591    0.0614   -0.2719
          16   -0.2615    0.0099   -0.1962   -0.0067   -0.3465   -0.0958   -0.3666   -0.0383
          17    0.0434   -0.0903   -0.1616    0.0242   -0.0652    0.1336   -0.1059   -0.1641
          18    0.1241   -0.0392    0.0030    0.0388   -0.0134   -0.0585    0.0616   -0.2718
          19    0.2621   -0.0086    0.1779    0.0081   -0.1242   -0.0855   -0.3448   -0.1401
          20   -0.0449    0.0915   -0.0207   -0.0250    0.0237    0.1573   -0.1737    0.1367
          21   -0.0332    0.0656   -0.0017    0.0083    0.0091    0.0406   -0.0058    0.0238
          22   -0.0001   -0.0004    0.4225    0.0001    0.2763   -0.0561    0.0000   -0.0001
          23   -0.0001    0.0000    0.0689    0.0000    0.1904    0.2387   -0.0001    0.0004
          24   -0.1096    0.1172    0.0000   -0.0065   -0.0001   -0.0003   -0.0286    0.1293
          25   -0.2622    0.0082    0.1778   -0.0081   -0.1242   -0.0855    0.3448    0.1399
          26    0.0448   -0.0914   -0.0208    0.0249    0.0236    0.1577    0.1736   -0.1363
          27   -0.0333    0.0657    0.0018    0.0082   -0.0091   -0.0409   -0.0060    0.0239
          28    0.1120    0.0444   -0.0925    0.0402    0.1488   -0.0382   -0.0121    0.0616
          29    0.0531    0.1798    0.0839    0.0701   -0.0321   -0.1165   -0.0011    0.0066
          30   -0.1712   -0.2570   -0.0003   -0.1344   -0.0006    0.0002   -0.0026    0.0050
[...]
 FREQUENCY          1416.94         C  2 -- H 12         +16.5% ( 47.5%)      4.8%
 TRANSITION DIPOLE   0.0438         C  2 -- H 13         +16.5% ( 47.5%)      4.8%
 TRAVEL (Ang.)       0.3508         C  3 -- H 16          +8.9% ( 34.9%)      3.1%
 REDUCED MASS        0.3868         C  3 -- H 15          +8.9% ( 34.9%)      3.1%
 EFFECTIVE MASS      4.3007
 FORCE CONSTANT      0.4576

 VIBRATION         41   41A           ATOM PAIR      ENERGY CONTRIBUTION    RADIAL
 FREQUENCY          1436.59         C  1 -- C  3         +14.0% ( 49.4%)     99.9%
 TRANSITION DIPOLE   0.1140         C  1 -- C  2         +10.9% ( 43.7%)     16.6%
 TRAVEL (Ang.)       0.2562         C  1 -- H 11          +9.1% ( 39.8%)      2.8%
 REDUCED MASS        0.7150         C  1 -- H 10          +9.1% ( 39.8%)      2.8%
 EFFECTIVE MASS      6.2008
 FORCE CONSTANT      0.8695

 VIBRATION         42   42A           ATOM PAIR      ENERGY CONTRIBUTION    RADIAL
 FREQUENCY          1541.77         C  5 -- C  7         +12.7% ( 52.4%)    100.0%
 TRANSITION DIPOLE   0.4904         C  6 -- C  9         +12.7% ( 52.4%)    100.0%
 TRAVEL (Ang.)       0.1690         C  4 -- C  5         +11.5% ( 49.9%)     25.9%
 REDUCED MASS        1.5314         C  4 -- C  6         +11.5% ( 49.9%)     25.8%
 EFFECTIVE MASS     10.8785         C  8 -- C  9         +10.8% ( 48.3%)     22.7%
 FORCE CONSTANT      2.1448         C  7 -- C  8         +10.8% ( 48.3%)     22.7%

 VIBRATION         43   43A           ATOM PAIR      ENERGY CONTRIBUTION    RADIAL
 FREQUENCY          1606.43         C  4 -- C  6         +15.0% ( 57.0%)     61.4%
 TRANSITION DIPOLE   0.5068         C  4 -- C  5         +15.0% ( 57.0%)     61.4%
 TRAVEL (Ang.)       0.1443         C  2 -- C  4         +14.4% ( 55.8%)     99.9%
 REDUCED MASS        2.0145         C  8 -- C  9          +9.4% ( 45.0%)     64.0%
 EFFECTIVE MASS     11.0674
 FORCE CONSTANT      3.0630

 VIBRATION         44   44A           ATOM PAIR      ENERGY CONTRIBUTION    RADIAL
 FREQUENCY          1781.50         C  8 -- C  9         +15.2% ( 53.7%)     87.8%
 TRANSITION DIPOLE   0.0452         C  7 -- C  8         +15.2% ( 53.7%)     87.8%
 TRAVEL (Ang.)       0.1244         C  4 -- C  5         +14.9% ( 53.1%)     88.7%
 REDUCED MASS        2.4474         C  4 -- C  6         +14.9% ( 53.1%)     88.7%
 EFFECTIVE MASS     11.8426
 FORCE CONSTANT      4.5765

 VIBRATION         45   45A           ATOM PAIR      ENERGY CONTRIBUTION    RADIAL
 FREQUENCY          1799.14         C  5 -- C  7         +16.4% ( 56.2%)     99.9%
 TRANSITION DIPOLE   0.2498         C  6 -- C  9         +16.4% ( 56.2%)     99.9%
 TRAVEL (Ang.)       0.1283         C  4 -- C  6         +12.0% ( 48.0%)     44.5%
 REDUCED MASS        2.2757         C  4 -- C  5         +12.0% ( 48.0%)     44.5%
 EFFECTIVE MASS     11.8317
 FORCE CONSTANT      4.3401

 VIBRATION         46   46A           ATOM PAIR      ENERGY CONTRIBUTION    RADIAL
 FREQUENCY          2943.58         C  2 -- H 12         +38.9% ( 64.9%)     96.4%
 TRANSITION DIPOLE   0.0288         C  2 -- H 13         +38.9% ( 64.9%)     96.4%
 TRAVEL (Ang.)       0.2551         C  1 -- H 11          +9.9% ( 32.7%)     96.3%
 REDUCED MASS        0.3519         C  1 -- H 10          +9.9% ( 32.7%)     96.2%
 EFFECTIVE MASS      1.5565
 FORCE CONSTANT      1.7964

 VIBRATION         47   47A           ATOM PAIR      ENERGY CONTRIBUTION    RADIAL
 FREQUENCY          2960.15         C  1 -- H 11         +39.0% ( 64.7%)     96.6%
 TRANSITION DIPOLE   0.0347         C  1 -- H 10         +39.0% ( 64.7%)     96.6%
 TRAVEL (Ang.)       0.2553         C  2 -- H 12          +9.8% ( 32.5%)     96.8%
 REDUCED MASS        0.3494         C  2 -- H 13          +9.8% ( 32.4%)     96.8%
 EFFECTIVE MASS      1.5348
 FORCE CONSTANT      1.8041

 VIBRATION         48   48A           ATOM PAIR      ENERGY CONTRIBUTION    RADIAL
 FREQUENCY          3024.83         C  2 -- H 13         +48.5% ( 68.6%)     97.7%
 TRANSITION DIPOLE   0.0494         C  2 -- H 12         +48.5% ( 68.6%)     97.7%
 TRAVEL (Ang.)       0.2185         C  1 -- H 10          +0.8% (  8.8%)     97.9%
 REDUCED MASS        0.4669         C  1 -- H 11          +0.8% (  8.8%)     97.9%
 EFFECTIVE MASS      1.2748
 FORCE CONSTANT      2.5167

 VIBRATION         49   49A           ATOM PAIR      ENERGY CONTRIBUTION    RADIAL
 FREQUENCY          3036.97         C  1 -- H 10         +48.2% ( 68.4%)     97.7%
 TRANSITION DIPOLE   0.0250         C  1 -- H 11         +48.2% ( 68.4%)     97.7%
 TRAVEL (Ang.)       0.2193         C  2 -- H 12          +0.8% (  8.8%)     97.1%
 REDUCED MASS        0.4616         C  2 -- H 13          +0.8% (  8.8%)     97.1%
 EFFECTIVE MASS      1.2736
 FORCE CONSTANT      2.5082

 VIBRATION         50   50A           ATOM PAIR      ENERGY CONTRIBUTION    RADIAL
 FREQUENCY          3052.41         C  5 -- H 17         +39.8% ( 64.2%)    100.0%
 TRANSITION DIPOLE   0.1749         C  6 -- H 21         +35.9% ( 60.9%)    100.0%
 TRAVEL (Ang.)       0.2684         C  7 -- H 18         +11.6% ( 34.5%)     99.9%
 REDUCED MASS        0.3067         C  9 -- H 20          +9.8% ( 31.8%)     99.9%
 EFFECTIVE MASS      1.4918
 FORCE CONSTANT      1.6838

 VIBRATION         51   51A           ATOM PAIR      ENERGY CONTRIBUTION    RADIAL
 FREQUENCY          3052.93         C  6 -- H 21         +27.8% ( 53.6%)    100.0%
 TRANSITION DIPOLE   0.1985         C  5 -- H 17         +23.9% ( 49.7%)    100.0%
 TRAVEL (Ang.)       0.3285         C  9 -- H 20         +18.7% ( 43.9%)    100.0%
 REDUCED MASS        0.2046         C  7 -- H 18         +17.0% ( 42.0%)    100.0%
 EFFECTIVE MASS      1.5054
 FORCE CONSTANT      1.1237

 VIBRATION         52   52A           ATOM PAIR      ENERGY CONTRIBUTION    RADIAL
 FREQUENCY          3061.20         C  8 -- H 19         +47.4% ( 70.0%)    100.0%
 TRANSITION DIPOLE   0.2904         C  5 -- H 17         +18.0% ( 43.2%)    100.0%
 TRAVEL (Ang.)       0.2735         C  6 -- H 21         +17.9% ( 43.0%)    100.0%
 REDUCED MASS        0.2945         C  7 -- H 18          +6.8% ( 26.6%)     99.7%
 EFFECTIVE MASS      1.5140
 FORCE CONSTANT      1.6260

 VIBRATION         53   53A           ATOM PAIR      ENERGY CONTRIBUTION    RADIAL
 FREQUENCY          3068.51         C  9 -- H 20         +37.8% ( 62.4%)    100.0%
 TRANSITION DIPOLE   0.5592         C  7 -- H 18         +37.8% ( 62.4%)    100.0%
 TRAVEL (Ang.)       0.2679         C  6 -- H 21         +10.5% ( 32.9%)     99.9%
 REDUCED MASS        0.3061         C  5 -- H 17         +10.5% ( 32.9%)     99.9%
 EFFECTIVE MASS      1.5413
 FORCE CONSTANT      1.6983

 VIBRATION         54   54A           ATOM PAIR      ENERGY CONTRIBUTION    RADIAL
 FREQUENCY          3078.24         C  3 -- H 16         +49.0% ( 72.2%)     97.1%
 TRANSITION DIPOLE   0.0086         C  3 -- H 15         +48.8% ( 72.1%)     97.0%
 TRAVEL (Ang.)       0.2081         C  1 -- C  3          +1.0% ( 10.2%)      0.0%
 REDUCED MASS        0.5060         C  3 -- H 14          +0.9% ( 10.0%)      0.0%
 EFFECTIVE MASS      1.5010
 FORCE CONSTANT      2.8250

 VIBRATION         55   55A           ATOM PAIR      ENERGY CONTRIBUTION    RADIAL
 FREQUENCY          3080.08         C  8 -- H 19         +39.8% ( 64.0%)    100.0%
 TRANSITION DIPOLE   0.3425         C  9 -- H 20         +23.9% ( 49.6%)    100.0%
 TRAVEL (Ang.)       0.2812         C  7 -- H 18         +23.7% ( 49.4%)    100.0%
 REDUCED MASS        0.2769         C  6 -- H 21          +4.5% ( 21.4%)     99.9%
 EFFECTIVE MASS      1.5999
 FORCE CONSTANT      1.5475

 VIBRATION         56   56A           ATOM PAIR      ENERGY CONTRIBUTION    RADIAL
 FREQUENCY          3084.57         C  3 -- H 14         +61.5% ( 80.9%)     98.7%
 TRANSITION DIPOLE   0.0098         C  3 -- H 15         +18.5% ( 44.4%)     85.9%
 TRAVEL (Ang.)       0.2147         C  3 -- H 16         +18.3% ( 44.2%)     85.7%
 REDUCED MASS        0.4741         C  1 -- C  3          +1.0% ( 10.3%)      0.0%
 EFFECTIVE MASS      1.5027
 FORCE CONSTANT      2.6575

 VIBRATION         57   57A           ATOM PAIR      ENERGY CONTRIBUTION    RADIAL
 FREQUENCY          3181.27         C  3 -- H 14         +36.8% ( 58.4%)     97.6%
 TRANSITION DIPOLE   0.0226         C  3 -- H 16         +31.5% ( 54.0%)     96.8%
 TRAVEL (Ang.)       0.2540         C  3 -- H 15         +31.4% ( 53.9%)     96.8%
 REDUCED MASS        0.3285         C  1 -- C  3          +0.3% (  5.1%)     99.5%
 EFFECTIVE MASS      1.1369
 FORCE CONSTANT      1.9590

      SYMMETRY NUMBER FOR POINT-GROUP C1  =  1


          SYSTEM IS A GROUND STATE



 InChI=1S/C9H12/c1-2-6-9-7-4-3-5-8-9/h3-5,7-8H,2,6H2,1H3


          MOLECULE IS NOT LINEAR

          THERE ARE 57 GENUINE VIBRATIONS IN THIS SYSTEM
          THIS THERMODYNAMICS CALCULATION IS LIMITED TO
          MOLECULES WHICH HAVE NO INTERNAL ROTATIONS




                    CALCULATED THERMODYNAMIC PROPERTIES
                                          *
   TEMP. (K)   PARTITION FUNCTION   H.O.F.    ENTHALPY  HEAT CAPACITY ENTROPY
                                   KCAL/MOL   CAL/MOLE    CAL/K/MOL  CAL/K/MOL


 298.00  VIB.     0.1715D+04                  3811.2100    27.1262    27.5879
         ROT.     0.5031D+06                   888.2803     2.9808    29.0701
         INT.     0.8627D+09                  4699.4903    30.1070    56.6580
         TRA.     0.1274D+28                  1480.4672     4.9680    40.2640
         TOT.                        3.858    6179.9575    35.0750    96.9221

 200.00  VIB.     0.2122D+03                  1689.5654    16.5394    19.0948
         ROT.     0.2766D+06                   596.1613     2.9808    27.8814
         INT.     0.5872D+08                  2285.7267    19.5202    46.9762
         TRA.     0.7004D+27                   993.6021     4.9680    38.2829
         TOT.                        0.957    3279.3288    24.4882    85.2591

 210.00  VIB.     0.2625D+03                  1859.7536    17.5037    19.9249
         ROT.     0.2976D+06                   625.9693     2.9808    28.0269
         INT.     0.7812D+08                  2485.7230    20.4845    47.9518
         TRA.     0.7536D+27                  1043.2822     4.9680    38.5253
         TOT.                        1.207    3529.0052    25.4525    86.4771

 220.00  VIB.     0.3245D+03                  2039.7468    18.5002    20.7621
         ROT.     0.3192D+06                   655.7774     2.9808    28.1655
         INT.     0.1036D+09                  2695.5242    21.4810    48.9276
         TRA.     0.8081D+27                  1092.9623     4.9680    38.7564
         TOT.                        1.466    3788.4866    26.4490    87.6840

 230.00  VIB.     0.4011D+03                  2229.8602    19.5275    21.6070
         ROT.     0.3412D+06                   685.5855     2.9808    28.2980
         INT.     0.1369D+09                  2915.4457    22.5083    49.9050
         TRA.     0.8638D+27                  1142.6424     4.9680    38.9773
         TOT.                        1.736    4058.0881    27.4763    88.8823

 240.00  VIB.     0.4960D+03                  2430.3921    20.5835    22.4603
         ROT.     0.3637D+06                   715.3935     2.9808    28.4249
         INT.     0.1804D+09                  3145.7857    23.5643    50.8852
         TRA.     0.9207D+27                  1192.3226     4.9680    39.1887
         TOT.                        2.016    4338.1082    28.5323    90.0739

 250.00  VIB.     0.6134D+03                  2641.6176    21.6657    23.3224
         ROT.     0.3866D+06                   745.2016     2.9808    28.5466
         INT.     0.2372D+09                  3386.8192    24.6465    51.8690
         TRA.     0.9789D+27                  1242.0027     4.9680    39.3915
         TOT.                        2.307    4628.8219    29.6145    91.2605

 260.00  VIB.     0.7590D+03                  2863.7842    22.7712    24.1936
         ROT.     0.4100D+06                   775.0097     2.9808    28.6635
         INT.     0.3112D+09                  3638.7939    25.7520    52.8571
         TRA.     0.1038D+28                  1291.6828     4.9680    39.5863
         TOT.                        2.608    4930.4766    30.7200    92.4435

 270.00  VIB.     0.9396D+03                  3097.1084    23.8967    25.0741
         ROT.     0.4339D+06                   804.8177     2.9808    28.7760
         INT.     0.4077D+09                  3901.9261    26.8775    53.8500
         TRA.     0.1099D+28                  1341.3629     4.9680    39.7738
         TOT.                        2.921    5243.2890    31.8455    93.6239

 280.00  VIB.     0.1164D+04                  3341.7740    25.0389    25.9637
         ROT.     0.4583D+06                   834.6258     2.9808    28.8844
         INT.     0.5334D+09                  4176.3998    28.0197    54.8481
         TRA.     0.1160D+28                  1391.0430     4.9680    39.9545
         TOT.                        3.245    5567.4428    32.9877    94.8026

 290.00  VIB.     0.1443D+04                  3597.9311    26.1944    26.8625
         ROT.     0.4830D+06                   864.4339     2.9808    28.9890
         INT.     0.6970D+09                  4462.3650    29.1752    55.8515
         TRA.     0.1223D+28                  1440.7231     4.9680    40.1289
         TOT.                        3.581    5903.0881    34.1433    95.9803

 300.00  VIB.     0.1790D+04                  3865.6961    27.3599    27.7702
         ROT.     0.5082D+06                   894.2419     2.9808    29.0900
         INT.     0.9099D+09                  4759.9380    30.3407    56.8602
         TRA.     0.1287D+28                  1490.4032     4.9680    40.2973
         TOT.                        3.928    6250.3412    35.3087    97.1575

 310.00  VIB.     0.2223D+04                  4145.1522    28.5322    28.6864
         ROT.     0.5338D+06                   924.0500     2.9808    29.1878
         INT.     0.1187D+10                  5069.2022    31.5130    57.8742
         TRA.     0.1352D+28                  1540.0833     4.9680    40.4602
         TOT.                        4.287    6609.2855    36.4810    98.3343

 320.00  VIB.     0.2764D+04                  4436.3513    29.7080    29.6108
         ROT.     0.5599D+06                   953.8580     2.9808    29.2824
         INT.     0.1547D+10                  5390.2093    32.6888    58.8932
         TRA.     0.1418D+28                  1589.7634     4.9680    40.6179
         TOT.                        4.658    6979.9727    37.6568    99.5111

 330.00  VIB.     0.3439D+04                  4739.3151    30.8846    30.5430
         ROT.     0.5863D+06                   983.6661     2.9808    29.3741
         INT.     0.2016D+10                  5722.9812    33.8654    59.9171
         TRA.     0.1485D+28                  1639.4435     4.9680    40.7708
         TOT.                        5.040    7362.4247    38.8335   100.6879

 340.00  VIB.     0.4283D+04                  5054.0376    32.0593    31.4824
         ROT.     0.6132D+06                  1013.4742     2.9808    29.4631
         INT.     0.2626D+10                  6067.5118    35.0401    60.9456
         TRA.     0.1553D+28                  1689.1236     4.9680    40.9191
         TOT.                        5.434    7756.6354    40.0081   101.8646

 350.00  VIB.     0.5339D+04                  5380.4870    33.2296    32.4286
         ROT.     0.6404D+06                  1043.2822     2.9808    29.5495
         INT.     0.3419D+10                  6423.7692    36.2104    61.9782
         TRA.     0.1622D+28                  1738.8037     4.9680    41.0631
         TOT.                        5.840    8162.5730    41.1784   103.0413

 360.00  VIB.     0.6663D+04                  5718.6082    34.3933    33.3811
         ROT.     0.6681D+06                  1073.0903     2.9808    29.6335
         INT.     0.4452D+10                  6791.6985    37.3741    63.0146
         TRA.     0.1692D+28                  1788.4838     4.9680    41.2031
         TOT.                        6.258    8580.1824    42.3422   104.2176

 370.00  VIB.     0.8324D+04                  6068.3253    35.5485    34.3392
         ROT.     0.6961D+06                  1102.8984     2.9808    29.7152
         INT.     0.5794D+10                  7171.2236    38.5293    64.0544
         TRA.     0.1762D+28                  1838.1639     4.9680    41.3392
         TOT.                        6.687    9009.3876    43.4973   105.3936

 380.00  VIB.     0.1041D+05                  6429.5435    36.6933    35.3024
         ROT.     0.7245D+06                  1132.7064     2.9808    29.7947
         INT.     0.7542D+10                  7562.2499    39.6741    65.0971
         TRA.     0.1834D+28                  1887.8440     4.9680    41.4717
         TOT.                        7.128    9450.0940    44.6421   106.5688

 390.00  VIB.     0.1303D+05                  6802.1520    37.8263    36.2702
         ROT.     0.7533D+06                  1162.5145     2.9808    29.8721
         INT.     0.9816D+10                  7964.6665    40.8071    66.1423
         TRA.     0.1907D+28                  1937.5242     4.9680    41.6007
         TOT.                        7.580    9902.1907    45.7751   107.7431

 400.00  VIB.     0.1633D+05                  7186.0258    38.9462    37.2421
         ROT.     0.7825D+06                  1192.3226     2.9808    29.9476
         INT.     0.1278D+11                  8378.3484    41.9270    67.1896
         TRA.     0.1981D+28                  1987.2043     4.9680    41.7265
         TOT.                        8.043   10365.5526    46.8950   108.9161

   *: NOTE: HEATS OF FORMATION ARE RELATIVE TO THE
            ELEMENTS IN THEIR STANDARD STATE AT 298K
              (=  Standard Enthalpy of Formation).

            Hvib:  Zero-point energy is not included.
                   frequencies of less than zero cm-1 are not included.
            Hrot = (3/2)RT
            Htra = (3/2)RT + pV = (5/2)RT

            Heat capacity is Cp, not Cv

          For more information, see: HTTP://OpenMOPAC.net/Manual/thermochemistry.html


           FORCE CONSTANT IN CARTESIAN COORDINATES (Millidynes/A)

    ATOM   CHEMICAL       X               Y               Z
   NUMBER   SYMBOL  FORCE CONSTANT  FORCE CONSTANT  FORCE CONSTANT

      1       C        8.070351        8.548659        8.193966
      2       C        7.908707        8.999304        8.430812
      3       C        8.447162        8.257686        8.195331
      4       C        4.174303       11.023260       12.172440
      5       C        3.587642       11.086009       11.941209
      6       C        3.587551       11.085638       11.941351
      7       C        3.553624       10.867905       12.125129
      8       C        3.554078       10.910436       12.030923
      9       C        3.553620       10.867748       12.125520
     10       H        1.177343        1.713897        3.507657
     11       H        1.177315        1.714007        3.507480
     12       H        1.183320        1.711126        3.483770
     13       H        1.183245        1.706413        3.488509
     14       H        5.398793        0.727549        0.667224
     15       H        1.130280        1.864418        3.779735
     16       H        1.131191        1.865243        3.777943
     17       H        0.536137        1.668131        4.054051
     18       H        0.541645        1.663898        4.066831
     19       H        0.957872        4.563929        0.758690
     20       H        0.541670        1.669315        4.062238
     21       H        0.536031        1.662824        4.059466

 **********************
 *                    *
 * JOB ENDED NORMALLY *
 *                    *
 **********************



 TOTAL JOB TIME:             2.08 SECONDS

 == MOPAC DONE ==
